Membrane in water
40155
    1TCq1    O1    1   0.432   2.303  11.855 -0.1769 -0.2750  0.3988
    1TCq1    C1    2   0.320   2.295  11.775 -0.5633  0.3583 -0.6128
    1TCq1    O2    3   0.207   2.331  11.805  0.0822  0.3999  0.5440
    1TCq1    C2    4   0.345   2.171  11.696  0.3371 -0.6002  0.1123
    1TCq1    C3    5   0.463   2.165  11.626  0.1937  0.0707  0.2472
    1TCq1    C4    6   0.489   2.042  11.574 -0.1341 -0.0436 -0.1503
    1TCq1    C5    7   0.397   1.940  11.586  0.3304 -0.6722  0.7524
    1TCq1    C6    8   0.271   1.957  11.645 -0.0013 -0.2634 -0.1928
    1TCq1    C7    9   0.248   2.074  11.706  0.0605 -0.0906 -0.0092
    1TCq1    C8   10   0.162   1.860  11.626 -1.3629 -0.3909 -0.0335
    1TCq1    O4   11   0.059   1.884  11.686 -0.2111  0.4713 -0.4919
    1TCq1    C9   12   0.615   2.023  11.510  0.7891  0.4076 -0.2853
    1TCq1    O5   13   0.641   1.909  11.457 -0.2927 -0.3404  0.0970
    1TCq1    O6   14   0.696   2.118  11.503  0.1210 -0.0592 -0.7452
    1TCq1    H1   15   0.505   2.243  11.826 -1.2189 -0.7094 -1.3562
    1TCq1    H2   16   0.531   2.249  11.612  0.8941 -0.0854  2.7135
    1TCq1    H3   17   0.429   1.842  11.551  1.8952 -0.2253  0.9308
    1TCq1    H4   18   0.163   2.095  11.770  1.7756  0.5437  2.0789
    2MPD2     C   19   4.710   1.388  11.520 -0.0795  0.5757  0.7287
    2MPD2    C1   20   4.640   1.492  11.569 -0.0935 -0.4493  0.0173
    2MPD2    C2   21   4.710   1.609  11.589  0.4412  0.6032 -0.3197
    2MPD2    C3   22   0.113   1.622  11.546  0.0028  0.2946  0.1673
    2MPD2    C4   23   0.178   1.512  11.488 -0.0027  0.3657  0.4785
    2MPD2    C5   24   0.117   1.393  11.480 -0.3810  0.0429 -0.1219
    2MPD2     H   25   4.655   1.700  11.613  0.9527  0.7247  0.4144
    2MPD2    H1   26   0.277   1.521  11.445  0.4923 -0.6434  1.4341
    2MPD2    H2   27   4.666   1.290  11.501  4.3753 -1.4717  1.0003
    2MPD2    H3   28   0.163   1.315  11.421 -1.5068 -0.6193 -0.1277
    2MPD2     N   29   0.194   1.744  11.557 -0.1509 -0.0269  0.4633
    2MPD2    H5   30   0.284   1.745  11.511  0.1292 -0.3374  1.0043
    2MPD2    N1   31   4.504   1.483  11.605  0.2058 -0.4183  0.0044
    2MPD2    H7   32   4.464   1.556  11.663  1.2448  0.9160 -0.9770
    3TCq1    O1   33   4.362   2.260  10.499  0.3591  0.2319  0.3525
    3TCq1    C1   34   4.425   2.315  10.613  0.0209 -0.4856 -0.6299
    3TCq1    O2   35   4.538   2.363  10.613  0.2772  0.2413 -0.8599
    3TCq1    C2   36   4.311   2.391  10.670 -0.3915  0.2077  0.2099
    3TCq1    C3   37   4.300   2.531  10.655  0.3934  0.0300 -0.1350
    3TCq1    C4   38   4.187   2.590  10.700 -0.6209 -0.2276 -0.4250
    3TCq1    C5   39   4.075   2.517  10.724 -0.2284 -0.0551 -0.1385
    3TCq1    C6   40   4.087   2.385  10.734 -1.5818  0.3041 -0.2850
    3TCq1    C7   41   4.204   2.319  10.705 -0.2997 -0.3378  0.7257
    3TCq1    C8   42   3.983   2.308  10.807 -0.0856  0.4024  0.3622
    3TCq1    O4   43   3.971   2.189  10.784 -0.2016  0.0278  0.0051
    3TCq1    C9   44   4.183   2.738  10.686  0.7802 -0.2665  0.1233
    3TCq1    O5   45   4.099   2.798  10.754  0.5970 -0.4284  0.5929
    3TCq1    O6   46   4.258   2.792  10.606  0.4035 -0.3470 -0.1556
    3TCq1    H1   47   4.264   2.258  10.509  0.1830  3.3909 -0.8544
    3TCq1    H2   48   4.383   2.581  10.607  0.2622  2.6713  2.4078
    3TCq1    H3   49   3.988   2.577  10.749 -1.8559 -1.9989 -1.1632
    3TCq1    H4   50   4.215   2.212  10.714 -0.5195 -0.3767  0.5236
    4MPD2     C   51   3.626   2.257  11.179  0.1482 -0.5470 -0.0217
    4MPD2    C1   52   3.642   2.395  11.150  0.5629  0.1196 -0.2391
    4MPD2    C2   53   3.741   2.432  11.059 -0.1286 -0.4222  0.5341
    4MPD2    C3   54   3.819   2.340  10.990 -0.2775 -0.5795  0.3840
    4MPD2    C4   55   3.800   2.210  11.029  0.4428  0.2196 -1.0173
    4MPD2    C5   56   3.710   2.169  11.122 -0.5184 -0.2899 -0.2641
    4MPD2     H   57   3.750   2.537  11.031  1.0495 -0.6686 -0.0358
    4MPD2    H1   58   3.862   2.134  10.983 -2.0438 -2.3724 -0.0642
    4MPD2    H2   59   3.561   2.215  11.255  0.9254 -0.9890  0.3931
    4MPD2    H3   60   3.710   2.063  11.143  0.2106 -0.3102 -0.3604
    4MPD2     N   61   3.918   2.386  10.899 -0.1866  0.2804 -0.0628
    4MPD2    H5   62   3.945   2.483  10.908  2.2068 -0.5592  1.9077
    4MPD2    N1   63   3.566   2.496  11.214 -0.0390  0.5039  0.0975
    4MPD2    H7   64   3.589   2.591  11.188 -1.4976  0.6881 -0.5141
    5TCq1    O1   65   0.677   4.322  10.201  0.0179 -0.0471 -0.2893
    5TCq1    C1   66   0.597   4.406  10.130 -0.1416  0.1293 -0.7214
    5TCq1    O2   67   0.640   4.509  10.081 -0.4703  0.0713  0.0672
    5TCq1    C2   68   0.454   4.381  10.174 -0.4450 -0.2608  0.0220
    5TCq1    C3   69   0.386   4.489  10.214 -0.0990 -0.1507  0.0402
    5TCq1    C4   70   0.263   4.473  10.277 -0.4033 -0.2206 -0.1470
    5TCq1    C5   71   0.214   4.347  10.310 -0.2600  0.6269  0.0741
    5TCq1    C6   72   0.291   4.242  10.266  0.8575 -0.3011  0.0302
    5TCq1    C7   73   0.409   4.256  10.200  0.0460 -0.8163  0.8948
    5TCq1    C8   74   0.230   4.115  10.266 -0.0396  0.7653  0.1437
    5TCq1    O4   75   0.281   4.019  10.318  0.6019 -0.0595 -0.7296
    5TCq1    C9   76   0.198   4.585  10.341 -0.9549  0.4376 -0.1482
    5TCq1    O5   77   0.250   4.699  10.322 -0.2094  0.0801  0.5355
    5TCq1    O6   78   0.134   4.563  10.450 -0.0170  0.0668  0.3431
    5TCq1    H1   79   0.621   4.257  10.249 -1.0204  0.5503 -0.6929
    5TCq1    H2   80   0.419   4.590  10.193 -0.5167  0.5074  2.5177
    5TCq1    H3   81   0.123   4.333  10.367 -0.4942 -1.2218 -0.7439
    5TCq1    H4   82   0.454   4.167  10.157  0.2186  0.2695 -1.1476
    6MPD2     C   83   4.603   4.072  10.156  0.3101  0.4438  0.3437
    6MPD2    C1   84   4.721   4.037  10.219  0.6781  0.7945  0.1154
    6MPD2    C2   85   4.720   3.921  10.294 -0.5667 -0.1276  0.8595
    6MPD2    C3   86   4.617   3.835  10.303 -0.4293  0.5083 -0.3396
    6MPD2    C4   87   4.496   3.875  10.236 -0.2439 -0.2499  1.3883
    6MPD2    C5   88   4.497   3.985  10.161 -0.1055 -0.5467  0.4019
    6MPD2     H   89   0.085   3.892  10.348 -0.3742  0.2024  0.7179
    6MPD2    H1   90   4.402   3.822  10.246 -1.1774  0.8120 -1.7181
    6MPD2    H2   91   4.601   4.161  10.094 -1.5510 -0.8585 -1.4281
    6MPD2    H3   92   4.404   4.010  10.111  0.1075  1.6242  1.0980
    6MPD2     N   93   4.634   3.720  10.381  0.2542  0.5871 -1.0409
    6MPD2    H5   94   4.712   3.718  10.445  0.6393 -2.2160 -1.5922
    6MPD2    N1   95   0.100   4.129  10.220 -0.0638  0.5564  0.5463
    6MPD2    H7   96   0.088   4.212  10.162 -0.6984 -1.2769 -1.9137
    7TCq1    O1   97   1.211   4.001  12.934 -0.3358 -0.0412  0.2452
    7TCq1    C1   98   1.236   4.103  13.017  0.5717  0.4754  0.4060
    7TCq1    O2   99   1.283   4.212  12.981 -0.3611 -0.4394  0.7048
    7TCq1    C2  100   1.219   4.065  13.155 -0.6651  0.0502  0.2371
    7TCq1    C3  101   1.224   4.171  13.241  0.1806 -0.2129 -0.0045
    7TCq1    C4  102   1.281   4.167  13.365 -0.3374  0.3158  0.2236
    7TCq1    C5  103   1.339   4.053  13.408 -0.3122  0.4498 -0.0103
    7TCq1    C6  104   1.350   3.948  13.316  0.6711 -0.3539 -0.5707
    7TCq1    C7  105   1.287   3.954  13.193  1.0242 -0.8880 -0.5197
    7TCq1    C8  106   1.436   3.838  13.350  0.1784  0.5254 -0.1500
    7TCq1    O4  107   1.418   3.730  13.295 -0.4140  0.3159  0.2547
    7TCq1    C9  108   1.272   4.279  13.450  0.2091 -0.2404 -1.0138
    7TCq1    O5  109   1.206   4.372  13.410 -0.6064 -0.2122  0.4289
    7TCq1    O6  110   1.356   4.271  13.542 -0.5662 -0.3499 -0.6608
    7TCq1    H1  111   1.155   3.934  12.979  0.9329 -0.3606  1.3151
    7TCq1    H2  112   1.182   4.264  13.205  0.6448  0.3678  0.9455
    7TCq1    H3  113   1.357   4.035  13.513  0.2308  0.6646 -0.0659
    7TCq1    H4  114   1.309   3.878  13.119  1.3378 -1.0718 -0.2353
    8MPD2     C  115   1.808   3.633  13.631 -0.0254 -0.3164 -0.5878
    8MPD2    C1  116   1.711   3.573  13.559  0.1129  0.1697  0.1710
    8MPD2    C2  117   1.617   3.648  13.493 -0.5946  0.4825  0.7851
    8MPD2    C3  118   1.620   3.781  13.501  0.5754 -0.8813 -0.1282
    8MPD2    C4  119   1.720   3.846  13.575 -0.1529  0.2709  0.4950
    8MPD2    C5  120   1.809   3.767  13.643 -0.2850  0.3969  0.1378
    8MPD2     H  121   1.551   3.595  13.426  1.3994  1.5243 -2.0118
    8MPD2    H1  122   1.721   3.954  13.580  2.5567  0.3572 -2.2537
    8MPD2    H2  123   1.885   3.577  13.683 -0.1914 -0.3251 -0.3516
    8MPD2    H3  124   1.880   3.805  13.716  2.6612 -1.5675 -1.6951
    8MPD2     N  125   1.531   3.870  13.444  0.5282  0.5113  0.1705
    8MPD2    H5  126   1.551   3.969  13.456 -1.6602  1.1902 -1.8781
    8MPD2    N1  127   1.741   3.440  13.531  0.3559  0.0255  0.5110
    8MPD2    H7  128   1.834   3.411  13.560  0.0155 -3.9000 -2.3600
    9TCq1    O1  129   0.415   1.991  11.221 -0.0338 -0.3381  0.0933
    9TCq1    C1  130   0.327   2.085  11.250  0.2939 -0.8074 -0.2150
    9TCq1    O2  131   0.225   2.084  11.320 -0.2119  0.0950  0.4643
    9TCq1    C2  132   0.389   2.212  11.212 -0.5391  0.2346 -0.3402
    9TCq1    C3  133   0.522   2.214  11.203  0.4527  0.4717  0.0909
    9TCq1    C4  134   0.570   2.330  11.157 -0.1882 -0.2300  0.6240
    9TCq1    C5  135   0.490   2.437  11.133  0.8274 -0.2847  0.4519
    9TCq1    C6  136   0.357   2.425  11.148 -0.7763 -0.2324  0.4579
    9TCq1    C7  137   0.297   2.314  11.191  0.3479 -0.2498  0.1653
    9TCq1    C8  138   0.273   2.534  11.113  0.2479 -0.6941  0.0421
    9TCq1    O4  139   0.314   2.635  11.057  0.5849 -0.2529 -0.1060
    9TCq1    C9  140   0.712   2.347  11.140  0.6602  0.4328 -0.1752
    9TCq1    O5  141   0.749   2.466  11.119 -0.0437  0.3837 -0.1172
    9TCq1    O6  142   0.781   2.254  11.187  0.2754  0.2349 -0.2474
    9TCq1    H1  143   0.491   2.025  11.169  0.8674 -2.9712 -0.3464
    9TCq1    H2  144   0.582   2.133  11.243  0.4073  1.4818  2.2511
    9TCq1    H3  145   0.532   2.526  11.088 -1.5150  0.8919  0.5936
    9TCq1    H4  146   0.192   2.294  11.175  0.1778 -1.2726  2.5143
   10MPD2     C  147   0.056   2.752  11.124  0.0802  0.2195  0.4165
   10MPD2    C1  148   0.049   2.621  11.171 -0.0703  0.1003  0.4451
   10MPD2    C2  149   4.670   2.597  11.253  0.5004 -0.2828  0.0282
   10MPD2    C3  150   4.586   2.694  11.301 -0.6566 -0.2473  0.7135
   10MPD2    C4  151   4.596   2.827  11.254  0.2759 -0.3475  0.6592
   10MPD2    C5  152   4.696   2.846  11.171  0.3946 -0.3836 -0.2762
   10MPD2     H  153   4.654   2.495  11.286 -2.6025  0.6123  1.3010
   10MPD2    H1  154   4.540   2.914  11.289 -1.0543 -0.8575 -0.2256
   10MPD2    H2  155   0.141   2.788  11.068 -1.4083  3.0684 -0.0022
   10MPD2    H3  156   4.705   2.947  11.134 -1.3777 -0.3740 -0.6864
   10MPD2     N  157   4.481   2.671  11.391  0.2167 -0.2436  0.0187
   10MPD2    H5  158   4.434   2.745  11.442  2.4344  0.3289  1.2032
   10MPD2    N1  159   0.148   2.519  11.158  0.2465  0.0593  0.4813
   10MPD2    H7  160   0.133   2.444  11.224 -0.6516  0.2596  0.5065
   11TCq1    O1  161   1.013   2.106  14.870  0.1644  0.3399 -0.7821
   11TCq1    C1  162   0.933   2.040  14.779  0.2513  0.0490  0.4896
   11TCq1    O2  163   0.881   1.931  14.793  0.3519  0.2607  0.2650
   11TCq1    C2  164   0.872   2.143  14.698  0.1600  0.1299 -0.8972
   11TCq1    C3  165   0.961   2.213  14.622 -0.4995  0.0509  0.4907
   11TCq1    C4  166   0.924   2.259  14.501  0.4417 -0.3691 -0.2881
   11TCq1    C5  167   0.800   2.221  14.444 -0.0411  0.0545  0.3259
   11TCq1    C6  168   0.710   2.158  14.522  0.1340 -0.5421  0.5020
   11TCq1    C7  169   0.748   2.110  14.647 -0.3263  0.9027 -0.4662
   11TCq1    C8  170   0.576   2.138  14.474  0.2280 -0.3576 -0.2850
   11TCq1    O4  171   0.492   2.117  14.559 -0.4098 -0.1938  0.6320
   11TCq1    C9  172   1.006   2.357  14.440 -0.2306 -0.3775 -0.3351
   11TCq1    O5  173   1.063   2.432  14.526  0.4627  0.2282  1.1435
   11TCq1    O6  174   0.948   2.390  14.333  0.1377  0.1813  0.6947
   11TCq1    H1  175   0.998   2.203  14.876  0.5865  0.2572  1.8190
   11TCq1    H2  176   1.058   2.243  14.659 -0.1645 -0.9048  0.3671
   11TCq1    H3  177   0.767   2.257  14.347  1.7869 -1.9158 -1.0351
   11TCq1    H4  178   0.682   2.048  14.707  3.7554 -2.3153  0.6361
   12MPD2     C  179   0.320   2.126  14.321 -0.0134 -0.2698  0.3693
   12MPD2    C1  180   0.444   2.078  14.275  0.1935 -0.1136 -0.4495
   12MPD2    C2  181   0.449   2.014  14.152 -0.4670  0.1037 -0.2488
   12MPD2    C3  182   0.332   1.988  14.077 -0.8772 -0.5635  0.0215
   12MPD2    C4  183   0.211   2.026  14.126  0.4650 -0.4452  0.0737
   12MPD2    C5  184   0.209   2.081  14.253 -0.2557 -0.3305  0.4466
   12MPD2     H  185   0.545   1.972  14.127  0.6111  0.5379  3.2544
   12MPD2    H1  186   0.119   2.015  14.069 -0.4044  0.8181  1.2385
   12MPD2    H2  187   0.305   2.178  14.416 -1.9270  2.7344 -1.5786
   12MPD2    H3  188   0.110   2.105  14.288 -0.3667 -2.0182  1.3057
   12MPD2     N  189   0.334   1.908  13.959 -0.4448  0.3375 -0.8463
   12MPD2    H5  190   0.243   1.874  13.931 -0.3859 -0.4073 -0.1167
   12MPD2    N1  191   0.567   2.115  14.340 -0.1258  0.0027 -0.0688
   12MPD2    H7  192   0.656   2.096  14.296  0.7672  0.4410  1.5658
   13TCq1    O1  193   0.094   1.769  11.104  0.0497  0.3431 -0.2063
   13TCq1    C1  194   0.077   1.767  10.966  0.5047  0.2421 -0.9316
   13TCq1    O2  195   0.170   1.753  10.886  0.2841 -0.3224 -0.4362
   13TCq1    C2  196   4.669   1.796  10.920 -0.2645  0.7386 -0.1072
   13TCq1    C3  197   4.649   1.886  10.817 -0.0283 -0.0360 -0.3041
   13TCq1    C4  198   4.520   1.912  10.787 -0.4669 -0.9648  0.3045
   13TCq1    C5  199   4.422   1.843  10.859  0.5503 -0.7542 -0.3563
   13TCq1    C6  200   4.447   1.749  10.950 -0.5918 -0.2651  0.2649
   13TCq1    C7  201   4.572   1.723  10.985  0.0578 -0.3462  0.2010
   13TCq1    C8  202   4.339   1.728  11.047  0.1010 -0.0481  0.7114
   13TCq1    O4  203   4.246   1.810  11.044  0.2424  0.5317  0.1901
   13TCq1    C9  204   4.488   1.984  10.667  0.2834  0.1901  0.1687
   13TCq1    O5  205   4.578   2.033  10.600  0.1659  0.3229  0.3084
   13TCq1    O6  206   4.374   1.975  10.621 -0.6296 -0.3614 -0.3532
   13TCq1    H1  207   0.025   1.808  11.163 -1.4724  1.5713 -2.8053
   13TCq1    H2  208   0.009   1.926  10.762  0.9934 -0.0118  1.2522
   13TCq1    H3  209   4.317   1.849  10.832  0.2658  2.1626  1.4693
   13TCq1    H4  210   4.589   1.648  11.062 -0.3986 -0.9915 -0.3318
   14MPD2     C  211   4.243   1.425  11.208 -0.2803 -0.3303  0.5063
   14MPD2    C1  212   4.229   1.556  11.180 -0.3258 -0.6209  0.2247
   14MPD2    C2  213   4.130   1.632  11.234  0.8451  0.6810  0.6417
   14MPD2    C3  214   4.027   1.576  11.310  0.6141  0.6283  0.7391
   14MPD2    C4  215   4.041   1.444  11.340  1.0966  0.2153  0.0643
   14MPD2    C5  216   4.150   1.366  11.293  0.2385 -0.0448  0.3322
   14MPD2     H  217   4.137   1.740  11.228 -1.4999  0.6240 -3.2181
   14MPD2    H1  218   3.992   1.389  11.420 -1.3970  2.5552  0.1401
   14MPD2    H2  219   4.323   1.371  11.159 -1.4064 -3.8320  2.4610
   14MPD2    H3  220   4.173   1.269  11.336  2.1712  1.0513  1.7478
   14MPD2     N  221   3.931   1.656  11.374  0.5511 -0.0492  0.9924
   14MPD2    H5  222   3.923   1.756  11.363 -2.8049 -0.3479  0.7361
   14MPD2    N1  223   4.333   1.603  11.097  0.8676  0.0603 -0.4933
   14MPD2    H7  224   4.394   1.527  11.069  1.3864  0.3361 -0.1123
   15TCq1    O1  225   0.955   2.187   1.979  0.1662 -0.3043  0.2333
   15TCq1    C1  226   0.879   2.184   2.090  0.6051 -0.0952  0.3947
   15TCq1    O2  227   0.869   2.281   2.163  0.2294 -0.1633  0.3152
   15TCq1    C2  228   0.793   2.063   2.093  0.0626  0.0306  0.1987
   15TCq1    C3  229   0.673   2.094   2.148  0.4542 -0.4099  0.3146
   15TCq1    C4  230   0.575   2.002   2.136  0.0251  0.1261  0.0234
   15TCq1    C5  231   0.597   1.882   2.072  0.0292  0.5785  0.3132
   15TCq1    C6  232   0.721   1.858   2.013 -0.2978 -0.1622 -0.2424
   15TCq1    C7  233   0.819   1.952   2.012 -0.1403 -0.0237 -0.3302
   15TCq1    C8  234   0.736   1.748   1.914  0.1255 -0.2015 -0.0943
   15TCq1    O4  235   0.852   1.726   1.883  0.4561 -0.2451 -0.3996
   15TCq1    C9  236   0.449   2.030   2.179  0.1911  0.0392  0.3124
   15TCq1    O5  237   0.357   1.948   2.149  0.3425 -0.0866 -0.3095
   15TCq1    O6  238   0.432   2.116   2.265  0.3360  0.0215  0.1495
   15TCq1    H1  239   0.956   2.106   1.922  0.7343 -0.0077 -0.1789
   15TCq1    H2  240   0.660   2.189   2.199  0.0629 -0.7494  0.8398
   15TCq1    H3  241   0.520   1.806   2.078  0.5467  0.2182  2.3438
   15TCq1    H4  242   0.918   1.934   1.971 -1.3429 -1.4714 -2.5661
   16MPD2     C  243   0.494   1.581   1.702  0.3424  0.1445  0.6295
   16MPD2    C1  244   0.617   1.608   1.755 -0.7144 -0.6649  0.1643
   16MPD2    C2  245   0.723   1.545   1.690 -1.1750  0.5446 -0.3830
   16MPD2    C3  246   0.707   1.468   1.574  0.4665 -0.2096  0.4871
   16MPD2    C4  247   0.585   1.451   1.523 -0.1152 -0.0641 -0.0138
   16MPD2    C5  248   0.476   1.513   1.582  0.3887  1.2243 -0.3049
   16MPD2     H  249   0.825   1.555   1.726 -2.0633  1.0226  1.9811
   16MPD2    H1  250   0.572   1.391   1.434 -2.7607  0.8016 -0.1972
   16MPD2    H2  251   0.408   1.629   1.747  1.0428  0.7625  1.3060
   16MPD2    H3  252   0.375   1.499   1.546  1.0658 -2.5370 -0.7718
   16MPD2     N  253   0.822   1.393   1.533  0.5999  0.7446  0.4651
   16MPD2    H5  254   0.903   1.407   1.592 -0.0813 -1.1548  1.8447
   16MPD2    N1  255   0.623   1.695   1.863 -0.3464  0.0772  0.5017
   16MPD2    H7  256   0.530   1.730   1.884 -1.1989 -2.3639  0.7990
   17TCq1    O1  257   4.016   1.391  10.692  0.2139 -0.1568  0.2034
   17TCq1    C1  258   4.117   1.313  10.739  0.0694  0.3456  0.2596
   17TCq1    O2  259   4.105   1.200  10.787 -0.3834  0.4250 -0.4523
   17TCq1    C2  260   4.236   1.394  10.740 -0.3769 -0.5132  0.7885
   17TCq1    C3  261   4.254   1.481  10.640  0.2941 -0.6250 -0.4470
   17TCq1    C4  262   4.375   1.539  10.628 -0.4284  0.0240  0.8960
   17TCq1    C5  263   4.482   1.508  10.708 -0.2455 -0.2283 -0.3805
   17TCq1    C6  264   4.456   1.411  10.804 -0.5170 -0.0540 -0.2509
   17TCq1    C7  265   4.333   1.357  10.828 -0.3423  0.3820 -0.1831
   17TCq1    C8  266   4.549   1.385  10.904  0.1811  0.3672  0.1634
   17TCq1    O4  267   4.510   1.389  11.021  0.2349 -0.5599 -0.1023
   17TCq1    C9  268   4.398   1.623  10.517  0.1077 -0.0872 -0.8677
   17TCq1    O5  269   4.517   1.657  10.485  0.1210  0.3188  0.3319
   17TCq1    O6  270   4.303   1.631  10.440 -0.5244 -0.4326 -0.6293
   17TCq1    H1  271   4.029   1.487  10.709 -2.0551  0.4598 -1.5123
   17TCq1    H2  272   4.167   1.506  10.580 -0.7171  1.6204  1.9413
   17TCq1    H3  273   4.578   1.557  10.697 -0.1565 -0.3222 -0.0350
   17TCq1    H4  274   4.315   1.275  10.897 -2.3572  0.8677 -0.1484
   18MPD2     C  275   0.077   1.444  11.041 -0.0016 -0.1841  0.4220
   18MPD2    C1  276   0.067   1.395  10.914  0.0376 -0.1045 -0.3670
   18MPD2    C2  277   0.179   1.374  10.840 -0.2302  0.4242  0.7068
   18MPD2    C3  278   0.300   1.402  10.897  0.8877  0.7281  0.0711
   18MPD2    C4  279   0.309   1.466  11.019  0.6965  0.5127 -0.2421
   18MPD2    C5  280   0.200   1.484  11.095  0.9449 -0.0400 -0.0282
   18MPD2     H  281   0.174   1.324  10.744  3.0800 -1.1387  1.3535
   18MPD2    H1  282   0.405   1.498  11.059  0.0407  1.3707  0.6629
   18MPD2    H2  283   4.716   1.458  11.108 -0.4902 -1.6199  0.0991
   18MPD2    H3  284   0.198   1.538  11.189  1.0405  0.3798 -0.2643
   18MPD2     N  285   0.423   1.381  10.829 -0.5442 -1.2788  0.7452
   18MPD2    H5  286   0.496   1.441  10.864 -1.6017  2.1825 -2.9504
   18MPD2    N1  287   4.671   1.380  10.848  0.8691  0.0930 -0.3390
   18MPD2    H7  288   4.663   1.370  10.747 -0.0375  0.7842 -0.3411
   19TMC2    C1  289   1.828   1.741  14.116  0.7245 -0.1342 -1.0143
   19TMC2    C2  290   1.874   1.778  13.991 -0.5045  0.3691 -0.4480
   19TMC2    C3  291   1.779   1.810  13.903 -0.1574 -0.3410 -0.7507
   19TMC2    C4  292   1.694   1.731  14.144  1.1529  0.5943  0.3466
   19TMC2    C5  293   1.604   1.758  14.049 -0.1760  0.8206 -0.5611
   19TMC2    C6  294   1.646   1.799  13.927  0.6184 -0.2212 -0.1400
   19TMC2     C  295   1.917   1.673  14.210  0.5914 -0.4665  0.0504
   19TMC2     O  296   2.014   1.614  14.168 -0.4283  0.4040 -0.7075
   19TMC2     H  297   1.970   1.746  13.951 -1.3066  1.1671 -3.0037
   19TMC2    H1  298   1.657   1.679  14.232  0.9896  1.3405  0.7152
   19TMC2    H2  299   1.588   1.817  13.838  2.3417  1.9297 -0.8359
   19TMC2    C7  300   1.475   1.694  14.064  0.2242  0.6156 -0.8133
   19TMC2    C8  301   1.817   1.900  13.803 -0.0407  0.1887 -0.1061
   19TMC2    O1  302   1.447   1.636  14.165  0.5823  0.1211  0.3116
   19TMC2    O2  303   1.744   1.916  13.708  0.6092  0.3124 -0.6617
   19TMC2    O5  304   1.916   1.982  13.847  0.4467 -0.0901 -0.4140
   19TMC2    H5  305   1.930   1.988  13.944  2.4895  1.6890 -0.8363
   20MPD2     C  306   2.027   1.539  14.448 -0.1702 -0.4729  0.1697
   20MPD2    C1  307   1.941   1.640  14.449 -0.3310  0.3088  0.9458
   20MPD2    C2  308   1.929   1.714  14.560 -0.5288 -0.2546  0.4637
   20MPD2    C3  309   1.983   1.667  14.678  0.6002 -0.0873 -0.0330
   20MPD2    C4  310   2.074   1.562  14.678  0.5870 -0.3941 -0.2135
   20MPD2    C5  311   2.104   1.505  14.557 -0.2939 -0.2836  0.3739
   20MPD2     H  312   1.867   1.803  14.562  1.0151  0.9254 -3.5247
   20MPD2    H1  313   2.131   1.525  14.763  0.8630 -1.0816 -0.6970
   20MPD2    H2  314   2.046   1.480  14.359  2.0591  1.4799 -0.6449
   20MPD2    H3  315   2.190   1.439  14.554  0.7447  1.0843  0.1522
   20MPD2     N  316   1.951   1.724  14.804 -0.2173  0.1241 -1.0910
   20MPD2    H5  317   1.988   1.670  14.882 -0.6955 -2.5652 -2.7132
   20MPD2    N1  318   1.877   1.688  14.336  0.4553  0.7600 -0.1717
   20MPD2    H7  319   1.807   1.760  14.352  4.7767  4.8083  0.4313
   21MPD2     C  320   3.363   2.119  14.147  0.2796  0.1638 -0.0302
   21MPD2    C1  321   3.454   2.064  14.240 -0.0358  0.2316 -0.4673
   21MPD2    C2  322   3.423   2.049  14.370  0.2233  0.1569  0.3687
   21MPD2    C3  323   3.300   2.080  14.417 -1.0536  0.1717  0.4380
   21MPD2    C4  324   3.207   2.122  14.327 -0.7599 -0.9154  0.0418
   21MPD2    C5  325   3.241   2.156  14.197 -0.8297  0.2234 -0.1490
   21MPD2     H  326   3.495   2.009  14.440  0.2790 -0.0061  0.2165
   21MPD2    H1  327   3.106   2.143  14.362 -0.1421 -1.1569  1.9836
   21MPD2    H2  328   3.386   2.142  14.044  1.7182 -0.1430  0.2249
   21MPD2    H3  329   3.162   2.198  14.136  0.2602  3.1931  0.5114
   21MPD2     N  330   3.265   2.092  14.557  1.3284  0.5771  0.0297
   21MPD2    H5  331   3.167   2.117  14.571  1.0039 -0.5477 -0.2432
   21MPD2    N1  332   3.584   2.029  14.205  0.0532 -0.3006 -0.0280
   21MPD2    H7  333   3.645   1.982  14.270  1.2397  2.3395  0.7830
   22TCq2    C1  334   3.340   2.061  14.669  0.2448 -0.3040 -0.2787
   22TCq2    O2  335   3.448   2.000  14.670  0.5443 -0.5924 -0.0682
   22TCq2    C2  336   3.275   2.102  14.791  0.0731  0.2631 -0.3263
   22TCq2    C3  337   3.285   2.011  14.898 -0.0958  0.6617 -0.6888
   22TCq2    C4  338   3.205   2.036  15.005  0.7709 -0.0626  0.2946
   22TCq2    C5  339   3.122   2.147  15.015 -0.5970 -0.3170 -0.4744
   22TCq2    C6  340   3.123   2.236  14.914  0.2453  0.3255 -0.6444
   22TCq2    C7  341   3.197   2.214  14.798 -0.1093 -0.0511  0.4772
   22TCq2    C8  342   3.067   2.369  14.942 -0.2653 -0.0831  0.6311
   22TCq2    O4  343   3.060   2.409  15.058  0.3605  0.4844 -0.0196
   22TCq2    C9  344   3.188   1.938  15.101 -0.7335  0.3344 -1.1665
   22TCq2    O5  345   3.115   1.955  15.203  0.3457  0.4215  0.2539
   22TCq2    O6  346   3.281   1.855  15.103  0.1725 -0.1392 -0.2008
   22TCq2    H2  347   3.330   1.913  14.890 -2.3771 -0.3974 -0.5798
   22TCq2    H3  348   3.053   2.164  15.096  0.5540 -0.8755  0.6288
   22TCq2    H4  349   3.190   2.288  14.719  3.0632  3.3165  3.3554
   23MPD2     C  350   0.386   2.893  14.336 -0.0544  0.5496  0.4533
   23MPD2    C1  351   0.268   2.868  14.398  0.0995 -0.1053 -0.8427
   23MPD2    C2  352   0.145   2.886  14.333 -0.1370 -0.2487 -0.2805
   23MPD2    C3  353   0.143   2.892  14.195 -0.4227 -0.3133  0.0156
   23MPD2    C4  354   0.263   2.900  14.131 -0.6610  0.3423  0.0311
   23MPD2    C5  355   0.384   2.915  14.198  0.2140 -1.0969  0.4312
   23MPD2     H  356   0.052   2.895  14.387  0.0403  0.9604 -0.1816
   23MPD2    H1  357   0.266   2.907  14.023  1.6497  1.0812  0.1614
   23MPD2    H2  358   0.480   2.899  14.389 -0.1499 -1.7436  0.8930
   23MPD2    H3  359   0.469   2.936  14.134 -0.5283 -0.1503 -0.2557
   23MPD2     N  360   0.026   2.900  14.120 -0.2891  0.8804 -0.1304
   23MPD2    H5  361   0.038   2.943  14.029  0.2432 -0.0535 -0.5115
   23MPD2    N1  362   0.270   2.852  14.532  0.1773 -0.2682  1.1824
   23MPD2    H7  363   0.179   2.843  14.576 -0.9990  0.4792 -1.0947
   24TCq2    C1  364   4.634   2.852  14.154  0.0431  0.0214 -0.1800
   24TCq2    O2  365   4.604   2.780  14.250 -0.2010  0.0745 -0.1296
   24TCq2    C2  366   4.537   2.870  14.056  1.2120 -0.7086 -0.4798
   24TCq2    C3  367   4.527   2.989  13.993 -0.2942  0.2149  0.5608
   24TCq2    C4  368   4.430   3.009  13.901  0.1410 -0.2386  0.2603
   24TCq2    C5  369   4.327   2.920  13.883 -0.3350 -0.0704  0.3235
   24TCq2    C6  370   4.327   2.814  13.963 -0.1229 -0.7239  0.4632
   24TCq2    C7  371   4.437   2.782  14.041  0.5596  0.0440 -0.3040
   24TCq2    C8  372   4.205   2.743  13.999 -0.2073 -0.1400  0.1909
   24TCq2    O4  373   4.216   2.622  14.020 -0.6855  0.9275 -0.1559
   24TCq2    C9  374   4.413   3.137  13.844 -0.1029 -0.0891 -0.3609
   24TCq2    O5  375   4.509   3.206  13.869  0.3708 -0.0329  0.1142
   24TCq2    O6  376   4.292   3.172  13.864  0.2923  0.2010  0.3830
   24TCq2    H2  377   4.597   3.067  14.020 -0.7069  0.4917  0.8299
   24TCq2    H3  378   4.242   2.942  13.819 -0.0403  1.4563  0.4451
   24TCq2    H4  379   4.438   2.695  14.106  0.6148  0.8153  0.7347
   25TMC2    C1  380   4.187   0.671  11.541 -0.0898  0.2056 -0.1581
   25TMC2    C2  381   4.176   0.798  11.496  0.3726  0.0855  0.1578
   25TMC2    C3  382   4.111   0.882  11.579  0.4784  0.4801 -0.6102
   25TMC2    C4  383   4.121   0.616  11.652 -0.1157 -0.0850 -0.1651
   25TMC2    C5  384   4.055   0.703  11.727 -0.0574  0.4006 -0.4861
   25TMC2    C6  385   4.044   0.834  11.690  0.6677  0.4228 -0.7405
   25TMC2     C  386   4.276   0.592  11.469  0.6732  0.6373  0.1202
   25TMC2     O  387   4.383   0.639  11.423 -0.4528  0.3165  0.4229
   25TMC2     H  388   4.214   0.826  11.398 -1.4587 -1.1822 -0.8979
   25TMC2    H1  389   4.143   0.521  11.700  0.9418 -1.1359 -2.7389
   25TMC2    H2  390   3.997   0.911  11.750 -0.9223  0.7243 -2.4008
   25TMC2    C7  391   3.949   0.641  11.805 -0.6666 -0.7591 -1.1399
   25TMC2    C8  392   4.060   1.003  11.511 -0.3667 -0.1850 -0.5348
   25TMC2    O1  393   3.964   0.529  11.851 -0.0818  0.6077 -0.6277
   25TMC2    O2  394   3.956   1.059  11.533 -0.0737 -0.5204  0.0803
   25TMC2    O5  395   4.163   1.068  11.473 -0.1184  0.6664 -0.0516
   25TMC2    H5  396   4.251   1.026  11.485  0.1501  0.8083 -1.4770
   26MPD2     C  397   4.374   0.124  11.291 -0.1087  0.1132  1.0888
   26MPD2    C1  398   4.233   0.139  11.291 -0.4171 -0.2484 -0.2874
   26MPD2    C2  399   4.187   0.253  11.348 -0.4528  0.0825  0.7620
   26MPD2    C3  400   4.270   0.348  11.399 -0.6798 -0.1972  0.0227
   26MPD2    C4  401   4.406   0.337  11.392 -0.0819  0.2996 -0.0471
   26MPD2    C5  402   4.453   0.222  11.335 -0.6625 -0.4161 -0.1630
   26MPD2     H  403   4.079   0.263  11.352 -0.1539  2.8417  1.3584
   26MPD2    H1  404   4.472   0.417  11.424 -0.2679  2.0932 -4.1905
   26MPD2    H2  405   4.436   0.052  11.239 -0.2194 -0.3564  1.6017
   26MPD2    H3  406   4.561   0.211  11.326 -0.6376 -0.0248 -0.3395
   26MPD2     N  407   4.209   0.468  11.455 -0.2593 -0.0578  0.3764
   26MPD2    H5  408   4.110   0.471  11.476 -0.1845 -1.8771  1.0095
   26MPD2    N1  409   4.155   0.039  11.225 -0.0677  0.0539 -0.0752
   26MPD2    H7  410   4.199   4.688  11.172  1.8626  1.5322 -0.5523
   27TMC2    C1  411   2.646   2.679  12.096  0.7300  0.1176  0.3949
   27TMC2    C2  412   2.620   2.674  11.958  0.0711  0.5927 -0.1054
   27TMC2    C3  413   2.598   2.790  11.891  0.0070 -0.1641 -0.7110
   27TMC2    C4  414   2.611   2.785  12.170  0.1593  0.0889 -0.2627
   27TMC2    C5  415   2.570   2.894  12.097  0.1967  0.8556 -0.0226
   27TMC2    C6  416   2.578   2.904  11.963 -0.1437 -0.4826  0.2145
   27TMC2     C  417   2.617   2.549  12.157 -0.0491 -0.1220  0.2848
   27TMC2     O  418   2.703   2.459  12.157  0.3010  0.3256 -0.3925
   27TMC2     H  419   2.638   2.576  11.916 -2.0127 -0.6273  1.8253
   27TMC2    H1  420   2.633   2.783  12.276  0.7767  1.4555 -0.3712
   27TMC2    H2  421   2.545   2.995  11.915 -0.3298 -0.2482  0.7811
   27TMC2    C7  422   2.544   3.012  12.173  0.5277  0.8543 -0.0846
   27TMC2    C8  423   2.573   2.800  11.747  0.4847 -0.0290  0.0941
   27TMC2    O1  424   2.577   3.125  12.134 -0.0632 -0.1843 -0.0740
   27TMC2    O2  425   2.470   2.855  11.707  0.2403 -0.3213 -0.4589
   27TMC2    O5  426   2.622   2.686  11.689 -0.4816 -0.0339 -0.2939
   27TMC2    H5  427   2.696   2.648  11.742 -1.1526 -0.9461 -0.0072
   28MPD2     C  428   2.358   2.261  12.522 -0.2007  0.3495  0.3440
   28MPD2    C1  429   2.321   2.399  12.526  0.3518  0.2517  0.1957
   28MPD2    C2  430   2.371   2.492  12.432 -0.2757  0.2883  0.3215
   28MPD2    C3  431   2.472   2.459  12.343  0.2457 -0.1619  0.0683
   28MPD2    C4  432   2.511   2.326  12.342  0.5243  0.1033  0.5588
   28MPD2    C5  433   2.447   2.233  12.423  0.4523 -0.4522 -0.0491
   28MPD2     H  434   2.330   2.592  12.422 -1.0477 -0.1222 -0.5933
   28MPD2    H1  435   2.573   2.272  12.272 -1.9556  0.0665 -1.5804
   28MPD2    H2  436   2.321   2.190  12.595 -0.1280  1.4772  1.4855
   28MPD2    H3  437   2.475   2.129  12.406  0.1167 -0.3275 -1.4048
   28MPD2     N  438   2.518   2.560  12.248 -0.4808 -0.5434 -0.7394
   28MPD2    H5  439   2.450   2.635  12.239  0.4995  0.1861 -2.0932
   28MPD2    N1  440   2.230   2.439  12.624  0.1446 -0.0696  0.4072
   28MPD2    H7  441   2.203   2.364  12.687  0.3893  1.2047  2.0202
   29MPD2     C  442   1.886   0.310  14.171  0.0270  0.4106  0.0400
   29MPD2    C1  443   1.981   0.270  14.264 -0.2429  0.5698  0.2744
   29MPD2    C2  444   2.044   0.366  14.333 -0.3276  0.7251 -0.7754
   29MPD2    C3  445   2.014   0.501  14.323 -0.4559 -0.0821 -0.1023
   29MPD2    C4  446   1.921   0.539  14.231 -0.0508  0.3401  0.0256
   29MPD2    C5  447   1.859   0.445  14.145 -0.1748  0.2635  0.5470
   29MPD2     H  448   2.122   0.343  14.405  0.6973  0.8096 -1.8527
   29MPD2    H1  449   1.895   0.644  14.220  0.5211  0.3873 -0.8707
   29MPD2    H2  450   1.843   0.238  14.101  0.5792  1.2288 -1.1462
   29MPD2    H3  451   1.783   0.466  14.071  1.3356  2.7513 -0.2771
   29MPD2     N  452   2.079   0.593  14.408 -0.0229 -0.0825 -0.0756
   29MPD2    H5  453   2.065   0.692  14.391 -0.2994 -0.1322 -0.1299
   29MPD2    N1  454   2.006   0.136  14.293  0.2930 -0.1194  0.3139
   29MPD2    H7  455   2.090   0.115  14.346 -0.1300  1.6750  1.6865
   30TCq2    C1  456   2.164   0.574  14.515 -0.7350  0.6472 -0.4815
   30TCq2    O2  457   2.193   0.472  14.575  0.5319  0.2806 -0.1023
   30TCq2    C2  458   2.225   0.708  14.548 -0.6597  1.2199 -0.4878
   30TCq2    C3  459   2.271   0.741  14.675  0.1730  0.0383  0.2941
   30TCq2    C4  460   2.363   0.835  14.693  0.0548 -0.1316 -0.0368
   30TCq2    C5  461   2.406   0.919  14.590  0.2272 -0.0278 -0.7596
   30TCq2    C6  462   2.353   0.880  14.466 -1.0389 -0.0973  0.1780
   30TCq2    C7  463   2.268   0.779  14.438  0.0082 -0.3620 -0.6727
   30TCq2    C8  464   2.419   0.947  14.350  0.1154 -0.3015 -0.1992
   30TCq2    O4  465   2.348   0.956  14.252  0.1363 -0.6208 -0.3834
   30TCq2    C9  466   2.419   0.865  14.820 -0.6470 -0.0084  0.1437
   30TCq2    O5  467   2.508   0.959  14.834 -0.0115  0.3539  0.2702
   30TCq2    O6  468   2.382   0.790  14.916 -0.2661  0.6154  0.1992
   30TCq2    H2  469   2.246   0.680  14.761 -2.3261 -0.6243 -0.9173
   30TCq2    H3  470   2.460   1.012  14.605 -1.5269  0.7296  0.8960
   30TCq2    H4  471   2.238   0.756  14.337  2.5398 -1.6145 -1.1504
   31MPD2     C  472   0.445   4.393  14.535 -0.6476  0.3234 -0.0426
   31MPD2    C1  473   0.325   4.326  14.533 -0.2247  0.2585  0.7570
   31MPD2    C2  474   0.294   4.237  14.635 -0.3666  0.0312  0.3884
   31MPD2    C3  475   0.386   4.205  14.730  0.3238 -0.0199 -0.4101
   31MPD2    C4  476   0.512   4.270  14.721  0.3603  0.8920  0.4143
   31MPD2    C5  477   0.540   4.354  14.623  0.2549  0.0798 -0.1273
   31MPD2     H  478   0.197   4.190  14.647  0.2313 -0.8516  1.8470
   31MPD2    H1  479   0.583   4.263  14.802  0.1233  0.4640  0.5824
   31MPD2    H2  480   0.459   4.455  14.447  0.8732  0.2413  0.1527
   31MPD2    H3  481   0.641   4.391  14.630 -0.4485  2.0411 -0.3410
   31MPD2     N  482   0.346   4.126  14.842 -0.7399  0.2164 -0.1389
   31MPD2    H5  483   0.248   4.100  14.836  0.1257 -3.0704 -0.4360
   31MPD2    N1  484   0.227   4.369  14.443 -1.1134  0.0233 -0.3508
   31MPD2    H7  485   0.256   4.450  14.390  1.1243  0.9464  2.3125
   32TCq2    C1  486   0.420   4.098  14.953  0.2565 -0.5461 -0.3477
   32TCq2    O2  487   0.521   4.154  14.993  0.2974 -0.5210 -0.2315
   32TCq2    C2  488   0.349   4.008  15.041  0.6148  0.4791 -0.4169
   32TCq2    C3  489   0.242   3.934  14.999  0.4760 -0.2664 -0.0105
   32TCq2    C4  490   0.189   3.835  15.074  0.1108 -0.2658 -0.6196
   32TCq2    C5  491   0.252   3.807  15.191  0.4174  0.0064  0.2770
   32TCq2    C6  492   0.367   3.875  15.235  0.2191  0.0333  0.7694
   32TCq2    C7  493   0.415   3.972  15.155  0.4743  0.6576  0.0283
   32TCq2    C8  494   0.446   3.807  15.350 -0.4541 -0.2718 -0.1719
   32TCq2    O4  495   0.411   3.695  15.386 -0.1244  0.3258  0.0077
   32TCq2    C9  496   0.072   3.761  15.023 -0.0357 -0.6280 -0.4560
   32TCq2    O5  497   0.045   3.770  14.899  0.3438  0.2748 -0.0614
   32TCq2    O6  498   0.015   3.695  15.112  0.3072  0.7753  0.6825
   32TCq2    H2  499   0.196   3.958  14.904  1.2639  1.4191  0.0389
   32TCq2    H3  500   0.214   3.729  15.256  0.5243  0.8156  1.2976
   32TCq2    H4  501   0.514   4.010  15.177  1.4608 -1.9907  0.1576
   33MPD2     C  502   0.864   1.814  10.269 -0.3626  0.2043 -1.4242
   33MPD2    C1  503   0.749   1.755  10.318  0.0726 -0.0974 -0.2456
   33MPD2    C2  504   0.631   1.809  10.279  0.2759  0.5628  0.7382
   33MPD2    C3  505   0.622   1.922  10.193 -0.0625 -0.0285 -0.5206
   33MPD2    C4  506   0.739   1.980  10.154 -0.3784  0.4773  0.5893
   33MPD2    C5  507   0.862   1.922  10.186  0.6607 -0.2447  0.0289
   33MPD2     H  508   0.539   1.756  10.300  1.0978 -0.8596  0.7718
   33MPD2    H1  509   0.742   2.072  10.097  1.6148 -0.5707 -1.0055
   33MPD2    H2  510   0.962   1.774  10.291  0.1176  1.5787 -1.1020
   33MPD2    H3  511   0.953   1.970  10.154  0.2310 -0.0311 -0.8675
   33MPD2     N  512   0.499   1.978  10.162 -0.3398 -0.6488 -0.4611
   33MPD2    H5  513   0.501   2.070  10.118  0.8692 -0.5459 -0.1871
   33MPD2    N1  514   0.763   1.631  10.390  0.0725 -0.3385  0.5206
   33MPD2    H7  515   0.855   1.595  10.413 -0.1120 -0.0914  1.6573
   34TCq2    C1  516   0.374   1.940  10.212 -0.1229  0.2429  0.1717
   34TCq2    O2  517   0.334   1.829  10.241  0.1872 -0.6314 -0.3262
   34TCq2    C2  518   0.264   2.027  10.188 -0.1422  0.8483  0.2677
   34TCq2    C3  519   0.135   1.988  10.231  0.4234  0.8348 -0.5615
   34TCq2    C4  520   0.035   2.075  10.224  0.7268 -0.3389  0.5692
   34TCq2    C5  521   0.048   2.191  10.162  0.1975  0.6088 -0.6226
   34TCq2    C6  522   0.167   2.229  10.110  0.2422  0.3007 -0.2990
   34TCq2    C7  523   0.279   2.153  10.131  0.6221 -0.4486  0.9539
   34TCq2    C8  524   0.194   2.354  10.045  0.3655 -0.8463  0.0485
   34TCq2    O4  525   0.310   2.393  10.033 -0.1241 -0.1006 -0.4326
   34TCq2    C9  526   4.631   2.047  10.281 -0.7318 -0.1391  0.2896
   34TCq2    O5  527   4.606   1.932  10.326  0.3761  0.3364  0.1404
   34TCq2    O6  528   4.547   2.138  10.273  0.3998  0.5929  0.0474
   34TCq2    H2  529   0.117   1.894  10.282 -0.7017  1.7534  0.7210
   34TCq2    H3  530   4.682   2.250  10.151 -2.3538 -3.1823 -0.0886
   34TCq2    H4  531   0.378   2.194  10.111  0.1219  0.5264  0.4545
   35MPD2     C  532   1.739   3.233  11.832  0.2059 -0.4569  0.0517
   35MPD2    C1  533   1.732   3.110  11.891  0.0266  0.5155  1.1340
   35MPD2    C2  534   1.659   3.016  11.825  0.5669 -0.2265  0.0554
   35MPD2    C3  535   1.594   3.038  11.704  0.5748 -0.5734  0.0947
   35MPD2    C4  536   1.609   3.163  11.655  0.1067  0.3498 -0.1560
   35MPD2    C5  537   1.676   3.262  11.719  1.7393 -0.3780  0.0700
   35MPD2     H  538   1.653   2.914  11.861 -0.7948 -0.4324 -0.7492
   35MPD2    H1  539   1.578   3.204  11.560 -2.0189  1.9621  1.2240
   35MPD2    H2  540   1.783   3.316  11.885 -0.6924 -0.7633  1.2734
   35MPD2    H3  541   1.693   3.355  11.666 -3.4634  0.4972 -0.0257
   35MPD2     N  542   1.526   2.932  11.639 -0.5876 -0.1475  0.5610
   35MPD2    H5  543   1.520   2.840  11.681  0.6670  0.2760  1.6588
   35MPD2    N1  544   1.793   3.103  12.020  0.0247 -0.9403 -0.1404
   35MPD2    H7  545   1.820   3.190  12.065 -1.8429 -0.8192  0.7572
   36TCq2    C1  546   1.470   2.946  11.514  0.4002 -0.2585  0.1417
   36TCq2    O2  547   1.479   3.035  11.432  0.0645 -0.4009  0.3061
   36TCq2    C2  548   1.388   2.822  11.479 -0.5806  0.3317  0.3034
   36TCq2    C3  549   1.302   2.836  11.372 -0.4781  0.0009  0.0196
   36TCq2    C4  550   1.194   2.748  11.357 -0.1477  0.2241 -0.8176
   36TCq2    C5  551   1.167   2.657  11.450  0.5659  0.0004  0.0144
   36TCq2    C6  552   1.247   2.651  11.557 -0.3662 -0.8814  0.5260
   36TCq2    C7  553   1.359   2.729  11.580 -1.0682 -0.6394  0.0795
   36TCq2    C8  554   1.236   2.534  11.642  0.6221 -0.3876  0.0496
   36TCq2    O4  555   1.338   2.485  11.687 -0.3699  0.1103 -0.9709
   36TCq2    C9  556   1.100   2.754  11.249 -0.1923 -0.1841  0.5306
   36TCq2    O5  557   1.012   2.841  11.253  0.2238  0.5644  0.7815
   36TCq2    O6  558   1.070   2.638  11.206 -0.6850 -0.8135  0.3694
   36TCq2    H2  559   1.314   2.909  11.292  0.6644 -0.0087  0.1925
   36TCq2    H3  560   1.087   2.584  11.444  1.0426 -0.5993  0.8596
   36TCq2    H4  561   1.410   2.718  11.675 -2.6593 -0.9086  0.8953
   37TMC2    C1  562   3.294   3.207  11.966 -0.4029  0.5442 -0.8805
   37TMC2    C2  563   3.226   3.220  11.849 -0.0805 -0.8497  0.6899
   37TMC2    C3  564   3.297   3.220  11.729 -0.1488 -0.3009  0.7817
   37TMC2    C4  565   3.436   3.203  11.973 -0.3434 -0.2449  0.5019
   37TMC2    C5  566   3.498   3.201  11.850  0.2463 -0.3867 -0.4973
   37TMC2    C6  567   3.432   3.200  11.731 -0.1028 -0.5890  0.2380
   37TMC2     C  568   3.214   3.210  12.089  0.5238 -0.0018 -1.0612
   37TMC2     O  569   3.094   3.216  12.078 -0.3270  0.1694 -0.0356
   37TMC2     H  570   3.120   3.241  11.841 -0.1462 -0.9855  1.2417
   37TMC2    H1  571   3.494   3.178  12.061  0.2967  2.1642  0.7820
   37TMC2    H2  572   3.491   3.216  11.642  0.7555  1.5901  1.2152
   37TMC2    C7  573   3.639   3.188  11.849 -0.1150 -0.4248 -0.5417
   37TMC2    C8  574   3.225   3.201  11.604 -0.2562 -0.3196  0.8774
   37TMC2    O1  575   3.691   3.223  11.955  0.6679  0.2727 -0.4539
   37TMC2    O2  576   3.107   3.229  11.587 -0.3341 -0.1554  0.1544
   37TMC2    O5  577   3.312   3.145  11.509  0.9056 -0.3836 -0.1974
   37TMC2    H5  578   3.393   3.101  11.542  1.0962 -0.8532 -1.3229
   38MPD2     C  579   3.226   3.117  12.605  0.0565  0.6472  0.3251
   38MPD2    C1  580   3.347   3.091  12.549 -0.7520  0.1368 -0.2107
   38MPD2    C2  581   3.365   3.103  12.412  0.2341 -0.3461 -0.4308
   38MPD2    C3  582   3.264   3.154  12.330  0.0721  0.4084  0.6981
   38MPD2    C4  583   3.138   3.171  12.379 -0.0714 -0.0792  0.5083
   38MPD2    C5  584   3.123   3.146  12.516 -0.1201  1.6233 -0.0448
   38MPD2     H  585   3.463   3.097  12.366  0.9670 -0.8642  1.2177
   38MPD2    H1  586   3.059   3.212  12.318  0.7977  1.7280  0.5919
   38MPD2    H2  587   3.205   3.138  12.709 -0.8208  0.8778  0.0961
   38MPD2    H3  588   3.025   3.178  12.549 -0.3569  0.9591 -0.1012
   38MPD2     N  589   3.300   3.185  12.196  0.1432 -0.0911  0.2070
   38MPD2    H5  590   3.397   3.177  12.167 -0.3245 -1.6460 -0.9519
   38MPD2    N1  591   3.459   3.054  12.630  0.8309 -0.2879 -0.1129
   38MPD2    H7  592   3.552   3.036  12.594  1.4704 -2.2713  2.4972
   39MPD2     C  593   1.672   0.603   1.600 -0.4211  0.2154  0.2487
   39MPD2    C1  594   1.540   0.607   1.640  0.1463 -0.0565 -0.2127
   39MPD2    C2  595   1.434   0.638   1.553 -0.5826 -1.0093 -0.7088
   39MPD2    C3  596   1.453   0.656   1.418 -0.2734  0.1448 -0.0106
   39MPD2    C4  597   1.577   0.638   1.375 -0.1634 -0.2693 -0.1448
   39MPD2    C5  598   1.687   0.625   1.465 -0.1828 -0.2983  0.5376
   39MPD2     H  599   1.335   0.634   1.597 -0.3781 -1.8663 -0.3154
   39MPD2    H1  600   1.607   0.654   1.272  0.4798  1.0347  0.2482
   39MPD2    H2  601   1.753   0.578   1.667 -1.4344  0.7793  1.6820
   39MPD2    H3  602   1.785   0.602   1.424  0.1141  1.2541  0.3823
   39MPD2     N  603   1.345   0.688   1.332  0.0641  0.4251 -0.3066
   39MPD2    H5  604   1.364   0.687   1.232 -1.1736  3.5527 -0.5651
   39MPD2    N1  605   1.520   0.571   1.774  0.7624 -0.4640  0.3817
   39MPD2    H7  606   1.603   0.571   1.834  1.1945 -0.8112 -0.2131
   40TCq2    C1  607   1.405   0.536   1.841 -0.0201 -0.3600  0.3590
   40TCq2    O2  608   1.295   0.504   1.797 -0.1854  0.3839  0.2462
   40TCq2    C2  609   1.421   0.516   1.988 -0.5825 -0.0128  0.2477
   40TCq2    C3  610   1.309   0.513   2.067 -0.2337  0.3100  0.2534
   40TCq2    C4  611   1.320   0.494   2.199  0.1386  0.3557 -0.6249
   40TCq2    C5  612   1.444   0.480   2.255  0.4777 -0.5192 -0.1488
   40TCq2    C6  613   1.553   0.482   2.174 -0.1767  0.0985  0.4883
   40TCq2    C7  614   1.545   0.502   2.040 -0.0206  0.5937  0.7745
   40TCq2    C8  615   1.688   0.448   2.228 -0.0964 -0.2750  0.3072
   40TCq2    O4  616   1.687   0.400   2.340  0.2289 -0.2466 -0.3449
   40TCq2    C9  617   1.205   0.478   2.282 -0.3529  0.3448  1.2491
   40TCq2    O5  618   1.228   0.462   2.403 -0.4931 -0.6740  0.2675
   40TCq2    O6  619   1.094   0.478   2.226  0.3568 -0.2070  0.1558
   40TCq2    H2  620   1.212   0.518   2.018 -0.1976 -0.2062  0.1322
   40TCq2    H3  621   1.447   0.460   2.362 -0.1217  2.2934  0.3995
   40TCq2    H4  622   1.627   0.467   1.977  0.7084  1.6445  1.1379
   41TMC2    C1  623   0.814   3.495  13.623 -0.6457 -0.2018 -0.2648
   41TMC2    C2  624   0.815   3.603  13.707 -0.1524  0.3384 -0.1732
   41TMC2    C3  625   0.753   3.717  13.663 -0.0278 -0.7112 -0.4391
   41TMC2    C4  626   0.770   3.507  13.489  1.1448 -0.2690  0.6190
   41TMC2    C5  627   0.716   3.626  13.452  0.8771  0.1155 -0.3281
   41TMC2    C6  628   0.706   3.735  13.538 -0.4437 -0.3999 -0.1192
   41TMC2     C  629   0.868   3.361  13.661 -0.6739  0.3177  0.8711
   41TMC2     O  630   0.901   3.289  13.569  0.3067 -0.1047  0.2842
   41TMC2     H  631   0.857   3.593  13.807 -1.5402 -0.7308  0.2990
   41TMC2    H1  632   0.778   3.420  13.425  3.8523  0.8892 -0.6379
   41TMC2    H2  633   0.647   3.823  13.514  2.2919  2.0940  2.2856
   41TMC2    C7  634   0.711   3.660  13.312  0.8893 -0.1263  0.5912
   41TMC2    C8  635   0.713   3.809  13.770 -0.8280 -0.2938 -0.3164
   41TMC2    O1  636   0.661   3.765  13.284  0.1123 -0.4493 -0.3523
   41TMC2    O2  637   0.606   3.872  13.761  0.0385 -0.4711 -0.5114
   41TMC2    O5  638   0.789   3.798  13.879  0.4203  0.1715 -0.4908
   41TMC2    H5  639   0.872   3.750  13.860  0.6584 -0.5319  2.2564
   42MPD2     C  640   0.983   3.126  13.801 -0.0896  0.4753 -0.0609
   42MPD2    C1  641   0.905   3.224  13.865 -0.4521 -0.1763  0.1625
   42MPD2    C2  642   0.877   3.211  13.994  0.4463 -0.3495  0.0346
   42MPD2    C3  643   0.930   3.106  14.068  0.6426  0.0605 -0.5175
   42MPD2    C4  644   1.008   3.012  14.006 -0.4878  0.3946 -0.5138
   42MPD2    C5  645   1.038   3.025  13.872 -0.3063  0.0454 -0.2880
   42MPD2     H  646   0.823   3.285  14.052  0.2787  0.5883 -1.3365
   42MPD2    H1  647   1.059   2.934  14.061  1.8868  2.0401 -0.4077
   42MPD2    H2  648   1.004   3.116  13.695 -1.0430  0.0634 -0.2128
   42MPD2    H3  649   1.111   2.951  13.840  0.3843  0.5017  0.2214
   42MPD2     N  650   0.904   3.077  14.205  0.2857 -0.0774 -0.0150
   42MPD2    H5  651   0.952   2.998  14.246 -0.8049 -1.8323 -2.1425
   42MPD2    N1  652   0.861   3.342  13.794 -0.3196 -0.5188  0.5898
   42MPD2    H7  653   0.821   3.423  13.841 -1.3883 -0.4117 -0.5064
   43MPD2     C  654   1.712   1.395   0.707 -0.3821 -0.2827  0.2334
   43MPD2    C1  655   1.760   1.410   0.835 -0.3373  0.2291 -0.3585
   43MPD2    C2  656   1.684   1.485   0.928 -0.4595 -0.2812 -0.0036
   43MPD2    C3  657   1.562   1.539   0.889 -0.7025  0.2843  0.3157
   43MPD2    C4  658   1.517   1.523   0.763 -0.4504  0.3264 -0.3400
   43MPD2    C5  659   1.586   1.443   0.675 -0.3638 -0.6399 -0.4840
   43MPD2     H  660   1.727   1.502   1.026 -0.2998 -2.6064  0.3315
   43MPD2    H1  661   1.423   1.564   0.728 -1.4764 -1.9668 -0.3110
   43MPD2    H2  662   1.761   1.335   0.632  2.9803  2.7942 -0.0180
   43MPD2    H3  663   1.541   1.438   0.577 -0.3209 -2.2422 -0.4143
   43MPD2     N  664   1.480   1.621   0.972 -0.3718 -0.0543  0.7633
   43MPD2    H5  665   1.398   1.655   0.922  1.1181 -0.5176 -2.0035
   43MPD2    N1  666   1.894   1.370   0.867 -0.4752 -0.0234  0.4008
   43MPD2    H7  667   1.916   1.404   0.960 -0.8332 -2.7981  1.4998
   44TCq2    C1  668   1.401   1.926   1.468  0.0633  0.4829 -0.1684
   44TCq2    O2  669   1.523   1.914   1.485 -0.7155 -0.7545  0.4140
   44TCq2    C2  670   1.346   1.863   1.355  0.2499  0.1612 -0.5836
   44TCq2    C3  671   1.227   1.899   1.303 -0.0950  0.0594  0.4651
   44TCq2    C4  672   1.199   1.860   1.174 -0.2829 -0.2112 -0.7276
   44TCq2    C5  673   1.285   1.780   1.110  0.3428  0.6410  0.2479
   44TCq2    C6  674   1.402   1.733   1.169  0.2297  0.4292  0.7550
   44TCq2    C7  675   1.434   1.777   1.296 -0.3123  0.0165  0.5665
   44TCq2    C8  676   1.492   1.638   1.105  0.2816  0.2219  0.6356
   44TCq2    O4  677   1.579   1.584   1.179 -0.0855  0.2129  0.9047
   44TCq2    C9  678   1.085   1.906   1.100  0.0736 -0.2043 -0.4161
   44TCq2    O5  679   1.079   1.875   0.978  0.6549  0.0809 -0.0448
   44TCq2    O6  680   1.004   1.986   1.157  0.0395 -0.2604  0.7812
   44TCq2    H2  681   1.153   1.955   1.358 -0.5447 -0.5929  0.5263
   44TCq2    H3  682   1.270   1.757   1.005 -1.8641 -4.1288  1.5993
   44TCq2    H4  683   1.528   1.751   1.344  0.5767 -0.2974 -1.3381
   45TMC2    C1  684   3.242   3.690   9.108  0.4676  0.6093 -0.0480
   45TMC2    C2  685   3.198   3.685   8.981 -0.1577  0.1030  0.2606
   45TMC2    C3  686   3.273   3.752   8.899 -0.1431 -1.1784  0.4026
   45TMC2    C4  687   3.336   3.772   9.161 -0.1577  0.1025 -0.5088
   45TMC2    C5  688   3.390   3.866   9.072  0.1626 -0.6198  0.0448
   45TMC2    C6  689   3.363   3.849   8.940 -0.4817  0.0125 -1.3276
   45TMC2     C  690   3.192   3.589   9.197  0.1668 -0.2130 -0.1383
   45TMC2     O  691   3.259   3.521   9.270 -0.4441  0.1498 -0.0699
   45TMC2     H  692   3.125   3.615   8.942 -1.9708  1.9212  0.3282
   45TMC2    H1  693   3.336   3.779   9.269  2.6300 -0.1561 -0.4862
   45TMC2    H2  694   3.424   3.896   8.864  0.2163 -1.6224 -1.7813
   45TMC2    C7  695   3.500   3.952   9.110  0.1014 -0.1924  0.1645
   45TMC2    C8  696   3.266   3.715   8.766 -0.7335  0.0062  0.5328
   45TMC2    O1  697   3.567   3.997   9.020 -0.2869  0.5296  0.3997
   45TMC2    O2  698   3.166   3.671   8.703  0.0346 -0.6927 -0.3241
   45TMC2    O5  699   3.383   3.663   8.739 -0.7735 -0.0051  0.1295
   45TMC2    H5  700   3.450   3.673   8.810 -1.0369  2.2403  0.0424
   46MPD2     C  701   3.014   3.376   9.279 -0.2369  0.1883 -0.1128
   46MPD2    C1  702   2.974   3.484   9.215  0.3916 -0.6580 -0.5804
   46MPD2    C2  703   2.837   3.501   9.204 -0.1901 -0.0107  0.0447
   46MPD2    C3  704   2.748   3.388   9.219  0.3198 -0.1550  0.1981
   46MPD2    C4  705   2.799   3.272   9.274  0.6042  0.9456 -0.4755
   46MPD2    C5  706   2.928   3.269   9.315 -0.0334 -0.4474 -0.3543
   46MPD2     H  707   2.791   3.590   9.164  0.0169  0.1417  0.1485
   46MPD2    H1  708   2.734   3.189   9.300  0.4959  1.4220  0.7623
   46MPD2    H2  709   3.117   3.347   9.299 -0.2083  0.3524 -0.0262
   46MPD2    H3  710   2.973   3.181   9.360 -0.1478 -0.8058 -0.9292
   46MPD2     N  711   2.609   3.406   9.185 -0.2792  0.3713 -0.4726
   46MPD2    H5  712   2.599   3.496   9.139  3.7007 -0.5937 -3.2908
   46MPD2    N1  713   3.058   3.585   9.174  0.1806 -1.0381 -0.1619
   46MPD2    H7  714   3.014   3.659   9.119  0.1909 -0.6029  0.4089
   47TMC2    C1  715   0.363   0.018   9.224 -0.2933 -0.3600 -0.1960
   47TMC2    C2  716   0.314   0.150   9.231  0.3929 -0.1110 -0.1263
   47TMC2    C3  717   0.179   0.160   9.237  0.0789 -0.1306  0.2978
   47TMC2    C4  718   0.280   4.635   9.231 -0.1593 -0.0149  0.1901
   47TMC2    C5  719   0.142   4.656   9.241 -0.9110  0.5518 -0.3533
   47TMC2    C6  720   0.090   0.057   9.245 -0.2047 -0.6131 -0.5294
   47TMC2     C  721   0.503   0.009   9.227 -0.1743 -0.0307  0.2322
   47TMC2     O  722   0.564   0.112   9.244 -0.3435  0.0658  0.0302
   47TMC2     H  723   0.381   0.236   9.234  1.4083 -0.9821  2.3280
   47TMC2    H1  724   0.322   4.535   9.239 -1.9057 -0.8954 -1.5390
   47TMC2    H2  725   4.707   0.071   9.234 -0.0397  0.0220 -1.3057
   47TMC2    C7  726   0.048   4.541   9.261 -0.6117 -1.0471 -0.3383
   47TMC2    C8  727   0.116   0.293   9.249 -0.2916  0.4182 -0.2896
   47TMC2    O1  728   4.671   4.561   9.325 -0.3551  0.0073  0.0554
   47TMC2    O2  729   0.002   0.301   9.294  0.4876  0.7111  0.2777
   47TMC2    O5  730   0.179   0.380   9.170  0.2157 -0.1497 -0.0314
   47TMC2    H5  731   0.258   0.339   9.129  0.3731 -0.0520  0.1731
   48MPD2     C  732   0.801   4.645   9.213  0.1606 -0.9578 -1.3023
   48MPD2    C1  733   0.694   4.563   9.198 -0.0430  0.3004  0.4703
   48MPD2    C2  734   0.717   4.431   9.172  0.1902  0.8496 -0.5817
   48MPD2    C3  735   0.843   4.378   9.146  0.4196  0.5119  0.2689
   48MPD2    C4  736   0.951   4.461   9.173 -0.2871 -0.3621  0.6092
   48MPD2    C5  737   0.923   4.589   9.214 -0.2340 -0.0995 -0.1543
   48MPD2     H  738   0.637   4.361   9.155  1.0867 -0.0420 -1.1430
   48MPD2    H1  739   1.055   4.434   9.176 -0.6449 -1.7824  0.2770
   48MPD2    H2  740   0.790   0.023   9.246 -0.4007 -1.1782 -0.8075
   48MPD2    H3  741   1.008   4.649   9.246 -0.5594 -0.7112  1.8632
   48MPD2     N  742   0.857   4.246   9.107  0.4886  0.3123  0.5635
   48MPD2    H5  743   0.775   4.195   9.075 -1.4714  2.6600  1.8281
   48MPD2    N1  744   0.556   4.605   9.207  1.0346  0.8514  0.0952
   48MPD2    H7  745   0.492   4.530   9.182  3.4780 -1.0929 -0.3348
   49MPD2     C  746   3.408   0.997   9.773  0.4455  0.2157  1.4213
   49MPD2    C1  747   3.474   0.955   9.886  0.7047  0.2649 -0.9961
   49MPD2    C2  748   3.546   1.045   9.966 -0.1849  0.2838 -1.1394
   49MPD2    C3  749   3.559   1.177   9.930  0.2208 -0.1918  0.4082
   49MPD2    C4  750   3.496   1.213   9.814  0.1731 -0.6759  0.2340
   49MPD2    C5  751   3.423   1.126   9.735  0.3838 -0.0581 -0.8147
   49MPD2     H  752   3.600   1.014  10.055  1.3511 -0.5870 -2.3824
   49MPD2    H1  753   3.473   1.313   9.779  0.2334 -0.3722  1.0538
   49MPD2    H2  754   3.357   0.923   9.712 -0.5923  2.2899 -0.2047
   49MPD2    H3  755   3.379   1.163   9.643  1.0020  1.9618 -0.2930
   49MPD2     N  756   3.633   1.263  10.015 -0.3386 -0.2351  0.2283
   49MPD2    H5  757   3.638   1.358   9.981  2.7663  0.2970  2.1543
   49MPD2    N1  758   3.458   0.822   9.936  0.4506  0.2507  0.2890
   49MPD2    H7  759   3.516   0.794  10.015 -0.2902 -1.0017  0.3875
   50TCq2    C1  760   3.378   0.724   9.884  0.2386 -0.6926 -0.1737
   50TCq2    O2  761   3.295   0.731   9.797 -0.2299  0.3355 -0.2356
   50TCq2    C2  762   3.400   0.588   9.942  0.1022 -0.4427 -0.4409
   50TCq2    C3  763   3.377   0.485   9.857  0.0510  0.1560 -0.7091
   50TCq2    C4  764   3.404   0.354   9.897 -0.0984  0.0147 -1.2788
   50TCq2    C5  765   3.478   0.338  10.015  0.2484 -0.3897  0.2223
   50TCq2    C6  766   3.522   0.453  10.078 -0.4925 -0.3361  0.4915
   50TCq2    C7  767   3.469   0.576  10.057 -0.8417 -0.1976  0.0924
   50TCq2    C8  768   3.592   0.423  10.202 -0.6855 -0.2355 -0.2787
   50TCq2    O4  769   3.580   0.314  10.262 -0.1748 -0.2863 -0.6304
   50TCq2    C9  770   3.373   0.244   9.813 -0.2526 -0.2290 -0.1650
   50TCq2    O5  771   3.407   0.130   9.866 -0.2247  0.0135  0.6852
   50TCq2    O6  772   3.300   0.269   9.711 -0.4279  0.0006 -0.0231
   50TCq2    H2  773   3.334   0.504   9.759 -0.3932 -0.2597 -0.5973
   50TCq2    H3  774   3.523   0.243  10.042 -0.1662 -0.5378  0.3820
   50TCq2    H4  775   3.465   0.655  10.131  0.6075 -0.0830  0.0456
   51MPD2     C  776   3.739   0.332   1.144 -0.3382  0.4442  0.1619
   51MPD2    C1  777   3.809   0.213   1.164  0.3471 -0.2126 -0.3050
   51MPD2    C2  778   3.941   0.217   1.209  0.2080 -0.4920  0.5805
   51MPD2    C3  779   4.003   0.340   1.234  0.0699  0.3133  0.2925
   51MPD2    C4  780   3.926   0.456   1.232 -0.6230  0.4945 -0.7056
   51MPD2    C5  781   3.800   0.445   1.185 -0.1070 -0.1413  0.6708
   51MPD2     H  782   3.989   0.122   1.228  2.2662  0.9220  2.4760
   51MPD2    H1  783   3.963   0.551   1.270 -1.8648 -0.2394  2.3310
   51MPD2    H2  784   3.635   0.336   1.112  0.3671  0.6413 -2.0784
   51MPD2    H3  785   3.733   0.530   1.173 -0.7877 -0.5255  1.7587
   51MPD2     N  786   4.135   0.347   1.288 -0.4563  0.5009  0.6404
   51MPD2    H5  787   4.168   0.436   1.326  2.7069  0.4473 -2.0178
   51MPD2    N1  788   3.749   0.087   1.129 -0.4756  0.5134  0.5211
   51MPD2    H7  789   3.805   0.003   1.132 -0.2228  0.6583 -0.1764
   52TCq2    C1  790   4.221   0.242   1.291 -0.3961 -0.3545 -0.0781
   52TCq2    O2  791   4.232   0.137   1.223 -0.0516 -0.6888  0.3156
   52TCq2    C2  792   4.324   0.258   1.398 -0.1759  0.4106  0.1273
   52TCq2    C3  793   4.428   0.174   1.389 -0.3030  0.0600  0.2941
   52TCq2    C4  794   4.519   0.167   1.493 -0.0629 -0.5481  0.3061
   52TCq2    C5  795   4.517   0.263   1.591  0.0190 -0.4020 -0.4508
   52TCq2    C6  796   4.419   0.359   1.587 -0.0099  0.0369 -0.2760
   52TCq2    C7  797   4.309   0.350   1.502  0.3001 -0.3666 -0.0697
   52TCq2    C8  798   4.413   0.476   1.685  0.0004 -0.0979  0.1615
   52TCq2    O4  799   4.309   0.538   1.693  0.2219  0.0347 -0.0971
   52TCq2    C9  800   4.626   0.077   1.483 -0.1910  0.6136  0.3393
   52TCq2    O5  801   4.706   0.082   1.582 -0.2353  0.0443 -0.2881
   52TCq2    O6  802   4.619   4.711   1.399 -0.3585  0.5525  0.6167
   52TCq2    H2  803   4.444   0.109   1.304 -0.1534  0.3484  0.0970
   52TCq2    H3  804   4.591   0.249   1.669  0.1322 -1.5742 -0.7640
   52TCq2    H4  805   4.238   0.431   1.509  0.1233 -0.7239  2.2699
   53TMC2    C1  806   4.325   3.318  11.988 -0.1396 -0.0304  0.2279
   53TMC2    C2  807   4.420   3.233  12.032 -0.1689 -0.1973 -0.6236
   53TMC2    C3  808   4.428   3.207  12.158 -0.3790 -0.2481  0.4813
   53TMC2    C4  809   4.232   3.365  12.073 -0.3365  0.9408  0.1100
   53TMC2    C5  810   4.236   3.329  12.200 -0.7169  0.0378 -0.1620
   53TMC2    C6  811   4.331   3.247  12.245 -0.0407 -0.0662 -0.6958
   53TMC2     C  812   4.277   3.275  11.860  0.8272 -0.0243 -0.6392
   53TMC2     O  813   4.360   3.233  11.775  0.2737  0.8570  0.0179
   53TMC2     H  814   4.481   3.175  11.964 -1.0817 -1.8293 -0.0412
   53TMC2    H1  815   4.152   3.429  12.038 -2.4506 -1.2363  0.9442
   53TMC2    H2  816   4.340   3.216  12.348  0.7977  0.8205 -0.5016
   53TMC2    C7  817   4.118   3.367  12.282  1.1105 -0.1558  0.4150
   53TMC2    C8  818   4.548   3.146  12.215 -0.6095 -0.3490  0.0218
   53TMC2    O1  819   4.019   3.403  12.216  0.5505 -0.5460  0.0690
   53TMC2    O2  820   4.553   3.098  12.328 -0.1911 -0.4600  0.6690
   53TMC2    O5  821   4.647   3.219  12.161 -0.3266  0.4378  0.0434
   53TMC2    H5  822   4.619   3.261  12.077 -1.3748 -0.5943 -0.1275
   54MPD2     C  823   4.092   3.192  11.622 -0.2122 -0.2652 -0.0053
   54MPD2    C1  824   4.053   3.220  11.750  0.1088 -0.3039  0.4227
   54MPD2    C2  825   3.925   3.210  11.789  0.4307 -0.2503 -0.5821
   54MPD2    C3  826   3.832   3.163  11.697 -0.1735 -0.7379  0.1826
   54MPD2    C4  827   3.871   3.137  11.568  0.2754 -0.2599 -0.2547
   54MPD2    C5  828   3.998   3.143  11.534 -1.2825  0.5068 -0.4941
   54MPD2     H  829   3.916   3.227  11.895 -0.1980 -2.9625 -0.1971
   54MPD2    H1  830   3.800   3.113  11.490  0.6929 -3.5814  0.3779
   54MPD2    H2  831   4.198   3.190  11.604  0.3494  1.0715  3.2029
   54MPD2    H3  832   4.034   3.117  11.435  0.4003  1.2134 -0.0637
   54MPD2     N  833   3.689   3.148  11.729 -0.4810 -0.3236  0.6373
   54MPD2    H5  834   3.641   3.111  11.647  2.7880 -0.7426 -1.1212
   54MPD2    N1  835   4.137   3.261  11.853  0.5566 -0.0949  0.2160
   54MPD2    H7  836   4.091   3.277  11.942 -0.5560  1.3407 -0.6268
   55MPD2     C  837   4.598   1.035   0.129 -0.0847  0.7186  0.1211
   55MPD2    C1  838   4.638   0.961   0.238  0.6358 -0.5131 -0.6436
   55MPD2    C2  839   4.616   1.001   0.362  0.1560 -0.6312 -0.3266
   55MPD2    C3  840   4.535   1.117   0.380  0.3462 -0.4338  0.4192
   55MPD2    C4  841   4.487   1.186   0.272  0.3096  0.6094 -0.2420
   55MPD2    C5  842   4.536   1.155   0.152 -0.0145  0.6534 -0.0552
   55MPD2     H  843   4.661   0.951   0.447 -0.5223 -0.7193 -0.0180
   55MPD2    H1  844   4.426   1.275   0.283 -0.3784 -0.0660  1.3842
   55MPD2    H2  845   4.610   0.999   0.027  1.6753 -2.2742  1.3641
   55MPD2    H3  846   4.516   1.224   0.071 -0.4583  0.6418  0.0448
   55MPD2     N  847   4.513   1.152   0.513  0.6992  0.2911  0.2253
   55MPD2    H5  848   4.566   1.096   0.580 -0.8918 -1.2358  0.2333
   55MPD2    N1  849   4.706   0.847   0.203  0.5736 -0.0838 -0.2750
   55MPD2    H7  850   0.005   0.837   0.104 -0.3347 -0.4079 -0.4550
   56TCq2    C1  851   0.031   0.747   0.290  0.3679 -0.3494  0.0454
   56TCq2    O2  852   4.712   0.713   0.404  0.1326  0.2673  0.4296
   56TCq2    C2  853   0.122   0.650   0.223 -0.1239  0.3314 -0.1909
   56TCq2    C3  854   0.158   0.670   0.095 -0.0155  0.2884  0.3943
   56TCq2    C4  855   0.219   0.564   0.037  0.2805 -0.4688  0.7740
   56TCq2    C5  856   0.221   0.435   0.093  0.0349 -0.8506  0.0568
   56TCq2    C6  857   0.184   0.421   0.223 -0.3745  0.3421  0.0406
   56TCq2    C7  858   0.138   0.532   0.289 -0.0909  0.4103  0.2486
   56TCq2    C8  859   0.200   0.284   0.283  0.8700 -0.3083  0.4041
   56TCq2    O4  860   0.278   0.197   0.247  0.7262 -0.2909 -0.3823
   56TCq2    C9  861   0.245   0.576  17.594  0.8711  0.4074 -0.0467
   56TCq2    O5  862   0.274   0.475  17.525 -0.2240  0.3447 -0.4723
   56TCq2    O6  863   0.222   0.691  17.542  0.4816  0.0820  0.2378
   56TCq2    H2  864   0.172   0.768   0.051 -0.8475 -1.0460 -2.8402
   56TCq2    H3  865   0.265   0.350   0.042  1.1976  0.4123 -1.0428
   56TCq2    H4  866   0.124   0.527   0.396  1.8982  1.0432  0.5395
   57TMC2    C1  867   4.149   2.014  13.182  0.5942  0.2813 -0.3971
   57TMC2    C2  868   4.081   1.909  13.130 -0.3283  0.1140  0.1306
   57TMC2    C3  869   4.121   1.863  13.009 -0.4048  0.0808 -0.2211
   57TMC2    C4  870   4.251   2.071  13.114  0.2769 -0.0150 -1.0642
   57TMC2    C5  871   4.281   2.022  12.991  0.0408  0.2911 -0.5245
   57TMC2    C6  872   4.218   1.916  12.934  0.3546 -0.6629  0.0252
   57TMC2     C  873   4.118   2.066  13.318  0.4783  0.4382  0.6842
   57TMC2     O  874   4.148   2.182  13.347  0.1924 -0.3228 -0.0810
   57TMC2     H  875   4.003   1.857  13.184  0.6936 -2.0872 -0.5416
   57TMC2    H1  876   4.316   2.144  13.160  0.9463 -0.6966 -0.9354
   57TMC2    H2  877   4.243   1.874  12.837 -2.2001  0.3643 -1.0997
   57TMC2    C7  878   4.419   2.059  12.956  0.1017 -0.7689  0.5716
   57TMC2    C8  879   4.041   1.750  12.952 -0.7190 -0.4354  1.0996
   57TMC2    O1  880   4.433   2.180  12.954 -0.1175 -0.0093  0.6635
   57TMC2    O2  881   3.918   1.740  12.957 -0.5275  0.2010  0.2465
   57TMC2    O5  882   4.125   1.662  12.900 -0.5788  0.1979 -0.1451
   57TMC2    H5  883   4.220   1.667  12.926 -0.8213  2.0381  0.4213
   58MPD2     C  884   3.863   1.950  13.730 -0.6333  0.5077  0.0986
   58MPD2    C1  885   3.850   2.059  13.644  0.5131  1.0140  0.2069
   58MPD2    C2  886   3.937   2.067  13.539  0.4914 -0.3506 -0.5239
   58MPD2    C3  887   4.034   1.965  13.522 -0.2642  0.4196 -0.3121
   58MPD2    C4  888   4.050   1.865  13.608 -0.0613 -0.0819  0.8023
   58MPD2    C5  889   3.961   1.856  13.718  0.4176 -0.4317  0.5979
   58MPD2     H  890   3.911   2.142  13.465  1.4154  0.2663 -0.2216
   58MPD2    H1  891   4.131   1.794  13.597  0.2197  0.7147 -2.3322
   58MPD2    H2  892   3.794   1.945  13.813 -1.0687  0.2740 -0.2788
   58MPD2    H3  893   3.970   1.767  13.779  1.7768 -1.4914 -1.1287
   58MPD2     N  894   4.103   1.956  13.398 -0.4461 -1.3909  0.1243
   58MPD2    H5  895   4.146   1.865  13.386 -0.9548 -1.4115 -1.4577
   58MPD2    N1  896   3.757   2.160  13.661 -0.2222  0.6297  0.2726
   58MPD2    H7  897   3.761   2.236  13.594 -1.1216  1.4071  1.1059
   59MPD2     C  898   1.754   2.041  13.084 -0.3684  0.6189  0.5706
   59MPD2    C1  899   1.871   1.993  13.024  0.1858  0.4820 -0.1149
   59MPD2    C2  900   1.991   2.017  13.083 -0.0742  0.4854  0.2610
   59MPD2    C3  901   1.991   2.053  13.216  0.2381  0.0812  0.5750
   59MPD2    C4  902   1.876   2.073  13.279 -0.9260  0.0880  0.2625
   59MPD2    C5  903   1.766   2.080  13.212 -0.8448 -0.0625  0.2310
   59MPD2     H  904   2.082   2.020  13.025 -1.0254  0.3596 -1.2327
   59MPD2    H1  905   1.866   2.103  13.383 -2.8592  0.6807 -0.1064
   59MPD2    H2  906   1.663   2.057  13.028 -1.4546 -0.8696  1.9150
   59MPD2    H3  907   1.669   2.102  13.255  0.1829  0.9621  2.0031
   59MPD2     N  908   2.111   2.077  13.284 -0.2534 -0.7164 -0.1026
   59MPD2    H5  909   2.112   2.110  13.379  2.2455 -0.4404 -0.2318
   59MPD2    N1  910   1.873   1.944  12.889 -0.0272  0.4151 -0.0457
   59MPD2    H7  911   1.964   1.934  12.845  0.4547 -1.6957  1.4727
   60TCq2    C1  912   1.756   1.909  12.820  0.1633  0.4054  0.4223
   60TCq2    O2  913   1.647   1.887  12.870  0.0900 -0.1267 -0.2051
   60TCq2    C2  914   1.778   1.883  12.680  0.4026 -0.3370  0.5894
   60TCq2    C3  915   1.691   1.776  12.630 -0.1648  0.4923  0.4697
   60TCq2    C4  916   1.724   1.744  12.502 -0.7761  0.6279  0.8440
   60TCq2    C5  917   1.827   1.804  12.431 -0.2873 -0.1854  0.4770
   60TCq2    C6  918   1.885   1.919  12.478  0.4135 -0.3247  0.0374
   60TCq2    C7  919   1.864   1.956  12.605 -0.4238  0.8793 -0.5206
   60TCq2    C8  920   1.954   2.004  12.384 -0.4083 -0.7453  0.4532
   60TCq2    O4  921   2.021   1.945  12.301  0.2773  0.4888 -0.2344
   60TCq2    C9  922   1.645   1.647  12.429  0.0555 -0.3922  0.4224
   60TCq2    O5  923   1.708   1.587  12.334  0.4939 -0.8630 -0.6592
   60TCq2    O6  924   1.543   1.588  12.482 -0.0857 -0.3331 -0.0901
   60TCq2    H2  925   1.618   1.723  12.690 -1.6279  0.9987 -0.8671
   60TCq2    H3  926   1.831   1.779  12.326 -0.7782 -0.7895  0.5997
   60TCq2    H4  927   1.909   2.048  12.642  1.0866  0.5724 -1.5826
   61MPD2     C  928   0.925   3.498  14.435  0.9102 -0.0708 -0.7736
   61MPD2    C1  929   0.988   3.575  14.528  0.2432  0.8130 -0.6057
   61MPD2    C2  930   0.938   3.702  14.550  0.0288  0.7920  0.4582
   61MPD2    C3  931   0.834   3.753  14.477 -0.3221  0.1342 -0.4729
   61MPD2    C4  932   0.765   3.668  14.397 -0.6274  1.1482  0.6292
   61MPD2    C5  933   0.816   3.545  14.370  0.2366  0.0098 -0.0063
   61MPD2     H  934   0.995   3.758  14.623 -0.1813  0.4501  0.8810
   61MPD2    H1  935   0.672   3.692  14.346 -1.7672 -2.1036  1.1969
   61MPD2    H2  936   0.946   3.392  14.419  1.8056 -0.3872  2.6270
   61MPD2    H3  937   0.763   3.479  14.303 -0.1816 -0.1737  0.5044
   61MPD2     N  938   0.789   3.884  14.490 -0.3527  0.1347  0.0270
   61MPD2    H5  939   0.694   3.911  14.470 -0.9666 -1.7930  0.3012
   61MPD2    N1  940   1.089   3.531  14.614 -0.1547 -0.3880 -0.3405
   61MPD2    H7  941   1.126   3.605  14.673 -0.9498 -0.7127  0.5848
   62TCq2    C1  942   1.159   3.407  14.605  0.4681 -0.0650 -0.2669
   62TCq2    O2  943   1.152   3.318  14.517 -0.4435 -0.8257  0.1304
   62TCq2    C2  944   1.252   3.391  14.715  0.0446 -0.0393 -0.0143
   62TCq2    C3  945   1.352   3.296  14.713 -1.0080  0.7891 -0.9755
   62TCq2    C4  946   1.433   3.291  14.817 -0.1864  0.3666  0.1356
   62TCq2    C5  947   1.412   3.370  14.925  0.1071  0.4934 -0.3061
   62TCq2    C6  948   1.301   3.445  14.933 -0.2346  0.2918  0.6670
   62TCq2    C7  949   1.222   3.461  14.829 -0.0068  0.3582  1.0512
   62TCq2    C8  950   1.302   3.571  15.013 -0.0309 -0.1266 -0.7678
   62TCq2    O4  951   1.226   3.663  14.975  0.1106  0.4209 -0.1209
   62TCq2    C9  952   1.560   3.220  14.809 -0.5912  0.4011 -0.1187
   62TCq2    O5  953   1.627   3.192  14.911 -0.0021 -0.1858  0.0062
   62TCq2    O6  954   1.591   3.184  14.693 -0.1189  0.3673  0.1372
   62TCq2    H2  955   1.381   3.246  14.622 -0.6341 -2.8709  1.1406
   62TCq2    H3  956   1.484   3.363  15.005 -0.0111 -0.6441 -0.2978
   62TCq2    H4  957   1.126   3.509  14.845 -0.3468 -0.2378  0.8049
   63TMC2    C1  958   1.139   3.511  10.883 -0.3467  0.3478 -1.0548
   63TMC2    C2  959   1.235   3.541  10.973  0.0547  0.4584 -0.4052
   63TMC2    C3  960   1.347   3.598  10.920  0.2899 -0.6203  0.3552
   63TMC2    C4  961   1.150   3.541  10.750 -0.2551 -0.8941  0.1853
   63TMC2    C5  962   1.262   3.609  10.703  0.3431 -0.0073 -0.2949
   63TMC2    C6  963   1.364   3.637  10.789  0.9346 -0.3660 -0.0599
   63TMC2     C  964   1.017   3.444  10.931  1.3732 -0.2448 -0.4016
   63TMC2     O  965   0.997   3.440  11.053 -0.5886  0.3300  0.0397
   63TMC2     H  966   1.227   3.506  11.075 -1.4225  4.1990  0.7785
   63TMC2    H1  967   1.065   3.521  10.685  2.1309  0.0597 -3.2084
   63TMC2    H2  968   1.457   3.681  10.754  0.7473 -0.3274 -0.5082
   63TMC2    C7  969   1.248   3.676  10.576 -0.0701 -0.3556 -0.1615
   63TMC2    C8  970   1.444   3.621  11.023  0.4270  0.2832 -0.1918
   63TMC2    O1  971   1.146   3.661  10.508  0.0643 -0.1427 -0.0770
   63TMC2    O2  972   1.422   3.635  11.141 -0.3521  0.2783 -0.2289
   63TMC2    O5  973   1.567   3.647  10.969 -0.5755 -0.2760  0.7426
   63TMC2    H5  974   1.580   3.598  10.885 -2.0453 -0.8703  0.8662
   64MPD2     C  975   0.613   3.154  10.870  0.3225 -0.6128  0.0190
   64MPD2    C1  976   0.700   3.123  10.774 -0.2102  0.1904 -0.7105
   64MPD2    C2  977   0.801   3.217  10.749  0.9275 -0.3504  0.2844
   64MPD2    C3  978   0.826   3.317  10.834  0.2062  0.2412 -0.6795
   64MPD2    C4  979   0.747   3.343  10.943  0.1312  0.6390  0.1564
   64MPD2    C5  980   0.628   3.262  10.953 -0.0595 -0.4954 -0.3672
   64MPD2     H  981   0.866   3.203  10.664  0.0555  0.9411 -0.6048
   64MPD2    H1  982   0.768   3.422  11.014  2.4500  1.7922 -1.8271
   64MPD2    H2  983   0.524   3.096  10.887 -1.0589  2.1839  2.3477
   64MPD2    H3  984   0.554   3.273  11.032 -1.2917 -0.8273 -1.4694
   64MPD2     N  985   0.945   3.396  10.827  0.1129  0.0182 -0.8052
   64MPD2    H5  986   0.994   3.390  10.739  0.7832 -1.8597 -0.3217
   64MPD2    N1  987   0.685   3.005  10.698  0.2387 -0.3642  0.6937
   64MPD2    H7  988   0.731   3.006  10.608 -0.6639  0.9800  0.2499
   65MPD2     C  989   1.842   3.453  15.844 -0.0622  0.7848 -0.8033
   65MPD2    C1  990   1.894   3.425  15.718 -0.8342 -0.0039 -1.0501
   65MPD2    C2  991   1.895   3.288  15.683  0.2914 -0.6499 -0.2390
   65MPD2    C3  992   1.867   3.193  15.780  0.2009 -0.2468  0.2442
   65MPD2    C4  993   1.828   3.229  15.899  0.3955 -0.4058  0.5104
   65MPD2    C5  994   1.803   3.354  15.934  0.2186  0.0826  0.3950
   65MPD2     H  995   1.912   3.265  15.579 -2.6290  1.0211 -1.0624
   65MPD2    H1  996   1.801   3.155  15.972 -2.1084 -2.2979 -2.3214
   65MPD2    H2  997   1.841   3.556  15.875 -1.2413  0.1420  1.2927
   65MPD2    H3  998   1.756   3.362  16.031 -0.0743  0.4788  0.2203
   65MPD2     N  999   1.873   3.053  15.750 -0.0768 -0.6059  0.2839
   65MPD2    H5 1000   1.829   2.987  15.814  1.4529 -1.3161  0.5977
   65MPD2    N1 1001   1.926   3.516  15.616 -0.4550 -0.2118 -0.3448
   65MPD2    H7 1002   1.960   3.487  15.525 -0.9376  1.9870 -1.2266
   66TCq2    C1 1003   1.938   3.649  15.638  0.0056 -0.0720  0.2691
   66TCq2    O2 1004   1.940   3.719  15.737  0.5290 -0.4965 -0.3081
   66TCq2    C2 1005   1.936   3.725  15.512  1.2398 -0.0848 -0.2755
   66TCq2    C3 1006   1.931   3.649  15.395 -0.3004 -0.2355  0.6207
   66TCq2    C4 1007   1.862   3.703  15.288 -1.0072 -0.1129  0.2820
   66TCq2    C5 1008   1.804   3.824  15.289 -0.0975  0.5984 -0.6938
   66TCq2    C6 1009   1.791   3.883  15.412 -0.3618 -0.3074  1.0826
   66TCq2    C7 1010   1.861   3.835  15.519 -0.3159  0.2529 -0.1903
   66TCq2    C8 1011   1.726   4.016  15.416  0.0109  0.0441 -0.1359
   66TCq2    O4 1012   1.677   4.061  15.315 -0.6443  0.8946 -0.9674
   66TCq2    C9 1013   1.865   3.635  15.160  0.0190  0.0412  0.0543
   66TCq2    O5 1014   1.934   3.533  15.144 -0.6710  0.4781  0.0530
   66TCq2    O6 1015   1.808   3.688  15.059  0.5177 -0.1220  0.0601
   66TCq2    H2 1016   1.984   3.555  15.385 -1.2320 -0.5031 -1.7509
   66TCq2    H3 1017   1.784   3.862  15.189 -1.2526  0.7052 -0.4195
   66TCq2    H4 1018   1.852   3.885  15.615 -1.0278  0.8791 -0.5809
   67MPD2     C 1019   2.036   2.549  14.134 -0.1596 -0.9521  0.8121
   67MPD2    C1 1020   1.939   2.626  14.198  0.3084 -0.0102 -0.2623
   67MPD2    C2 1021   1.813   2.633  14.142 -0.3355 -0.6860  0.1554
   67MPD2    C3 1022   1.772   2.550  14.041  0.2125 -0.5010  0.8057
   67MPD2    C4 1023   1.867   2.466  13.984 -0.5372  0.2362 -0.5440
   67MPD2    C5 1024   1.997   2.461  14.035  0.5572 -0.0964  0.0981
   67MPD2     H 1025   1.742   2.706  14.180 -0.9926  0.5092 -3.2956
   67MPD2    H1 1026   1.850   2.398  13.902 -1.2885  0.6186 -0.7066
   67MPD2    H2 1027   2.133   2.538  14.181 -0.0177 -0.4225  0.6434
   67MPD2    H3 1028   2.070   2.389  13.999  0.7568  1.0553 -1.8129
   67MPD2     N 1029   1.635   2.560  13.998 -0.0841  0.4944 -0.2906
   67MPD2    H5 1030   1.620   2.515  13.908  0.1979  0.3367 -0.2586
   67MPD2    N1 1031   1.973   2.714  14.304 -0.0384  0.4555 -0.4257
   67MPD2    H7 1032   1.899   2.775  14.337  1.7662  2.1188  0.5600
   68TCq2    C1 1033   2.082   2.693  14.388  0.2078  0.0184 -0.0757
   68TCq2    O2 1034   2.177   2.614  14.380  0.0752  0.0616  0.3325
   68TCq2    C2 1035   2.092   2.793  14.496  0.3853  0.1511 -0.2060
   68TCq2    C3 1036   2.027   2.911  14.489  0.4165  0.0566 -0.4246
   68TCq2    C4 1037   2.043   2.997  14.595  0.0398  0.4120 -0.4691
   68TCq2    C5 1038   2.123   2.970  14.702  0.5182 -0.1119 -0.2689
   68TCq2    C6 1039   2.190   2.855  14.699 -0.9838 -1.0607 -0.0111
   68TCq2    C7 1040   2.180   2.767  14.604 -0.5179 -0.0366  0.2454
   68TCq2    C8 1041   2.327   2.854  14.762  0.3564  0.6725  0.3027
   68TCq2    O4 1042   2.422   2.797  14.708  0.5760  0.1166 -0.6684
   68TCq2    C9 1043   1.964   3.125  14.599  0.8162 -0.7945 -0.5546
   68TCq2    O5 1044   1.891   3.150  14.501 -0.2924  0.0552  0.3622
   68TCq2    O6 1045   1.946   3.189  14.707 -0.1085 -0.1150 -0.3453
   68TCq2    H2 1046   1.960   2.944  14.410  0.5844  1.3166 -0.0434
   68TCq2    H3 1047   2.125   3.030  14.791 -2.6576  0.0291 -0.2859
   68TCq2    H4 1048   2.242   2.678  14.611 -2.1877 -1.3033 -1.0555
   69TMC2    C1 1049   3.583   3.867  12.215 -0.3952 -0.4667 -0.1229
   69TMC2    C2 1050   3.466   3.881  12.148 -0.1723  0.4627  0.1042
   69TMC2    C3 1051   3.459   3.878  12.011 -0.2327  0.9331 -0.1489
   69TMC2    C4 1052   3.691   3.830  12.142 -0.2621  0.5458  0.4574
   69TMC2    C5 1053   3.681   3.808  12.006 -0.2924 -0.0084 -0.9367
   69TMC2    C6 1054   3.564   3.843  11.937 -0.3651  0.1171  0.7459
   69TMC2     C 1055   3.585   3.863  12.354  0.0202  0.1634 -0.0189
   69TMC2     O 1056   3.474   3.853  12.403  0.0140  0.4090 -0.6328
   69TMC2     H 1057   3.376   3.899  12.206 -0.7950  0.6665 -0.9323
   69TMC2    H1 1058   3.781   3.810  12.199 -0.9933 -1.0819  1.0746
   69TMC2    H2 1059   3.542   3.824  11.832  0.5883 -1.9518  0.9203
   69TMC2    C7 1060   3.807   3.767  11.934  0.1315 -0.4160  1.1984
   69TMC2    C8 1061   3.344   3.926  11.946 -0.1399 -0.9046  0.0654
   69TMC2    O1 1062   3.914   3.759  11.990 -0.0979  0.5477 -0.1696
   69TMC2    O2 1063   3.345   3.973  11.834 -0.4748  0.8379 -0.7269
   69TMC2    O5 1064   3.234   3.893  12.018 -0.1891 -0.2535  0.2917
   69TMC2    H5 1065   3.240   3.815  12.078 -1.7502 -1.1800 -0.7768
   70MPD2     C 1066   3.863   3.916  12.583 -0.0308  0.3513 -0.1368
   70MPD2    C1 1067   3.731   3.884  12.550 -0.6272 -0.3644  0.3623
   70MPD2    C2 1068   3.641   3.840  12.638  0.1298  0.1529  1.5237
   70MPD2    C3 1069   3.668   3.835  12.775 -0.3358  0.5856 -0.0197
   70MPD2    C4 1070   3.787   3.894  12.814  0.4943 -0.5525  0.5465
   70MPD2    C5 1071   3.879   3.937  12.720  0.3394 -0.4595  1.3538
   70MPD2     H 1072   3.546   3.799  12.606 -0.2218  2.8308 -0.9107
   70MPD2    H1 1073   3.809   3.906  12.919 -0.1775 -0.0659  0.6281
   70MPD2    H2 1074   3.933   3.950  12.507  1.2004  0.3936  1.0083
   70MPD2    H3 1075   3.976   3.966  12.759  0.5092  2.2753 -1.1286
   70MPD2     N 1076   3.598   3.760  12.871 -0.2680 -0.1594 -0.5602
   70MPD2    H5 1077   3.643   3.744  12.961  0.0935 -1.7673 -1.0098
   70MPD2    N1 1078   3.707   3.884  12.411  0.0734  0.2043  0.1442
   70MPD2    H7 1079   3.791   3.914  12.363 -0.3860  2.8996  1.0033
   71TMC2    C1 1080   1.911   0.220   1.732 -0.4255  0.1521 -0.0518
   71TMC2    C2 1081   2.027   0.168   1.783 -0.1965  0.1869  0.7445
   71TMC2    C3 1082   2.026   0.120   1.913  0.1921 -0.6272  0.0441
   71TMC2    C4 1083   1.798   0.221   1.805 -0.2665 -0.2880 -0.9697
   71TMC2    C5 1084   1.801   0.170   1.937  0.8464 -0.0912 -0.7017
   71TMC2    C6 1085   1.918   0.124   1.995  0.5517 -0.1850 -0.4424
   71TMC2     C 1086   1.902   0.276   1.598 -0.2839 -0.8883 -0.0812
   71TMC2     O 1087   1.792   0.310   1.557  0.2385  0.0309  0.5113
   71TMC2     H 1088   2.122   0.188   1.734 -0.6732  0.3175 -0.1279
   71TMC2    H1 1089   1.709   0.257   1.755 -1.1188 -2.6942 -1.1971
   71TMC2    H2 1090   1.919   0.087   2.097  0.0392  0.2776 -0.2712
   71TMC2    C7 1091   1.682   0.116   1.994  0.1255 -0.2755 -0.8357
   71TMC2    C8 1092   2.135   0.026   1.958 -0.1699  0.1352 -0.1355
   71TMC2    O1 1093   1.689   0.067   2.107  0.0376  0.1233  0.4212
   71TMC2    O2 1094   2.161   4.712   2.071 -0.3971 -0.4065  0.1589
   71TMC2    O5 1095   2.132   4.663   1.861  0.1167  0.6635 -0.5463
   71TMC2    H5 1096   2.092   4.699   1.780 -0.1481 -0.3443 -0.8581
   72MPD2     C 1097   2.106   0.466   1.171  0.0687 -0.8395 -0.6475
   72MPD2    C1 1098   1.977   0.422   1.198 -0.4193 -0.2179  0.2572
   72MPD2    C2 1099   1.952   0.357   1.317  0.7324  0.7740 -0.8313
   72MPD2    C3 1100   2.053   0.342   1.411 -0.2399  0.4113 -0.6821
   72MPD2    C4 1101   2.176   0.370   1.376 -0.4064 -0.1615 -0.8953
   72MPD2    C5 1102   2.209   0.431   1.262 -0.1187 -0.3204 -0.2265
   72MPD2     H 1103   1.853   0.316   1.335  1.2988 -0.0715  0.3251
   72MPD2    H1 1104   2.251   0.368   1.455 -1.5519 -0.8136  0.1809
   72MPD2    H2 1105   2.137   0.522   1.084  1.8566  0.7041  0.9880
   72MPD2    H3 1106   2.310   0.459   1.234 -0.9325  2.3707 -0.4551
   72MPD2     N 1107   2.031   0.291   1.546  0.4585  0.1995 -0.6831
   72MPD2    H5 1108   2.112   0.273   1.604  0.4178 -0.5695 -0.8597
   72MPD2    N1 1109   1.870   0.446   1.114 -0.1676  0.2898 -0.2017
   72MPD2    H7 1110   1.778   0.434   1.155 -1.1485  1.1999 -2.1406
   73TMC2    C1 1111   1.209   1.195  13.620 -0.1248  0.0710 -0.5551
   73TMC2    C2 1112   1.223   1.061  13.590 -0.0721  0.2585  0.3449
   73TMC2    C3 1113   1.281   0.983  13.686 -0.1414 -0.4641 -0.4026
   73TMC2    C4 1114   1.272   1.252  13.724 -0.6183  0.0849 -0.3617
   73TMC2    C5 1115   1.350   1.176  13.810  0.4284 -0.0046 -0.7267
   73TMC2    C6 1116   1.352   1.045  13.789  0.4693  0.1425 -0.6173
   73TMC2     C 1117   1.212   1.280  13.503  0.3345 -0.0033  0.3340
   73TMC2     O 1118   1.239   1.395  13.527  0.5222  0.6061 -0.3154
   73TMC2     H 1119   1.186   1.015  13.499 -1.4482  1.4504  0.3127
   73TMC2    H1 1120   1.253   1.356  13.745  1.0303  0.5267 -1.0917
   73TMC2    H2 1121   1.387   0.975  13.864  0.5057  0.1510 -0.6261
   73TMC2    C7 1122   1.490   1.237  13.826  0.2564  0.0487  0.4499
   73TMC2    C8 1123   1.324   0.852  13.640  0.1604  0.6495  0.6467
   73TMC2    O1 1124   1.570   1.181  13.895 -0.2737 -0.0918  0.8866
   73TMC2    O2 1125   1.355   0.823  13.524 -0.4897  0.0451 -0.3092
   73TMC2    O5 1126   1.329   0.768  13.743  0.3806  0.6946  0.4285
   73TMC2    H5 1127   1.295   0.792  13.832  2.3659  0.5827  1.2199
   74MPD2     C 1128   1.315   1.344  13.010  0.0295 -0.0858 -0.0086
   74MPD2    C1 1129   1.336   1.427  13.116  0.1815  0.3744  0.7032
   74MPD2    C2 1130   1.292   1.389  13.242  0.5077 -0.2821 -0.1945
   74MPD2    C3 1131   1.239   1.266  13.257  0.1151  0.4405  0.1012
   74MPD2    C4 1132   1.220   1.177  13.146 -0.8004  0.6486 -0.0916
   74MPD2    C5 1133   1.261   1.220  13.023 -0.1101 -0.2775 -0.0693
   74MPD2     H 1134   1.319   1.453  13.325  1.0522  1.8688 -2.0343
   74MPD2    H1 1135   1.178   1.077  13.155 -1.7844  1.1386  0.7472
   74MPD2    H2 1136   1.352   1.364  12.910 -0.2530 -2.4931 -0.5927
   74MPD2    H3 1137   1.261   1.149  12.942 -0.6362 -0.0839 -0.2430
   74MPD2     N 1138   1.218   1.212  13.386  0.0474 -0.2375  0.5987
   74MPD2    H5 1139   1.184   1.116  13.388 -0.3667 -0.1189 -0.5401
   74MPD2    N1 1140   1.417   1.539  13.084 -0.2997  0.4050 -0.0209
   74MPD2    H7 1141   1.444   1.557  12.988 -0.5940  0.0933 -0.1620
   75TCq2    C1 1142   1.528   2.621  14.065 -0.5196  0.1744  0.2289
   75TCq2    O2 1143   1.530   2.640  14.188 -0.6025  0.3845  0.3607
   75TCq2    C2 1144   1.398   2.622  13.997 -1.0184  0.1961  0.1714
   75TCq2    C3 1145   1.292   2.647  14.080 -0.2431  0.1087  0.1968
   75TCq2    C4 1146   1.165   2.607  14.034  0.2037  0.1891  0.5146
   75TCq2    C5 1147   1.145   2.535  13.917  0.3172  0.6103 -0.7587
   75TCq2    C6 1148   1.258   2.517  13.842  0.9404 -0.2830  0.5050
   75TCq2    C7 1149   1.385   2.565  13.875  0.1750 -0.8049  0.3497
   75TCq2    C8 1150   1.238   2.513  13.698  0.1943 -0.1028 -0.1426
   75TCq2    O4 1151   1.170   2.425  13.649  0.1640 -0.3070 -0.6592
   75TCq2    C9 1152   1.046   2.620  14.123 -0.6782 -0.4181  0.7276
   75TCq2    O5 1153   1.058   2.675  14.241 -0.3681  1.1025  0.3716
   75TCq2    O6 1154   0.952   2.537  14.092 -0.4558 -0.6847  0.1767
   75TCq2    H2 1155   1.308   2.695  14.176 -1.0977  1.2329 -0.2283
   75TCq2    H3 1156   1.051   2.495  13.879  1.4003 -3.7636  1.1794
   75TCq2    H4 1157   1.469   2.569  13.807 -0.6111  1.0536 -0.5327
   76MPD2     C 1158   0.370   3.597  11.998  0.3040 -0.4155 -0.4711
   76MPD2    C1 1159   0.266   3.507  11.983  0.5888 -0.3342  0.1276
   76MPD2    C2 1160   0.280   3.368  12.005 -0.0035 -0.5096  0.1009
   76MPD2    C3 1161   0.400   3.323  12.037  0.0899  0.9764 -0.3798
   76MPD2    C4 1162   0.502   3.407  12.079  0.1784  0.3301  0.8232
   76MPD2    C5 1163   0.486   3.550  12.054 -0.4960  0.2585  0.1970
   76MPD2     H 1164   0.190   3.308  11.996 -0.5518  0.3902 -0.5467
   76MPD2    H1 1165   0.596   3.368  12.117  0.5362 -1.4848 -1.9605
   76MPD2    H2 1166   0.364   3.703  11.974 -0.6878 -0.6718 -1.3585
   76MPD2    H3 1167   0.559   3.626  12.081  0.5094 -1.2315  1.6664
   76MPD2     N 1168   0.422   3.185  12.029  0.5338  0.2316  0.1579
   76MPD2    H5 1169   0.496   3.148  12.087  0.5915  2.2583  1.3939
   76MPD2    N1 1170   0.145   3.562  11.929 -0.0843 -0.0115  0.6632
   76MPD2    H7 1171   0.150   3.656  11.891 -0.7501 -0.2910 -0.1442
   77TCq2    C1 1172   0.343   3.094  11.960 -0.3551 -0.3810  1.1455
   77TCq2    O2 1173   0.243   3.116  11.894 -0.3814  0.0172 -0.1279
   77TCq2    C2 1174   0.382   2.953  11.973  0.6042 -0.4904 -0.0923
   77TCq2    C3 1175   0.284   2.866  11.943 -0.8675  0.1367  0.0663
   77TCq2    C4 1176   0.305   2.735  11.969 -0.7235 -0.0853 -0.0263
   77TCq2    C5 1177   0.424   2.687  12.019 -0.1106  0.0710  0.9169
   77TCq2    C6 1178   0.517   2.781  12.049 -0.2629  0.9391 -0.3705
   77TCq2    C7 1179   0.501   2.915  12.023 -0.4983 -0.2279  0.4486
   77TCq2    C8 1180   0.643   2.721  12.070  0.4820  0.7191  0.4745
   77TCq2    O4 1181   0.646   2.602  12.040  0.0161  0.0012  0.3562
   77TCq2    C9 1182   0.201   2.637  11.940  0.7164 -0.5218 -0.5852
   77TCq2    O5 1183   0.103   2.684  11.874 -0.5373 -0.4335 -0.4114
   77TCq2    O6 1184   0.185   2.536  12.016 -0.1800 -0.1435  0.2485
   77TCq2    H2 1185   0.192   2.903  11.900 -0.1915  1.6385 -0.0799
   77TCq2    H3 1186   0.434   2.584  12.050 -0.4635 -0.9207 -2.2876
   77TCq2    H4 1187   0.583   2.986  12.021 -0.3874 -0.3113  1.8252
   78MPD1     C 1188   0.093   3.751   1.044 -0.1555  0.1789 -0.2798
   78MPD1    C1 1189   0.191   3.739   0.952 -0.7791  0.7616 -0.1506
   78MPD1    C2 1190   0.316   3.789   0.990  0.1479  0.0122 -0.5773
   78MPD1    C3 1191   0.345   3.816   1.122  0.8727 -0.8488  0.7471
   78MPD1    C4 1192   0.242   3.821   1.210 -0.1314  0.7245  0.4590
   78MPD1    C5 1193   0.117   3.798   1.167 -0.6611  0.7474 -0.0670
   78MPD1     H 1194   0.396   3.787   0.916 -1.0639 -0.9797 -1.8673
   78MPD1    H1 1195   0.265   3.844   1.313  0.2998  0.1454  0.4902
   78MPD1    H2 1196   4.712   3.727   1.028 -0.6230  1.1371  1.3889
   78MPD1    H3 1197   0.029   3.823   1.225 -1.5837 -0.5524 -0.9213
   78MPD1     N 1198   0.480   3.832   1.166 -0.0604  0.2851  0.3508
   78MPD1    H5 1199   0.492   3.832   1.267  1.5028 -0.0183  0.1633
   78MPD1    N1 1200   0.160   3.721   0.818 -0.0914  0.2957  0.0683
   78MPD1    H6 1201   0.083   3.656   0.801 -0.9219  1.2357  0.2414
   78MPD1    H7 1202   0.237   3.685   0.763  1.1528  1.0239  1.3551
   79TCq2    C1 1203   0.595   3.841   1.091  0.4326  0.1537 -0.2850
   79TCq2    O2 1204   0.605   3.856   0.968 -0.6089 -0.0439  0.0906
   79TCq2    C2 1205   0.708   3.861   1.172  0.6176  0.0946  0.1977
   79TCq2    C3 1206   0.695   3.907   1.302  0.2221  0.8168  0.7034
   79TCq2    C4 1207   0.810   3.907   1.380  0.8021 -0.4414 -0.2591
   79TCq2    C5 1208   0.925   3.859   1.333 -0.2288 -0.1583  0.1598
   79TCq2    C6 1209   0.931   3.812   1.206  0.0396  0.1312 -0.5156
   79TCq2    C7 1210   0.820   3.796   1.133 -0.0024 -0.3964  0.7256
   79TCq2    C8 1211   1.064   3.785   1.152 -0.0397  0.1976 -0.0905
   79TCq2    O4 1212   1.155   3.767   1.231  0.3213  0.1472 -0.6563
   79TCq2    C9 1213   0.805   3.972   1.508 -0.4034  0.0766  0.1892
   79TCq2    O5 1214   0.694   4.001   1.558  0.0652  0.0422 -0.2994
   79TCq2    O6 1215   0.910   4.009   1.568 -0.2241 -0.1355 -0.0901
   79TCq2    H2 1216   0.601   3.950   1.335 -0.4488  0.6634 -1.0195
   79TCq2    H3 1217   1.010   3.853   1.400  0.3146 -2.2253 -0.7006
   79TCq2    H4 1218   0.822   3.745   1.038  0.0274 -1.0712  1.0904
   80MPD2     C 1219   4.326   2.875  12.369  0.4852 -0.4518 -0.1043
   80MPD2    C1 1220   4.207   2.918  12.315  0.1570  0.2737 -0.0602
   80MPD2    C2 1221   4.107   2.956  12.405  0.5177  0.4341  0.1484
   80MPD2    C3 1222   4.122   2.931  12.545  0.7598 -1.0803 -0.9113
   80MPD2    C4 1223   4.243   2.880  12.591  0.1086 -0.3200  0.0925
   80MPD2    C5 1224   4.342   2.857  12.504  0.5016  0.2000  0.0982
   80MPD2     H 1225   4.012   2.999  12.376 -0.0920 -1.5790 -0.8513
   80MPD2    H1 1226   4.251   2.855  12.696  4.4288 -0.1987 -0.1909
   80MPD2    H2 1227   4.410   2.848  12.306  0.3706 -0.4170 -0.2724
   80MPD2    H3 1228   4.442   2.838  12.541  0.5368 -1.6869 -0.9799
   80MPD2     N 1229   4.026   2.965  12.648  0.3063  0.1060  0.5708
   80MPD2    H5 1230   4.049   2.931  12.740  0.7437 -0.6280  0.1892
   80MPD2    N1 1231   4.179   2.936  12.177  0.3648 -0.0089 -0.0785
   80MPD2    H7 1232   4.089   2.978  12.154  0.4017  0.2842  0.2989
   81TCq2    C1 1233   4.262   2.917  12.071 -0.3104 -0.0327  0.4000
   81TCq2    O2 1234   4.383   2.886  12.070  0.3628 -0.0836 -0.4915
   81TCq2    C2 1235   4.205   2.937  11.937  0.0811 -0.5969  0.5568
   81TCq2    C3 1236   4.305   2.945  11.840 -0.0459  0.2659 -0.5311
   81TCq2    C4 1237   4.261   2.906  11.716  0.2889 -0.1111 -0.3547
   81TCq2    C5 1238   4.134   2.856  11.692 -0.6590  0.4890 -0.4082
   81TCq2    C6 1239   4.064   2.816  11.797 -0.7002  0.0962 -0.2915
   81TCq2    C7 1240   4.091   2.862  11.921 -0.2768  0.1551  0.3226
   81TCq2    C8 1241   3.939   2.743  11.779  0.1695 -0.1071  0.2077
   81TCq2    O4 1242   3.884   2.738  11.668  0.5796  0.3670  0.5046
   81TCq2    C9 1243   4.355   2.914  11.606  0.3372  0.1968  0.5050
   81TCq2    O5 1244   4.472   2.958  11.634  0.3248 -0.2945 -0.0156
   81TCq2    O6 1245   4.328   2.857  11.500 -0.1753  0.1933 -0.3680
   81TCq2    H2 1246   4.400   2.994  11.852 -0.1035  0.2638 -0.0598
   81TCq2    H3 1247   4.101   2.826  11.593 -1.5130 -0.3619  0.1313
   81TCq2    H4 1248   4.024   2.837  12.003 -2.3136  0.5231 -1.2532
   82MPD2     C 1249   2.480   2.929  10.396 -0.0647 -0.4299 -0.3746
   82MPD2    C1 1250   2.408   2.817  10.416  0.2971 -0.4457  0.1561
   82MPD2    C2 1251   2.434   2.742  10.534 -0.4577  0.8006  1.0622
   82MPD2    C3 1252   2.540   2.776  10.613 -0.0337 -0.0904  0.6104
   82MPD2    C4 1253   2.620   2.883  10.572 -0.5310 -0.0967  0.0192
   82MPD2    C5 1254   2.586   2.956  10.468 -0.3072 -0.0904  0.3466
   82MPD2     H 1255   2.366   2.663  10.566 -1.5353  1.2037 -0.2343
   82MPD2    H1 1256   2.711   2.899  10.628 -1.2390  0.2012  1.0856
   82MPD2    H2 1257   2.468   2.995  10.310  1.0845 -1.3532 -1.2427
   82MPD2    H3 1258   2.653   3.034  10.433 -0.7638  1.1240  2.1745
   82MPD2     N 1259   2.580   2.696  10.721  0.9334 -0.1373  0.6486
   82MPD2    H5 1260   2.668   2.720  10.765  2.1441  0.5377 -2.1109
   82MPD2    N1 1261   2.316   2.782  10.320 -0.0765  0.3821 -0.6826
   82MPD2    H7 1262   2.282   2.857  10.261  1.1456  0.2580 -1.5376
   83TCq2    C1 1263   2.530   2.578  10.765 -0.4358 -0.0589 -1.6439
   83TCq2    O2 1264   2.434   2.513  10.722  0.0623  0.1624 -0.0124
   83TCq2    C2 1265   2.618   2.520  10.866  0.0215 -0.2605  1.1673
   83TCq2    C3 1266   2.704   2.590  10.943  0.0783 -0.2308 -0.0132
   83TCq2    C4 1267   2.779   2.518  11.030 -0.6851 -0.0107  0.1372
   83TCq2    C5 1268   2.781   2.385  11.031  0.7106  0.8102 -0.0938
   83TCq2    C6 1269   2.701   2.316  10.944  0.1546 -0.1499 -0.9393
   83TCq2    C7 1270   2.616   2.385  10.863  0.2026 -0.0835 -0.7837
   83TCq2    C8 1271   2.675   2.181  10.973 -0.1600 -0.0108  0.3694
   83TCq2    O4 1272   2.697   2.143  11.089 -0.0416 -0.3645  0.5838
   83TCq2    C9 1273   2.856   2.596  11.132 -0.1127 -0.4317  0.2593
   83TCq2    O5 1274   2.933   2.539  11.211  0.2699 -0.3380  0.4836
   83TCq2    O6 1275   2.824   2.717  11.148  0.0257  0.2657  0.2467
   83TCq2    H2 1276   2.694   2.697  10.958  0.2236 -0.5172  2.0966
   83TCq2    H3 1277   2.831   2.338  11.115 -2.2860  0.3112  1.4000
   83TCq2    H4 1278   2.564   2.332  10.784 -0.8008  0.5592 -0.5496
   84TCq2    C1 1279   3.684   1.241  10.140 -0.3017 -0.5307 -0.6997
   84TCq2    O2 1280   3.659   1.146  10.215 -0.2380  0.0273 -0.2432
   84TCq2    C2 1281   3.719   1.360  10.208 -0.6462  0.5317 -0.2216
   84TCq2    C3 1282   3.808   1.452  10.148 -0.3246  0.4802 -0.3675
   84TCq2    C4 1283   3.868   1.546  10.221  0.2124  0.1432  0.5276
   84TCq2    C5 1284   3.848   1.551  10.358 -0.0600 -1.2931 -0.1573
   84TCq2    C6 1285   3.750   1.467  10.413 -0.2344  0.3734 -0.0827
   84TCq2    C7 1286   3.689   1.372  10.340  0.2974  0.0639 -0.5762
   84TCq2    C8 1287   3.705   1.499  10.547  0.4120 -0.7879 -0.2803
   84TCq2    O4 1288   3.630   1.421  10.600  1.0562  0.5788  0.4621
   84TCq2    C9 1289   3.970   1.620  10.161 -0.3748  0.3330 -0.7157
   84TCq2    O5 1290   3.968   1.626  10.038  0.2973  0.1207  0.0137
   84TCq2    O6 1291   4.079   1.633  10.226  0.0200  0.1211 -0.1059
   84TCq2    H2 1292   3.833   1.437  10.043  0.7212 -1.1132  0.0991
   84TCq2    H3 1293   3.907   1.633  10.398  0.0949 -1.8363  0.7300
   84TCq2    H4 1294   3.623   1.299  10.384  1.4962 -1.6537 -1.5976
   85MPD2     C 1295   4.075   4.024  16.319 -0.0836 -0.6566  0.7619
   85MPD2    C1 1296   4.062   3.974  16.198 -0.2512 -0.5119  0.1060
   85MPD2    C2 1297   4.113   4.039  16.084  0.4716 -0.0893  0.4276
   85MPD2    C3 1298   4.174   4.162  16.099 -0.0821 -0.8422 -0.3971
   85MPD2    C4 1299   4.190   4.211  16.223  0.1765 -0.0709  0.0969
   85MPD2    C5 1300   4.154   4.135  16.331 -0.3885  0.2072  0.1213
   85MPD2     H 1301   4.100   4.009  15.980  0.8297  1.9592 -0.2090
   85MPD2    H1 1302   4.234   4.308  16.244  0.4324  0.0263 -0.9320
   85MPD2    H2 1303   4.038   3.982  16.412 -0.8551  0.4727  0.9528
   85MPD2    H3 1304   4.167   4.172  16.432 -0.0253 -2.6589  1.1518
   85MPD2     N 1305   4.221   4.225  15.981  0.3529 -0.2242 -0.0522
   85MPD2    H5 1306   4.207   4.177  15.892  0.4832 -1.3340  0.5296
   85MPD2    N1 1307   4.007   3.843  16.198  0.0916  0.0860 -0.3424
   85MPD2    H7 1308   3.987   3.817  16.294 -1.2360  0.8984 -0.4009
   86TCq2    C1 1309   4.250   4.360  15.978  0.1941 -0.4580 -0.4694
   86TCq2    O2 1310   4.219   4.447  16.056  0.1503 -0.0701  0.0681
   86TCq2    C2 1311   4.297   4.404  15.851  0.2788  0.6039 -0.8430
   86TCq2    C3 1312   4.258   4.521  15.797  0.1243 -0.1615 -0.5513
   86TCq2    C4 1313   4.308   4.568  15.677  0.2654  0.5379 -0.2832
   86TCq2    C5 1314   4.398   4.493  15.613  0.5258  0.0879 -0.0221
   86TCq2    C6 1315   4.435   4.370  15.668  0.9495 -0.2371 -0.7272
   86TCq2    C7 1316   4.384   4.325  15.786 -0.0330  0.1429  0.2747
   86TCq2    C8 1317   4.505   4.271  15.582  0.4749  0.2505  0.0592
   86TCq2    O4 1318   4.542   4.170  15.637 -0.3864  0.2956 -0.1814
   86TCq2    C9 1319   4.253   4.688  15.619 -0.3614 -0.3915  0.0234
   86TCq2    O5 1320   4.138   4.719  15.648 -0.1653  0.1451  0.2929
   86TCq2    O6 1321   4.321   0.004  15.516 -0.6461  0.1793  0.1158
   86TCq2    H2 1322   4.188   4.573  15.861  2.1010  0.5420  1.0296
   86TCq2    H3 1323   4.437   4.528  15.518 -1.4492 -0.2043 -0.9475
   86TCq2    H4 1324   4.414   4.231  15.830  0.6485  0.6403  0.8678
   87MPD2     C 1325   1.662   2.808   1.462 -0.0547 -0.7675  0.5962
   87MPD2    C1 1326   1.622   2.797   1.333 -0.7032  0.6318  0.0292
   87MPD2    C2 1327   1.548   2.903   1.273  0.2980  0.1936 -0.0190
   87MPD2    C3 1328   1.516   3.016   1.345 -0.6328  0.6696 -0.1146
   87MPD2    C4 1329   1.563   3.024   1.475 -0.2943  0.2393  0.1337
   87MPD2    C5 1330   1.638   2.923   1.528 -0.1779 -0.2473 -0.5118
   87MPD2     H 1331   1.510   2.887   1.173  1.9231 -1.2851 -0.3874
   87MPD2    H1 1332   1.527   3.105   1.538 -2.3446  0.3262 -1.1488
   87MPD2    H2 1333   1.711   2.724   1.509 -1.6415 -2.1321 -0.1996
   87MPD2    H3 1334   1.672   2.927   1.631 -0.2792  0.4431 -0.5052
   87MPD2     N 1335   1.448   3.127   1.291  0.1938  0.3877  0.0892
   87MPD2    H5 1336   1.406   3.191   1.358 -0.9381  1.5204 -1.7144
   87MPD2    N1 1337   1.655   2.677   1.267  0.4920 -0.1683 -0.1295
   87MPD2    H7 1338   1.703   2.605   1.319 -2.0562 -1.9317 -0.2173
   88TCq2    C1 1339   1.627   2.644   1.137  1.4598  0.2501 -0.5335
   88TCq2    O2 1340   1.576   2.713   1.050 -0.0276 -0.3674  0.2317
   88TCq2    C2 1341   1.676   2.516   1.102 -0.2888  0.2797  0.0038
   88TCq2    C3 1342   1.731   2.437   1.198  0.6336  0.0610 -0.1426
   88TCq2    C4 1343   1.773   2.311   1.163  0.6545  0.3653 -0.2313
   88TCq2    C5 1344   1.754   2.261   1.036 -0.6384  0.4431  0.6421
   88TCq2    C6 1345   1.705   2.356   0.940  0.2015  0.7129 -0.8613
   88TCq2    C7 1346   1.676   2.487   0.969  0.3025 -0.1927 -0.7081
   88TCq2    C8 1347   1.694   2.307   0.803 -0.2254  0.0767  0.4610
   88TCq2    O4 1348   1.782   2.227   0.773  0.0623  0.3736  0.2360
   88TCq2    C9 1349   1.808   2.218   1.266  0.5391  0.1531 -0.7702
   88TCq2    O5 1350   1.777   2.255   1.386 -0.5100 -0.3338  0.1055
   88TCq2    O6 1351   1.809   2.098   1.227  0.3629 -0.0242 -0.1678
   88TCq2    H2 1352   1.731   2.455   1.305  0.9785  1.5402 -0.3904
   88TCq2    H3 1353   1.782   2.159   1.011 -0.4954  0.9365 -1.2304
   88TCq2    H4 1354   1.653   2.562   0.894  0.2134 -0.3783 -0.8669
   89MPD2     C 1355   1.958   0.333   2.255 -0.3080  0.1635  0.0491
   89MPD2    C1 1356   1.924   0.436   2.175  0.1070  1.0297 -0.1448
   89MPD2    C2 1357   2.028   0.504   2.114 -0.2937 -0.6800  0.3768
   89MPD2    C3 1358   2.162   0.475   2.131 -0.3870 -0.4780 -0.3127
   89MPD2    C4 1359   2.194   0.360   2.204  0.0781  0.7487 -0.1454
   89MPD2    C5 1360   2.093   0.291   2.258 -0.0664  0.9556 -0.4729
   89MPD2     H 1361   1.994   0.585   2.051  0.9796 -1.0790 -0.8178
   89MPD2    H1 1362   2.295   0.325   2.222 -0.1732  1.6310  3.0845
   89MPD2    H2 1363   1.883   0.272   2.304 -0.5807 -0.0932 -0.6916
   89MPD2    H3 1364   2.122   0.208   2.321  1.7257  0.6446 -1.7081
   89MPD2     N 1365   2.266   0.556   2.080 -0.3760  0.3274 -0.2861
   89MPD2    H5 1366   2.239   0.642   2.034  2.6003  0.1011 -2.4231
   89MPD2    N1 1367   1.793   0.484   2.151  0.6859 -0.9225  0.2161
   89MPD2    H7 1368   1.774   0.555   2.082 -0.4659 -2.1539 -0.7454
   90TCq2    C1 1369   2.397   0.520   2.078 -0.0351 -0.0126  0.3700
   90TCq2    O2 1370   2.455   0.415   2.105  0.2704 -0.2876  0.0468
   90TCq2    C2 1371   2.477   0.626   2.022 -0.4090  0.2062 -0.2656
   90TCq2    C3 1372   2.601   0.602   1.983 -0.3440 -0.3267  0.1401
   90TCq2    C4 1373   2.683   0.696   1.932 -0.0630  0.3084 -0.1528
   90TCq2    C5 1374   2.641   0.826   1.925  0.6460  0.4709 -0.2428
   90TCq2    C6 1375   2.517   0.858   1.981 -0.5757  0.1144 -0.1194
   90TCq2    C7 1376   2.428   0.757   2.018  0.0261 -0.3705  0.0083
   90TCq2    C8 1377   2.474   0.993   1.967  0.4475  0.2749  0.4071
   90TCq2    O4 1378   2.362   1.020   2.007 -0.1585  0.1245 -0.3611
   90TCq2    C9 1379   2.802   0.659   1.866  0.0662 -0.5372  0.3409
   90TCq2    O5 1380   2.857   0.743   1.791 -0.2966 -0.2005  0.4102
   90TCq2    O6 1381   2.835   0.538   1.867 -0.4158  0.3842  0.2091
   90TCq2    H2 1382   2.639   0.501   1.979  0.8469  0.0441  2.1395
   90TCq2    H3 1383   2.708   0.897   1.878  1.7452 -0.5172 -0.1405
   90TCq2    H4 1384   2.349   0.788   2.085 -0.2122 -0.2701 -0.3243
   91TMC2    C1 1385   4.056   0.836  15.892 -0.1819  0.6218  0.1730
   91TMC2    C2 1386   4.106   0.928  15.977  0.6283 -0.9520  0.0434
   91TMC2    C3 1387   4.029   0.976  16.078  0.0488 -0.3280  0.0925
   91TMC2    C4 1388   3.922   0.805  15.902  0.3219  0.3793  0.3156
   91TMC2    C5 1389   3.840   0.855  15.997  0.0644  0.3725 -1.0119
   91TMC2    C6 1390   3.897   0.944  16.082 -0.0312  0.2622 -0.8982
   91TMC2     C 1391   4.147   0.761  15.814  0.5444  0.0722 -0.0882
   91TMC2     O 1392   4.087   0.706  15.725  0.2965 -0.3163 -0.4469
   91TMC2     H 1393   4.209   0.961  15.967 -0.0352  1.4153  0.9785
   91TMC2    H1 1394   3.896   0.725  15.835 -1.2962 -1.7410  3.4643
   91TMC2    H2 1395   3.837   0.980  16.164 -1.6707 -3.2122 -0.5771
   91TMC2    C7 1396   3.706   0.797  16.013  0.1873  0.4847  0.0296
   91TMC2    C8 1397   4.094   1.044  16.188  0.1203  0.2427  0.6740
   91TMC2    O1 1398   3.659   0.815  16.126 -0.0529 -0.4588 -0.2186
   91TMC2    O2 1399   4.178   1.131  16.157  0.2387 -0.6250 -0.4213
   91TMC2    O5 1400   4.133   0.933  16.263 -0.0327  0.2978  0.3271
   91TMC2    H5 1401   4.069   0.860  16.276  0.1664  0.0810  0.0870
   92MPD2     C 1402   4.370   0.603  15.675  0.2778 -0.6630 -0.0224
   92MPD2    C1 1403   4.386   0.680  15.793  0.3024 -0.4153 -0.0575
   92MPD2    C2 1404   4.507   0.677  15.856 -0.1521 -0.4639  0.0854
   92MPD2    C3 1405   4.607   0.596  15.815 -0.4431  0.3739 -0.5798
   92MPD2    C4 1406   4.598   0.524  15.697  0.2417  0.8793 -0.5408
   92MPD2    C5 1407   4.481   0.532  15.625 -0.0474  0.6793  0.6407
   92MPD2     H 1408   4.510   0.730  15.951  2.0229 -0.9322  0.2765
   92MPD2    H1 1409   4.685   0.480  15.649  0.5588  0.4113  0.4651
   92MPD2    H2 1410   4.277   0.594  15.619 -0.6369 -2.2676  1.7554
   92MPD2    H3 1411   4.464   0.476  15.534 -1.1450  2.2802 -0.1303
   92MPD2     N 1412   0.000   0.608  15.887 -0.4221 -0.1096 -0.5480
   92MPD2    H5 1413   4.712   0.647  15.980  1.9096 -0.5688 -0.0617
   92MPD2    N1 1414   4.283   0.748  15.853  0.0462  0.6168  0.4637
   92MPD2    H7 1415   4.314   0.799  15.934 -0.9065  0.3010  1.0328
   93MPD2     C 1416   1.451   0.261  13.652 -0.4006  0.1149  0.9345
   93MPD2    C1 1417   1.385   0.365  13.721  0.1955  1.2790  0.1098
   93MPD2    C2 1418   1.256   0.383  13.703 -0.5658 -0.3734 -0.4718
   93MPD2    C3 1419   1.180   0.295  13.632 -0.5057 -0.0387 -0.4439
   93MPD2    C4 1420   1.240   0.187  13.566 -1.0234  0.4992 -0.6760
   93MPD2    C5 1421   1.379   0.172  13.578  0.3598  0.0979 -0.0952
   93MPD2     H 1422   1.220   0.473  13.753  0.2655  0.2989 -1.1009
   93MPD2    H1 1423   1.186   0.114  13.506 -0.6323 -0.5650  0.2858
   93MPD2    H2 1424   1.558   0.249  13.662 -0.2776  1.3055  1.0657
   93MPD2    H3 1425   1.423   0.087  13.526 -0.0330 -0.2577  0.1528
   93MPD2     N 1426   1.050   0.332  13.588  0.1077  0.4588 -0.4586
   93MPD2    H5 1427   1.023   0.280  13.506  1.8742 -0.6310 -0.3544
   93MPD2    N1 1428   1.457   0.462  13.794 -0.0823  0.0035  0.3744
   93MPD2    H7 1429   1.415   0.511  13.871 -0.8460 -1.4553  0.8887
   94TCq2    C1 1430   1.591   0.492  13.782 -0.0880  0.1109  0.1511
   94TCq2    O2 1431   1.678   0.433  13.724  0.5226 -0.2731  0.3780
   94TCq2    C2 1432   1.633   0.600  13.870 -0.7433 -0.0230  0.7861
   94TCq2    C3 1433   1.545   0.664  13.958 -0.7063  1.1315  0.4611
   94TCq2    C4 1434   1.594   0.778  14.022  0.5624  0.1553  0.1914
   94TCq2    C5 1435   1.725   0.816  14.014  0.2470  0.2077 -0.0559
   94TCq2    C6 1436   1.803   0.760  13.925  0.0934  0.3138 -0.2438
   94TCq2    C7 1437   1.763   0.652  13.848  0.1313 -0.1386 -0.7408
   94TCq2    C8 1438   1.942   0.796  13.938  1.2419 -1.3840 -0.2776
   94TCq2    O4 1439   1.999   0.854  14.033 -0.5195 -0.4411 -0.3369
   94TCq2    C9 1440   1.513   0.858  14.114  0.4818 -0.0012  0.1962
   94TCq2    O5 1441   1.390   0.828  14.117 -0.5138  0.1180 -0.6404
   94TCq2    O6 1442   1.577   0.925  14.199 -0.2382 -0.1209 -0.4822
   94TCq2    H2 1443   1.443   0.633  13.981 -0.4494 -0.7242 -0.9354
   94TCq2    H3 1444   1.772   0.901  14.062  0.3030  1.1171 -1.7007
   94TCq2    H4 1445   1.836   0.608  13.780 -0.8796 -0.6383 -1.5105
   95TMC2    C1 1446   1.083   2.553  16.139  0.0004 -0.2069 -0.0032
   95TMC2    C2 1447   1.026   2.450  16.214  0.3443  0.2466  0.3981
   95TMC2    C3 1448   0.952   2.494  16.324  0.0424  1.0206  0.1659
   95TMC2    C4 1449   1.069   2.680  16.174  0.5594 -0.2027 -0.1791
   95TMC2    C5 1450   0.996   2.716  16.285 -0.4486  0.6446 -0.4495
   95TMC2    C6 1451   0.924   2.626  16.361  0.3368 -0.2669 -0.2080
   95TMC2     C 1452   1.150   2.528  16.013 -0.0799 -0.6195 -0.1574
   95TMC2     O 1453   1.162   2.622  15.938  0.4938  0.0862 -0.0128
   95TMC2     H 1454   1.031   2.345  16.188  0.3507 -0.1582  2.0187
   95TMC2    H1 1455   1.144   2.747  16.134 -0.1838  0.5468 -0.2958
   95TMC2    H2 1456   0.864   2.659  16.445  0.1369 -0.4751 -0.2695
   95TMC2    C7 1457   0.981   2.860  16.314  1.0715  0.3613  0.4058
   95TMC2    C8 1458   0.881   2.384  16.396  0.1167 -0.4111  0.5281
   95TMC2    O1 1459   0.960   2.895  16.431  0.3791 -0.4852  0.0962
   95TMC2    O2 1460   0.865   2.275  16.346  0.1145  0.5258  0.0294
   95TMC2    O5 1461   0.888   2.419  16.523 -0.1763  0.0847 -0.2781
   95TMC2    H5 1462   0.925   2.509  16.537  1.8985 -0.8787  0.4202
   96MPD2     C 1463   1.492   2.289  15.706  0.5831 -0.2112  0.2067
   96MPD2    C1 1464   1.477   2.428  15.737  0.1449  0.6122 -0.1639
   96MPD2    C2 1465   1.376   2.468  15.821 -0.5302  0.8022 -0.3892
   96MPD2    C3 1466   1.308   2.375  15.897  0.4900  0.2090  0.3315
   96MPD2    C4 1467   1.327   2.240  15.862 -1.0639  0.0020 -0.6142
   96MPD2    C5 1468   1.407   2.201  15.760  0.3022 -0.0278 -0.1184
   96MPD2     H 1469   1.357   2.572  15.847  0.1710  1.1365 -1.1874
   96MPD2    H1 1470   1.262   2.166  15.907 -0.0771  1.4084  3.1131
   96MPD2    H2 1471   1.568   2.256  15.637  0.6376 -2.0690  1.1592
   96MPD2    H3 1472   1.416   2.097  15.731 -0.5471  0.2969 -1.5864
   96MPD2     N 1473   1.215   2.405  15.997  0.3568 -0.7770 -0.3508
   96MPD2    H5 1474   1.182   2.333  16.060 -0.3898 -0.9045 -0.8906
   96MPD2    N1 1475   1.573   2.507  15.664  0.1713  0.0008 -0.2180
   96MPD2    H7 1476   1.635   2.462  15.598  1.4749 -0.8567  1.5746
   97MPD2     C 1477   2.535   4.077   1.165  0.1808  0.1102 -0.6025
   97MPD2    C1 1478   2.573   4.211   1.169  0.3262 -0.7539 -0.2404
   97MPD2    C2 1479   2.658   4.265   1.074 -0.0550  0.3064  0.5677
   97MPD2    C3 1480   2.717   4.178   0.979 -0.1025  0.2372 -0.8798
   97MPD2    C4 1481   2.680   4.043   0.983 -0.2119  0.3632  0.3308
   97MPD2    C5 1482   2.585   3.991   1.074 -0.8529  0.3208 -0.4249
   97MPD2     H 1483   2.683   4.370   1.080  0.4509  0.3139 -2.1536
   97MPD2    H1 1484   2.723   3.976   0.909  0.6355  1.4753 -0.1675
   97MPD2    H2 1485   2.453   4.040   1.225  1.0862  0.0447  0.5825
   97MPD2    H3 1486   2.564   3.885   1.066 -2.1512  0.6204 -0.9755
   97MPD2     N 1487   2.831   4.209   0.903 -0.0090 -0.0340  0.1504
   97MPD2    H5 1488   2.882   4.135   0.855 -2.4241 -0.2551 -2.1056
   97MPD2    N1 1489   2.509   4.277   1.270  0.0933 -0.3582  0.4700
   97MPD2    H7 1490   2.439   4.231   1.328  0.4648  1.2380  2.1962
   98TCq2    C1 1491   2.868   4.336   0.871 -0.5845  0.4065  0.5509
   98TCq2    O2 1492   2.813   4.442   0.892 -0.2453 -0.1802 -0.0597
   98TCq2    C2 1493   2.994   4.332   0.795 -1.1193  0.3498 -0.8347
   98TCq2    C3 1494   3.053   4.215   0.751 -0.3793 -0.3106 -0.0777
   98TCq2    C4 1495   3.178   4.224   0.704  0.2960  0.0975  0.5499
   98TCq2    C5 1496   3.251   4.338   0.681  0.2172  0.5093  0.0939
   98TCq2    C6 1497   3.187   4.454   0.710 -0.1276  0.1372 -0.6716
   98TCq2    C7 1498   3.065   4.455   0.774  1.0022 -0.3318  0.2726
   98TCq2    C8 1499   3.267   4.579   0.688  0.2523 -0.2493  0.7094
   98TCq2    O4 1500   3.377   4.569   0.636  0.0829 -0.0604 -0.3213
   98TCq2    C9 1501   3.231   4.105   0.646 -0.2833 -0.3705 -0.3855
   98TCq2    O5 1502   3.354   4.088   0.669 -0.7076  0.3651 -0.4065
   98TCq2    O6 1503   3.153   4.017   0.605 -0.2381  0.5138 -0.2049
   98TCq2    H2 1504   3.014   4.115   0.763  0.9558 -0.3393  4.0173
   98TCq2    H3 1505   3.346   4.335   0.630 -0.1128 -0.0232 -0.4827
   98TCq2    H4 1506   3.026   4.539   0.830 -1.0019 -0.6412 -0.6413
   99MPD2     C 1507   1.387   2.286   1.851 -0.0227  0.0632 -0.0859
   99MPD2    C1 1508   1.261   2.286   1.792 -0.7595 -0.8917 -0.3805
   99MPD2    C2 1509   1.239   2.193   1.682 -0.1592 -0.6135 -0.6105
   99MPD2    C3 1510   1.333   2.098   1.641  0.9655  0.3370  0.7291
   99MPD2    C4 1511   1.455   2.113   1.703  0.0707 -0.1036 -0.3454
   99MPD2    C5 1512   1.478   2.200   1.801  0.2544  0.0889 -0.1077
   99MPD2     H 1513   1.147   2.200   1.624 -0.2939 -3.5841 -0.7519
   99MPD2    H1 1514   1.536   2.043   1.687 -0.2751 -0.7174  0.5749
   99MPD2    H2 1515   1.409   2.360   1.927  1.7017 -1.8109  1.2197
   99MPD2    H3 1516   1.574   2.200   1.850 -0.0984  0.3647  0.5938
   99MPD2     N 1517   1.315   2.012   1.528  0.2903 -0.2020 -0.5365
   99MPD2    H5 1518   1.224   2.016   1.482 -0.0839  0.1701  0.2302
   99MPD2    N1 1519   1.154   2.380   1.826  0.2659 -0.0779  0.1948
   99MPD2    H7 1520   1.063   2.355   1.788  0.2319 -3.8734  2.7608
  100TCq2    C1 1521   1.173   2.495   1.897 -0.3951 -0.1040  0.5383
  100TCq2    O2 1522   1.281   2.544   1.937 -0.0880 -0.9544  0.4437
  100TCq2    C2 1523   1.054   2.575   1.919 -0.2503  0.3044 -0.3823
  100TCq2    C3 1524   1.077   2.699   1.966 -0.0922  0.3662 -0.5155
  100TCq2    C4 1525   0.962   2.778   1.999  0.3150 -0.6443 -0.5061
  100TCq2    C5 1526   0.837   2.723   1.988  0.0214  0.1707 -0.6312
  100TCq2    C6 1527   0.823   2.593   1.954 -0.5870 -0.1836  0.5482
  100TCq2    C7 1528   0.929   2.516   1.919  0.6402  0.4510  0.1812
  100TCq2    C8 1529   0.688   2.532   1.944  0.9830  0.3696  0.6992
  100TCq2    O4 1530   0.594   2.597   1.997 -0.4292 -0.3132  0.5697
  100TCq2    C9 1531   0.983   2.912   2.059 -0.4192 -0.2876 -0.1771
  100TCq2    O5 1532   1.076   2.980   2.013  0.0830 -0.2422  0.1214
  100TCq2    O6 1533   0.906   2.950   2.156  0.4945  0.3743  0.0048
  100TCq2    H2 1534   1.173   2.750   1.973  0.3487 -0.4915 -0.4189
  100TCq2    H3 1535   0.753   2.788   2.012  0.7949  0.6007  0.8812
  100TCq2    H4 1536   0.921   2.409   1.900  3.9194  0.0240  1.1507
  101MPD2     C 1537   2.819   2.555  12.985  0.3989 -0.1586  0.1099
  101MPD2    C1 1538   2.741   2.604  13.082 -0.1633  0.4550  0.1912
  101MPD2    C2 1539   2.691   2.523  13.174 -0.4836 -0.7747 -0.0811
  101MPD2    C3 1540   2.711   2.380  13.169  0.0065  0.0128  0.0462
  101MPD2    C4 1541   2.777   2.331  13.057 -0.4763  0.5338  1.0062
  101MPD2    C5 1542   2.836   2.418  12.970  0.2805 -0.4037 -0.0139
  101MPD2     H 1543   2.619   2.558  13.248 -0.1495 -1.3422  0.5153
  101MPD2    H1 1544   2.786   2.226  13.033 -2.2922  0.5180  0.4501
  101MPD2    H2 1545   2.865   2.625  12.915 -1.2064 -0.0452 -0.8407
  101MPD2    H3 1546   2.893   2.377  12.888  1.4635 -1.0370  1.1346
  101MPD2     N 1547   2.646   2.293  13.273 -0.5902 -0.9228  0.0432
  101MPD2    H5 1548   2.578   2.339  13.332 -0.6508 -1.2475  0.2241
  101MPD2    N1 1549   2.738   2.747  13.087 -0.6096 -0.5367  0.2291
  101MPD2    H7 1550   2.791   2.799  13.017 -1.1758  0.7197  0.7278
  102TCq2    C1 1551   2.719   3.223  12.900  0.0281  1.4299  0.6741
  102TCq2    O2 1552   2.829   3.176  12.852 -0.0605  0.1965 -0.1791
  102TCq2    C2 1553   2.642   3.151  12.999  1.2193 -0.2419 -0.0506
  102TCq2    C3 1554   2.526   3.196  13.056 -0.5546  0.3179 -0.2400
  102TCq2    C4 1555   2.460   3.116  13.137 -0.2998  0.1040  0.1470
  102TCq2    C5 1556   2.505   2.999  13.185 -0.3063 -0.4904 -0.4734
  102TCq2    C6 1557   2.633   2.958  13.142 -0.2350 -0.1100 -0.7847
  102TCq2    C7 1558   2.695   3.033  13.040 -0.5885  0.2055 -0.1746
  102TCq2    C8 1559   2.659   2.818  13.179  0.2331 -0.5691 -0.3741
  102TCq2    O4 1560   2.590   2.775  13.269 -0.0946  0.2380 -0.6186
  102TCq2    C9 1561   2.321   3.157  13.180  0.3717  0.5953  0.0660
  102TCq2    O5 1562   2.287   3.267  13.137 -0.4727 -0.1549  0.0727
  102TCq2    O6 1563   2.254   3.086  13.263  0.6161  0.7465  0.0370
  102TCq2    H2 1564   2.466   3.272  13.008 -0.3346  1.0068  0.5781
  102TCq2    H3 1565   2.445   2.944  13.256 -0.6330 -1.0360 -1.1737
  102TCq2    H4 1566   2.794   3.010  13.005  0.0843  1.4824  0.8867
  103TMC2    C1 1567   1.101   3.010  12.629  0.7884  0.0377  0.7947
  103TMC2    C2 1568   1.160   2.908  12.704 -0.5004  0.8369  0.2115
  103TMC2    C3 1569   1.152   2.908  12.841  0.6136  0.2690 -0.2658
  103TMC2    C4 1570   1.046   3.115  12.698  0.3439  0.5558  0.3683
  103TMC2    C5 1571   1.047   3.105  12.841 -0.2154  0.7937 -0.8250
  103TMC2    C6 1572   1.092   3.003  12.914  0.5300  0.4082  0.2369
  103TMC2     C 1573   1.060   2.983  12.491  0.6710 -0.9429  0.1598
  103TMC2     O 1574   0.975   3.062  12.453 -0.2045 -0.2337  0.3862
  103TMC2     H 1575   1.210   2.822  12.660 -3.2987 -0.8326  0.2927
  103TMC2    H1 1576   1.011   3.207  12.653  0.8423  0.8172  0.5188
  103TMC2    H2 1577   1.078   3.005  13.022 -0.4096 -0.5376  0.1373
  103TMC2    C7 1578   0.990   3.218  12.921 -0.2097  0.0193 -0.2964
  103TMC2    C8 1579   1.221   2.795  12.911  0.6689 -0.1239  0.6085
  103TMC2    O1 1580   1.020   3.221  13.037  0.2700  0.4367 -0.0860
  103TMC2    O2 1581   1.256   2.690  12.863 -0.4347 -0.3637  0.5422
  103TMC2    O5 1582   1.242   2.826  13.045  0.4844 -0.4677 -0.3814
  103TMC2    H5 1583   1.243   2.916  13.083  0.4267 -0.7028  0.1699
  104MPD2     C 1584   1.095   2.675  12.288  0.0858  0.6828 -0.3806
  104MPD2    C1 1585   1.046   2.801  12.322  0.5019 -0.2857  0.5216
  104MPD2    C2 1586   0.933   2.848  12.260  0.4331 -0.2638  0.6017
  104MPD2    C3 1587   0.862   2.761  12.173 -0.6388 -0.5655 -0.9551
  104MPD2    C4 1588   0.914   2.642  12.134 -0.3690 -0.3081 -0.1388
  104MPD2    C5 1589   1.027   2.597  12.199 -0.9004  0.0101  0.7700
  104MPD2     H 1590   0.877   2.932  12.299 -0.8670 -1.5670  1.5589
  104MPD2    H1 1591   0.867   2.563  12.077 -0.0522 -0.7912  0.2727
  104MPD2    H2 1592   1.184   2.632  12.332 -0.5840  2.3206  2.5594
  104MPD2    H3 1593   1.074   2.506  12.163  0.7548  0.7259  1.1207
  104MPD2     N 1594   0.736   2.804  12.130 -0.2378 -0.3366 -0.2793
  104MPD2    H5 1595   0.696   2.894  12.156  0.1657 -0.9399  2.3724
  104MPD2    N1 1596   1.107   2.866  12.436 -0.1113  0.0201 -0.0867
  104MPD2    H7 1597   1.178   2.810  12.483 -1.2993 -0.5849  0.9741
  105MPD2     C 1598   2.559   1.630  17.584  0.3144 -0.4067 -0.6695
  105MPD2    C1 1599   2.454   1.662  17.498 -0.1999 -0.3668 -0.6430
  105MPD2    C2 1600   2.324   1.677  17.545  0.4361  0.2767  0.2250
  105MPD2    C3 1601   2.300   1.686  17.677  1.2938  0.5427  0.6179
  105MPD2    C4 1602   2.402   1.663   0.066  0.2359 -0.2231 -0.3231
  105MPD2    C5 1603   2.524   1.619   0.021 -0.5601  0.5731  0.3194
  105MPD2     H 1604   2.238   1.698  17.482 -0.6731 -0.3563  1.5498
  105MPD2    H1 1605   2.378   1.670   0.171  0.5027 -1.5563 -0.1850
  105MPD2    H2 1606   2.660   1.606  17.552  0.6993  0.5214 -0.1468
  105MPD2    H3 1607   2.594   1.594   0.100 -1.1222 -2.8852 -0.2800
  105MPD2     N 1608   2.167   1.725   0.007  0.3221  0.1787  0.7324
  105MPD2    H5 1609   2.112   1.747  17.621 -0.5562 -0.6996  1.0843
  105MPD2    N1 1610   2.480   1.677  17.357  0.0273 -0.1086 -0.5835
  105MPD2    H7 1611   2.403   1.687  17.291 -1.6084  0.4590  1.3923
  106TCq2    C1 1612   2.119   1.758   0.136 -0.5785  0.1836 -0.3506
  106TCq2    O2 1613   2.186   1.757   0.242 -0.2025  0.0735 -0.3702
  106TCq2    C2 1614   1.994   1.837   0.123  0.7581 -0.2175  0.0629
  106TCq2    C3 1615   1.917   1.826   0.009 -0.5340  0.0907  0.5788
  106TCq2    C4 1616   1.789   1.881   0.010  0.0045 -0.3947 -0.0696
  106TCq2    C5 1617   1.741   1.938   0.123 -0.2825 -0.0971  0.1468
  106TCq2    C6 1618   1.810   1.934   0.239  0.1323  0.1120  0.1648
  106TCq2    C7 1619   1.939   1.895   0.232 -0.4800  0.1114  0.6067
  106TCq2    C8 1620   1.770   2.033   0.345 -0.4125 -0.5179 -0.1652
  106TCq2    O4 1621   1.858   2.059   0.429 -0.5377  0.3259  0.1673
  106TCq2    C9 1622   1.719   1.862  17.585 -0.0857  0.2850  0.0251
  106TCq2    O5 1623   1.779   1.823  17.480 -0.6868  0.7514 -0.0236
  106TCq2    O6 1624   1.597   1.900  17.590 -0.0409  0.1761  0.1057
  106TCq2    H2 1625   1.939   1.759  17.624  2.1499  0.0998  1.3153
  106TCq2    H3 1626   1.639   1.974   0.111 -1.1157 -2.7680 -0.9457
  106TCq2    H4 1627   1.993   1.896   0.327  0.6913  0.0444 -0.0565
  107TMC2    C1 1628   3.390   1.520  11.458 -0.8757 -0.4645  0.2485
  107TMC2    C2 1629   3.397   1.389  11.448 -0.3616  0.3991  0.6027
  107TMC2    C3 1630   3.461   1.339  11.337 -0.0541 -0.4131 -0.7086
  107TMC2    C4 1631   3.470   1.598  11.377  0.6523 -0.0835 -1.0621
  107TMC2    C5 1632   3.505   1.546  11.259 -0.3067  0.4544  0.0012
  107TMC2    C6 1633   3.495   1.417  11.227 -0.4365  0.7658 -0.2910
  107TMC2     C 1634   3.339   1.579  11.582  0.2510 -0.4277 -0.1931
  107TMC2     O 1635   3.337   1.509  11.682 -0.2522  0.6886 -0.5874
  107TMC2     H 1636   3.380   1.318  11.528 -0.9266  0.9233  0.9441
  107TMC2    H1 1637   3.483   1.702  11.403  0.8971  0.0883 -1.9003
  107TMC2    H2 1638   3.543   1.370  11.142 -0.6588 -1.3687  0.7527
  107TMC2    C7 1639   3.574   1.637  11.170 -0.0121 -0.1893  0.3223
  107TMC2    C8 1640   3.436   1.194  11.313  0.1337 -0.7289  0.1223
  107TMC2    O1 1641   3.617   1.742  11.211 -0.0356 -0.3134  0.0562
  107TMC2    O2 1642   3.322   1.148  11.328 -0.3615  0.2186 -0.1981
  107TMC2    O5 1643   3.525   1.147  11.229  0.3129 -0.0997 -0.0376
  107TMC2    H5 1644   3.610   1.191  11.250  0.7354  0.7724 -3.4226
  108MPD2     C 1645   3.251   1.926  11.617 -0.0576 -0.0388  0.3221
  108MPD2    C1 1646   3.253   1.795  11.658 -0.1406  0.3385  1.3537
  108MPD2    C2 1647   3.206   1.757  11.780 -0.1874  0.2569  0.3641
  108MPD2    C3 1648   3.157   1.856  11.861  0.0909 -0.3543 -0.2687
  108MPD2    C4 1649   3.156   1.982  11.818  0.2192 -0.1647 -0.0257
  108MPD2    C5 1650   3.203   2.021  11.699 -0.4954  0.0419 -0.3206
  108MPD2     H 1651   3.215   1.655  11.816 -1.3316 -0.6129 -1.8598
  108MPD2    H1 1652   3.118   2.060  11.884  0.6812  0.9408 -1.0812
  108MPD2    H2 1653   3.279   1.961  11.518  0.8582  2.5806  1.4945
  108MPD2    H3 1654   3.181   2.122  11.666 -1.2059 -0.5513 -1.6601
  108MPD2     N 1655   3.108   1.838  11.994 -0.5268 -0.8942 -0.3339
  108MPD2    H5 1656   3.079   1.920  12.045  0.3407 -0.2939 -0.8046
  108MPD2    N1 1657   3.309   1.706  11.563  0.2609  0.7509 -0.5116
  108MPD2    H7 1658   3.322   1.744  11.470  0.6367  1.2408 -0.2582
  109MPD2     C 1659   2.142   3.163   1.442 -0.4053  0.5283 -0.4451
  109MPD2    C1 1660   2.036   3.251   1.450 -0.4957  0.1809 -0.6055
  109MPD2    C2 1661   2.000   3.318   1.567  0.4494  0.4705 -0.2832
  109MPD2    C3 1662   2.092   3.319   1.671 -0.0863 -0.0572  0.0179
  109MPD2    C4 1663   2.210   3.253   1.653 -0.0470 -0.1521 -0.6424
  109MPD2    C5 1664   2.229   3.168   1.544  1.2168  0.6733 -0.1835
  109MPD2     H 1665   1.923   3.393   1.573 -0.9651 -1.0980  1.2268
  109MPD2    H1 1666   2.287   3.245   1.729  0.7127  1.3867 -1.2521
  109MPD2    H2 1667   2.174   3.111   1.352 -0.1425 -0.4015  0.1887
  109MPD2    H3 1668   2.327   3.124   1.535  0.3252 -1.2825 -0.3908
  109MPD2     N 1669   2.065   3.393   1.787  0.2172  0.9608  0.1910
  109MPD2    H5 1670   1.973   3.436   1.789  0.2770  1.1263 -0.4194
  109MPD2    N1 1671   1.970   3.275   1.328  0.0354  0.3059  0.2204
  109MPD2    H7 1672   2.010   3.240   1.241 -0.2289 -0.9377  0.6099
  110TCq2    C1 1673   2.140   3.397   1.899 -0.4650  0.1981  0.1482
  110TCq2    O2 1674   2.237   3.330   1.930  0.3583 -0.1572 -0.2828
  110TCq2    C2 1675   2.100   3.504   1.989 -0.5380  0.3017  0.4120
  110TCq2    C3 1676   2.114   3.488   2.125  0.3613  0.5427  0.2188
  110TCq2    C4 1677   2.088   3.601   2.200  0.1216 -0.6258  0.3265
  110TCq2    C5 1678   2.062   3.727   2.154  0.1659 -0.3112 -0.3267
  110TCq2    C6 1679   2.048   3.734   2.021 -0.4314  0.8835  0.1287
  110TCq2    C7 1680   2.064   3.628   1.938 -0.0438 -0.1246  0.2000
  110TCq2    C8 1681   2.057   3.857   1.943  0.1947  0.0561  0.5827
  110TCq2    O4 1682   2.138   3.850   1.849  0.2153  0.2688  0.2714
  110TCq2    C9 1683   2.093   3.584   2.340  0.6151  0.4357 -0.4679
  110TCq2    O5 1684   2.048   3.680   2.407 -0.0300  0.4481 -0.3062
  110TCq2    O6 1685   2.156   3.485   2.385  0.1809 -0.5960 -0.3324
  110TCq2    H2 1686   2.152   3.391   2.152 -1.1356  1.0140  3.9503
  110TCq2    H3 1687   2.039   3.812   2.217  1.6295 -0.7735  0.8155
  110TCq2    H4 1688   2.067   3.642   1.830  0.4128 -2.6906 -0.1272
  111TMC2    C1 1689   2.815   3.457  11.505  0.8470  0.1071 -0.7613
  111TMC2    C2 1690   2.686   3.484  11.539 -0.3882  0.0667 -0.4175
  111TMC2    C3 1691   2.670   3.538  11.664 -0.8303 -0.6444  0.4026
  111TMC2    C4 1692   2.925   3.483  11.584 -0.5104  0.1239 -0.4995
  111TMC2    C5 1693   2.898   3.558  11.693  0.0895  0.0515  0.1490
  111TMC2    C6 1694   2.773   3.577  11.739  0.4204  0.0612 -0.1915
  111TMC2     C 1695   2.836   3.403  11.368 -0.2527 -0.1199 -0.0917
  111TMC2     O 1696   2.752   3.433  11.284 -0.2224 -0.2512  0.0225
  111TMC2     H 1697   2.597   3.468  11.479 -0.8691  0.2351  0.2506
  111TMC2    H1 1698   3.028   3.461  11.559 -1.0477 -1.8887 -0.9346
  111TMC2    H2 1699   2.753   3.638  11.827  0.2131  0.0019 -0.1975
  111TMC2    C7 1700   3.008   3.577  11.780 -0.4233 -0.7846  0.1775
  111TMC2    C8 1701   2.535   3.586  11.701 -0.9972 -0.0173 -0.1782
  111TMC2    O1 1702   2.984   3.566  11.898 -0.5407  0.2090 -0.0378
  111TMC2    O2 1703   2.439   3.520  11.669  0.4960  0.3637  0.2608
  111TMC2    O5 1704   2.541   3.720  11.715 -0.2580 -0.3875  0.2379
  111TMC2    H5 1705   2.627   3.767  11.701  0.2485 -1.2434  0.4851
  112MPD2     C 1706   3.124   3.199  11.005 -0.2351 -0.6940  0.1148
  112MPD2    C1 1707   3.031   3.301  11.008 -0.6386 -0.1777 -0.3064
  112MPD2    C2 1708   2.968   3.336  11.120 -0.1076 -0.1846  0.3211
  112MPD2    C3 1709   3.001   3.280  11.242  0.2673  0.4405 -0.0480
  112MPD2    C4 1710   3.095   3.181  11.243  0.0606  0.5227  0.3081
  112MPD2    C5 1711   3.147   3.142  11.122  0.2539 -0.6043  0.4960
  112MPD2     H 1712   2.888   3.409  11.120  0.3252  0.2971  1.6671
  112MPD2    H1 1713   3.126   3.127  11.332 -1.8181 -0.1461  0.5659
  112MPD2    H2 1714   3.183   3.157  10.924  0.5382 -0.0200  0.3209
  112MPD2    H3 1715   3.213   3.056  11.133  0.7946 -0.2755 -0.2211
  112MPD2     N 1716   2.945   3.323  11.362  0.6393  0.1426 -0.2617
  112MPD2    H5 1717   2.984   3.283  11.447  0.7434 -2.3553 -1.5039
  112MPD2    N1 1718   3.009   3.379  10.891  0.0472  0.1750 -0.6609
  112MPD2    H7 1719   2.933   3.445  10.895 -0.7080 -0.8554  2.1199
  113MPD2     C 1720   0.196   2.639   0.975 -0.0590 -0.4726 -0.5945
  113MPD2    C1 1721   0.258   2.522   1.011  0.0286  0.7037  0.6020
  113MPD2    C2 1722   0.333   2.453   0.917 -0.1906 -0.4590 -0.0046
  113MPD2    C3 1723   0.329   2.482   0.779  0.4405 -0.3304  0.2098
  113MPD2    C4 1724   0.278   2.607   0.745 -0.1215  0.4256  0.5632
  113MPD2    C5 1725   0.211   2.675   0.839  0.4800  0.1376  0.1600
  113MPD2     H 1726   0.389   2.368   0.953 -0.1511  0.4603  2.1208
  113MPD2    H1 1727   0.268   2.645   0.644  2.1242 -0.7791 -0.1120
  113MPD2    H2 1728   0.142   2.706   1.041  3.8346  1.2237  0.8094
  113MPD2    H3 1729   0.158   2.765   0.810 -0.0854  0.5036  2.3647
  113MPD2     N 1730   0.390   2.400   0.678  0.3037  0.0600  0.2406
  113MPD2    H5 1731   0.397   2.446   0.588  1.2833 -0.6316 -0.0432
  113MPD2    N1 1732   0.266   2.472   1.140  0.1773  0.3452 -0.0226
  113MPD2    H7 1733   0.321   2.390   1.167 -0.1182  0.1116 -0.1323
  114TCq2    C1 1734   0.449   2.278   0.695 -0.6942 -0.1910  0.0237
  114TCq2    O2 1735   0.446   2.200   0.792 -0.3272  0.4513 -0.1050
  114TCq2    C2 1736   0.533   2.229   0.584  0.4605 -0.2074  0.1252
  114TCq2    C3 1737   0.535   2.288   0.459  0.2103  0.4212 -0.0666
  114TCq2    C4 1738   0.596   2.215   0.356 -0.2391  0.2956  0.0803
  114TCq2    C5 1739   0.643   2.090   0.371 -0.6559  0.2472  0.2344
  114TCq2    C6 1740   0.637   2.039   0.499  0.1011  0.0100  0.2004
  114TCq2    C7 1741   0.588   2.109   0.604 -0.8066 -0.0504 -0.6410
  114TCq2    C8 1742   0.665   1.894   0.505  0.3218 -0.8147 -0.0791
  114TCq2    O4 1743   0.746   1.845   0.432 -1.3414  1.0954 -0.2543
  114TCq2    C9 1744   0.587   2.285   0.226  0.5281  0.0948  0.1055
  114TCq2    O5 1745   0.596   2.410   0.227  0.5454 -0.0695 -0.7177
  114TCq2    O6 1746   0.606   2.216   0.123 -0.6255 -0.0627  0.3939
  114TCq2    H2 1747   0.475   2.374   0.431 -0.5256  0.3961  1.4841
  114TCq2    H3 1748   0.689   2.033   0.291 -2.3769  1.0673 -1.3145
  114TCq2    H4 1749   0.596   2.064   0.702 -1.9477  0.1191 -0.4713
  115TMC2    C1 1750   2.248   4.523   0.191 -0.0741  0.0261  0.7506
  115TMC2    C2 1751   2.114   4.519   0.224  0.0031 -0.1419  0.0649
  115TMC2    C3 1752   2.061   4.611   0.306 -0.4787  0.1510  1.0059
  115TMC2    C4 1753   2.327   4.629   0.223 -0.2225  0.6988  0.8013
  115TMC2    C5 1754   2.265   0.012   0.285  0.1482  0.2807 -0.0321
  115TMC2    C6 1755   2.136   0.001   0.330  0.1082 -0.6492 -0.6011
  115TMC2     C 1756   2.285   4.416   0.105 -0.3924 -0.5509 -1.0744
  115TMC2     O 1757   2.204   4.374   0.016 -0.7105 -0.0589  0.6272
  115TMC2     H 1758   2.052   4.438   0.188  0.2012 -0.7187  1.0193
  115TMC2    H1 1759   2.431   4.641   0.193 -0.8279  0.9080 -1.2131
  115TMC2    H2 1760   2.089   0.088   0.375  2.0262 -0.8946  1.7932
  115TMC2    C7 1761   2.338   0.140   0.311 -0.7907 -0.3297  0.0242
  115TMC2    C8 1762   1.915   4.614   0.307 -0.8639  0.2078  0.3101
  115TMC2    O1 1763   2.283   0.223   0.383 -0.4182  0.4052 -0.0686
  115TMC2    O2 1764   1.830   4.588   0.222  0.2897  0.0648 -0.5746
  115TMC2    O5 1765   1.877   4.663   0.428  0.1741  0.1111  0.2336
  115TMC2    H5 1766   1.949   4.696   0.485  2.3286 -3.3417 -0.4926
  116MPD2     C 1767   2.617   4.060  17.635 -0.5502  0.0323 -0.2010
  116MPD2    C1 1768   2.477   4.070  17.606  0.4624  0.5264  0.0135
  116MPD2    C2 1769   2.416   4.188  17.652  0.1444 -0.3190 -0.0702
  116MPD2    C3 1770   2.486   4.282   0.037 -0.3033  0.5147  0.6983
  116MPD2    C4 1771   2.621   4.268   0.063  0.6385  0.3165  0.0368
  116MPD2    C5 1772   2.688   4.157   0.003 -0.2498  0.2773 -0.0206
  116MPD2     H 1773   2.310   4.193  17.628  0.1225 -0.2774  0.0368
  116MPD2    H1 1774   2.675   4.337   0.127  2.3729  0.3622 -1.4819
  116MPD2    H2 1775   2.662   3.967  17.601  0.2085  0.0102  0.8990
  116MPD2    H3 1776   2.791   4.135   0.026 -0.9248 -5.3133 -2.2178
  116MPD2     N 1777   2.416   4.389   0.112  0.4712 -0.5973  0.2424
  116MPD2    H5 1778   2.459   4.438   0.189 -1.1636  0.1463  0.6719
  116MPD2    N1 1779   2.409   3.954  17.545  0.2873  0.3401 -0.0241
  116MPD2    H7 1780   2.472   3.880  17.513 -0.7747 -0.1081 -1.0706
  117TMC2    C1 1781   0.896   1.000  14.236 -0.1439 -0.2478 -0.2358
  117TMC2    C2 1782   0.976   0.902  14.275  0.1999 -0.2908 -0.2994
  117TMC2    C3 1783   1.107   0.911  14.289  0.6669 -0.2565  0.4796
  117TMC2    C4 1784   0.956   1.112  14.176 -0.3178 -0.5485 -0.1094
  117TMC2    C5 1785   1.093   1.127  14.178  0.3982 -0.6815  0.3186
  117TMC2    C6 1786   1.169   1.023  14.232 -0.7306 -0.5385 -0.3722
  117TMC2     C 1787   0.756   0.962  14.202 -0.2174  0.1055  0.4502
  117TMC2     O 1788   0.705   0.860  14.249  0.2754 -0.0724  0.6223
  117TMC2     H 1789   0.936   0.807  14.309 -0.1348  0.2297  0.7675
  117TMC2    H1 1790   0.904   1.199  14.139  0.5192  1.0085  2.3732
  117TMC2    H2 1791   1.277   1.034  14.228 -0.6892 -0.4993  0.8795
  117TMC2    C7 1792   1.169   1.232  14.113 -0.3398 -0.5298 -0.6291
  117TMC2    C8 1793   1.174   0.839  14.396  0.2191 -0.4089 -0.4490
  117TMC2    O1 1794   1.279   1.248  14.160  0.2069 -0.1832 -0.3972
  117TMC2    O2 1795   1.112   0.799  14.495 -0.0834  1.4041  0.1094
  117TMC2    O5 1796   1.278   0.773  14.344  0.5691  0.1849  0.0224
  117TMC2    H5 1797   1.307   0.795  14.253 -0.0169  1.1072  0.0487
  118MPD2     C 1798   1.033   1.493  13.894 -0.4590 -0.1607  0.3211
  118MPD2    C1 1799   1.134   1.435  13.971 -0.5733  0.3805 -0.1039
  118MPD2    C2 1800   1.251   1.508  13.996  0.2672 -0.5648  0.5363
  118MPD2    C3 1801   1.275   1.627  13.934  0.2596 -0.5149 -0.3095
  118MPD2    C4 1802   1.184   1.674  13.846 -0.5368  0.0793 -0.3446
  118MPD2    C5 1803   1.066   1.610  13.833 -0.5385 -0.6765  0.3134
  118MPD2     H 1804   1.312   1.458  14.071  0.1045  0.2019  1.1792
  118MPD2    H1 1805   1.200   1.767  13.791  2.1872  2.6824  4.8475
  118MPD2    H2 1806   0.936   1.447  13.875 -0.8246  0.8377 -0.2207
  118MPD2    H3 1807   0.987   1.652  13.771  0.2878  0.9502  0.3804
  118MPD2     N 1808   1.395   1.704  13.951  0.3463  0.0998 -0.2160
  118MPD2    H5 1809   1.413   1.781  13.887 -0.8633  1.9474  1.6870
  118MPD2    N1 1810   1.097   1.308  14.024 -0.0619 -0.1893 -0.4445
  118MPD2    H7 1811   1.006   1.277  13.991  0.4471 -0.9295 -1.1324
  119MPD2     C 1812   3.914   2.625  13.460 -0.8324 -0.2040  0.4700
  119MPD2    C1 1813   3.793   2.576  13.414  0.3535 -0.2407 -0.6562
  119MPD2    C2 1814   3.774   2.502  13.302 -0.9922  0.2054  1.3527
  119MPD2    C3 1815   3.889   2.478  13.224  0.2758 -0.2009  0.2625
  119MPD2    C4 1816   4.009   2.540  13.253 -0.2973 -0.7300  0.2180
  119MPD2    C5 1817   4.015   2.623  13.371  0.0507  0.0834 -0.7670
  119MPD2     H 1818   3.678   2.462  13.272 -0.4572 -0.4572  0.4989
  119MPD2    H1 1819   4.095   2.538  13.188 -0.4218  2.1070 -0.0404
  119MPD2    H2 1820   3.923   2.682  13.552  1.4540  0.5692 -0.2274
  119MPD2    H3 1821   4.103   2.684  13.389  0.6731  0.3338 -4.6145
  119MPD2     N 1822   3.895   2.395  13.114  0.2408 -0.4174 -0.4188
  119MPD2    H5 1823   3.987   2.391  13.071  0.4583  1.6287 -0.1278
  119MPD2    N1 1824   3.689   2.575  13.510 -0.3145 -0.2791  0.3960
  119MPD2    H7 1825   3.712   2.596  13.607  0.3013  0.0536  0.1802
  120TCq2    C1 1826   3.811   2.284  13.099 -0.1415 -0.1533 -0.0042
  120TCq2    O2 1827   3.725   2.245  13.174  0.8253  0.2942 -0.2868
  120TCq2    C2 1828   3.860   2.187  13.003  0.0928 -0.2457  0.6914
  120TCq2    C3 1829   3.913   2.235  12.890  0.3854 -0.0591  0.6344
  120TCq2    C4 1830   3.889   2.166  12.776  0.6530 -0.5445 -0.4885
  120TCq2    C5 1831   3.806   2.056  12.771  0.4086 -0.3387 -0.0820
  120TCq2    C6 1832   3.759   2.010  12.890  0.1634 -0.6309  0.4821
  120TCq2    C7 1833   3.786   2.075  13.006 -0.4092  0.4756  0.0990
  120TCq2    C8 1834   3.643   1.921  12.882  0.2764  0.3500  0.4578
  120TCq2    O4 1835   3.641   1.845  12.792 -0.0550 -0.4009 -0.0226
  120TCq2    C9 1836   3.944   2.209  12.651  0.2197  0.4882 -0.7597
  120TCq2    O5 1837   3.922   2.132  12.552 -0.3729 -0.3956 -0.1340
  120TCq2    O6 1838   3.978   2.328  12.645 -0.6438 -0.0237 -0.1421
  120TCq2    H2 1839   3.969   2.327  12.879 -0.1328  0.2146  0.2997
  120TCq2    H3 1840   3.780   1.999  12.682 -0.8561 -0.1730  0.1884
  120TCq2    H4 1841   3.747   2.041  13.101 -2.0708  2.2907  0.0672
  121TMC2    C1 1842   0.064   4.148  13.930 -0.3110  0.2451  0.5765
  121TMC2    C2 1843   0.047   4.094  13.807 -0.5987  0.7890  0.9853
  121TMC2    C3 1844   4.681   3.994  13.787  0.4904 -0.0500  0.2883
  121TMC2    C4 1845   4.717   4.110  14.041  0.1228  0.2936 -0.0218
  121TMC2    C5 1846   4.626   4.015  14.022  0.0753 -0.4105 -0.0932
  121TMC2    C6 1847   4.603   3.958  13.899  0.8555  0.6245  0.2578
  121TMC2     C 1848   0.176   4.233  13.955 -0.5208 -0.1030  0.3439
  121TMC2     O 1849   0.224   4.252  14.060  0.7617  0.2760 -0.4665
  121TMC2     H 1850   0.107   4.124  13.722 -0.4346 -0.4293  0.6746
  121TMC2    H1 1851   4.722   4.176  14.127  1.7502  2.2253 -1.5759
  121TMC2    H2 1852   4.538   3.872  13.886  0.0428  1.0879  1.2607
  121TMC2    C7 1853   4.518   4.018  14.120  0.6327 -0.2694 -0.5744
  121TMC2    C8 1854   4.680   3.913  13.662 -0.1051  0.8268  0.2692
  121TMC2    O1 1855   4.547   4.047  14.236  0.5465  0.1430 -0.2064
  121TMC2    O2 1856   4.627   3.806  13.664 -0.1545 -0.4550  0.1218
  121TMC2    O5 1857   4.649   4.010  13.582 -0.1258  0.1779 -0.1853
  121TMC2    H5 1858   4.705   4.090  13.591 -1.4987  1.0020  1.0087
  122MPD2     C 1859   0.393   4.426  13.898  0.4861 -0.4321  0.4279
  122MPD2    C1 1860   0.290   4.404  13.816  0.0685  0.3067  0.3840
  122MPD2    C2 1861   0.285   4.458  13.690 -0.0580  0.9902  0.2333
  122MPD2    C3 1862   0.391   4.545  13.652  0.3973 -0.3846 -0.3904
  122MPD2    C4 1863   0.496   4.569  13.741 -0.2312  0.5091 -0.5575
  122MPD2    C5 1864   0.495   4.507  13.861 -1.1275 -0.5080  0.6575
  122MPD2     H 1865   0.199   4.448  13.625 -0.0357 -2.3126  0.7423
  122MPD2    H1 1866   0.567   4.650  13.726  1.8616 -0.9810  1.4193
  122MPD2    H2 1867   0.403   4.368  13.989 -1.4130 -0.1085  0.8296
  122MPD2    H3 1868   0.574   4.532  13.932 -1.2906 -2.1417  1.4124
  122MPD2     N 1869   0.400   4.603  13.523  0.4898 -0.1652 -0.6479
  122MPD2    H5 1870   0.468   4.677  13.510 -1.1847  1.2500 -1.2143
  122MPD2    N1 1871   0.195   4.304  13.838  0.3922  0.8663  0.0268
  122MPD2    H7 1872   0.137   4.271  13.762  0.7036  1.5748 -0.5158
  123MPD2     C 1873   3.495   2.515  10.855 -0.2851 -0.2769  0.2802
  123MPD2    C1 1874   3.561   2.431  10.772 -0.2705  0.4621 -0.0044
  123MPD2    C2 1875   3.663   2.482  10.689 -1.1795 -0.0200  0.1069
  123MPD2    C3 1876   3.684   2.619  10.681 -0.3816  0.2979  0.4619
  123MPD2    C4 1877   3.593   2.702  10.749  0.9435 -0.0949  0.2170
  123MPD2    C5 1878   3.512   2.647  10.844 -0.5234  0.2881 -0.1926
  123MPD2     H 1879   3.731   2.416  10.637 -0.7481  0.0018  0.6419
  123MPD2    H1 1880   3.596   2.810  10.735  1.4540 -0.1273  0.0838
  123MPD2    H2 1881   3.426   2.474  10.927 -1.8372 -0.5743 -1.3854
  123MPD2    H3 1882   3.452   2.708  10.910 -0.7311  0.3493 -0.4376
  123MPD2     N 1883   3.784   2.665  10.591  0.5277  0.6603  0.7394
  123MPD2    H5 1884   3.813   2.597  10.522  0.4907  0.9131  0.4726
  123MPD2    N1 1885   3.521   2.294  10.773 -0.0128 -1.3655 -0.5285
  123MPD2    H7 1886   3.440   2.283  10.834  0.9590 -2.0001  0.6708
  124TCq2    C1 1887   3.833   2.794  10.581  0.0148 -0.6225 -0.5271
  124TCq2    O2 1888   3.827   2.883  10.662 -0.7276 -0.2011 -0.2032
  124TCq2    C2 1889   3.898   2.823  10.449  0.1000 -0.5208 -0.6470
  124TCq2    C3 1890   3.969   2.944  10.446  0.4726 -0.7925 -0.0587
  124TCq2    C4 1891   4.033   2.968  10.330 -0.1667 -0.1708 -0.6731
  124TCq2    C5 1892   4.059   2.870  10.235  0.2659  0.0058  0.5191
  124TCq2    C6 1893   3.994   2.751  10.247  0.3456 -0.8025  0.2972
  124TCq2    C7 1894   3.923   2.725  10.353  0.4903  0.0254 -0.2060
  124TCq2    C8 1895   4.008   2.648  10.151 -0.4137 -1.1627  0.1119
  124TCq2    O4 1896   3.991   2.535  10.195  0.2430  0.1001 -0.1360
  124TCq2    C9 1897   4.106   3.088  10.317 -0.0071  0.3985 -0.5670
  124TCq2    O5 1898   4.069   3.183  10.392  0.1363  0.2575  0.1116
  124TCq2    O6 1899   4.209   3.092  10.242  0.3196 -0.6019  0.4652
  124TCq2    H2 1900   3.957   3.021  10.521 -1.7178 -1.5581  0.4110
  124TCq2    H3 1901   4.129   2.899  10.158 -0.7766 -0.6457 -0.6864
  124TCq2    H4 1902   3.871   2.630  10.352 -0.1924  0.3984 -0.3609
  125TMC2    C1 1903   4.083   3.911   9.549 -0.2606  0.6808 -0.2970
  125TMC2    C2 1904   4.128   3.946   9.671  0.4137 -0.3910 -0.1555
  125TMC2    C3 1905   4.236   4.031   9.681  0.7239  0.9675  0.4080
  125TMC2    C4 1906   4.140   3.971   9.435 -0.8754  0.3909 -0.3592
  125TMC2    C5 1907   4.253   4.044   9.442  0.1653  0.3462 -0.9232
  125TMC2    C6 1908   4.301   4.080   9.564 -0.1024 -0.1031  0.1758
  125TMC2     C 1909   3.954   3.850   9.533  1.3104  0.1740 -0.2848
  125TMC2     O 1910   3.893   3.840   9.637 -0.5482  0.2705 -0.5404
  125TMC2     H 1911   4.072   3.914   9.758  1.5779 -1.8025  0.0700
  125TMC2    H1 1912   4.098   3.962   9.335 -0.3877  1.9594 -0.7065
  125TMC2    H2 1913   4.398   4.129   9.572 -0.1050 -0.0010 -0.3839
  125TMC2    C7 1914   4.340   4.050   9.328 -0.6082 -0.5225 -0.6226
  125TMC2    C8 1915   4.282   4.093   9.795 -0.6043 -0.3842 -0.4154
  125TMC2    O1 1916   4.308   3.985   9.229 -0.4840 -0.6586 -0.5753
  125TMC2    O2 1917   4.341   4.199   9.797  0.0383  0.0960  0.2414
  125TMC2    O5 1918   4.232   4.034   9.903  0.1046  0.2058  0.3538
  125TMC2    H5 1919   4.207   3.939   9.891 -2.0695  0.6712  1.2369
  126MPD1     C 1920   3.622   3.610   9.257  0.2228 -0.8833  0.2445
  126MPD1    C1 1921   3.739   3.572   9.194  0.2588 -0.4362  0.1087
  126MPD1    C2 1922   3.845   3.640   9.249  0.4930 -0.7417 -0.5155
  126MPD1    C3 1923   3.833   3.718   9.362 -0.4911 -0.6640  0.2191
  126MPD1    C4 1924   3.717   3.729   9.435 -0.8181  0.6307 -0.1331
  126MPD1    C5 1925   3.609   3.686   9.369  0.2748 -0.1031  0.5035
  126MPD1     H 1926   3.935   3.628   9.190  1.2682  0.9498  0.3358
  126MPD1    H1 1927   3.704   3.791   9.523  0.1973 -1.1515  1.2669
  126MPD1    H2 1928   3.528   3.564   9.228  0.6602 -0.3030 -2.0166
  126MPD1    H3 1929   3.509   3.705   9.408  0.0676  0.3012 -0.2409
  126MPD1     N 1930   3.945   3.782   9.411 -0.0506  0.0018 -0.4087
  126MPD1    H5 1931   4.031   3.784   9.357 -0.3933 -0.9916 -0.9905
  126MPD1    N1 1932   3.735   3.507   9.067 -0.1662 -0.1136 -0.4499
  126MPD1    H6 1933   3.670   3.433   9.047 -0.0681  0.0659 -1.4292
  126MPD1    H7 1934   3.825   3.462   9.050  0.4271  0.3952  1.2524
  127MPD2     C 1935   0.383   3.440   9.373 -0.4570 -0.4445  0.5998
  127MPD2    C1 1936   0.512   3.395   9.393 -0.1886  1.3524  0.3977
  127MPD2    C2 1937   0.614   3.470   9.341  0.3291  0.5263 -0.2774
  127MPD2    C3 1938   0.583   3.579   9.253 -0.1981 -0.6313 -0.2937
  127MPD2    C4 1939   0.447   3.617   9.235  0.0722  0.1408 -0.4147
  127MPD2    C5 1940   0.352   3.548   9.302  0.5623 -0.0803 -0.3471
  127MPD2     H 1941   0.718   3.441   9.346 -0.2067 -1.3741 -0.3578
  127MPD2    H1 1942   0.421   3.697   9.167 -2.2665  1.0877  1.5791
  127MPD2    H2 1943   0.296   3.383   9.403 -1.4457 -0.4108 -2.2071
  127MPD2    H3 1944   0.249   3.565   9.277  0.0209 -1.1915  1.0909
  127MPD2     N 1945   0.693   3.662   9.210 -0.6231  0.1619 -0.2929
  127MPD2    H5 1946   0.783   3.640   9.251  0.2128  1.3672 -1.4882
  127MPD2    N1 1947   0.525   3.283   9.475 -0.4305  0.5533 -0.3056
  127MPD2    H7 1948   0.437   3.248   9.511  0.6524 -1.1006  0.7260
  128TCq2    C1 1949   0.646   3.222   9.511 -0.3610 -0.0094  0.2512
  128TCq2    O2 1950   0.760   3.232   9.468 -0.5002 -0.3393 -0.1547
  128TCq2    C2 1951   0.624   3.123   9.619  0.5481 -0.3986  0.6394
  128TCq2    C3 1952   0.733   3.055   9.674 -0.2858  0.0499 -0.1854
  128TCq2    C4 1953   0.709   2.957   9.769  0.7093  0.8915 -0.0354
  128TCq2    C5 1954   0.581   2.925   9.801  0.1390 -0.2992  0.5735
  128TCq2    C6 1955   0.473   2.980   9.732 -0.2628 -0.4861  0.0019
  128TCq2    C7 1956   0.491   3.086   9.650 -0.5022  0.3100 -0.8967
  128TCq2    C8 1957   0.344   2.917   9.727  0.8537  0.5150 -0.3716
  128TCq2    O4 1958   0.267   2.950   9.640  0.4216 -0.5909 -0.1184
  128TCq2    C9 1959   0.826   2.908   9.843  0.1725  0.0389  0.3974
  128TCq2    O5 1960   0.934   2.930   9.774  0.4680  0.5736  0.4908
  128TCq2    O6 1961   0.813   2.896   9.969  0.3280  0.5808  0.3216
  128TCq2    H2 1962   0.833   3.091   9.653 -0.2593  2.3425  3.7333
  128TCq2    H3 1963   0.561   2.862   9.887 -0.5123  0.8972  1.3165
  128TCq2    H4 1964   0.403   3.130   9.605 -2.1412  0.2488  2.2152
  129MPD2     C 1965   2.954   4.067   1.185 -0.4549 -0.5074 -0.2629
  129MPD2    C1 1966   3.061   4.014   1.114 -0.1252  0.0629  0.1036
  129MPD2    C2 1967   3.160   4.098   1.066  0.4089  0.0639  0.1716
  129MPD2    C3 1968   3.159   4.233   1.087  0.1900  0.6450  0.0390
  129MPD2    C4 1969   3.055   4.284   1.161  0.1085  0.0364 -0.0096
  129MPD2    C5 1970   2.953   4.201   1.215 -0.3487 -0.4077  0.4744
  129MPD2     H 1971   3.233   4.058   0.996  0.8944  0.5202  0.4161
  129MPD2    H1 1972   3.048   4.389   1.186  0.1752  0.0265  0.0519
  129MPD2    H2 1973   2.878   4.006   1.232 -1.0346 -0.6034 -1.3349
  129MPD2    H3 1974   2.866   4.246   1.262 -1.3259 -0.0807 -1.6355
  129MPD2     N 1975   3.277   4.304   1.045  0.2348 -0.1392  0.0335
  129MPD2    H5 1976   3.354   4.244   1.017 -1.0983 -0.8055 -2.2200
  129MPD2    N1 1977   3.072   3.874   1.089  0.0312  0.4618 -0.4560
  129MPD2    H7 1978   3.145   3.840   1.027  2.2717  2.4909  1.0456
  130TCq2    C1 1979   2.988   3.776   1.132 -0.2439  0.0414 -0.3298
  130TCq2    O2 1980   2.900   3.782   1.216 -0.1940 -0.5941  0.4332
  130TCq2    C2 1981   3.043   3.646   1.094  0.2757  0.5215  0.0455
  130TCq2    C3 1982   3.175   3.637   1.048  0.2801  0.2177  0.3960
  130TCq2    C4 1983   3.234   3.516   1.037 -0.2310  0.2506 -0.3484
  130TCq2    C5 1984   3.164   3.397   1.065 -0.9592 -0.3024 -0.1906
  130TCq2    C6 1985   3.037   3.412   1.108 -0.0266 -0.0802  0.6304
  130TCq2    C7 1986   2.968   3.532   1.119  0.0267  0.0702  0.7748
  130TCq2    C8 1987   2.968   3.301   1.170  0.6953  0.0120  0.5881
  130TCq2    O4 1988   2.851   3.315   1.208 -0.4881 -0.1191  0.7270
  130TCq2    C9 1989   3.371   3.506   0.994 -0.1414  0.3992 -0.7657
  130TCq2    O5 1990   3.421   3.393   0.979  0.2624 -0.0687  0.2087
  130TCq2    O6 1991   3.440   3.605   1.020 -0.2675  0.8501 -0.2922
  130TCq2    H2 1992   3.240   3.717   1.015 -0.3953  0.5508 -0.1242
  130TCq2    H3 1993   3.208   3.300   1.043 -0.4058 -0.1570  0.2832
  130TCq2    H4 1994   2.869   3.534   1.162 -0.2371 -2.3409  0.2482
  131MPD2     C 1995   3.031   1.978  10.047 -0.2330 -0.5407  0.6989
  131MPD2    C1 1996   3.151   2.041  10.050  0.9220 -0.0870 -0.4474
  131MPD2    C2 1997   3.230   2.035  10.169  0.3383  0.1300  0.8513
  131MPD2    C3 1998   3.189   1.962  10.276 -0.3130 -0.8342 -0.4792
  131MPD2    C4 1999   3.065   1.899  10.269 -0.1161 -0.5511 -0.5644
  131MPD2    C5 2000   2.986   1.910  10.157 -0.4767 -0.2097  0.5671
  131MPD2     H 2001   3.327   2.083  10.173  0.3613  0.3197 -1.5450
  131MPD2    H1 2002   3.022   1.845  10.353  0.8048  0.8594  0.8023
  131MPD2    H2 2003   2.969   1.965   9.959  0.1640  0.9710  0.1920
  131MPD2    H3 2004   2.887   1.866  10.153 -0.3224 -0.5459  0.4101
  131MPD2     N 2005   3.269   1.950  10.389 -0.4496  0.1859  0.5022
  131MPD2    H5 2006   3.354   2.004  10.391 -2.4776  3.4311 -1.7997
  131MPD2    N1 2007   3.206   2.105   9.934  0.2506  0.0094 -0.9552
  131MPD2    H7 2008   3.144   2.095   9.855 -0.3904 -1.1793 -0.2969
  132TCq2    C1 2009   3.523   2.544   9.681 -0.0605 -0.5473 -0.5708
  132TCq2    O2 2010   3.538   2.579   9.798  0.2221  0.1160  0.0199
  132TCq2    C2 2011   3.466   2.409   9.664  0.7057 -0.7130 -0.1483
  132TCq2    C3 2012   3.393   2.372   9.550  0.0594  0.8201 -0.1860
  132TCq2    C4 2013   3.294   2.283   9.560 -0.5636  0.4235  0.4953
  132TCq2    C5 2014   3.265   2.224   9.683 -0.3307 -0.2785 -0.2223
  132TCq2    C6 2015   3.358   2.243   9.787 -0.2417 -0.0957 -0.2517
  132TCq2    C7 2016   3.449   2.344   9.785  0.2467 -0.2207 -0.5492
  132TCq2    C8 2017   3.323   2.187   9.925 -0.3247 -0.1548  0.7289
  132TCq2    O4 2018   3.402   2.224  10.007  0.0712 -0.3662  0.8452
  132TCq2    C9 2019   3.211   2.247   9.455  0.3639  0.5480 -0.8127
  132TCq2    O5 2020   3.239   2.297   9.344 -0.2231  0.1436 -0.6147
  132TCq2    O6 2021   3.133   2.147   9.476 -0.0826  0.5859  0.2770
  132TCq2    H2 2022   3.399   2.425   9.455 -0.1430  0.7154 -0.2586
  132TCq2    H3 2023   3.177   2.161   9.698  1.8539 -2.9079  1.6245
  132TCq2    H4 2024   3.524   2.369   9.859 -0.6856  0.3244  0.2136
  133MPD2     C 2025   2.086   4.167   9.164 -0.4636  0.3016  0.2252
  133MPD2    C1 2026   2.214   4.124   9.158 -0.6424  0.0059 -0.6619
  133MPD2    C2 2027   2.234   3.991   9.125  0.5147 -0.3753  0.3322
  133MPD2    C3 2028   2.126   3.910   9.081  0.0941  0.1356  0.1607
  133MPD2    C4 2029   1.998   3.964   9.076 -0.1919  0.7330 -0.5857
  133MPD2    C5 2030   1.984   4.092   9.118 -0.3990 -0.2301  0.3823
  133MPD2     H 2031   2.336   3.954   9.131 -0.5890 -3.6812 -1.0968
  133MPD2    H1 2032   1.915   3.907   9.035 -0.3484  1.0115 -0.6541
  133MPD2    H2 2033   2.055   4.267   9.189  1.0769  1.2986 -1.8138
  133MPD2    H3 2034   1.885   4.136   9.123 -0.5605 -0.8596  2.9764
  133MPD2     N 2035   2.136   3.772   9.053 -0.2828  0.0452 -0.1408
  133MPD2    H5 2036   2.053   3.714   9.042 -0.7676  0.4804  1.1734
  133MPD2    N1 2037   2.310   4.219   9.207  0.0374  0.3536 -0.1116
  133MPD2    H7 2038   2.278   4.312   9.232  3.2151  0.4463  3.6858
  134TCq2    C1 2039   2.439   4.205   9.206  0.1894 -0.3679 -0.0342
  134TCq2    O2 2040   2.502   4.109   9.177  0.1589 -0.2387 -0.0795
  134TCq2    C2 2041   2.503   4.321   9.272  0.6929 -0.6344  0.3055
  134TCq2    C3 2042   2.430   4.431   9.295  0.6971  0.1629 -1.2183
  134TCq2    C4 2043   2.489   4.540   9.352  0.2982 -0.1280  0.1790
  134TCq2    C5 2044   2.617   4.535   9.397  0.2904 -0.8769  0.0986
  134TCq2    C6 2045   2.679   4.415   9.384 -0.1887 -0.8953  0.1340
  134TCq2    C7 2046   2.625   4.310   9.317 -0.2233  0.1281 -0.1036
  134TCq2    C8 2047   2.826   4.398   9.420 -0.7186 -0.2283 -0.2186
  134TCq2    O4 2048   2.889   4.309   9.363 -0.4605  0.0238 -0.1672
  134TCq2    C9 2049   2.414   4.664   9.342 -0.1987  0.0342  0.6625
  134TCq2    O5 2050   2.473   0.043   9.379 -0.6159  0.2020 -0.2432
  134TCq2    O6 2051   2.288   4.650   9.330  0.0233  0.4311 -0.1751
  134TCq2    H2 2052   2.329   4.455   9.263 -0.1978 -0.0302  1.5131
  134TCq2    H3 2053   2.671   4.617   9.442 -2.3422 -0.0349  1.6930
  134TCq2    H4 2054   2.688   4.228   9.285  0.4875  0.2977  0.8588
  135MPD2     C 2055   0.807   0.438   9.532  0.1899  0.0093 -0.6520
  135MPD2    C1 2056   0.820   0.308   9.483 -0.6278  0.2639  0.1994
  135MPD2    C2 2057   0.942   0.273   9.436  0.2934 -0.7423  0.3499
  135MPD2    C3 2058   1.050   0.359   9.445 -0.0842 -0.5280  0.6777
  135MPD2    C4 2059   1.037   0.480   9.504  0.2425 -0.7178 -0.3789
  135MPD2    C5 2060   0.914   0.519   9.546  0.1414  0.3725  0.1562
  135MPD2     H 2061   0.953   0.175   9.391  0.9061  0.1883 -1.5437
  135MPD2    H1 2062   1.120   0.550   9.513 -0.0878 -0.4081  0.2286
  135MPD2    H2 2063   0.718   0.465   9.588 -0.3865  1.9882 -2.4968
  135MPD2    H3 2064   0.903   0.620   9.585 -0.5030  0.1540  0.5347
  135MPD2     N 2065   1.188   0.327   9.400  0.1813  0.2930 -0.2588
  135MPD2    H5 2066   1.254   0.402   9.416  1.0136 -0.7282  1.1366
  135MPD2    N1 2067   0.707   0.223   9.488 -0.8954  0.5383 -0.2960
  135MPD2    H7 2068   0.721   0.123   9.479 -2.6825  0.2770 -0.2214
  136TCq2    C1 2069   0.577   0.259   9.512 -0.2587  0.2855 -0.7127
  136TCq2    O2 2070   0.523   0.368   9.500  0.6808 -0.1904  0.6685
  136TCq2    C2 2071   0.491   0.143   9.554 -0.5733  0.0762  0.0752
  136TCq2    C3 2072   0.366   0.175   9.595  0.2417  0.1698  0.4668
  136TCq2    C4 2073   0.281   0.072   9.626  0.3861 -0.0070 -0.1571
  136TCq2    C5 2074   0.323   4.664   9.610  0.2023  0.2842  0.0574
  136TCq2    C6 2075   0.454   4.636   9.578 -0.7365 -1.1399  0.2782
  136TCq2    C7 2076   0.544   0.016   9.553 -0.0282 -0.4780 -0.0104
  136TCq2    C8 2077   0.489   4.503   9.536  0.8374 -0.3189 -0.4696
  136TCq2    O4 2078   0.609   4.482   9.523 -0.3550 -0.6772  0.3561
  136TCq2    C9 2079   0.144   0.097   9.671  0.5549  0.3410 -0.4009
  136TCq2    O5 2080   0.063   0.004   9.673 -0.9609 -0.2978 -0.2050
  136TCq2    O6 2081   0.113   0.215   9.693  0.2125 -0.3159 -0.1173
  136TCq2    H2 2082   0.322   0.274   9.594 -0.1545 -0.0013  0.5098
  136TCq2    H3 2083   0.254   4.590   9.649 -1.2826  2.2163  1.0883
  136TCq2    H4 2084   0.641   4.711   9.516  0.1737 -1.0713  0.9771
  137MPD2     C 2085   4.650   2.474  10.307 -0.0748 -0.6061  0.7605
  137MPD2    C1 2086   4.554   2.523  10.222  0.2739 -0.4815  0.4983
  137MPD2    C2 2087   4.571   2.651  10.180  0.4848 -0.0603  0.6451
  137MPD2    C3 2088   4.686   2.722  10.214  0.4923 -0.4412  0.2494
  137MPD2    C4 2089   0.063   2.663  10.281 -0.3931  0.4216 -0.0015
  137MPD2    C5 2090   0.045   2.536  10.326 -0.0814  0.4910  0.3221
  137MPD2     H 2091   4.496   2.688  10.110  1.2344  0.0590 -0.0894
  137MPD2    H1 2092   0.161   2.706  10.293  0.4314 -1.3169 -0.5933
  137MPD2    H2 2093   4.645   2.370  10.337 -3.5718  0.2324  3.1005
  137MPD2    H3 2094   0.132   2.494  10.375 -0.0668  0.1541  0.0059
  137MPD2     N 2095   4.689   2.865  10.175 -0.1742  0.8069  0.2463
  137MPD2    H5 2096   4.602   2.910  10.151 -1.5082 -2.1869 -0.5287
  137MPD2    N1 2097   4.452   2.432  10.187 -0.2739 -0.2791  0.8023
  137MPD2    H7 2098   4.459   2.338  10.225  1.4759 -1.5622 -2.6469
  138TCq2    C1 2099   4.354   2.458  10.093 -0.3826  0.3635 -0.0200
  138TCq2    O2 2100   4.340   2.548  10.007 -0.5381  0.3646  0.9370
  138TCq2    C2 2101   4.285   2.326  10.060  0.0102 -0.5470  0.9742
  138TCq2    C3 2102   4.272   2.228  10.153  0.1780  0.7622  0.0362
  138TCq2    C4 2103   4.221   2.113  10.107  0.0880 -0.5714  0.2829
  138TCq2    C5 2104   4.176   2.094   9.982 -0.3403 -0.1188 -0.4963
  138TCq2    C6 2105   4.182   2.198   9.891  0.7961  0.6305  0.4823
  138TCq2    C7 2106   4.241   2.316   9.931  0.0934 -0.5718 -0.1762
  138TCq2    C8 2107   4.147   2.179   9.758 -0.3639 -0.1698 -0.4032
  138TCq2    O4 2108   4.088   2.076   9.730  0.2443  0.5003  0.3053
  138TCq2    C9 2109   4.197   2.004  10.200  0.3815  0.1511 -0.6393
  138TCq2    O5 2110   4.227   2.020  10.321  0.3420 -0.3432 -0.2989
  138TCq2    O6 2111   4.155   1.895  10.149  0.1254 -0.1080 -0.0532
  138TCq2    H2 2112   4.307   2.253  10.252 -2.8106 -2.9329  2.0251
  138TCq2    H3 2113   4.139   1.997   9.949 -0.1539  0.6254 -2.8547
  138TCq2    H4 2114   4.232   2.408   9.874  1.9960 -0.4515 -0.2798
  139TMC2    C1 2115   0.514   2.112  13.129  0.5717  0.1492  0.3574
  139TMC2    C2 2116   0.601   2.206  13.164 -0.2652  0.3868  0.1294
  139TMC2    C3 2117   0.552   2.320  13.208  0.4685  0.5656 -0.1463
  139TMC2    C4 2118   0.375   2.126  13.142  0.2981 -0.1537 -1.3336
  139TMC2    C5 2119   0.329   2.248  13.196  0.3623  0.2535 -0.3476
  139TMC2    C6 2120   0.418   2.350  13.211  0.5965  0.0747  0.5185
  139TMC2     C 2121   0.574   1.975  13.114  0.0198 -0.0631  0.2760
  139TMC2     O 2122   0.695   1.971  13.090 -0.8627  0.3912 -0.3785
  139TMC2     H 2123   0.703   2.193  13.131 -0.8002  0.9870 -1.7906
  139TMC2    H1 2124   0.310   2.045  13.112  1.0489 -0.7512 -1.3693
  139TMC2    H2 2125   0.393   2.445  13.255 -0.8534 -0.4909  0.9020
  139TMC2    C7 2126   0.190   2.273  13.220 -0.2650  0.1548 -0.3386
  139TMC2    C8 2127   0.645   2.431  13.203  0.1519  0.3122  0.2430
  139TMC2    O1 2128   0.151   2.386  13.251  0.0900  0.0300 -0.1091
  139TMC2    O2 2129   0.624   2.551  13.189 -0.5408  0.9279  0.3438
  139TMC2    O5 2130   0.769   2.380  13.237 -0.3007 -0.3471  0.2073
  139TMC2    H5 2131   0.780   2.289  13.272  2.0394 -0.4260 -0.7129
  140MPD2     C 2132   0.382   1.664  13.122  0.6956  0.5339 -0.4218
  140MPD2    C1 2133   0.492   1.737  13.092  0.2603  0.4322 -0.2483
  140MPD2    C2 2134   0.609   1.678  13.036 -0.5099  0.0077 -0.3948
  140MPD2    C3 2135   0.618   1.544  13.019  0.1471 -0.0288 -0.6071
  140MPD2    C4 2136   0.500   1.473  13.040 -0.1992 -0.6964  1.1493
  140MPD2    C5 2137   0.381   1.533  13.083 -0.7034 -0.0416 -1.3019
  140MPD2     H 2138   0.695   1.740  13.013 -0.5882  0.3209  0.1595
  140MPD2    H1 2139   0.501   1.365  13.039 -1.1070 -0.6694 -1.3687
  140MPD2    H2 2140   0.298   1.713  13.169 -0.9048 -2.9320  0.2880
  140MPD2    H3 2141   0.290   1.477  13.095 -0.3261 -0.1447  1.1316
  140MPD2     N 2142   0.738   1.474  12.985 -0.1509 -1.1000 -0.3952
  140MPD2    H5 2143   0.805   1.537  12.942 -0.5547 -0.8359 -0.6393
  140MPD2    N1 2144   0.477   1.881  13.124 -0.3028 -0.2331  0.2108
  140MPD2    H7 2145   0.387   1.899  13.167  2.5621  3.4000  4.6122
  141TCq2    C1 2146   0.817   3.141  14.290  0.0439 -0.6672  0.1735
  141TCq2    O2 2147   0.741   3.233  14.262 -0.5313 -0.4833 -0.2798
  141TCq2    C2 2148   0.805   3.080  14.421  0.1767 -0.7546 -0.2039
  141TCq2    C3 2149   0.824   2.946  14.442  0.4585 -0.8737  0.3993
  141TCq2    C4 2150   0.790   2.889  14.559 -0.1903  0.1174 -0.3358
  141TCq2    C5 2151   0.726   2.966  14.656  0.9103  0.3569  0.3108
  141TCq2    C6 2152   0.712   3.102  14.640 -0.7330  0.2266  0.4573
  141TCq2    C7 2153   0.753   3.161  14.519  0.0904 -0.1639  0.1138
  141TCq2    C8 2154   0.651   3.175  14.744  0.6369 -0.5014  0.7500
  141TCq2    O4 2155   0.631   3.106  14.844  0.4102  0.0459  0.6725
  141TCq2    C9 2156   0.827   2.750  14.584 -0.1043  0.4910  0.1586
  141TCq2    O5 2157   0.809   2.705  14.699 -0.4815  1.0715 -0.0308
  141TCq2    O6 2158   0.868   2.673  14.493  0.6056 -0.0940  0.4445
  141TCq2    H2 2159   0.878   2.886  14.369  1.2784 -1.6021  1.6220
  141TCq2    H3 2160   0.702   2.913  14.747 -0.1767 -0.6081 -0.5339
  141TCq2    H4 2161   0.726   3.264  14.497  0.1129 -0.2354 -0.2573
  142MPD2     C 2162   3.446   1.612  10.308 -0.0921  0.1720 -0.0333
  142MPD2    C1 2163   3.394   1.592  10.188  0.1459 -0.6793 -1.0587
  142MPD2    C2 2164   3.416   1.688  10.094  0.3680  0.3256 -0.0516
  142MPD2    C3 2165   3.500   1.798  10.117  0.2471  0.0072  0.4587
  142MPD2    C4 2166   3.558   1.813  10.242 -0.6270  0.0447  0.3840
  142MPD2    C5 2167   3.526   1.725  10.338 -0.3662  0.0174 -0.2362
  142MPD2     H 2168   3.370   1.676   9.996  3.9497  2.9710 -2.0581
  142MPD2    H1 2169   3.635   1.885  10.267 -1.6112  1.5867 -1.0821
  142MPD2    H2 2170   3.428   1.545  10.391 -0.2196  0.7781  0.4306
  142MPD2    H3 2171   3.577   1.740  10.433  1.3833 -2.0436 -0.8466
  142MPD2     N 2172   3.532   1.893  10.015 -0.0421  0.1624 -0.0276
  142MPD2    H5 2173   3.584   1.976  10.044  0.9110 -0.4017 -0.1373
  142MPD2    N1 2174   3.321   1.470  10.161  0.2432 -1.0803 -0.6351
  142MPD2    H7 2175   3.283   1.431  10.247  0.5362 -0.7993 -0.3782
  143TCq2    C1 2176   3.497   1.887   9.881  0.8555  0.3876 -0.1236
  143TCq2    O2 2177   3.417   1.809   9.828  0.7112 -0.2391  0.5413
  143TCq2    C2 2178   3.565   1.990   9.802  0.2577  0.6258  0.1736
  143TCq2    C3 2179   3.532   1.989   9.671 -0.7982  0.0188 -0.2582
  143TCq2    C4 2180   3.609   2.059   9.582  0.5844  0.2331 -0.1918
  143TCq2    C5 2181   3.718   2.126   9.626  0.2849  0.4861  0.2598
  143TCq2    C6 2182   3.741   2.134   9.764 -0.8256 -0.5090 -0.7590
  143TCq2    C7 2183   3.671   2.059   9.848 -0.7154  0.0301  0.2005
  143TCq2    C8 2184   3.813   2.246   9.825  0.4925  0.3221  0.3238
  143TCq2    O4 2185   3.843   2.241   9.941  0.3910 -0.5343  0.1389
  143TCq2    C9 2186   3.579   2.051   9.444  0.3637 -0.8604  0.4255
  143TCq2    O5 2187   3.621   2.146   9.369 -0.0855  0.5126 -0.0958
  143TCq2    O6 2188   3.524   1.944   9.403 -0.1899 -0.2983  0.1301
  143TCq2    H2 2189   3.450   1.935   9.626  0.4720 -2.2226  0.1225
  143TCq2    H3 2190   3.783   2.181   9.559  1.3503 -0.9472  0.1249
  143TCq2    H4 2191   3.694   2.061   9.954  0.2234 -0.1432  0.0005
  144MPD2     C 2192   0.781   1.489   0.168  0.2966 -0.4320 -0.1721
  144MPD2    C1 2193   0.732   1.400   0.261  0.8565  0.5373  0.4614
  144MPD2    C2 2194   0.817   1.372   0.363  0.3164 -0.5036  0.0619
  144MPD2    C3 2195   0.934   1.436   0.393  0.5501 -0.0814  0.2610
  144MPD2    C4 2196   0.968   1.540   0.305  0.4900  0.0358 -0.0859
  144MPD2    C5 2197   0.896   1.563   0.194  0.1861 -0.0858  0.2057
  144MPD2     H 2198   0.783   1.293   0.428  1.1424 -0.5801  0.3968
  144MPD2    H1 2199   1.052   1.609   0.312  0.6835 -0.0121 -1.9205
  144MPD2    H2 2200   0.719   1.501   0.080  0.4276 -0.8018 -0.3132
  144MPD2    H3 2201   0.927   1.643   0.128  3.2530 -0.3378  1.3309
  144MPD2     N 2202   1.020   1.410   0.496  0.6561 -0.3599 -0.6681
  144MPD2    H5 2203   1.086   1.487   0.508  0.0749 -0.2883  2.1260
  144MPD2    N1 2204   0.610   1.330   0.245 -0.5200  0.3776  0.4821
  144MPD2    H7 2205   0.591   1.261   0.317  1.5381  1.0387  1.6559
  145TCq2    C1 2206   1.018   1.301   0.584  0.3335 -0.5554 -0.1627
  145TCq2    O2 2207   0.930   1.214   0.585 -0.3538 -0.8121 -0.1488
  145TCq2    C2 2208   1.136   1.291   0.659  0.2279  0.3089 -0.2105
  145TCq2    C3 2209   1.234   1.206   0.620 -0.3156 -0.7797 -0.5071
  145TCq2    C4 2210   1.334   1.179   0.710  0.2437 -1.1469  0.6385
  145TCq2    C5 2211   1.336   1.232   0.836  0.1603 -0.0766  0.4159
  145TCq2    C6 2212   1.236   1.315   0.870 -0.4410 -0.6615 -0.0207
  145TCq2    C7 2213   1.138   1.354   0.784 -0.8152  0.1889  0.5023
  145TCq2    C8 2214   1.232   1.374   1.004  0.1403  0.1344  0.0255
  145TCq2    O4 2215   1.329   1.340   1.069  0.6341  0.0066 -0.3167
  145TCq2    C9 2216   1.432   1.083   0.675  0.0138  0.5616 -0.5925
  145TCq2    O5 2217   1.435   1.053   0.551  0.0017 -0.2408 -0.0319
  145TCq2    O6 2218   1.535   1.074   0.748 -0.5123 -0.0949 -0.3755
  145TCq2    H2 2219   1.228   1.142   0.532  0.2889 -0.9647 -0.4158
  145TCq2    H3 2220   1.417   1.210   0.905 -0.4618  2.3888  1.9553
  145TCq2    H4 2221   1.058   1.421   0.813 -0.4919  0.9829 -0.4322
  146TMC2    C1 2222   2.393   4.078  12.450 -0.2306  0.6444  0.0094
  146TMC2    C2 2223   2.298   4.027  12.363 -0.2529  0.7319  0.0237
  146TMC2    C3 2224   2.341   3.925  12.290  0.2487  0.3060  0.3989
  146TMC2    C4 2225   2.522   4.035  12.452 -0.5962  0.5605  0.4191
  146TMC2    C5 2226   2.561   3.938  12.362  0.5991  0.1087 -1.7033
  146TMC2    C6 2227   2.462   3.872  12.292  0.5065 -0.2974  0.2802
  146TMC2     C 2228   2.336   4.145  12.562  0.1307 -0.4836 -0.1465
  146TMC2     O 2229   2.232   4.198  12.538  0.3275  0.6625  0.2280
  146TMC2     H 2230   2.194   4.056  12.357 -0.1967  1.5273  2.7849
  146TMC2    H1 2231   2.586   4.100  12.511  1.9013  1.0892 -2.8638
  146TMC2    H2 2232   2.497   3.781  12.245  1.4126 -0.3008  0.9444
  146TMC2    C7 2233   2.700   3.906  12.346  0.1022  0.7478 -0.6037
  146TMC2    C8 2234   2.234   3.856  12.231 -0.4477 -0.5451 -0.7720
  146TMC2    O1 2235   2.732   3.864  12.239 -0.6164 -0.3610 -0.3332
  146TMC2    O2 2236   2.129   3.833  12.290  0.3424 -0.5538 -0.4436
  146TMC2    O5 2237   2.282   3.801  12.114 -0.0328  0.1325  0.3693
  146TMC2    H5 2238   2.364   3.851  12.097  0.2073 -0.3723  0.0413
  147MPD2     C 2239   3.180   3.887  12.547  0.2094  0.6533 -0.7584
  147MPD2    C1 2240   3.098   3.928  12.646 -0.0775  0.3813 -0.0325
  147MPD2    C2 2241   2.965   3.942  12.614 -0.4954  0.0324 -0.0997
  147MPD2    C3 2242   2.912   3.909  12.488  1.0109  0.6327  0.0957
  147MPD2    C4 2243   2.998   3.880  12.387 -0.3060  0.4169 -0.1011
  147MPD2    C5 2244   3.129   3.870  12.418  0.2456 -0.5983  0.2890
  147MPD2     H 2245   2.901   3.975  12.695 -2.5816 -0.3560 -1.5786
  147MPD2    H1 2246   2.975   3.867  12.282  1.6656 -0.5183 -0.4166
  147MPD2    H2 2247   3.289   3.888  12.555  0.0245 -0.6433  1.7947
  147MPD2    H3 2248   3.190   3.863  12.328 -0.7116 -1.3577 -0.2954
  147MPD2     N 2249   2.772   3.926  12.462 -0.0864 -0.0109  0.7578
  147MPD2    H5 2250   2.712   3.953  12.540 -0.1859 -1.8730  1.3354
  147MPD2    N1 2251   3.155   3.932  12.772 -0.9743  0.0510  0.2549
  147MPD2    H7 2252   3.253   3.906  12.775 -1.3288 -1.2700  0.4740
  148MPD2     C 2253   3.160   2.829  10.833  0.5349  0.2746  0.1552
  148MPD2    C1 2254   3.184   2.895  10.712 -0.3426  0.4714 -0.3227
  148MPD2    C2 2255   3.104   2.860  10.601 -0.0150  0.2111 -0.6527
  148MPD2    C3 2256   3.020   2.754  10.612 -0.2549 -0.9614  0.0394
  148MPD2    C4 2257   2.997   2.691  10.732 -0.0848 -0.4598 -0.0791
  148MPD2    C5 2258   3.064   2.731  10.841 -0.4132 -0.3274  0.4995
  148MPD2     H 2259   3.110   2.905  10.503 -1.1694 -0.2522 -0.9390
  148MPD2    H1 2260   2.923   2.612  10.731  0.9089 -1.4116  1.6068
  148MPD2    H2 2261   3.212   2.848  10.927 -0.3301  1.4018  0.4001
  148MPD2    H3 2262   3.045   2.690  10.939  0.2870  1.6698  1.4745
  148MPD2     N 2263   2.943   2.705  10.506  0.4225  0.1145  0.7068
  148MPD2    H5 2264   2.891   2.620  10.529 -0.8386  0.1181 -2.0707
  148MPD2    N1 2265   3.283   2.997  10.682  0.2260 -0.1814  0.8134
  148MPD2    H7 2266   3.297   3.036  10.590  2.4188 -3.2808 -0.1978
  149TCq2    C1 2267   3.383   3.039  10.763 -0.0473  1.0194  0.8262
  149TCq2    O2 2268   3.409   3.010  10.880  0.3746 -0.1761 -0.2679
  149TCq2    C2 2269   3.476   3.130  10.703 -0.2663 -0.8349 -0.0189
  149TCq2    C3 2270   3.590   3.159  10.773 -0.0891 -0.1787 -0.9267
  149TCq2    C4 2271   3.697   3.198  10.711  0.3969  0.2300  0.0511
  149TCq2    C5 2272   3.708   3.189  10.572 -0.3139  0.3033  1.0568
  149TCq2    C6 2273   3.591   3.161  10.499 -0.2309  0.3189 -0.2923
  149TCq2    C7 2274   3.472   3.144  10.569  0.3485  0.6912 -0.1658
  149TCq2    C8 2275   3.606   3.071  10.391 -0.3346  0.4107  0.1213
  149TCq2    O4 2276   3.507   2.999  10.385 -0.1035  0.4548 -0.1407
  149TCq2    C9 2277   3.819   3.197  10.787 -0.4666 -0.4306  0.0110
  149TCq2    O5 2278   3.806   3.149  10.907 -0.0780  0.2220 -0.2746
  149TCq2    O6 2279   3.929   3.204  10.721  0.2463  0.0527  0.2080
  149TCq2    H2 2280   3.587   3.151  10.881 -1.9985 -0.6018 -1.0092
  149TCq2    H3 2281   3.807   3.202  10.530  0.1739 -2.1225  1.4737
  149TCq2    H4 2282   3.381   3.158  10.512  0.9534 -1.9762 -1.8028
  150MPD2     C 2283   4.408   2.472  12.255 -0.0233 -0.8289 -0.3780
  150MPD2    C1 2284   4.470   2.493  12.137  0.7178 -0.2254 -0.5734
  150MPD2    C2 2285   4.605   2.523  12.149  0.2300  0.0117  0.7911
  150MPD2    C3 2286   4.674   2.514  12.267 -0.2631  0.2217 -0.0990
  150MPD2    C4 2287   4.607   2.496  12.380  0.3336  0.0307  0.3211
  150MPD2    C5 2288   4.470   2.483  12.377  0.0929  0.1849  0.1501
  150MPD2     H 2289   4.661   2.536  12.057 -0.4716  0.7421  0.4733
  150MPD2    H1 2290   4.657   2.498  12.476 -1.2380 -1.6910  1.1794
  150MPD2    H2 2291   4.302   2.453  12.259 -0.5597  2.5034  1.6123
  150MPD2    H3 2292   4.410   2.475  12.467  1.2499 -0.4527  0.8583
  150MPD2     N 2293   0.087   2.539  12.265 -0.6158  0.4624  0.2558
  150MPD2    H5 2294   0.123   2.571  12.176 -0.0193 -0.6200  0.1062
  150MPD2    N1 2295   4.386   2.504  12.021  0.0686  0.0267  0.6955
  150MPD2    H7 2296   4.288   2.476  12.029 -0.0700  0.5564  0.8341
  151TCq2    C1 2297   0.178   2.532  12.371 -0.8143 -0.2931 -0.5547
  151TCq2    O2 2298   0.180   2.444  12.461  0.2305  0.9017 -0.5897
  151TCq2    C2 2299   0.296   2.619  12.345  0.1895  0.3638  0.0539
  151TCq2    C3 2300   0.261   2.749  12.307 -0.1327 -0.4811 -0.1979
  151TCq2    C4 2301   0.342   2.857  12.340 -0.0035 -0.9736  0.0569
  151TCq2    C5 2302   0.451   2.837  12.422  0.1858 -0.6472 -0.3912
  151TCq2    C6 2303   0.481   2.708  12.460 -0.6805 -0.9137 -0.0948
  151TCq2    C7 2304   0.403   2.600  12.429 -0.4024 -0.1469 -0.3609
  151TCq2    C8 2305   0.604   2.689  12.542 -0.0693 -0.4279  1.3962
  151TCq2    O4 2306   0.641   2.785  12.611  0.2595  0.1257 -0.0580
  151TCq2    C9 2307   0.310   2.983  12.285 -0.3841 -0.1725  0.4297
  151TCq2    O5 2308   0.188   3.008  12.287 -0.4193 -0.6197  0.2990
  151TCq2    O6 2309   0.403   3.068  12.298  0.1993 -0.1368  0.3297
  151TCq2    H2 2310   0.172   2.764  12.247 -0.8889  1.0940  1.3387
  151TCq2    H3 2311   0.519   2.918  12.448 -0.6691 -0.5857  1.6816
  151TCq2    H4 2312   0.419   2.505  12.478 -1.0868  0.3988  0.9266
  152MPD2     C 2313   4.242   1.665  12.520 -0.0210  0.1375  0.3121
  152MPD2    C1 2314   4.243   1.800  12.538 -0.2572 -0.7061 -0.2398
  152MPD2    C2 2315   4.127   1.872  12.513 -0.1631 -0.1537 -0.3218
  152MPD2    C3 2316   4.011   1.817  12.477 -0.4642  0.9625  0.1442
  152MPD2    C4 2317   4.007   1.679  12.450 -0.0591  0.0446  0.0003
  152MPD2    C5 2318   4.123   1.604  12.469  0.2314  0.1351 -0.3890
  152MPD2     H 2319   4.137   1.980  12.514  0.6119 -0.2305 -0.2494
  152MPD2    H1 2320   3.920   1.625  12.414 -0.3354 -0.5452  1.5933
  152MPD2    H2 2321   4.333   1.605  12.521 -0.3598 -0.3716  0.6026
  152MPD2    H3 2322   4.127   1.499  12.444 -0.4665 -0.6761  2.8448
  152MPD2     N 2323   3.898   1.898  12.449 -0.5173 -0.1573  0.0829
  152MPD2    H5 2324   3.906   1.998  12.467  0.7663 -0.2166 -0.1527
  152MPD2    N1 2325   4.370   1.852  12.565 -0.7560  0.2549  0.1629
  152MPD2    H7 2326   4.439   1.778  12.577 -0.2274  1.0705  2.1309
  153TCq2    C1 2327   4.396   1.983  12.597  0.2096 -0.3004  0.3476
  153TCq2    O2 2328   4.308   2.066  12.614 -0.1032 -0.0893  0.2992
  153TCq2    C2 2329   4.537   2.015  12.616 -0.3946  0.1636 -0.4338
  153TCq2    C3 2330   4.634   1.938  12.571 -0.1050 -0.1268 -0.0406
  153TCq2    C4 2331   0.040   1.980  12.579 -0.0818  0.2221  0.0197
  153TCq2    C5 2332   0.074   2.109  12.609  0.1793  0.6423 -0.3703
  153TCq2    C6 2333   4.693   2.188  12.634  0.5662  0.5306 -0.4391
  153TCq2    C7 2334   4.565   2.144  12.652 -0.6395  0.1704  1.0660
  153TCq2    C8 2335   4.720   2.298  12.723 -0.0067 -0.1785 -0.0375
  153TCq2    O4 2336   4.629   2.362  12.771 -0.1385  0.1711 -0.5293
  153TCq2    C9 2337   0.148   1.893  12.541  0.3212  0.5805  0.3503
  153TCq2    O5 2338   0.114   1.768  12.529  0.3890  0.1877  0.1642
  153TCq2    O6 2339   0.264   1.935  12.524  0.1211 -0.3653 -0.4719
  153TCq2    H2 2340   4.615   1.847  12.516  0.8113 -0.2252 -0.1842
  153TCq2    H3 2341   0.179   2.135  12.610  0.3542 -0.1013  0.2452
  153TCq2    H4 2342   4.483   2.212  12.672  0.0710  1.7362 -1.4374
  154MPD2     C 2343   0.478   2.931   0.547  0.6171 -0.4637 -0.1900
  154MPD2    C1 2344   0.505   2.898   0.676  0.2590 -0.1415 -0.4947
  154MPD2    C2 2345   0.448   2.969   0.777  0.0464  0.1518  0.4754
  154MPD2    C3 2346   0.370   3.084   0.753  0.2255  0.2082  0.6557
  154MPD2    C4 2347   0.339   3.109   0.622  0.3140  0.1418 -0.3642
  154MPD2    C5 2348   0.385   3.028   0.519 -0.3260  0.4953  0.1260
  154MPD2     H 2349   0.468   2.934   0.878 -0.9020  2.1713  1.3678
  154MPD2    H1 2350   0.266   3.186   0.602  1.8697  1.8947  0.7788
  154MPD2    H2 2351   0.524   2.875   0.467 -0.2071 -1.2264 -0.1387
  154MPD2    H3 2352   0.346   3.046   0.419 -0.1819  0.7262  0.1109
  154MPD2     N 2353   0.323   3.152   0.864  0.0553  0.1317 -0.2138
  154MPD2    H5 2354   0.350   3.124   0.958 -0.8590  0.2574  0.0859
  154MPD2    N1 2355   0.582   2.779   0.693 -0.3971  0.9714  0.1982
  154MPD2    H7 2356   0.621   2.737   0.609 -0.5649 -1.5988  1.4049
  155TCq2    C1 2357   0.629   2.722   0.809 -0.3925 -0.8570  0.2456
  155TCq2    O2 2358   0.617   2.766   0.925  0.4046  0.3547  0.1701
  155TCq2    C2 2359   0.702   2.604   0.788  0.1990  0.1066 -0.7884
  155TCq2    C3 2360   0.686   2.500   0.877 -0.2584  0.6915 -0.1922
  155TCq2    C4 2361   0.747   2.384   0.849 -0.7460  0.2523 -0.0201
  155TCq2    C5 2362   0.829   2.368   0.738  0.1957 -0.5734  0.0773
  155TCq2    C6 2363   0.825   2.467   0.640  0.5340  0.0130 -0.7269
  155TCq2    C7 2364   0.765   2.590   0.669  0.5178  0.1348 -0.9759
  155TCq2    C8 2365   0.922   2.463   0.531  0.4686 -0.8568  1.2960
  155TCq2    O4 2366   1.023   2.393   0.559 -0.0210  0.3197 -0.3892
  155TCq2    C9 2367   0.738   2.272   0.949  0.1884 -0.6560 -0.2149
  155TCq2    O5 2368   0.822   2.183   0.952 -0.2707  0.6911  0.0039
  155TCq2    O6 2369   0.658   2.296   1.045 -0.0380  0.5353  0.6191
  155TCq2    H2 2370   0.630   2.512   0.969  1.0836 -1.3271  0.8923
  155TCq2    H3 2371   0.870   2.269   0.721 -1.1594 -1.2706  0.8479
  155TCq2    H4 2372   0.774   2.676   0.604  2.6864  1.2611  0.8313
  156MPD2     C 2373   4.464   3.995  11.690  0.2194 -0.2022  0.2959
  156MPD2    C1 2374   4.576   4.070  11.687  0.5608 -0.2124  0.4206
  156MPD2    C2 2375   4.625   4.117  11.808 -0.4686  0.4442 -0.2249
  156MPD2    C3 2376   4.573   4.080  11.928 -0.0746 -0.4841  0.0459
  156MPD2    C4 2377   4.459   4.005  11.931 -0.7516 -0.0524 -0.3029
  156MPD2    C5 2378   4.406   3.969  11.811  0.3603 -0.0913 -0.8036
  156MPD2     H 2379   0.002   4.157  11.809  0.2498 -1.4135  0.8436
  156MPD2    H1 2380   4.413   3.990  12.028  1.5799  1.8873  1.0940
  156MPD2    H2 2381   4.427   3.961  11.594 -0.4732 -0.6747  0.7252
  156MPD2    H3 2382   4.320   3.903  11.818  0.3362  0.2333  1.7076
  156MPD2     N 2383   4.650   4.123  12.043 -0.5455  0.0880 -0.4933
  156MPD2    H5 2384   0.008   4.179  12.020 -0.4810  0.2962  0.2646
  156MPD2    N1 2385   4.622   4.096  11.556  0.2078  0.3729  0.3702
  156MPD2    H7 2386   4.573   4.046  11.483 -0.0318  0.1977  0.6514
  157TCq2    C1 2387   4.724   4.197  11.529  1.1952  0.0740 -0.4774
  157TCq2    O2 2388   0.051   4.280  11.606 -0.0275 -0.0335  0.4414
  157TCq2    C2 2389   0.017   4.229  11.385  0.1233  0.2448  0.1959
  157TCq2    C3 2390   4.647   4.183  11.289  0.2412 -0.3370  0.2238
  157TCq2    C4 2391   4.642   4.247  11.170  0.0396  0.6095  0.1603
  157TCq2    C5 2392   4.697   4.375  11.157  0.2209 -0.4516 -0.0565
  157TCq2    C6 2393   0.073   4.411  11.253 -0.0474  0.0887  0.2193
  157TCq2    C7 2394   0.095   4.340  11.369  0.0365 -0.1295 -0.0290
  157TCq2    C8 2395   0.121   4.554  11.243 -0.3229 -0.2844  0.2624
  157TCq2    O4 2396   0.070   4.633  11.164  0.0521  0.0120  0.8937
  157TCq2    C9 2397   4.536   4.211  11.080  0.1494  0.3640  0.3336
  157TCq2    O5 2398   4.461   4.117  11.112  0.4180  0.8924 -0.3935
  157TCq2    O6 2399   4.509   4.295  10.989 -0.4117  0.3598  0.2788
  157TCq2    H2 2400   4.579   4.099  11.299  0.0591 -0.1527  0.5524
  157TCq2    H3 2401   4.679   4.442  11.074 -1.5645 -0.5830  0.2293
  157TCq2    H4 2402   0.182   4.353  11.432  1.6833 -0.0365 -2.3294
  158TMC2    C1 2403   0.230   3.497  13.516 -0.0234 -0.4941  0.0308
  158TMC2    C2 2404   0.251   3.627  13.506 -0.2566 -0.1707  0.0955
  158TMC2    C3 2405   0.150   3.707  13.464 -0.4467  0.1770 -0.8772
  158TMC2    C4 2406   0.118   3.433  13.483 -0.9982 -0.9481 -0.2047
  158TMC2    C5 2407   0.018   3.513  13.428  0.3981 -0.9197  0.4181
  158TMC2    C6 2408   0.035   3.645  13.415 -0.4166 -0.9814  0.1726
  158TMC2     C 2409   0.339   3.416  13.550 -0.1049 -0.4779 -1.0398
  158TMC2     O 2410   0.442   3.478  13.575  0.8165  0.1427  0.3352
  158TMC2     H 2411   0.347   3.674  13.525  0.0940 -0.7588 -0.2073
  158TMC2    H1 2412   0.119   3.325  13.471  0.3789 -0.8728 -0.7574
  158TMC2    H2 2413   4.684   3.707  13.366  1.8472  1.8069  0.1992
  158TMC2    C7 2414   4.615   3.457  13.383 -0.5602  0.4583 -0.8643
  158TMC2    C8 2415   0.188   3.834  13.408 -0.1415  0.3496  0.3072
  158TMC2    O1 2416   4.532   3.527  13.318 -0.4629 -0.2540  0.2601
  158TMC2    O2 2417   0.121   3.886  13.318 -0.7399  0.3540  0.0270
  158TMC2    O5 2418   0.216   3.901  13.521 -0.0457 -0.8343 -0.3190
  158TMC2    H5 2419   0.261   3.844  13.587  0.9003 -0.3840 -0.5646
  159MPD2     C 2420   0.517   2.964  13.747  0.4834 -0.0018  0.2512
  159MPD2    C1 2421   0.382   2.949  13.711  0.1350 -0.0287 -0.5144
  159MPD2    C2 2422   0.316   3.059  13.650 -0.6247 -0.5295  0.1145
  159MPD2    C3 2423   0.376   3.179  13.637  0.0049 -0.2248  1.1940
  159MPD2    C4 2424   0.512   3.198  13.669 -0.0812 -0.3521  0.9570
  159MPD2    C5 2425   0.585   3.086  13.718  0.5816  0.5033  0.2223
  159MPD2     H 2426   0.210   3.060  13.630 -0.4406 -0.4299 -0.8493
  159MPD2    H1 2427   0.560   3.295  13.666 -0.0134 -0.3957  0.6471
  159MPD2    H2 2428   0.585   2.890  13.789  0.8610 -0.0225 -0.3931
  159MPD2    H3 2429   0.691   3.103  13.733  0.2548  2.4824  0.2336
  159MPD2     N 2430   0.301   3.287  13.585 -0.2673 -0.6221  0.4124
  159MPD2    H5 2431   0.208   3.249  13.571  0.0685 -0.9626 -0.9688
  159MPD2    N1 2432   0.333   2.826  13.749 -0.0419 -0.0424 -0.3204
  159MPD2    H7 2433   0.394   2.760  13.796 -0.5949  1.0660  1.9089
  160TMC2    C1 2434   0.119   1.439   0.678 -0.5597 -0.1406 -0.6179
  160TMC2    C2 2435   0.210   1.334   0.673  0.9830 -0.8675  0.6839
  160TMC2    C3 2436   0.322   1.357   0.597  0.8917 -0.4895  0.5805
  160TMC2    C4 2437   0.147   1.562   0.632 -0.3510  0.2656  0.0153
  160TMC2    C5 2438   0.266   1.578   0.555 -0.0705 -0.6532 -0.5992
  160TMC2    C6 2439   0.343   1.478   0.536 -0.4351 -0.0191  0.2125
  160TMC2     C 2440   0.006   1.432   0.774  0.0142  0.7069 -0.3811
  160TMC2     O 2441   4.714   1.329   0.843  0.1571 -0.1751  0.0407
  160TMC2     H 2442   0.199   1.241   0.726  1.3309 -0.2197  1.8904
  160TMC2    H1 2443   0.094   1.649   0.667 -0.1523 -0.7352  2.8032
  160TMC2    H2 2444   0.442   1.496   0.494 -0.6629  0.6733 -0.0291
  160TMC2    C7 2445   0.293   1.703   0.480 -0.5873 -0.8758  0.6534
  160TMC2    C8 2446   0.386   1.229   0.547 -0.6223 -0.0100 -0.5408
  160TMC2    O1 2447   0.371   1.690   0.387 -0.4136 -0.2006 -0.1041
  160TMC2    O2 2448   0.492   1.222   0.485 -0.2848  0.3451 -0.6023
  160TMC2    O5 2449   0.274   1.171   0.495  0.6102 -0.3330  0.1333
  160TMC2    H5 2450   0.196   1.229   0.504  0.3775 -0.8228  1.2276
  161MPD2     C 2451   4.526   1.508   0.972  0.6547 -0.0810  0.1954
  161MPD2    C1 2452   4.523   1.552   0.835 -0.7813  0.6077  0.1527
  161MPD2    C2 2453   4.421   1.624   0.782 -0.1710  0.4188  0.3986
  161MPD2    C3 2454   4.319   1.657   0.872  0.1502  0.1496 -0.1742
  161MPD2    C4 2455   4.318   1.616   1.005  0.4987  0.3632  0.2787
  161MPD2    C5 2456   4.418   1.536   1.049  0.6402  0.4839 -0.6044
  161MPD2     H 2457   4.417   1.655   0.678  0.9655 -1.7782 -0.3014
  161MPD2    H1 2458   4.228   1.621   1.065  0.4349 -0.5698  0.2684
  161MPD2    H2 2459   4.610   1.464   1.025 -0.4313 -3.0655 -0.5947
  161MPD2    H3 2460   4.419   1.499   1.151  1.9994  0.7950 -0.4984
  161MPD2     N 2461   4.198   1.722   0.835  0.3186  0.3286 -0.7235
  161MPD2    H5 2462   4.140   1.750   0.913  1.9451  0.2491  0.5001
  161MPD2    N1 2463   4.628   1.523   0.746 -0.6618  0.2162  0.0514
  161MPD2    H7 2464   4.634   1.572   0.657  1.6288 -0.0850  0.0363
  162TMC2    C1 2465   2.195   3.440   0.526 -0.2169  0.8489 -0.1719
  162TMC2    C2 2466   2.122   3.546   0.475 -1.1480 -0.5195  0.0565
  162TMC2    C3 2467   1.988   3.542   0.481  0.1669 -0.1460 -0.2066
  162TMC2    C4 2468   2.138   3.336   0.592 -0.5161  0.4210 -0.5257
  162TMC2    C5 2469   2.006   3.339   0.599 -0.4894  0.7564 -0.1907
  162TMC2    C6 2470   1.929   3.436   0.542 -0.1229 -0.3398  0.3191
  162TMC2     C 2471   2.341   3.433   0.523 -0.3490 -0.8824  0.3609
  162TMC2     O 2472   2.394   3.322   0.534  0.0186 -0.2315 -0.4422
  162TMC2     H 2473   2.167   3.625   0.416  1.2587 -1.9986 -0.0953
  162TMC2    H1 2474   2.200   3.256   0.630  0.8374  2.8754  2.3497
  162TMC2    H2 2475   1.821   3.439   0.552 -0.0825 -0.6693  0.8277
  162TMC2    C7 2476   1.930   3.251   0.690 -0.1754  0.1797 -0.2145
  162TMC2    C8 2477   1.905   3.661   0.456  0.7715 -0.2294  0.5672
  162TMC2    O1 2478   1.809   3.255   0.688 -0.1311  0.1383 -0.0868
  162TMC2    O2 2479   1.784   3.669   0.459  0.4743  0.1477 -0.3645
  162TMC2    O5 2480   1.974   3.757   0.513  0.2163  0.4733  0.4777
  162TMC2    H5 2481   2.072   3.758   0.523  0.0515  1.3255  1.8795
  163MPD2     C 2482   2.787   3.675   0.427  0.5142 -0.7916 -0.3596
  163MPD2    C1 2483   2.752   3.544   0.406 -0.2759 -0.3856 -0.1174
  163MPD2    C2 2484   2.621   3.505   0.424 -0.0026 -0.0138  0.3889
  163MPD2    C3 2485   2.524   3.596   0.465  0.0218 -0.3744  0.2086
  163MPD2    C4 2486   2.560   3.728   0.491  0.3369  0.8075  0.6313
  163MPD2    C5 2487   2.688   3.762   0.467  0.1065 -0.1221  0.2163
  163MPD2     H 2488   2.591   3.401   0.421 -0.6637  0.1654  0.7168
  163MPD2    H1 2489   2.484   3.800   0.520 -1.1516 -0.3382 -0.3990
  163MPD2    H2 2490   2.890   3.706   0.428  0.6169 -1.1849  0.7888
  163MPD2    H3 2491   2.711   3.867   0.476 -0.0668 -0.1850  1.5064
  163MPD2     N 2492   2.390   3.557   0.491  0.2601 -0.0109 -0.2426
  163MPD2    H5 2493   2.315   3.626   0.490 -0.2101 -0.5384 -1.2220
  163MPD2    N1 2494   2.861   3.461   0.369  0.3665  0.1528  1.0181
  163MPD2    H7 2495   2.950   3.509   0.377  1.7108 -1.8682 -1.8720
  164TCq2    C1 2496   3.482   2.469  11.320 -0.3785 -0.4911 -0.0404
  164TCq2    O2 2497   3.425   2.367  11.356  0.4163  0.1881  0.0835
  164TCq2    C2 2498   3.461   2.592  11.396 -0.2148  0.3547 -1.1619
  164TCq2    C3 2499   3.546   2.700  11.398 -0.1621 -0.2938  0.1171
  164TCq2    C4 2500   3.512   2.807  11.472 -0.3764 -0.0065 -0.0560
  164TCq2    C5 2501   3.407   2.798  11.563  0.7422 -0.4755 -0.6940
  164TCq2    C6 2502   3.321   2.693  11.564  0.6568 -0.5816 -0.5450
  164TCq2    C7 2503   3.350   2.589  11.475 -0.9683  1.0908 -0.2354
  164TCq2    C8 2504   3.189   2.736  11.584 -0.0372 -0.2123 -0.4580
  164TCq2    O4 2505   3.112   2.672  11.516  0.8880 -0.8330 -0.6625
  164TCq2    C9 2506   3.585   2.926  11.472 -1.0091  0.4799  0.4096
  164TCq2    O5 2507   3.680   2.925  11.392  0.5670 -0.6460  0.0674
  164TCq2    O6 2508   3.535   3.024  11.541 -0.2737  0.4517 -0.5747
  164TCq2    H2 2509   3.638   2.711  11.341 -1.0501  0.0007 -1.2730
  164TCq2    H3 2510   3.388   2.882  11.629 -0.3914 -0.4183 -1.0804
  164TCq2    H4 2511   3.286   2.502  11.459 -0.0481  0.4008 -0.1228
  165MPD2     C 2512   4.688   0.602   1.883 -0.5296  0.2255 -0.3905
  165MPD2    C1 2513   4.560   0.593   1.838  0.1429 -0.0120 -0.2944
  165MPD2    C2 2514   4.481   0.708   1.859 -0.0179  0.3665  0.3504
  165MPD2    C3 2515   4.535   0.827   1.909  0.5435  0.3757 -1.0688
  165MPD2    C4 2516   4.665   0.832   1.945  0.0516 -0.0302 -0.0608
  165MPD2    C5 2517   0.014   0.715   1.940  0.4663 -0.0306 -0.3268
  165MPD2     H 2518   4.374   0.698   1.848 -0.1246  1.4812  0.3613
  165MPD2    H1 2519   4.713   0.925   1.974 -0.9755  0.5402 -0.1783
  165MPD2    H2 2520   0.031   0.517   1.879 -0.9416 -0.1765  1.2269
  165MPD2    H3 2521   0.116   0.707   1.977  0.9117 -1.9410 -1.9938
  165MPD2     N 2522   4.457   0.944   1.942 -0.6601  0.2030  0.4342
  165MPD2    H5 2523   4.516   1.024   1.963 -1.4640  0.9025  0.0722
  165MPD2    N1 2524   4.530   0.482   1.760 -0.1199  0.2257  0.9412
  165MPD2    H7 2525   4.607   0.418   1.742  0.5366  1.4220 -0.5542
  166TCq2    C1 2526   4.321   0.957   1.944  0.4367  0.3903 -0.9057
  166TCq2    O2 2527   4.240   0.864   1.953 -0.4684 -0.1750  0.6123
  166TCq2    C2 2528   4.277   1.090   1.953 -0.8069 -0.6198 -0.3848
  166TCq2    C3 2529   4.135   1.109   1.974 -0.2471  0.5866 -0.5347
  166TCq2    C4 2530   4.071   1.224   1.937  0.0386 -0.1283 -0.2094
  166TCq2    C5 2531   4.145   1.321   1.883 -0.5168 -0.0236 -0.3693
  166TCq2    C6 2532   4.282   1.307   1.865 -0.0857  0.2798  0.8407
  166TCq2    C7 2533   4.349   1.194   1.890  0.5081  0.4390  0.2058
  166TCq2    C8 2534   4.367   1.407   1.798  0.5775  0.4229  0.3347
  166TCq2    O4 2535   4.484   1.392   1.797  0.4183 -0.2953 -0.7467
  166TCq2    C9 2536   3.926   1.241   1.962  0.0678 -0.3791  0.6366
  166TCq2    O5 2537   3.876   1.349   1.925  0.2198  0.1515  0.3163
  166TCq2    O6 2538   3.874   1.134   2.003 -0.3934 -0.4646  0.0568
  166TCq2    H2 2539   4.080   1.019   2.000  0.7070 -0.0426 -0.6668
  166TCq2    H3 2540   4.102   1.420   1.884 -1.9691 -0.6558 -2.5135
  166TCq2    H4 2541   4.453   1.177   1.864  0.2182 -1.5591  0.2847
  167TMC2    C1 2542   2.278   2.848  12.945 -0.5485  0.1346  0.4047
  167TMC2    C2 2543   2.182   2.871  13.046  0.1055 -0.0887  0.0576
  167TMC2    C3 2544   2.183   2.789  13.154  0.0848 -0.2970  0.0719
  167TMC2    C4 2545   2.360   2.740  12.947  0.1398  0.4924  0.2699
  167TMC2    C5 2546   2.336   2.651  13.044 -0.5646  0.0382 -0.2164
  167TMC2    C6 2547   2.251   2.673  13.145  0.4883 -0.0106 -0.6894
  167TMC2     C 2548   2.290   2.952  12.855 -0.0274 -0.2233  1.1647
  167TMC2     O 2549   2.236   3.060  12.881  0.1169  0.1667 -0.0575
  167TMC2     H 2550   2.113   2.954  13.030 -0.5462 -0.7254 -0.4254
  167TMC2    H1 2551   2.454   2.734  12.893  0.3494 -0.5894  0.7618
  167TMC2    H2 2552   2.240   2.604  13.228 -0.8943  0.0420 -0.8367
  167TMC2    C7 2553   2.376   2.511  13.021 -0.5457 -0.2624  0.2459
  167TMC2    C8 2554   2.084   2.797  13.258 -0.3825 -0.1178 -0.4989
  167TMC2    O1 2555   2.327   2.433  13.106  0.3881 -0.1484 -0.0649
  167TMC2    O2 2556   2.018   2.704  13.301  0.2073  0.3931 -0.8296
  167TMC2    O5 2557   2.059   2.923  13.287  0.3066  0.4021 -0.3255
  167TMC2    H5 2558   2.131   2.981  13.253  0.8169 -0.0837 -0.0738
  168MPD2     C 2559   2.406   3.151  12.638 -0.5183 -0.3898  0.5146
  168MPD2    C1 2560   2.386   3.015  12.630 -0.1296 -0.8137  0.4436
  168MPD2    C2 2561   2.409   2.955  12.509 -0.7600 -0.2199  0.6594
  168MPD2    C3 2562   2.454   3.030  12.402 -0.1978  0.6290 -0.5217
  168MPD2    C4 2563   2.470   3.166  12.407 -0.6252  0.8441  0.6913
  168MPD2    C5 2564   2.450   3.227  12.530  0.5643  0.2644 -0.0468
  168MPD2     H 2565   2.397   2.848  12.500  1.6862 -0.4718  0.4813
  168MPD2    H1 2566   2.502   3.219  12.318 -1.6536  3.0092  1.6138
  168MPD2    H2 2567   2.393   3.210  12.728 -1.6095 -1.1943  0.8823
  168MPD2    H3 2568   2.466   3.333  12.542  0.0966  0.3856 -0.4486
  168MPD2     N 2569   2.478   2.963  12.282  0.4968  0.5585  0.0877
  168MPD2    H5 2570   2.442   2.868  12.278  0.5163  0.5574 -0.0690
  168MPD2    N1 2571   2.354   2.923  12.738 -0.1324 -0.4341 -0.0368
  168MPD2    H7 2572   2.381   2.827  12.719 -0.2496 -0.3536 -0.6096
  169MPD1     C 2573   4.334   2.308   8.875  0.0581  0.3375  0.4269
  169MPD1    C1 2574   4.323   2.217   8.983 -0.2410 -0.0368  0.6133
  169MPD1    C2 2575   4.386   2.262   9.101 -0.0599  0.3410  0.5216
  169MPD1    C3 2576   4.439   2.386   9.124  0.6727  0.1789  0.9676
  169MPD1    C4 2577   4.430   2.475   9.018  0.1190 -0.1917 -0.3723
  169MPD1    C5 2578   4.379   2.433   8.901  0.0657  0.2894  0.5072
  169MPD1     H 2579   4.398   2.179   9.169  0.6643 -1.0492 -1.3204
  169MPD1    H1 2580   4.452   2.580   9.033 -0.8849  0.4038 -2.9964
  169MPD1    H2 2581   4.306   2.283   8.773  0.0663  0.9556  0.2733
  169MPD1    H3 2582   4.378   2.491   8.809 -0.7419 -1.4739 -0.6000
  169MPD1     N 2583   4.511   2.408   9.245  0.0617  0.0226 -0.3762
  169MPD1    H5 2584   4.515   2.328   9.307 -3.2973 -1.0123 -1.5036
  169MPD1    N1 2585   4.294   2.083   8.955 -0.1446 -1.0858 -0.1331
  169MPD1    H6 2586   4.217   2.086   8.889  0.7001  1.1621 -0.9954
  169MPD1    H7 2587   4.256   2.031   9.035 -1.0020 -2.0059 -1.1357
  170MPD1     C 2588   4.508   0.146  12.804  0.4679  1.1871  0.6796
  170MPD1    C1 2589   4.520   0.285  12.818  0.2683 -0.6845 -0.2275
  170MPD1    C2 2590   4.497   0.334  12.946  0.3237 -0.6048  0.0289
  170MPD1    C3 2591   4.439   0.263  13.042 -0.4472 -0.3730  0.2979
  170MPD1    C4 2592   4.430   0.130  13.025 -0.1467  0.8794 -0.3723
  170MPD1    C5 2593   4.482   0.069  12.914 -0.2870  0.0886 -0.1671
  170MPD1     H 2594   4.507   0.441  12.962 -1.7745 -0.0079 -2.6375
  170MPD1    H1 2595   4.406   0.065  13.108 -1.2565  0.0827 -1.3269
  170MPD1    H2 2596   4.526   0.092  12.712  3.6209 -1.3523  2.8214
  170MPD1    H3 2597   4.488   4.684  12.913 -0.5991  0.0794 -1.0768
  170MPD1     N 2598   4.392   0.337  13.155  0.3522  0.3673  0.1740
  170MPD1    H5 2599   4.420   0.435  13.160  0.6582  0.2272  1.1540
  170MPD1    N1 2600   4.582   0.363  12.720 -0.2636 -0.1065 -0.0434
  170MPD1    H6 2601   4.574   0.330  12.624  1.0583  0.6963 -0.4315
  170MPD1    H7 2602   4.542   0.456  12.708  1.7079  0.8075  0.5636
  171MPD1     C 2603   1.933   1.131  14.919 -0.4981  0.1477  0.6815
  171MPD1    C1 2604   1.939   1.135  15.053  0.2655  0.3919  0.2953
  171MPD1    C2 2605   2.026   1.057  15.127  0.4861 -0.0251 -0.3877
  171MPD1    C3 2606   2.107   0.969  15.056  0.1554  0.4707  0.0191
  171MPD1    C4 2607   2.086   0.963  14.917 -0.2265 -0.1912  0.2097
  171MPD1    C5 2608   2.001   1.045  14.853  1.2178  0.2065 -0.6949
  171MPD1     H 2609   2.036   1.068  15.235  0.7367 -1.3667 -0.2705
  171MPD1    H1 2610   2.147   0.893  14.860 -1.2356 -0.0417 -1.0589
  171MPD1    H2 2611   1.866   1.193  14.861 -0.6936 -0.6668  0.0396
  171MPD1    H3 2612   1.993   1.023  14.747 -0.9254  3.3267 -1.1702
  171MPD1     N 2613   2.208   0.890  15.121 -0.0814 -0.1873  0.1784
  171MPD1    H5 2614   2.268   0.835  15.061  1.3181  0.1823  1.2316
  171MPD1    N1 2615   1.861   1.237  15.125  0.4277 -0.1159  0.2149
  171MPD1    H6 2616   1.764   1.249  15.094 -0.2598 -2.1096  1.6292
  171MPD1    H7 2617   1.855   1.226  15.226 -1.1081 -1.0259  0.0247
  172MPD1     C 2618   0.402   0.683   0.432 -0.3850 -0.0765 -0.3429
  172MPD1    C1 2619   0.416   0.817   0.414  0.2429 -0.3339 -0.0515
  172MPD1    C2 2620   0.544   0.864   0.380  0.0957 -0.0690 -0.1993
  172MPD1    C3 2621   0.658   0.786   0.404 -0.2859  0.0489  0.3414
  172MPD1    C4 2622   0.643   0.653   0.448  0.0428  0.3304 -0.2253
  172MPD1    C5 2623   0.515   0.608   0.457 -0.0073 -0.3471  0.4924
  172MPD1     H 2624   0.548   0.971   0.362  1.5180  0.0788  1.0395
  172MPD1    H1 2625   0.724   0.583   0.461 -0.8887 -0.5365  0.8389
  172MPD1    H2 2626   0.311   0.629   0.452 -0.4805 -0.3223 -1.4558
  172MPD1    H3 2627   0.504   0.505   0.488 -1.7616 -0.0289  0.9381
  172MPD1     N 2628   0.786   0.834   0.395  0.3054  0.2469 -0.1169
  172MPD1    H5 2629   0.856   0.768   0.426  2.3673  2.5944  0.2273
  172MPD1    N1 2630   0.302   0.885   0.384  0.3288  0.5102  0.4040
  172MPD1    H6 2631   0.300   0.986   0.394 -1.1230  0.7243 -2.1929
  172MPD1    H7 2632   0.230   0.863   0.453 -1.0616 -1.7965 -1.8067
  173MPD1     C 2633   3.242   0.884  14.297 -0.0851 -0.1149  0.0395
  173MPD1    C1 2634   3.186   0.797  14.210 -0.2708  0.5625 -0.3989
  173MPD1    C2 2635   3.064   0.745  14.248 -0.5245  0.0895 -0.2046
  173MPD1    C3 2636   3.010   0.756  14.378 -0.5413  0.5052  0.8642
  173MPD1    C4 2637   3.072   0.839  14.459 -0.5352 -0.2106  0.2074
  173MPD1    C5 2638   3.175   0.912  14.411  0.1541  0.1267 -0.0190
  173MPD1     H 2639   3.001   0.677  14.193  0.4789  0.1897 -1.4727
  173MPD1    H1 2640   3.029   0.865  14.555 -3.2479  2.0947 -1.6153
  173MPD1    H2 2641   3.336   0.929  14.268  0.1541 -0.2949  0.5308
  173MPD1    H3 2642   3.213   0.988  14.479  2.0290  0.1519 -1.0978
  173MPD1     N 2643   2.883   0.703  14.413  0.1353 -0.1331 -0.3464
  173MPD1    H5 2644   2.826   0.651  14.347  0.4227 -2.3039  1.1013
  173MPD1    N1 2645   3.234   0.787  14.079 -0.6472 -0.0747  0.0350
  173MPD1    H6 2646   3.332   0.810  14.065 -1.1397  1.5135 -0.7405
  173MPD1    H7 2647   3.205   0.703  14.029 -0.4139 -0.6574  0.8773
  174MPD1     C 2648   2.189   0.240  13.964  0.3108  0.4475  0.8443
  174MPD1    C1 2649   2.201   0.374  13.987  0.1330 -0.5703 -0.7552
  174MPD1    C2 2650   2.275   0.432  14.089 -0.6315  0.3572 -0.2715
  174MPD1    C3 2651   2.352   0.347  14.168  0.3848 -0.2758  0.2121
  174MPD1    C4 2652   2.333   0.213  14.157 -0.6495 -0.1723  0.3784
  174MPD1    C5 2653   2.258   0.161  14.053  0.7400  0.1495 -0.0784
  174MPD1     H 2654   2.271   0.540  14.097 -0.7800  0.3175  0.1936
  174MPD1    H1 2655   2.374   0.139  14.224 -1.1158  0.6157  1.5426
  174MPD1    H2 2656   2.125   0.196  13.888  0.4947 -1.1782  1.6141
  174MPD1    H3 2657   2.244   0.054  14.055  3.1334 -0.1569  0.0557
  174MPD1     N 2658   2.440   0.394  14.264  0.0563 -0.3261  0.1445
  174MPD1    H5 2659   2.501   0.335  14.320 -1.6506 -0.8385  1.4256
  174MPD1    N1 2660   2.133   0.468  13.908 -0.3311  0.9261  0.1851
  174MPD1    H6 2661   2.083   0.423  13.832 -1.0283  0.4237  0.9311
  174MPD1    H7 2662   2.068   0.505  13.977 -1.4523 -1.6349  0.4821
  175MPD1     C 2663   1.434   1.567  14.779 -1.1395  0.3186 -0.0982
  175MPD1    C1 2664   1.524   1.669  14.818 -0.2347 -0.7665  0.1096
  175MPD1    C2 2665   1.529   1.701  14.956 -0.1333  0.2899  0.8535
  175MPD1    C3 2666   1.463   1.616  15.047 -0.0471 -0.0421  0.0518
  175MPD1    C4 2667   1.385   1.510  15.001 -0.0972 -0.0787  0.6608
  175MPD1    C5 2668   1.367   1.488  14.866 -0.1776  0.0692 -0.4777
  175MPD1     H 2669   1.591   1.785  14.988  1.9376 -0.9017  0.0143
  175MPD1    H1 2670   1.340   1.441  15.071  0.5678 -2.0037 -0.8433
  175MPD1    H2 2671   1.426   1.531  14.677 -1.1371 -1.0300  0.3822
  175MPD1    H3 2672   1.307   1.401  14.841  1.4722 -1.1566 -0.1858
  175MPD1     N 2673   1.454   1.631  15.187 -0.2449  0.4010  0.0551
  175MPD1    H5 2674   1.409   1.558  15.241  0.1385  0.6254  0.6765
  175MPD1    N1 2675   1.589   1.755  14.719 -0.4841 -0.6412  0.1166
  175MPD1    H6 2676   1.582   1.717  14.625 -0.4901 -1.0045  0.2620
  175MPD1    H7 2677   1.679   1.799  14.732  0.0840 -1.9944  0.7997
  176MPD1     C 2678   3.120   3.155  16.013 -1.0232  0.0704 -0.1593
  176MPD1    C1 2679   3.197   3.234  16.081  0.2459 -0.6553  0.4931
  176MPD1    C2 2680   3.190   3.236  16.221  0.2998  0.4246  0.0453
  176MPD1    C3 2681   3.106   3.151  16.290 -0.2883 -0.2098  0.6498
  176MPD1    C4 2682   3.025   3.069  16.214  0.6270  1.3624  0.5408
  176MPD1    C5 2683   3.029   3.073  16.078 -0.1866 -0.2485  0.6785
  176MPD1     H 2684   3.257   3.304  16.271 -0.6460  2.4866 -1.4836
  176MPD1    H1 2685   2.954   2.999  16.257  2.1914 -0.1980  0.5962
  176MPD1    H2 2686   3.103   3.150  15.906 -0.4745 -0.3494 -0.2312
  176MPD1    H3 2687   2.972   3.003  16.017 -0.4626  0.2549  0.3555
  176MPD1     N 2688   3.108   3.146  16.432  0.7075 -0.4483  0.2050
  176MPD1    H5 2689   3.182   3.199  16.477 -1.3815  1.4542  1.4291
  176MPD1    N1 2690   3.272   3.329  16.023 -0.2746 -0.4118  0.0260
  176MPD1    H6 2691   3.339   3.374  16.085 -0.2313  0.9684 -1.0404
  176MPD1    H7 2692   3.315   3.281  15.944 -0.7240 -2.7735  1.2275
  177MPD1     C 2693   1.414   3.353   9.202  0.1829 -0.7347  0.5306
  177MPD1    C1 2694   1.295   3.310   9.150 -0.1666 -0.0086  0.1488
  177MPD1    C2 2695   1.203   3.397   9.100  0.3103 -0.0707 -0.5936
  177MPD1    C3 2696   1.236   3.529   9.078 -0.0028 -0.1432  0.8120
  177MPD1    C4 2697   1.366   3.569   9.115  0.3013 -0.1742  0.0810
  177MPD1    C5 2698   1.452   3.481   9.177 -0.2501 -0.3842  0.1576
  177MPD1     H 2699   1.101   3.367   9.078 -0.3116 -0.9887  3.5729
  177MPD1    H1 2700   1.398   3.671   9.102  0.8113 -0.4592 -0.8988
  177MPD1    H2 2701   1.479   3.298   9.270  0.1886 -0.8851  0.4016
  177MPD1    H3 2702   1.551   3.513   9.206 -0.3014  1.4433 -1.7092
  177MPD1     N 2703   1.131   3.618   9.042 -0.2232 -0.4608 -0.1826
  177MPD1    H5 2704   1.037   3.581   9.049 -0.8778  1.0710 -0.9356
  177MPD1    N1 2705   1.257   3.188   9.197 -0.4385 -0.3286  0.3675
  177MPD1    H6 2706   1.179   3.147   9.147  0.1664 -0.5700 -0.3726
  177MPD1    H7 2707   1.327   3.114   9.201  0.0152  0.1481  1.2731
  178MPD1     C 2708   3.634   4.331   0.187 -0.0245  0.0107 -0.2088
  178MPD1    C1 2709   3.645   4.464   0.152 -0.6216 -0.4229  0.9075
  178MPD1    C2 2710   3.656   4.496   0.021  0.2413  0.4035  0.9667
  178MPD1    C3 2711   3.681   4.399  17.626  0.6945  0.4734  0.2261
  178MPD1    C4 2712   3.690   4.272  17.668  0.4675  0.4909  0.0283
  178MPD1    C5 2713   3.662   4.234   0.100 -0.3076 -0.1524 -0.7060
  178MPD1     H 2714   3.652   4.599  17.684 -2.3057 -0.1021 -0.3049
  178MPD1    H1 2715   3.716   4.194  17.597  2.0939 -0.6113  1.8267
  178MPD1    H2 2716   3.610   4.306   0.290  1.5132  0.0271  0.1508
  178MPD1    H3 2717   3.695   4.136   0.133 -1.3590 -0.8954 -1.8929
  178MPD1     N 2718   3.698   4.419  17.487  0.2859  0.6890 -0.3808
  178MPD1    H5 2719   3.716   4.339  17.427  0.2390 -0.0926  0.6526
  178MPD1    N1 2720   3.632   4.572   0.243 -0.7596  0.0265 -0.4420
  178MPD1    H6 2721   3.649   4.547   0.340  1.3759  2.1883 -0.2379
  178MPD1    H7 2722   3.707   4.641   0.232 -0.3521 -0.3970 -0.2969
  179MPD1     C 2723   3.912   1.886  15.507 -0.2081  0.2219  0.0007
  179MPD1    C1 2724   3.849   1.980  15.433 -0.3189 -0.2597  0.5958
  179MPD1    C2 2725   3.741   2.050  15.496  0.3553 -0.1448 -0.2359
  179MPD1    C3 2726   3.713   2.031  15.636 -0.8125 -0.0729  0.0315
  179MPD1    C4 2727   3.792   1.940  15.701  0.0462 -0.2343  0.3069
  179MPD1    C5 2728   3.884   1.861  15.637  0.1456  0.3569 -0.2382
  179MPD1     H 2729   3.684   2.119  15.436  0.9428  1.5614  1.1666
  179MPD1    H1 2730   3.767   1.931  15.807  1.3288 -1.6707  0.4839
  179MPD1    H2 2731   3.987   1.819  15.466  2.0697  0.9303  2.9294
  179MPD1    H3 2732   3.947   1.789  15.688 -1.4495 -0.1955  0.9615
  179MPD1     N 2733   3.625   2.116  15.707 -0.5664  0.1403  0.5979
  179MPD1    H5 2734   3.615   2.098  15.806  2.4034 -2.1950  0.4599
  179MPD1    N1 2735   3.872   1.978  15.299 -0.1979  0.1214  0.4534
  179MPD1    H6 2736   3.959   1.933  15.272 -0.8432 -0.3038 -0.9333
  179MPD1    H7 2737   3.866   2.075  15.266  2.9425 -0.1089 -0.7340
  180MPD1     C 2738   3.626   3.913  15.126  0.2799  0.0051  0.1337
  180MPD1    C1 2739   3.646   4.031  15.060 -0.4089  1.1908 -0.0959
  180MPD1    C2 2740   3.567   4.065  14.953 -0.4410  0.1334 -0.1385
  180MPD1    C3 2741   3.457   3.980  14.915  0.1317  0.4033 -0.6673
  180MPD1    C4 2742   3.440   3.859  14.986 -0.2298 -0.8835 -0.2801
  180MPD1    C5 2743   3.526   3.828  15.087  0.6053 -0.2204 -0.0412
  180MPD1     H 2744   3.596   4.147  14.889 -1.2630  0.5438  0.0163
  180MPD1    H1 2745   3.361   3.786  14.972 -2.0132  0.0015  5.1376
  180MPD1    H2 2746   3.699   3.871  15.194 -0.3306 -1.6115 -0.2137
  180MPD1    H3 2747   3.506   3.726  15.118 -0.2367 -0.0654 -0.0624
  180MPD1     N 2748   3.370   4.024  14.809 -0.4661  0.0185  0.1904
  180MPD1    H5 2749   3.396   4.106  14.755  1.8837 -1.0415 -0.2611
  180MPD1    N1 2750   3.770   4.101  15.076  0.1986  0.5175 -0.4983
  180MPD1    H6 2751   3.813   4.108  15.168  1.7716  0.3869 -1.2156
  180MPD1    H7 2752   3.771   4.195  15.038  3.0604  0.6143 -0.2108
  181MPD1     C 2753   4.611   0.682  10.395  0.7476  0.4733  0.1072
  181MPD1    C1 2754   4.699   0.784  10.431  0.1431  0.5935 -0.1125
  181MPD1    C2 2755   0.094   0.795  10.370 -0.5505  0.2783  0.3860
  181MPD1    C3 2756   0.128   0.712  10.269 -0.5539 -0.2360 -0.1874
  181MPD1    C4 2757   0.047   0.608  10.231 -0.6899 -0.4345 -0.2078
  181MPD1    C5 2758   4.640   0.602  10.287 -0.0492 -0.0293 -0.3988
  181MPD1     H 2759   0.164   0.871  10.400 -0.3378 -0.3482  1.4637
  181MPD1    H1 2760   0.070   0.538  10.151 -0.7765  0.1438 -0.7381
  181MPD1    H2 2761   4.518   0.660  10.446  0.2970  1.0775 -0.4461
  181MPD1    H3 2762   4.573   0.524  10.253 -1.1345 -0.8975  3.7243
  181MPD1     N 2763   0.244   0.721  10.198  0.1265  0.1635 -0.5149
  181MPD1    H5 2764   0.269   0.642  10.139 -1.7412 -1.1636  0.4648
  181MPD1    N1 2765   4.699   0.842  10.559  0.3788  0.1093 -0.9780
  181MPD1    H6 2766   0.031   0.923  10.583  1.3503 -1.0689  0.7368
  181MPD1    H7 2767   4.605   0.868  10.588  0.6676  1.2525 -1.0773
  182MPD1     C 2768   1.126   0.407   1.434 -0.5893  0.0178 -0.0271
  182MPD1    C1 2769   1.172   0.312   1.347  0.4167 -0.0630 -0.1303
  182MPD1    C2 2770   1.081   0.260   1.260  0.7715 -0.3643 -0.0072
  182MPD1    C3 2771   0.952   0.296   1.259  0.1909  0.6982 -0.0822
  182MPD1    C4 2772   0.907   0.399   1.343  0.1622 -0.2806 -0.3063
  182MPD1    C5 2773   1.002   0.453   1.423 -0.7178  0.1585 -0.5514
  182MPD1     H 2774   1.119   0.185   1.191 -0.8102 -1.5859  0.4538
  182MPD1    H1 2775   0.809   0.444   1.333 -0.2803 -1.3751 -0.8847
  182MPD1    H2 2776   1.189   0.458   1.506 -0.6610 -0.1519  0.1537
  182MPD1    H3 2777   0.977   0.538   1.484  1.6996 -1.0687  2.1424
  182MPD1     N 2778   0.853   0.246   1.170  0.2881  0.1677  0.8933
  182MPD1    H5 2779   0.763   0.291   1.184 -0.5103 -1.2431  0.1997
  182MPD1    N1 2780   1.307   0.293   1.324  0.4790  0.0077  0.2486
  182MPD1    H6 2781   1.324   0.201   1.284 -0.7626 -0.1231  0.0284
  182MPD1    H7 2782   1.363   0.293   1.409  1.1337  0.9768 -0.1833
  183MPD1     C 2783   2.437   0.614   9.561  0.2280 -0.4554 -0.2446
  183MPD1    C1 2784   2.376   0.496   9.589 -0.1360 -0.1003 -0.1622
  183MPD1    C2 2785   2.240   0.500   9.622  0.0586 -0.1411  0.3431
  183MPD1    C3 2786   2.173   0.617   9.630  0.2935  0.4569 -0.2981
  183MPD1    C4 2787   2.230   0.734   9.597 -0.2300  0.4315  0.0699
  183MPD1    C5 2788   2.367   0.731   9.570  0.4753  0.1175  0.5525
  183MPD1     H 2789   2.198   0.403   9.647 -3.5203  0.9298 -1.5362
  183MPD1    H1 2790   2.178   0.828   9.595 -1.6601 -0.3933 -1.0299
  183MPD1    H2 2791   2.539   0.613   9.526  0.5353  0.9302  0.6123
  183MPD1    H3 2792   2.407   0.822   9.528  0.1974  0.6886  1.5316
  183MPD1     N 2793   2.037   0.611   9.674  0.1243 -0.4335  0.2838
  183MPD1    H5 2794   2.008   0.519   9.705  1.3221  0.0335  2.8064
  183MPD1    N1 2795   2.447   0.372   9.578 -0.3458  0.3196  0.8786
  183MPD1    H6 2796   2.403   0.297   9.630  0.2538 -0.5871  0.0755
  183MPD1    H7 2797   2.538   0.372   9.623 -0.0889 -1.9032  0.3627
  184MPD1     C 2798   0.290   4.398   9.913 -1.0026 -0.2078 -1.2680
  184MPD1    C1 2799   0.188   4.306   9.917  1.1056  0.7738 -0.2623
  184MPD1    C2 2800   0.207   4.190   9.841  0.7499  0.0117 -0.0238
  184MPD1    C3 2801   0.334   4.157   9.788 -0.3253 -0.5209  0.0965
  184MPD1    C4 2802   0.437   4.249   9.805  0.0429 -0.2370  0.2394
  184MPD1    C5 2803   0.411   4.372   9.855 -0.3463  0.3063  0.5160
  184MPD1     H 2804   0.124   4.121   9.831  0.8939  0.1380 -2.1066
  184MPD1    H1 2805   0.533   4.233   9.756  0.7084  1.0982  1.1275
  184MPD1    H2 2806   0.272   4.493   9.962 -1.2871 -2.4387  2.8744
  184MPD1    H3 2807   0.483   4.453   9.857  1.3296 -1.1687  0.1014
  184MPD1     N 2808   0.366   4.033   9.737 -0.6840 -0.3280  0.4331
  184MPD1    H5 2809   0.464   4.010   9.723 -0.1431  2.2751 -0.0435
  184MPD1    N1 2810   0.072   4.327   9.989  0.2433 -0.1714  0.2515
  184MPD1    H6 2811   0.072   4.420  10.030 -1.7305 -0.7163  1.5110
  184MPD1    H7 2812   4.718   4.328   9.924 -0.8462 -0.0416  1.5671
  185MPD1     C 2813   4.601   3.272   9.444 -0.5663 -0.0090 -0.0323
  185MPD1    C1 2814   4.691   3.212   9.530  0.0555  0.0820  0.3206
  185MPD1    C2 2815   0.062   3.290   9.599 -0.6189 -0.5007 -0.0072
  185MPD1    C3 2816   0.062   3.422   9.580  0.5409 -0.1034  0.7266
  185MPD1    C4 2817   4.700   3.481   9.490  0.8035 -0.1900  0.0319
  185MPD1    C5 2818   4.606   3.403   9.419  0.9160 -0.0440 -0.8014
  185MPD1     H 2819   0.138   3.237   9.656 -0.9025 -1.4137 -0.4734
  185MPD1    H1 2820   4.706   3.588   9.473 -1.0247 -0.4649 -2.3563
  185MPD1    H2 2821   4.520   3.217   9.399 -0.1756 -0.5679 -0.0469
  185MPD1    H3 2822   4.542   3.451   9.347 -1.8432  0.1195  1.7680
  185MPD1     N 2823   0.156   3.504   9.640 -0.5314 -0.2187 -0.6076
  185MPD1    H5 2824   0.121   3.599   9.638  0.0478  0.0367  1.3091
  185MPD1    N1 2825   4.707   3.076   9.528 -0.2494 -0.0557  0.3975
  185MPD1    H6 2826   0.031   3.035   9.608  0.7465  0.0138 -0.1600
  185MPD1    H7 2827   4.627   3.023   9.495 -0.0265 -1.0053  1.4057
  186MPD1     C 2828   3.536   2.577  15.507  0.7706 -0.7108  0.6753
  186MPD1    C1 2829   3.412   2.609  15.549 -0.3422  0.0683  0.2515
  186MPD1    C2 2830   3.411   2.688  15.662 -0.3610 -0.4131  0.1334
  186MPD1    C3 2831   3.524   2.719  15.734  0.1554 -1.0920  0.4219
  186MPD1    C4 2832   3.650   2.685  15.682 -0.0115 -0.2922  0.3213
  186MPD1    C5 2833   3.653   2.612  15.570  0.0306  0.8415  0.6501
  186MPD1     H 2834   3.315   2.722  15.699  0.3216 -2.5788  3.8244
  186MPD1    H1 2835   3.745   2.711  15.726  0.7107 -1.5153 -0.5384
  186MPD1    H2 2836   3.549   2.519  15.416  0.6256  0.3663 -0.0365
  186MPD1    H3 2837   3.744   2.579  15.521 -1.4651 -4.0157  1.0761
  186MPD1     N 2838   3.527   2.810  15.840  0.5586 -0.4640 -0.0598
  186MPD1    H5 2839   3.623   2.828  15.865  0.3159 -1.2831  1.4474
  186MPD1    N1 2840   3.311   2.605  15.454  0.1868  0.6147 -0.3821
  186MPD1    H6 2841   3.313   2.534  15.381 -2.2343  1.2690 -1.0942
  186MPD1    H7 2842   3.215   2.598  15.489  0.7267  0.7868  1.1202
  187MPD1     C 2843   3.480   4.003  17.504 -0.0466  0.0750  0.0150
  187MPD1    C1 2844   3.424   4.051  17.392  0.3317 -0.1383 -0.3039
  187MPD1    C2 2845   3.308   4.126  17.406  0.7074  0.3931 -0.3406
  187MPD1    C3 2846   3.274   4.162  17.535 -0.0248 -0.1570  0.4150
  187MPD1    C4 2847   3.338   4.122  17.649 -0.5573  0.3483  0.9994
  187MPD1    C5 2848   3.443   4.038  17.630 -1.1511  0.3610 -0.4839
  187MPD1     H 2849   3.254   4.183  17.332  3.0825  4.5361  1.1512
  187MPD1    H1 2850   3.308   4.150   0.052  0.8305  0.4987  1.3721
  187MPD1    H2 2851   3.568   3.941  17.492 -1.0594 -1.0237 -1.7508
  187MPD1    H3 2852   3.496   3.991   0.015 -1.4866 -1.0790 -1.0865
  187MPD1     N 2853   3.164   4.242  17.567 -0.0073 -0.3001 -0.1934
  187MPD1    H5 2854   3.161   4.290  17.656  1.2646  1.1184 -0.9207
  187MPD1    N1 2855   3.464   4.006  17.260 -0.5331  0.4002  0.1194
  187MPD1    H6 2856   3.559   3.971  17.253 -0.6818 -0.3392  1.8439
  187MPD1    H7 2857   3.453   4.089  17.203 -1.6186  1.7311  2.2579
  188MPD1     C 2858   3.049   0.216   9.991  0.4206 -0.0503 -0.9929
  188MPD1    C1 2859   3.000   0.196   9.868  0.3327 -0.8571  0.3162
  188MPD1    C2 2860   2.898   0.106   9.857 -0.2324 -0.2209  0.8286
  188MPD1    C3 2861   2.869   0.016   9.957 -0.1374 -0.3163 -1.2545
  188MPD1    C4 2862   2.951   0.015  10.067  0.4082  0.1048 -0.4279
  188MPD1    C5 2863   3.040   0.121  10.088  0.1991  0.0321 -0.7900
  188MPD1     H 2864   2.843   0.102   9.764 -1.4551 -2.5815  1.6555
  188MPD1    H1 2865   2.933   4.681  10.157 -0.1710  0.6089 -0.2212
  188MPD1    H2 2866   3.129   0.288  10.010  0.6083 -0.0452 -1.7936
  188MPD1    H3 2867   3.081   0.132  10.188 -1.1079  1.6940 -0.4299
  188MPD1     N 2868   2.773   4.639   9.943  0.9138  0.4083 -0.4157
  188MPD1    H5 2869   2.768   4.575  10.022  0.3969  0.9147 -0.0431
  188MPD1    N1 2870   3.037   0.283   9.762 -0.2711 -0.0112  0.1820
  188MPD1    H6 2871   3.011   0.247   9.671  1.5332  0.5528 -0.5494
  188MPD1    H7 2872   3.138   0.292   9.757 -0.2348  1.0625  2.4656
  189MPD1     C 2873   4.388   4.643   0.430 -0.5048 -0.5715 -0.1616
  189MPD1    C1 2874   4.258   4.597   0.445  0.2545  0.1149  0.2082
  189MPD1    C2 2875   4.159   4.691   0.432  0.2401  0.0663 -1.0309
  189MPD1    C3 2876   4.177   0.102   0.418  0.0187 -0.7071 -1.1013
  189MPD1    C4 2877   4.307   0.146   0.429 -0.3038  1.1815  0.2608
  189MPD1    C5 2878   4.408   0.056   0.428  0.3059  0.8892  0.1243
  189MPD1     H 2879   4.060   4.647   0.432 -0.4405  1.6334  0.3554
  189MPD1    H1 2880   4.326   0.253   0.426  1.8857  0.7986  0.1300
  189MPD1    H2 2881   4.472   4.578   0.448 -0.2607 -0.1519  0.2183
  189MPD1    H3 2882   4.509   0.096   0.430  1.2349 -1.4790  0.8746
  189MPD1     N 2883   4.060   0.187   0.398 -0.5282 -0.0108  0.3173
  189MPD1    H5 2884   3.975   0.138   0.371  0.0096 -0.9146  0.2491
  189MPD1    N1 2885   4.233   4.463   0.436  0.2663  0.1887 -0.8597
  189MPD1    H6 2886   4.157   4.450   0.501  0.2189  1.0144 -0.7503
  189MPD1    H7 2887   4.313   4.413   0.474 -0.7495  0.4666  1.6432
  190MPD1     C 2888   3.321   3.774  16.523 -0.4310 -0.1476 -0.5624
  190MPD1    C1 2889   3.206   3.817  16.459  0.2198  0.3575 -0.6413
  190MPD1    C2 2890   3.200   3.812  16.323  0.0197  0.5586  0.1072
  190MPD1    C3 2891   3.303   3.759  16.244 -0.4815 -0.2597  0.7174
  190MPD1    C4 2892   3.417   3.725  16.307 -0.3706  0.0241  0.5502
  190MPD1    C5 2893   3.431   3.734  16.444  0.1697 -0.4826  0.1353
  190MPD1     H 2894   3.105   3.835  16.276 -0.4746 -4.0532 -1.2459
  190MPD1    H1 2895   3.501   3.684  16.253 -2.1972 -3.2855  0.2199
  190MPD1    H2 2896   3.326   3.769  16.631 -2.8784  2.2543 -0.3271
  190MPD1    H3 2897   3.519   3.704  16.499 -0.4968 -3.1948 -0.2827
  190MPD1     N 2898   3.289   3.742  16.111 -0.1258  0.3987  0.3643
  190MPD1    H5 2899   3.205   3.775  16.064 -2.4119 -2.5860  2.4343
  190MPD1    N1 2900   3.094   3.863  16.531  0.4428 -0.1643  0.0024
  190MPD1    H6 2901   3.111   3.869  16.631  0.8182 -1.7691  0.0407
  190MPD1    H7 2902   3.015   3.800  16.524  1.1850 -1.0898 -0.0725
  191MPD1     C 2903   3.097   0.572  13.176 -0.7715 -0.8001  0.2541
  191MPD1    C1 2904   3.170   0.632  13.077  0.4145  0.2120 -0.2183
  191MPD1    C2 2905   3.100   0.707  12.986 -0.0501 -0.5964  0.6630
  191MPD1    C3 2906   2.965   0.731  12.993 -0.2300  0.3790  0.6512
  191MPD1    C4 2907   2.894   0.682  13.100 -0.1798  0.8245 -0.3093
  191MPD1    C5 2908   2.966   0.604  13.190 -0.2938 -0.4759  0.3937
  191MPD1     H 2909   3.154   0.749  12.902  0.7822 -0.8302  1.0790
  191MPD1    H1 2910   2.789   0.701  13.117 -0.3108  1.3649 -1.7684
  191MPD1    H2 2911   3.146   0.499  13.239  0.5396  0.0201  0.1890
  191MPD1    H3 2912   2.915   0.564  13.277  0.8318  0.9415  1.7169
  191MPD1     N 2913   2.898   0.807  12.888  0.7045  0.3776 -0.4947
  191MPD1    H5 2914   2.949   0.871  12.827  0.8903 -1.5690 -2.3829
  191MPD1    N1 2915   3.305   0.594  13.057  0.1839  0.2306 -1.0372
  191MPD1    H6 2916   3.357   0.640  12.983 -1.9859  0.8572 -2.1686
  191MPD1    H7 2917   3.361   0.591  13.142 -2.1858 -0.6043  0.5350
  192MPD1     C 2918   2.061   1.473  12.575 -0.4864  0.0845 -0.4975
  192MPD1    C1 2919   2.043   1.348  12.640  0.4188 -0.2269  0.1665
  192MPD1    C2 2920   2.151   1.261  12.645 -0.0759 -0.2065  0.2943
  192MPD1    C3 2921   2.275   1.301  12.592  0.4910 -0.0214  0.6331
  192MPD1    C4 2922   2.279   1.415  12.526 -0.4090  0.4302 -0.1470
  192MPD1    C5 2923   2.179   1.508  12.524 -0.7200  0.1940  0.3897
  192MPD1     H 2924   2.140   1.162  12.688 -2.8387 -0.2841 -0.6360
  192MPD1    H1 2925   2.376   1.446  12.488  0.8441 -3.0360  0.2784
  192MPD1    H2 2926   1.981   1.545  12.561 -0.1380  0.5505 -0.1125
  192MPD1    H3 2927   2.195   1.605  12.477  0.0844  0.0742  0.4074
  192MPD1     N 2928   2.397   1.218  12.596 -0.0697  0.0837 -0.2401
  192MPD1    H5 2929   2.473   1.259  12.541  1.0047 -1.3533  0.1698
  192MPD1    N1 2930   1.916   1.317  12.691  0.1480 -0.1808 -0.2566
  192MPD1    H6 2931   1.878   1.395  12.744  0.2122 -1.2060  1.2852
  192MPD1    H7 2932   1.931   1.242  12.758  0.0645 -0.3183 -0.3927
  193MPD1     C 2933   2.094   0.467  16.351 -0.3646  0.3596 -0.5257
  193MPD1    C1 2934   2.043   0.581  16.404  0.2801  0.4056 -0.2585
  193MPD1    C2 2935   2.134   0.669  16.469 -0.0794 -0.1241 -0.5435
  193MPD1    C3 2936   2.274   0.652  16.468  0.5231  0.1850  0.1283
  193MPD1    C4 2937   2.316   0.544  16.397 -0.1949 -0.0974  0.0682
  193MPD1    C5 2938   2.226   0.462  16.330  0.6017 -0.5674  0.3112
  193MPD1     H 2939   2.097   0.760  16.515  0.1479  0.1223 -0.8464
  193MPD1    H1 2940   2.422   0.529  16.378 -0.2472 -0.2060 -0.1382
  193MPD1    H2 2941   2.043   0.380  16.313  1.6922 -1.8075  1.6688
  193MPD1    H3 2942   2.258   0.371  16.282 -1.8348 -0.4001 -1.6121
  193MPD1     N 2943   2.369   0.741  16.528 -0.2738  0.6380 -0.2660
  193MPD1    H5 2944   2.468   0.721  16.531 -0.2037  0.9102 -0.6621
  193MPD1    N1 2945   1.904   0.595  16.417  0.1694 -0.3884  0.4301
  193MPD1    H6 2946   1.874   0.686  16.450 -0.0830 -1.2140  2.4635
  193MPD1    H7 2947   1.870   0.579  16.323 -3.2014 -0.6267  1.7055
  194MPD1     C 2948   0.311   3.312  15.754 -0.4706 -0.1320 -0.1162
  194MPD1    C1 2949   0.321   3.415  15.845  0.3837 -0.0358 -0.7449
  194MPD1    C2 2950   0.328   3.387  15.980  0.0612 -0.3174  0.1315
  194MPD1    C3 2951   0.308   3.257  16.021  0.5412 -0.0262  0.2114
  194MPD1    C4 2952   0.274   3.153  15.930  0.3284 -0.5450  0.4759
  194MPD1    C5 2953   0.276   3.186  15.796 -0.4141 -0.3724 -0.0281
  194MPD1     H 2954   0.361   3.469  16.044 -1.6103 -0.2541  0.9097
  194MPD1    H1 2955   0.258   3.051  15.962  0.4265 -0.4948  0.6831
  194MPD1    H2 2956   0.300   3.326  15.648 -0.0940 -0.4102 -0.1919
  194MPD1    H3 2957   0.258   3.108  15.723 -1.1770 -0.6231  0.4323
  194MPD1     N 2958   0.328   3.219  16.154  0.6927 -0.0977  0.1073
  194MPD1    H5 2959   0.347   3.121  16.172  2.0983  0.0592 -0.5355
  194MPD1    N1 2960   0.357   3.540  15.800 -0.4151  0.1740  0.0613
  194MPD1    H6 2961   0.341   3.620  15.860  0.6635  1.1125 -0.8846
  194MPD1    H7 2962   0.335   3.559  15.702  0.8639 -1.2969 -0.5040
  195MPD1     C 2963   3.062   3.932   0.002 -0.1291 -0.7476 -0.3263
  195MPD1    C1 2964   3.087   3.820  17.628  0.4069  0.0432 -0.3323
  195MPD1    C2 2965   2.994   3.724  17.625 -0.2786  0.2473  0.0935
  195MPD1    C3 2966   2.897   3.722   0.028  0.0009 -0.3961  0.3757
  195MPD1    C4 2967   2.876   3.831   0.110  0.6278  0.5324  0.4266
  195MPD1    C5 2968   2.954   3.941   0.087  0.6371 -0.2256  0.5218
  195MPD1     H 2969   3.001   3.645  17.551  0.9737  0.4193  0.0264
  195MPD1    H1 2970   2.804   3.833   0.191  0.5077  0.2922  0.3235
  195MPD1    H2 2971   3.117   4.025  17.688 -1.0769 -0.1341  0.1352
  195MPD1    H3 2972   2.936   4.031   0.145 -1.0076  0.0210 -0.3716
  195MPD1     N 2973   2.800   3.618   0.042  0.0087 -0.2114  0.0021
  195MPD1    H5 2974   2.716   3.644   0.094 -0.4745 -0.1209 -0.8289
  195MPD1    N1 2975   3.185   3.826  17.527  0.1751 -0.1661  0.4841
  195MPD1    H6 2976   3.264   3.883  17.556 -1.2579  3.1399 -2.1242
  195MPD1    H7 2977   3.222   3.733  17.509 -0.7435 -0.3498 -0.4556
  196MPD1     C 2978   1.365   0.060   0.252  0.5363  0.6412 -0.7420
  196MPD1    C1 2979   1.496   0.041   0.292  0.4749  0.2657  0.0970
  196MPD1    C2 2980   1.542   0.116   0.399  0.4986  0.4188 -0.5734
  196MPD1    C3 2981   1.463   0.217   0.457  0.2726  0.1044  0.2012
  196MPD1    C4 2982   1.333   0.232   0.412  0.3598 -0.6639 -0.1097
  196MPD1    C5 2983   1.282   0.152   0.311 -0.0756 -0.0294  0.2861
  196MPD1     H 2984   1.638   0.087   0.439  0.0024  0.5549  0.7223
  196MPD1    H1 2985   1.270   0.307   0.459  0.7019 -1.8983  2.3409
  196MPD1    H2 2986   1.328   4.715   0.177 -0.4035 -1.5479  1.7487
  196MPD1    H3 2987   1.185   0.153   0.263 -0.3860  0.9247  0.9427
  196MPD1     N 2988   1.495   0.302   0.572  0.1346 -0.3932 -0.8820
  196MPD1    H5 2989   1.437   0.382   0.594  0.0502 -0.6096 -0.3037
  196MPD1    N1 2990   1.560   4.646   0.249 -0.1907 -0.2780 -0.1832
  196MPD1    H6 2991   1.661   4.642   0.257 -0.2095  0.4563  0.4878
  196MPD1    H7 2992   1.534   4.617   0.155 -1.8178 -1.4731  0.6404
  197MPD1     C 2993   0.806   1.233  17.201  0.0956  0.3241  0.0473
  197MPD1    C1 2994   0.923   1.223  17.274  0.3816  0.1625 -0.9025
  197MPD1    C2 2995   1.031   1.300  17.228  0.1598  0.5871  0.5125
  197MPD1    C3 2996   1.018   1.369  17.106  0.6013 -0.4626  0.3215
  197MPD1    C4 2997   0.901   1.371  17.034  0.0475 -0.3986  0.7563
  197MPD1    C5 2998   0.796   1.305  17.087  0.1441 -0.1248  0.5350
  197MPD1     H 2999   1.126   1.297  17.280 -0.9799  0.0196  2.5882
  197MPD1    H1 3000   0.891   1.422  16.939  1.8566  1.5729  1.6364
  197MPD1    H2 3001   0.715   1.186  17.236  1.9736 -3.1963  0.1916
  197MPD1    H3 3002   0.701   1.315  17.036  0.2753 -1.3050  0.0510
  197MPD1     N 3003   1.124   1.437  17.047 -0.0105 -0.1544  0.5721
  197MPD1    H5 3004   1.108   1.489  16.962  1.0806 -1.8259 -0.6318
  197MPD1    N1 3005   0.922   1.171  17.403  0.4425 -0.3369 -0.3528
  197MPD1    H6 3006   1.011   1.137  17.440  0.4140 -1.0054 -0.8977
  197MPD1    H7 3007   0.857   1.098  17.431 -1.5447  0.5047 -2.8354
  198MPD1     C 3008   2.399   0.361  15.407  0.0668 -0.5486 -0.3637
  198MPD1    C1 3009   2.475   0.367  15.521 -0.2803 -0.6516 -0.0669
  198MPD1    C2 3010   2.611   0.382  15.502  1.1345  0.1826  0.2787
  198MPD1    C3 3011   2.666   0.404  15.373 -0.2261 -0.5988  1.0403
  198MPD1    C4 3012   2.580   0.416  15.265  0.3066  0.5946  0.2527
  198MPD1    C5 3013   2.445   0.394  15.282 -0.2959  0.0454  0.3370
  198MPD1     H 3014   2.675   0.382  15.590  0.3105 -0.2181  0.8713
  198MPD1    H1 3015   2.611   0.437  15.164  2.5932  0.2453  0.8844
  198MPD1    H2 3016   2.293   0.350  15.425 -0.7588  1.0743 -4.1614
  198MPD1    H3 3017   2.377   0.398  15.198  2.2169 -0.5896 -1.7300
  198MPD1     N 3018   2.805   0.432  15.367 -0.7397  0.5486  0.5733
  198MPD1    H5 3019   2.843   0.437  15.461  1.0722  0.3083 -0.1364
  198MPD1    N1 3020   2.425   0.333  15.646  0.5051 -0.6175  0.2926
  198MPD1    H6 3021   2.489   0.364  15.718  2.4801  0.2719 -1.8202
  198MPD1    H7 3022   2.335   0.375  15.665  0.1971 -0.8218 -0.7062
  199MPD1     C 3023   1.170   1.441  10.099  0.2841 -0.5664 -1.2788
  199MPD1    C1 3024   1.116   1.551  10.031  0.3078  0.0239 -0.4548
  199MPD1    C2 3025   0.976   1.560  10.028 -0.3289 -0.3413 -0.1238
  199MPD1    C3 3026   0.891   1.450  10.044 -0.0838  0.3167  0.4226
  199MPD1    C4 3027   0.951   1.333  10.091  0.2285  0.0241 -0.6304
  199MPD1    C5 3028   1.086   1.342  10.123  0.6221 -0.4240  0.1147
  199MPD1     H 3029   0.933   1.658  10.013 -1.1588 -0.4744  1.4144
  199MPD1    H1 3030   0.894   1.242  10.108 -0.8767  0.8732  0.1963
  199MPD1    H2 3031   1.276   1.426  10.116  0.1945  0.5221  0.1961
  199MPD1    H3 3032   1.122   1.252  10.170  1.0072 -0.4696 -0.2667
  199MPD1     N 3033   0.758   1.453  10.015 -0.2327 -0.1055  0.3910
  199MPD1    H5 3034   0.694   1.380  10.043  0.3139 -0.5222  0.5595
  199MPD1    N1 3035   1.194   1.664  10.005 -0.2411 -0.2046  0.2791
  199MPD1    H6 3036   1.292   1.647   9.987 -0.3558 -0.4564 -0.1205
  199MPD1    H7 3037   1.168   1.718   9.923 -0.8845  1.7727  1.7975
  200MPD1     C 3038   4.064   1.439  14.904  0.3254 -0.5600 -1.2249
  200MPD1    C1 3039   4.094   1.372  14.782  0.0947  0.6135 -0.0754
  200MPD1    C2 3040   4.217   1.393  14.733  0.0458 -0.1160  0.0326
  200MPD1    C3 3041   4.317   1.451  14.804 -0.6472  0.3780  0.6913
  200MPD1    C4 3042   4.292   1.508  14.928 -0.0890  0.5138 -0.2177
  200MPD1    C5 3043   4.165   1.507  14.971  0.0233  0.1867  0.1324
  200MPD1     H 3044   4.234   1.347  14.636 -1.1652 -0.8315  0.1515
  200MPD1    H1 3045   4.366   1.560  14.988  0.4833  0.3442 -0.7798
  200MPD1    H2 3046   3.962   1.441  14.940  0.5901  0.2999 -0.5306
  200MPD1    H3 3047   4.144   1.558  15.064  1.0142  1.3385 -0.2680
  200MPD1     N 3048   4.437   1.462  14.734  0.4859 -0.2950 -0.7386
  200MPD1    H5 3049   4.444   1.405  14.650  1.0255 -2.8333  1.0472
  200MPD1    N1 3050   3.984   1.313  14.713 -0.3303  0.0512 -0.5692
  200MPD1    H6 3051   3.910   1.283  14.776 -0.3397 -1.6791 -1.4099
  200MPD1    H7 3052   4.003   1.240  14.645 -1.5232  0.9140 -1.8069
  201MPD1     C 3053   2.305   0.640  12.985  0.4426  0.0024  0.1035
  201MPD1    C1 3054   2.398   0.562  13.055  0.3896 -0.4537  0.3489
  201MPD1    C2 3055   2.345   0.484  13.158 -0.4918 -0.3836 -0.0765
  201MPD1    C3 3056   2.209   0.472  13.180 -0.2816 -0.3668 -0.5018
  201MPD1    C4 3057   2.120   0.552  13.106  0.2777  0.3570  0.7134
  201MPD1    C5 3058   2.167   0.640  13.012 -0.3626  0.5917 -0.1469
  201MPD1     H 3059   2.408   0.412  13.209 -1.0847 -1.6631 -1.1442
  201MPD1    H1 3060   2.013   0.543  13.122  0.2984 -0.1199  0.5531
  201MPD1    H2 3061   2.330   0.719  12.915  2.5204  3.0410  4.3006
  201MPD1    H3 3062   2.097   0.694  12.949  0.5714 -0.4708 -2.1080
  201MPD1     N 3063   2.165   0.358  13.253  0.4485 -0.0433  0.6431
  201MPD1    H5 3064   2.244   0.303  13.286  0.0977  0.2546  1.9830
  201MPD1    N1 3065   2.528   0.542  13.008  1.0202  0.3268  0.1123
  201MPD1    H6 3066   2.561   0.619  12.949  3.7498 -0.0646  1.1001
  201MPD1    H7 3067   2.596   0.528  13.082  0.6136  0.9253  0.6051
  202MPD1     C 3068   2.631   0.495   9.965  0.1141  0.3396  0.1589
  202MPD1    C1 3069   2.699   0.395  10.032  0.2155 -0.0672 -0.2329
  202MPD1    C2 3070   2.602   0.296  10.080  0.5404 -0.2727 -0.0685
  202MPD1    C3 3071   2.471   0.276  10.041  0.1140  0.4766  0.3938
  202MPD1    C4 3072   2.425   0.365   9.944 -0.2403  0.9604 -0.1134
  202MPD1    C5 3073   2.502   0.476   9.918 -0.7638 -0.4201 -0.0626
  202MPD1     H 3074   2.649   0.223  10.146  3.5846 -0.9624 -3.0133
  202MPD1    H1 3075   2.328   0.351   9.898 -0.8571  0.5411  1.2963
  202MPD1    H2 3076   2.683   0.586   9.938 -3.1266  2.3909  0.8937
  202MPD1    H3 3077   2.473   0.545   9.841  0.8215  0.6641  0.3178
  202MPD1     N 3078   2.392   0.164  10.084 -0.4085 -0.2814 -0.9747
  202MPD1    H5 3079   2.303   0.150  10.036 -0.8631  2.5732 -0.9550
  202MPD1    N1 3080   2.816   0.424  10.106 -0.8761 -0.3148  0.0465
  202MPD1    H6 3081   2.858   0.336  10.136  1.2935  0.8161  0.3449
  202MPD1    H7 3082   2.884   0.475  10.049 -0.7889  1.1283  1.4362
  203MPD1     C 3083   0.666   1.016  12.702 -0.1267 -0.6337 -0.5318
  203MPD1    C1 3084   0.618   0.904  12.773  0.2699  0.0305  0.4946
  203MPD1    C2 3085   0.686   0.785  12.747  0.1202  0.1172  0.1720
  203MPD1    C3 3086   0.778   0.766  12.649  0.0044 -0.1175 -0.4777
  203MPD1    C4 3087   0.818   0.874  12.578  0.1853 -0.3944  0.6647
  203MPD1    C5 3088   0.765   1.001  12.609 -0.3764  0.1610 -0.2560
  203MPD1     H 3089   0.667   0.686  12.786  3.7769 -1.3408 -1.7443
  203MPD1    H1 3090   0.888   0.871  12.496 -1.1703 -0.2147 -0.5067
  203MPD1    H2 3091   0.627   1.116  12.719  1.0415 -0.5848  1.8871
  203MPD1    H3 3092   0.800   1.083  12.549 -1.3359  0.3254 -0.5977
  203MPD1     N 3093   0.832   0.637  12.629 -0.0190 -0.0365  0.7289
  203MPD1    H5 3094   0.791   0.570  12.694  2.3559 -1.2108  0.9944
  203MPD1    N1 3095   0.536   0.914  12.885  0.3572  0.3907 -0.3161
  203MPD1    H6 3096   0.503   0.828  12.928 -0.6125  0.3236 -1.1938
  203MPD1    H7 3097   0.461   0.983  12.887 -2.0021 -2.2333  1.1043
  204MPD1     C 3098   4.586   2.368   0.160  0.2876 -0.2619 -0.1014
  204MPD1    C1 3099   4.712   2.357   0.120 -0.4825  0.0256 -0.2785
  204MPD1    C2 3100   0.036   2.251   0.041 -0.2969 -0.0682 -0.2707
  204MPD1    C3 3101   4.671   2.153   0.006 -0.3731  0.5637  0.3302
  204MPD1    C4 3102   4.542   2.156   0.054  0.6658 -0.5067 -0.0744
  204MPD1    C5 3103   4.508   2.256   0.135  0.4273  0.9014  0.1953
  204MPD1     H 3104   0.140   2.244   0.013 -0.4785  0.3440 -1.0468
  204MPD1    H1 3105   4.473   2.073   0.050  1.5443 -1.2444 -0.0991
  204MPD1    H2 3106   4.544   2.454   0.211 -2.8641 -2.8756  1.6838
  204MPD1    H3 3107   4.405   2.254   0.169  0.7951 -1.3136  1.2294
  204MPD1     N 3108   4.718   2.051  17.619  0.0609 -0.4113 -0.2776
  204MPD1    H5 3109   0.083   2.069  17.573 -0.4326  3.1311  0.2022
  204MPD1    N1 3110   0.074   2.470   0.140  0.6569 -0.3557  0.6568
  204MPD1    H6 3111   0.058   2.512   0.231 -1.0824  1.1766 -0.3294
  204MPD1    H7 3112   0.174   2.451   0.137  1.0155  1.6705 -0.2359
  205MPD1     C 3113   0.366   0.591  16.848 -0.4205 -0.1422  0.1585
  205MPD1    C1 3114   0.320   0.721  16.867  0.4865  0.8016 -0.1233
  205MPD1    C2 3115   0.196   0.735  16.935  0.4209 -0.4627  0.1747
  205MPD1    C3 3116   0.121   0.627  16.969 -0.4601 -0.1292 -1.4148
  205MPD1    C4 3117   0.166   0.503  16.934  0.3929 -0.1635  0.8568
  205MPD1    C5 3118   0.287   0.482  16.883 -0.2515  0.2287 -0.6743
  205MPD1     H 3119   0.161   0.833  16.963 -0.7394 -0.8804  0.2065
  205MPD1    H1 3120   0.107   0.415  16.959 -0.8935 -0.1066 -1.9972
  205MPD1    H2 3121   0.466   0.584  16.806  0.1892 -2.1952  1.9452
  205MPD1    H3 3122   0.323   0.381  16.870  0.2269  0.1291  1.5343
  205MPD1     N 3123   4.718   0.623  17.033 -0.1536 -0.3793  0.9482
  205MPD1    H5 3124   4.684   0.529  17.052  2.3313 -1.1618  1.5023
  205MPD1    N1 3125   0.395   0.838  16.837  0.5846  0.6296 -0.1041
  205MPD1    H6 3126   0.339   0.922  16.822  1.1076  0.9072 -0.4676
  205MPD1    H7 3127   0.464   0.824  16.764 -0.5433 -1.2582 -0.8001
  206MPD1     C 3128   0.679   3.022  16.720  0.4496  0.9145  0.1468
  206MPD1    C1 3129   0.674   3.158  16.716 -0.2110  0.3103 -0.2175
  206MPD1    C2 3130   0.678   3.208  16.590 -0.5705 -0.6101  0.0911
  206MPD1    C3 3131   0.671   3.127  16.477 -0.3567 -0.1618  0.5034
  206MPD1    C4 3132   0.654   2.995  16.482  0.1174  0.3778  0.4702
  206MPD1    C5 3133   0.656   2.943  16.608 -0.0346 -0.1959  0.0796
  206MPD1     H 3134   0.685   3.316  16.597 -1.8803 -0.5872  1.0532
  206MPD1    H1 3135   0.646   2.931  16.395 -1.5426 -0.5387  1.2834
  206MPD1    H2 3136   0.704   2.968  16.810 -1.7613  0.4795  0.5054
  206MPD1    H3 3137   0.646   2.836  16.620 -0.1038 -0.1038  0.8693
  206MPD1     N 3138   0.689   3.175  16.343  0.1469 -0.2352  0.7603
  206MPD1    H5 3139   0.683   3.106  16.269  0.2692  1.6667 -1.0382
  206MPD1    N1 3140   0.704   3.241  16.830 -0.0877  0.2331 -0.2275
  206MPD1    H6 3141   0.679   3.340  16.821  0.8216  0.1862 -3.5174
  206MPD1    H7 3142   0.659   3.201  16.911 -0.4701  3.2303  1.0376
  207MPD1     C 3143   2.649   0.917   9.492  0.8647  0.0192 -1.5708
  207MPD1    C1 3144   2.666   1.053   9.517 -0.1650 -0.2275  0.0702
  207MPD1    C2 3145   2.755   1.105   9.614  0.1121  0.3688 -0.2553
  207MPD1    C3 3146   2.822   1.014   9.693  0.4027  0.1941  0.0437
  207MPD1    C4 3147   2.810   0.884   9.667  0.0211 -0.3634  0.0672
  207MPD1    C5 3148   2.735   0.836   9.561  0.0143 -0.6799 -0.0705
  207MPD1     H 3149   2.770   1.212   9.613 -0.2109  0.4257  2.1895
  207MPD1    H1 3150   2.860   0.804   9.720 -0.5242 -1.1382 -0.6000
  207MPD1    H2 3151   2.580   0.880   9.418 -1.7082  2.8470 -0.5811
  207MPD1    H3 3152   2.730   0.731   9.535 -3.8711  0.2451 -2.9719
  207MPD1     N 3153   2.905   1.051   9.803 -0.7116  0.1446  0.2665
  207MPD1    H5 3154   2.951   0.971   9.846  0.2918  0.5384 -0.0695
  207MPD1    N1 3155   2.605   1.147   9.427 -0.4112 -0.3784 -0.1543
  207MPD1    H6 3156   2.556   1.222   9.476 -0.3087 -0.7278  0.4848
  207MPD1    H7 3157   2.530   1.094   9.382 -2.1261 -0.2422  2.5247
  208MPD1     C 3158   0.549   0.248  17.012 -0.7289  0.5654  0.5337
  208MPD1    C1 3159   0.537   0.315  17.132  0.1865  0.0957 -0.1887
  208MPD1    C2 3160   0.515   0.245  17.252  0.4024 -0.0989 -0.4704
  208MPD1    C3 3161   0.504   0.106  17.253  0.2161  0.1605 -0.3853
  208MPD1    C4 3162   0.536   0.042  17.132  0.4068 -0.3391  0.8566
  208MPD1    C5 3163   0.541   0.112  17.010  0.2550  0.0160  0.4213
  208MPD1     H 3164   0.506   0.303  17.344  2.2709 -1.5002  0.5906
  208MPD1    H1 3165   0.517   4.663  17.105 -2.3094  0.1218  1.0035
  208MPD1    H2 3166   0.567   0.303  16.920 -0.5127  0.9415  0.8028
  208MPD1    H3 3167   0.559   0.051  16.922 -0.9224  1.3561 -0.7452
  208MPD1     N 3168   0.471   0.034  17.371  0.3656  0.0003 -0.2075
  208MPD1    H5 3169   0.428   0.098  17.438 -3.1934 -2.5726 -0.0574
  208MPD1    N1 3170   0.568   0.455  17.141  0.4396 -0.0771 -0.3702
  208MPD1    H6 3171   0.530   0.495  17.226  2.0352 -0.8673  0.7215
  208MPD1    H7 3172   0.559   0.510  17.056 -1.5890 -0.0831 -0.1582
  209MPD1     C 3173   3.458   0.169  11.341  0.7852  0.2024 -0.0303
  209MPD1    C1 3174   3.538   0.283  11.365  0.6316 -0.7207  0.7174
  209MPD1    C2 3175   3.601   0.349  11.257  0.3586 -0.2228 -0.1759
  209MPD1    C3 3176   3.564   0.314  11.130  0.4476  0.3396  0.8304
  209MPD1    C4 3177   3.476   0.206  11.110 -0.2456 -0.4427  0.2005
  209MPD1    C5 3178   3.428   0.131  11.212  0.3525 -0.3707  0.1035
  209MPD1     H 3179   3.675   0.425  11.278 -0.8145  0.1046  2.7206
  209MPD1    H1 3180   3.449   0.175  11.010  1.4017  0.3849 -0.5148
  209MPD1    H2 3181   3.406   0.114  11.419  1.1329  2.1440  1.5521
  209MPD1    H3 3182   3.373   0.038  11.205  1.2650 -0.8736 -0.4863
  209MPD1     N 3183   3.612   0.409  11.036  0.1319  0.6626 -0.2698
  209MPD1    H5 3184   3.664   0.486  11.077  2.0866  0.4503 -2.3513
  209MPD1    N1 3185   3.589   0.300  11.490  0.6626 -0.6571 -0.4991
  209MPD1    H6 3186   3.600   0.399  11.511  2.3610 -0.9405 -0.0345
  209MPD1    H7 3187   3.518   0.271  11.557  1.4938  1.3871  1.3032
  210MPD1     C 3188   3.828   1.334  11.083  0.0665  0.0737 -0.1613
  210MPD1    C1 3189   3.803   1.216  11.152 -0.3471 -0.3941 -0.0030
  210MPD1    C2 3190   3.781   1.093  11.090  0.2392  0.3453 -0.4717
  210MPD1    C3 3191   3.799   1.088  10.951  1.0194 -0.4399  0.1521
  210MPD1    C4 3192   3.831   1.205  10.885  0.4128  0.7683 -0.1890
  210MPD1    C5 3193   3.825   1.330  10.952  0.3977  0.0170 -0.6231
  210MPD1     H 3194   3.764   0.999  11.141  0.7715 -0.0163 -0.9635
  210MPD1    H1 3195   3.842   1.212  10.777  1.2886  3.1773  0.0738
  210MPD1    H2 3196   3.834   1.431  11.132 -0.3311 -0.6702  1.3722
  210MPD1    H3 3197   3.844   1.416  10.888  0.6566 -1.3784 -2.4371
  210MPD1     N 3198   3.791   0.968  10.871  0.7357 -0.1382 -0.1102
  210MPD1    H5 3199   3.819   0.969  10.773  1.3749  2.7439  0.1124
  210MPD1    N1 3200   3.781   1.229  11.289 -0.1075 -0.6342 -0.4335
  210MPD1    H6 3201   3.820   1.311  11.334 -2.4815 -0.6222  1.6156
  210MPD1    H7 3202   3.823   1.152  11.341 -0.7600 -1.0322 -0.4989
  211MPD1     C 3203   0.815   0.050  15.793  0.4091  0.3581 -0.3593
  211MPD1    C1 3204   0.689   0.013  15.833  0.8007 -1.0303 -0.0655
  211MPD1    C2 3205   0.604   0.102  15.891 -0.0942 -0.2443 -0.0023
  211MPD1    C3 3206   0.638   0.233  15.925  0.2401  0.0729  0.5374
  211MPD1    C4 3207   0.768   0.271  15.890 -0.2652  0.5345 -1.0683
  211MPD1    C5 3208   0.851   0.183  15.817  1.0576  0.7937  0.4846
  211MPD1     H 3209   0.505   0.068  15.921  0.4322 -1.7708 -0.0116
  211MPD1    H1 3210   0.795   0.375  15.875  2.2157  0.1388  0.6955
  211MPD1    H2 3211   0.880   4.710  15.734 -0.8907  0.7438 -2.2101
  211MPD1    H3 3212   0.941   0.212  15.764  0.9526  1.4371  0.6580
  211MPD1     N 3213   0.534   0.314  15.976 -0.2467  0.0046 -0.3968
  211MPD1    H5 3214   0.439   0.279  15.969  0.1573 -1.4940  1.4044
  211MPD1    N1 3215   0.625   4.615  15.791  0.3064 -0.1591  0.5516
  211MPD1    H6 3216   0.690   4.544  15.758 -1.2547 -1.0335 -0.6189
  211MPD1    H7 3217   0.572   4.589  15.874 -2.7760  0.5090 -1.2128
  212MPD1     C 3218   4.677   3.132  16.126 -0.8542 -0.0896 -0.0710
  212MPD1    C1 3219   4.623   3.220  16.212 -0.3454 -0.3682 -0.3559
  212MPD1    C2 3220   4.560   3.168  16.331 -0.4343  0.0043 -1.1001
  212MPD1    C3 3221   4.552   3.035  16.359 -0.7172 -0.0456 -0.0314
  212MPD1    C4 3222   4.605   2.946  16.265 -0.1678 -0.0070  0.2588
  212MPD1    C5 3223   4.673   2.996  16.149 -0.1346 -0.0932  0.1407
  212MPD1     H 3224   4.527   3.244  16.401  0.1967 -1.9329  1.3061
  212MPD1    H1 3225   4.594   2.838  16.266 -0.0444 -0.0502 -1.7528
  212MPD1    H2 3226   4.723   3.161  16.032 -1.6638  3.6770  0.7007
  212MPD1    H3 3227   4.706   2.936  16.065 -2.7254 -0.7013 -0.4250
  212MPD1     N 3228   4.472   2.981  16.455  0.5855  0.6816 -0.8727
  212MPD1    H5 3229   4.452   2.882  16.441  2.5707  0.1236  0.3238
  212MPD1    N1 3230   4.638   3.361  16.198 -0.4772  0.0775  0.2568
  212MPD1    H6 3231   4.553   3.416  16.207  0.0427  1.1317 -1.2379
  212MPD1    H7 3232   4.683   3.380  16.109 -1.8425  0.9127 -0.2539
  213MPD1     C 3233   3.094   4.290  15.355 -0.1113 -0.3716 -0.1565
  213MPD1    C1 3234   2.974   4.237  15.393 -0.2200  0.1478  0.5889
  213MPD1    C2 3235   2.873   4.282  15.314  0.0724  0.3662 -0.1352
  213MPD1    C3 3236   2.879   4.406  15.241  0.4293 -0.1286  0.1304
  213MPD1    C4 3237   2.999   4.475  15.234 -0.4822 -0.8755  0.4044
  213MPD1    C5 3238   3.108   4.407  15.285  0.1868 -0.1422  0.4699
  213MPD1     H 3239   2.780   4.226  15.317  0.2096  0.0657 -1.4413
  213MPD1    H1 3240   3.013   4.568  15.180 -1.4289 -1.4385 -0.7720
  213MPD1    H2 3241   3.185   4.254  15.402 -0.7004 -1.5137  0.1078
  213MPD1    H3 3242   3.206   4.452  15.278  0.8448 -1.6730 -0.0754
  213MPD1     N 3243   2.753   4.441  15.187  0.3824 -0.3336 -0.3049
  213MPD1    H5 3244   2.675   4.377  15.199  0.3300 -0.6467 -2.2926
  213MPD1    N1 3245   2.966   4.102  15.438  0.1321 -0.5697 -0.5110
  213MPD1    H6 3246   2.883   4.086  15.496 -0.2414 -1.5545 -1.3237
  213MPD1    H7 3247   3.044   4.079  15.499 -0.3275  1.0390  0.6962
  214MPD1     C 3248   2.062   3.958  15.149  0.3466 -0.2581 -0.3140
  214MPD1    C1 3249   2.007   4.081  15.115 -0.4320  0.0083 -0.0100
  214MPD1    C2 3250   2.096   4.179  15.064  0.2095 -0.3204  0.1545
  214MPD1    C3 3251   2.231   4.157  15.068 -0.3720 -0.3416 -0.4052
  214MPD1    C4 3252   2.284   4.045  15.118  0.5072  0.6278 -0.1237
  214MPD1    C5 3253   2.200   3.939  15.148 -0.1304  0.0106  0.3681
  214MPD1     H 3254   2.053   4.275  15.041  3.0818  0.9892  0.3434
  214MPD1    H1 3255   2.391   4.029  15.119  0.1603 -1.7158 -0.6906
  214MPD1    H2 3256   2.001   3.870  15.165 -0.6262  0.5308  0.3058
  214MPD1    H3 3257   2.241   3.843  15.177 -0.2832 -0.3913 -0.7535
  214MPD1     N 3258   2.318   4.262  15.046  0.1119  0.8940  0.1288
  214MPD1    H5 3259   2.414   4.240  15.069  0.7045  2.2098 -1.0661
  214MPD1    N1 3260   1.868   4.088  15.108 -0.0351 -0.8219 -0.1315
  214MPD1    H6 3261   1.817   4.058  15.191  0.8948  1.0497  1.1273
  214MPD1    H7 3262   1.831   4.180  15.083  1.9441  0.1482  0.5310
  215MPD1     C 3263   2.842   0.055  10.426 -0.3007 -0.1335 -0.1352
  215MPD1    C1 3264   2.968   0.031  10.474 -0.2144  0.1314  0.4687
  215MPD1    C2 3265   3.025   0.132  10.549 -0.3410  0.1296  0.1025
  215MPD1    C3 3266   2.970   0.261  10.567  0.4339  0.2394 -0.4705
  215MPD1    C4 3267   2.841   0.284  10.516  0.7586  0.4552 -0.1427
  215MPD1    C5 3268   2.785   0.181  10.439  0.2316 -0.0981 -0.4478
  215MPD1     H 3269   3.130   0.117  10.570  0.1750 -0.6968 -3.0566
  215MPD1    H1 3270   2.789   0.376  10.539 -0.5477 -0.7128  1.5690
  215MPD1    H2 3271   2.789   4.704  10.369  1.6089 -1.0752 -0.6673
  215MPD1    H3 3272   2.690   0.203  10.392  1.4638  3.3367 -1.3191
  215MPD1     N 3273   3.044   0.373  10.621 -0.1860  0.0463  0.4833
  215MPD1    H5 3274   3.002   0.463  10.599  0.4847 -0.4537 -2.8147
  215MPD1    N1 3275   3.037   4.629  10.460  0.3928 -0.2774 -0.2743
  215MPD1    H6 3276   3.135   4.645  10.439  0.6490 -0.3156  0.8887
  215MPD1    H7 3277   2.994   4.577  10.384 -0.0002  2.2865 -1.8147
  216MPD1     C 3278   4.598   2.510  15.961 -0.5042  0.2838  0.4740
  216MPD1    C1 3279   4.499   2.414  15.980 -0.1786  0.5748 -0.2989
  216MPD1    C2 3280   4.453   2.386  16.111 -0.2300 -0.0485  0.0725
  216MPD1    C3 3281   4.490   2.467  16.221  0.7106 -0.0877 -0.0850
  216MPD1    C4 3282   4.579   2.571  16.196 -0.5241  0.2400 -0.0611
  216MPD1    C5 3283   4.632   2.584  16.074  0.6247 -0.1412  0.3586
  216MPD1     H 3284   4.376   2.312  16.129 -1.3768  0.9133 -0.8091
  216MPD1    H1 3285   4.620   2.640  16.269 -2.0300 -1.4586  2.4158
  216MPD1    H2 3286   4.641   2.543  15.867  0.1229 -0.4108  0.5140
  216MPD1    H3 3287   4.695   2.670  16.057 -0.4856  0.4211 -0.9655
  216MPD1     N 3288   4.430   2.451  16.351  0.6063  0.0120  0.1031
  216MPD1    H5 3289   4.386   2.360  16.360  2.0410 -0.8698 -1.7841
  216MPD1    N1 3290   4.474   2.335  15.866  0.1445 -0.5239 -0.5941
  216MPD1    H6 3291   4.461   2.399  15.788 -2.2525  0.6612  0.7694
  216MPD1    H7 3292   4.385   2.286  15.879  0.6189 -1.1366  0.2864
  217MPD1     C 3293   1.718   0.966   9.280  0.3687  0.2799 -0.8908
  217MPD1    C1 3294   1.797   0.871   9.333 -0.2089 -0.3913  0.1914
  217MPD1    C2 3295   1.763   0.734   9.321 -0.3285 -0.0584 -0.0739
  217MPD1    C3 3296   1.638   0.704   9.276 -0.5716  0.1048 -0.3079
  217MPD1    C4 3297   1.562   0.799   9.224  0.6600 -0.5084 -0.4802
  217MPD1    C5 3298   1.597   0.934   9.227  1.0444  0.0477 -0.4616
  217MPD1     H 3299   1.834   0.659   9.350 -0.8752 -0.7668 -0.5732
  217MPD1    H1 3300   1.464   0.775   9.186 -0.4737 -0.1816  2.2563
  217MPD1    H2 3301   1.742   1.072   9.289 -2.1064  0.7362  0.1884
  217MPD1    H3 3302   1.540   1.014   9.179  2.1639 -0.2788 -2.3484
  217MPD1     N 3303   1.590   0.574   9.262 -0.1473  0.8917 -0.1732
  217MPD1    H5 3304   1.494   0.564   9.230 -1.2050 -0.6441  3.4746
  217MPD1    N1 3305   1.933   0.900   9.370 -0.4020 -0.1348  0.3991
  217MPD1    H6 3306   1.942   0.995   9.407  0.3581 -0.4294  0.9755
  217MPD1    H7 3307   1.947   0.833   9.446  1.7266  0.2679  0.3630
  218MPD1     C 3308   1.626   0.379  12.259  0.0074 -0.8391 -0.1189
  218MPD1    C1 3309   1.734   0.444  12.206  1.2165 -0.7696  0.0710
  218MPD1    C2 3310   1.849   0.453  12.291  0.4240  0.0601  0.1576
  218MPD1    C3 3311   1.847   0.403  12.416 -0.2531 -0.3717 -0.7693
  218MPD1    C4 3312   1.737   0.332  12.459 -0.0387 -0.8647  0.4169
  218MPD1    C5 3313   1.626   0.323  12.380 -0.5962  0.4920 -0.1628
  218MPD1     H 3314   1.945   0.495  12.264  0.2213 -0.4890 -1.4306
  218MPD1    H1 3315   1.731   0.302  12.564 -1.7757  2.2997  1.2200
  218MPD1    H2 3316   1.530   0.377  12.209 -0.6599  0.6898  1.1167
  218MPD1    H3 3317   1.545   0.266  12.424 -0.8348  0.1521 -1.0351
  218MPD1     N 3318   1.961   0.425  12.497  0.4542 -0.0657 -0.6581
  218MPD1    H5 3319   2.019   0.505  12.473  1.0705 -0.1097  0.7093
  218MPD1    N1 3320   1.724   0.511  12.088 -0.4065  0.6599  0.5679
  218MPD1    H6 3321   1.812   0.528  12.041 -2.1908  1.1741 -2.5676
  218MPD1    H7 3322   1.658   0.468  12.024  0.1013  1.3413 -0.4090
  219MPD1     C 3323   2.829   0.779  12.374  0.0995 -0.2535 -0.1595
  219MPD1    C1 3324   2.699   0.824  12.360  0.1634 -0.2599  0.1217
  219MPD1    C2 3325   2.596   0.765  12.437  0.0793  0.6778 -0.2417
  219MPD1    C3 3326   2.629   0.668  12.531 -0.2216  0.1900  0.0290
  219MPD1    C4 3327   2.760   0.631  12.543  0.5296  0.0041  0.0338
  219MPD1    C5 3328   2.860   0.685  12.467  0.4670 -0.4264 -0.2171
  219MPD1     H 3329   2.496   0.805  12.431  0.5292  1.6636 -1.1762
  219MPD1    H1 3330   2.795   0.555  12.612 -1.1611  0.4791  1.4292
  219MPD1    H2 3331   2.912   0.816  12.314  0.1992  0.8737  0.6632
  219MPD1    H3 3332   2.961   0.657  12.493 -0.3829 -3.0104  0.3106
  219MPD1     N 3333   2.536   0.584  12.597  0.4445  0.4292  0.1325
  219MPD1    H5 3334   2.566   0.495  12.637  4.2837  0.7738 -1.9548
  219MPD1    N1 3335   2.674   0.923  12.260  0.2894  0.0497 -0.2020
  219MPD1    H6 3336   2.624   1.005  12.296  0.6067  0.8243 -1.5091
  219MPD1    H7 3337   2.745   0.961  12.197 -0.6036 -0.4762 -1.5258
  220MPD1     C 3338   1.949   1.339   9.721 -0.4619 -1.0921 -0.1367
  220MPD1    C1 3339   1.905   1.217   9.758  0.6034 -0.4693  0.0904
  220MPD1    C2 3340   2.004   1.120   9.787 -0.2793  0.3886  0.4548
  220MPD1    C3 3341   2.136   1.156   9.792 -0.4839  0.4920  0.2295
  220MPD1    C4 3342   2.175   1.278   9.755  0.2366  0.3887 -0.9402
  220MPD1    C5 3343   2.083   1.373   9.725  0.4188  0.2263  0.3429
  220MPD1     H 3344   1.985   1.017   9.816 -0.5463  0.4691  0.5665
  220MPD1    H1 3345   2.276   1.305   9.784  0.8396  0.4520 -3.0968
  220MPD1    H2 3346   1.880   1.419   9.695  0.5423 -0.0487  0.3831
  220MPD1    H3 3347   2.110   1.476   9.702  0.5814 -0.2522 -1.6591
  220MPD1     N 3348   2.220   1.066   9.861 -0.6447 -0.1985  0.0510
  220MPD1    H5 3349   2.175   0.990   9.910 -0.6917 -0.6587 -0.7094
  220MPD1    N1 3350   1.774   1.174   9.731 -0.5656 -0.4606  0.4990
  220MPD1    H6 3351   1.740   1.090   9.778 -0.8781 -0.1581  0.8095
  220MPD1    H7 3352   1.708   1.251   9.739  2.2216  1.7452  2.2898
  221MPD1     C 3353   4.151   0.421  15.914 -0.5762  0.2406  0.4873
  221MPD1    C1 3354   4.183   0.305  15.838  0.1111  0.3128  0.0976
  221MPD1    C2 3355   4.307   0.250  15.866  0.1586 -0.6476  0.4752
  221MPD1    C3 3356   4.392   0.296  15.968  0.2269 -0.4207  0.3237
  221MPD1    C4 3357   4.356   0.401  16.047  0.5268  0.5775 -0.3411
  221MPD1    C5 3358   4.232   0.464  16.014 -0.1548 -0.2590  0.5950
  221MPD1     H 3359   4.341   0.175  15.796 -2.0796 -0.4299 -0.8594
  221MPD1    H1 3360   4.416   0.443  16.127 -0.4579 -0.9419  1.1955
  221MPD1    H2 3361   4.059   0.473  15.889 -0.6511  0.1130  0.4973
  221MPD1    H3 3362   4.206   0.550  16.076 -0.6598  0.1412 -0.1598
  221MPD1     N 3363   4.520   0.246  15.999  0.2066 -0.0381 -0.1204
  221MPD1    H5 3364   4.568   0.299  16.071 -1.5360  1.4898 -0.0925
  221MPD1    N1 3365   4.097   0.255  15.730 -0.1253 -0.4172 -1.0258
  221MPD1    H6 3366   3.997   0.263  15.747 -0.1112  1.2554 -1.7125
  221MPD1    H7 3367   4.119   0.159  15.703 -0.2856 -0.7905  0.1563
  222MPD1     C 3368   3.640   4.164  16.221  0.6954 -0.0441  0.1401
  222MPD1    C1 3369   3.649   4.031  16.241 -0.1696  0.0004  0.6711
  222MPD1    C2 3370   3.719   3.977  16.345  0.0669 -0.2059  0.8979
  222MPD1    C3 3371   3.767   4.056  16.446 -0.6060  0.2256  0.0586
  222MPD1    C4 3372   3.749   4.193  16.433 -0.1594  0.2995  0.0691
  222MPD1    C5 3373   3.694   4.240  16.315  0.2273 -0.5537  0.1712
  222MPD1     H 3374   3.734   3.870  16.349 -0.6919 -0.3994 -1.5566
  222MPD1    H1 3375   3.794   4.264  16.501 -0.0852  1.7257 -1.4733
  222MPD1    H2 3376   3.598   4.214  16.134 -0.8768 -0.2218  0.7993
  222MPD1    H3 3377   3.674   4.347  16.317 -0.0495 -0.5644 -2.4588
  222MPD1     N 3378   3.839   4.018  16.557  0.4680 -0.1076 -0.5661
  222MPD1    H5 3379   3.872   4.089  16.621 -1.8898 -0.3842  0.9531
  222MPD1    N1 3380   3.591   3.948  16.138 -0.3393  0.2921 -0.4087
  222MPD1    H6 3381   3.518   3.989  16.080  2.2569  1.7516 -2.6525
  222MPD1    H7 3382   3.554   3.862  16.178 -0.8912  0.3487 -0.7912
  223MPD1     C 3383   0.010   3.485  16.889 -0.7848 -0.3736 -0.0120
  223MPD1    C1 3384   4.676   3.536  17.000 -0.1473  0.0501  0.9684
  223MPD1    C2 3385   4.553   3.601  16.995  0.2507 -0.7084  0.4339
  223MPD1    C3 3386   4.497   3.636  16.877  0.2950  0.1081  0.6611
  223MPD1    C4 3387   4.562   3.597  16.759  0.0860 -0.6809  0.1689
  223MPD1    C5 3388   4.681   3.522  16.766 -0.5211  0.1169  0.0865
  223MPD1     H 3389   4.501   3.634  17.084 -2.7227  0.0505 -1.6014
  223MPD1    H1 3390   4.521   3.619  16.662 -0.5944 -0.2622  0.5548
  223MPD1    H2 3391   0.093   3.416  16.884 -1.1394 -0.7371 -0.8520
  223MPD1    H3 3392   0.004   3.483  16.677 -2.2167  0.5619 -0.9799
  223MPD1     N 3393   4.368   3.704  16.877 -0.1434  0.5750 -0.8731
  223MPD1    H5 3394   4.326   3.723  16.968  0.9951 -0.3141 -0.1571
  223MPD1    N1 3395   4.715   3.497  17.131 -0.6867 -0.0877 -0.2655
  223MPD1    H6 3396   4.680   3.549  17.212 -1.8486 -0.8226 -0.2951
  223MPD1    H7 3397   0.091   3.476  17.130 -0.8023 -0.4647 -2.3990
  224MPD1     C 3398   1.958   0.111   9.671 -0.1682 -0.1768  0.1159
  224MPD1    C1 3399   1.877   0.209   9.614  0.6457 -0.3449  0.1843
  224MPD1    C2 3400   1.743   0.197   9.642 -0.0914  0.3708  0.4756
  224MPD1    C3 3401   1.685   0.082   9.697  0.2725 -0.3725  0.4585
  224MPD1    C4 3402   1.762   4.710   9.750  0.0887 -0.2072  0.3781
  224MPD1    C5 3403   1.904   0.011   9.749  0.1464  0.8449  0.4156
  224MPD1     H 3404   1.674   0.275   9.612 -0.1427  1.2361  2.8411
  224MPD1    H1 3405   1.723   4.628   9.809  0.7985 -0.3438  0.6628
  224MPD1    H2 3406   2.066   0.112   9.659 -0.0925 -2.2191  0.7103
  224MPD1    H3 3407   1.970   4.664   9.797  1.5575  1.8383 -0.0606
  224MPD1     N 3408   1.552   0.058   9.700  0.2421 -0.3267  0.2148
  224MPD1    H5 3409   1.517   4.694   9.735 -0.3931 -0.4504 -0.7385
  224MPD1    N1 3410   1.940   0.324   9.562  0.2826 -0.3502  0.2207
  224MPD1    H6 3411   1.886   0.365   9.486  1.6099  1.4101  0.2344
  224MPD1    H7 3412   2.026   0.290   9.520  0.4278 -0.0455  0.2767
  225MPD1     C 3413   2.702   1.479  12.382 -0.2416  0.1183  0.5689
  225MPD1    C1 3414   2.608   1.577  12.417 -0.1494  0.5729 -0.1727
  225MPD1    C2 3415   2.504   1.596  12.328  0.4005 -0.3675  0.7845
  225MPD1    C3 3416   2.499   1.537  12.203  0.5060 -0.6952 -0.4176
  225MPD1    C4 3417   2.587   1.445  12.174 -0.5439  0.3313 -1.3406
  225MPD1    C5 3418   2.689   1.415  12.258  0.2963  1.1742 -0.0438
  225MPD1     H 3419   2.428   1.665  12.361  1.0436  0.5162  0.4025
  225MPD1    H1 3420   2.583   1.391  12.080 -0.3148 -1.7056 -0.1754
  225MPD1    H2 3421   2.785   1.449  12.445 -1.1566 -0.4436  1.4895
  225MPD1    H3 3422   2.752   1.337  12.216 -1.5817  0.2304 -1.0943
  225MPD1     N 3423   2.389   1.555  12.106 -0.4594  0.4301 -0.1272
  225MPD1    H5 3424   2.400   1.513  12.014  0.9971 -0.8027  0.6124
  225MPD1    N1 3425   2.603   1.625  12.545 -0.3461 -0.1155  0.2837
  225MPD1    H6 3426   2.692   1.615  12.592 -2.2850 -4.2571  3.1816
  225MPD1    H7 3427   2.561   1.717  12.554 -0.6888 -0.2904  0.5047
  226MPD1     C 3428   0.301   0.674   9.782 -0.0444  0.4433  0.9583
  226MPD1    C1 3429   0.267   0.804   9.799 -1.1802  0.6976  0.0011
  226MPD1    C2 3430   0.346   0.902   9.747 -0.5920 -0.3222 -0.4691
  226MPD1    C3 3431   0.465   0.875   9.679  0.3105 -0.3106  0.1064
  226MPD1    C4 3432   0.507   0.745   9.668 -0.4926 -0.3621 -0.0571
  226MPD1    C5 3433   0.424   0.646   9.722  0.7135  0.3874  0.8465
  226MPD1     H 3434   0.313   1.005   9.746  0.7718  0.1123 -1.5358
  226MPD1    H1 3435   0.592   0.712   9.609  1.4596 -0.5438  2.8735
  226MPD1    H2 3436   0.245   0.591   9.823 -0.6452  0.5665  0.3992
  226MPD1    H3 3437   0.449   0.544   9.695  1.4950  1.3364 -2.0226
  226MPD1     N 3438   0.528   0.986   9.631  0.5418  0.3064 -0.1018
  226MPD1    H5 3439   0.475   1.072   9.640  1.3657  0.5261  2.6686
  226MPD1    N1 3440   0.136   0.834   9.841  0.2027 -0.4645 -0.3480
  226MPD1    H6 3441   0.093   0.767   9.904 -2.1848  1.9921  0.6532
  226MPD1    H7 3442   0.134   0.930   9.877  1.5100 -1.4668  2.4011
  227MPD1     C 3443   0.181   1.762   9.588  0.3911 -1.1562 -0.1176
  227MPD1    C1 3444   0.149   1.634   9.602 -0.5023 -0.4731 -0.1633
  227MPD1    C2 3445   0.244   1.534   9.580 -0.5577 -0.0374 -0.5280
  227MPD1    C3 3446   0.374   1.562   9.543 -0.4369  0.3047 -0.0435
  227MPD1    C4 3447   0.402   1.700   9.524 -0.8708  0.2907 -0.8081
  227MPD1    C5 3448   0.307   1.794   9.552  0.0770 -0.7292  0.5447
  227MPD1     H 3449   0.217   1.431   9.597 -0.9331  0.2684  0.7260
  227MPD1    H1 3450   0.500   1.742   9.502 -0.1745 -1.0876 -0.2838
  227MPD1    H2 3451   0.120   1.842   9.629 -0.0819 -1.7669  0.3720
  227MPD1    H3 3452   0.341   1.896   9.539 -0.9386 -0.8695 -3.1036
  227MPD1     N 3453   0.459   1.456   9.520  0.2637 -0.1602 -0.0460
  227MPD1    H5 3454   0.412   1.367   9.507  0.6449 -0.2689 -0.6928
  227MPD1    N1 3455   0.025   1.596   9.656 -0.0807  0.1256 -0.1290
  227MPD1    H6 3456   4.683   1.673   9.643 -0.0595  0.0691 -0.5591
  227MPD1    H7 3457   4.707   1.510   9.622 -1.3564  0.6379  0.1100
  228MPD1     C 3458   3.885   4.236  13.037  0.1127 -0.2816 -0.2484
  228MPD1    C1 3459   3.769   4.302  13.007  0.4159 -0.0033 -0.1259
  228MPD1    C2 3460   3.653   4.249  13.057 -0.6170  0.0797 -0.3176
  228MPD1    C3 3461   3.644   4.121  13.103  0.2778  0.3682 -0.8607
  228MPD1    C4 3462   3.762   4.048  13.119 -0.3334 -0.0148  0.4776
  228MPD1    C5 3463   3.880   4.105  13.084  0.3175  0.6319 -0.1067
  228MPD1     H 3464   3.565   4.312  13.055 -1.1507 -0.6976 -1.6868
  228MPD1    H1 3465   3.749   3.950  13.165  1.7453 -0.4837  0.0891
  228MPD1    H2 3466   3.981   4.272  13.002  0.9051 -2.0110  0.1437
  228MPD1    H3 3467   3.968   4.046  13.108  0.2870  0.8654  0.5727
  228MPD1     N 3468   3.512   4.070  13.133 -0.5906  0.3764  0.6622
  228MPD1    H5 3469   3.442   4.144  13.134 -1.5284 -0.4842 -0.2280
  228MPD1    N1 3470   3.775   4.445  12.979 -0.2466 -0.3864 -0.7877
  228MPD1    H6 3471   3.692   4.472  12.926 -1.1261 -2.0411 -0.2570
  228MPD1    H7 3472   3.855   4.474  12.923  1.1896  0.0360  1.5043
  229MPD1     C 3473   3.276   2.696  13.977 -0.5333 -0.3537 -0.2082
  229MPD1    C1 3474   3.301   2.721  14.110 -0.5025 -0.0320  0.4352
  229MPD1    C2 3475   3.383   2.644  14.188  0.9825 -0.6600 -0.1889
  229MPD1    C3 3476   3.417   2.511  14.151  0.3574 -0.0484 -0.1391
  229MPD1    C4 3477   3.373   2.475  14.018  0.2989 -0.1926  0.2572
  229MPD1    C5 3478   3.311   2.569  13.935 -0.3944 -0.8280 -0.1581
  229MPD1     H 3479   3.409   2.677  14.288 -1.5154 -2.8352  1.2081
  229MPD1    H1 3480   3.392   2.377  13.975 -0.6317 -0.5114  0.5576
  229MPD1    H2 3481   3.228   2.763  13.906 -2.0530 -0.1859  0.9918
  229MPD1    H3 3482   3.290   2.530  13.836 -0.6110  0.2313 -0.5308
  229MPD1     N 3483   3.490   2.424  14.227  0.2663  0.0427 -0.1182
  229MPD1    H5 3484   3.514   2.337  14.180 -0.1986  0.4242 -1.0540
  229MPD1    N1 3485   3.267   2.848  14.156  0.3105 -0.3316 -0.0215
  229MPD1    H6 3486   3.179   2.880  14.116  1.4618  0.8974 -1.5390
  229MPD1    H7 3487   3.264   2.847  14.258  2.6781 -1.0495  0.0532
  230MPD1     C 3488   3.435   2.712  15.115 -1.0373 -0.2176 -0.8200
  230MPD1    C1 3489   3.348   2.727  15.010 -0.5094 -0.7360  0.3132
  230MPD1    C2 3490   3.366   2.630  14.910  0.1174  0.3206  0.7704
  230MPD1    C3 3491   3.457   2.523  14.926  0.5082 -0.4281  0.4322
  230MPD1    C4 3492   3.538   2.516  15.035 -0.3518 -0.5442  0.2332
  230MPD1    C5 3493   3.521   2.614  15.134  0.3194  0.0039  0.4752
  230MPD1     H 3494   3.320   2.644  14.813 -0.1063  0.9502  0.9702
  230MPD1    H1 3495   3.620   2.447  15.048 -1.6130 -2.1309 -0.1784
  230MPD1    H2 3496   3.413   2.771  15.203 -2.2353 -0.9123 -0.6589
  230MPD1    H3 3497   3.576   2.610  15.227  0.3307 -2.6591  0.3481
  230MPD1     N 3498   3.478   2.452  14.812  0.0963  0.4383  0.3205
  230MPD1    H5 3499   3.416   2.464  14.733 -0.2562 -2.2646  0.1987
  230MPD1    N1 3500   3.278   2.846  14.995  0.1132 -0.0123 -0.1879
  230MPD1    H6 3501   3.244   2.879  15.086 -1.2501  0.5365 -0.8994
  230MPD1    H7 3502   3.192   2.847  14.940  0.1528 -1.5815 -0.2756
  231MPD1     C 3503   1.639   0.131  15.690  0.3482 -0.1345 -0.4590
  231MPD1    C1 3504   1.607   0.007  15.648  0.6826 -0.3848  1.2118
  231MPD1    C2 3505   1.591   4.702  15.511 -0.7496  0.2388  1.0689
  231MPD1    C3 3506   1.607   0.076  15.416 -0.2980 -0.8368  0.3787
  231MPD1    C4 3507   1.662   0.199  15.453 -0.3984 -0.2969 -1.0277
  231MPD1    C5 3508   1.668   0.221  15.589 -0.0032  0.2617 -0.1261
  231MPD1     H 3509   1.574   4.599  15.484 -1.3208  0.8026 -0.7184
  231MPD1    H1 3510   1.705   0.272  15.386 -0.1491 -0.9998 -1.6376
  231MPD1    H2 3511   1.649   0.158  15.794  1.3355  2.6453 -1.2646
  231MPD1    H3 3512   1.699   0.320  15.620  0.6766  0.2567 -0.7995
  231MPD1     N 3513   1.586   0.043  15.279 -0.5532 -0.2065 -0.0346
  231MPD1    H5 3514   1.548   4.676  15.256  1.9275 -1.4320  0.6762
  231MPD1    N1 3515   1.566   4.635  15.747  0.1346  0.5984  0.0697
  231MPD1    H6 3516   1.579   4.537  15.723  0.0097  0.8286 -0.9517
  231MPD1    H7 3517   1.610   4.642  15.838 -0.1628 -1.1089  0.3497
  232MPD1     C 3518   3.028   1.455  17.538  0.4665  0.0834 -0.5881
  232MPD1    C1 3519   2.942   1.563  17.539  0.6039 -0.9128  0.0956
  232MPD1    C2 3520   2.917   1.623  17.662  0.8384  0.5593 -0.1691
  232MPD1    C3 3521   2.976   1.570   0.078  0.2374 -0.0057  0.4071
  232MPD1    C4 3522   3.057   1.460   0.073 -0.4012  0.0860 -0.7319
  232MPD1    C5 3523   3.087   1.401  17.651  0.1665 -0.7419 -0.3576
  232MPD1     H 3524   2.841   1.698  17.678  0.8030  0.2799  0.9334
  232MPD1    H1 3525   3.102   1.427   0.166 -1.6640  0.1762 -0.0769
  232MPD1    H2 3526   3.052   1.413  17.441 -1.6089 -0.2458 -0.9527
  232MPD1    H3 3527   3.165   1.326  17.644  3.2875  2.2702  2.3470
  232MPD1     N 3528   2.940   1.634   0.197  0.3605 -0.5208  0.7112
  232MPD1    H5 3529   2.867   1.705   0.195 -0.5356 -1.5142 -1.2087
  232MPD1    N1 3530   2.916   1.626  17.417  0.0049  0.3586  0.0929
  232MPD1    H6 3531   2.843   1.696  17.423  0.3116  0.6278  0.7111
  232MPD1    H7 3532   2.900   1.561  17.340 -0.5377 -0.5445  0.9659
  233MPD1     C 3533   4.236   1.150   1.540 -0.4335 -0.0788  0.4063
  233MPD1    C1 3534   4.322   1.235   1.475  0.4956 -0.0906 -0.3196
  233MPD1    C2 3535   4.445   1.179   1.435 -0.0026  0.3725  0.5580
  233MPD1    C3 3536   4.487   1.057   1.492  0.0886 -0.5850  0.1591
  233MPD1    C4 3537   4.399   0.984   1.569 -0.1575  0.2285 -0.2321
  233MPD1    C5 3538   4.275   1.032   1.591 -0.3797 -0.0565 -0.2647
  233MPD1     H 3539   4.520   1.241   1.387 -1.6488  1.4232 -0.6444
  233MPD1    H1 3540   4.432   0.891   1.614  0.2486 -0.7485 -2.5560
  233MPD1    H2 3541   4.133   1.179   1.556  0.3277  2.3332  0.8799
  233MPD1    H3 3542   4.197   0.976   1.642 -0.4264 -0.9920 -1.3611
  233MPD1     N 3543   4.619   1.004   1.475  0.6736  0.1769 -0.0111
  233MPD1    H5 3544   4.644   0.921   1.528 -0.8839 -1.4511 -1.7905
  233MPD1    N1 3545   4.268   1.351   1.422 -0.6399 -0.5835  0.2491
  233MPD1    H6 3546   4.186   1.389   1.469  0.2443 -0.0950  1.3572
  233MPD1    H7 3547   4.326   1.425   1.383 -3.8772  1.3181 -1.0154
  234MPD1     C 3548   1.520   3.290   9.935  0.6241 -0.5739 -0.0471
  234MPD1    C1 3549   1.411   3.279   9.852  0.1221  0.3327  0.3622
  234MPD1    C2 3550   1.398   3.368   9.747 -0.0588 -0.1523  0.3904
  234MPD1    C3 3551   1.476   3.481   9.739  0.8901 -0.5104  0.5013
  234MPD1    C4 3552   1.582   3.498   9.832 -0.3234  0.0280  0.6055
  234MPD1    C5 3553   1.605   3.402   9.927  0.6887  0.4301 -0.5188
  234MPD1     H 3554   1.321   3.340   9.678 -2.5734  0.3609  2.9700
  234MPD1    H1 3555   1.650   3.581   9.822 -0.4260 -0.2107 -2.0453
  234MPD1    H2 3556   1.540   3.212  10.008  1.7539 -1.4628 -1.3030
  234MPD1    H3 3557   1.682   3.409  10.003  1.6533 -0.8817 -1.3741
  234MPD1     N 3558   1.445   3.583   9.641 -0.4126  0.2912  0.5145
  234MPD1    H5 3559   1.381   3.555   9.568 -0.4399  4.2844 -0.9748
  234MPD1    N1 3560   1.338   3.159   9.864 -0.0789  0.1059  0.4034
  234MPD1    H6 3561   1.340   3.114   9.956  1.1377 -1.3534 -0.3432
  234MPD1    H7 3562   1.245   3.156   9.823  0.1406  0.7257 -0.1338
  235MPD1     C 3563   3.073   1.603  11.301  0.3925 -0.0611  0.4767
  235MPD1    C1 3564   3.131   1.518  11.208  0.3793  0.4277  0.0733
  235MPD1    C2 3565   3.193   1.588  11.106  0.5401  0.3107  0.9537
  235MPD1    C3 3566   3.207   1.730  11.102 -0.0419  0.4465 -0.1462
  235MPD1    C4 3567   3.171   1.807  11.212  0.0029  0.0793  0.0977
  235MPD1    C5 3568   3.090   1.739  11.299 -0.3186  0.1638  0.0556
  235MPD1     H 3569   3.232   1.527  11.025  0.2299  1.4024 -0.0145
  235MPD1    H1 3570   3.180   1.915  11.211 -2.5295  0.2986  2.6603
  235MPD1    H2 3571   3.018   1.564  11.386 -0.6752 -0.4907 -0.4059
  235MPD1    H3 3572   3.049   1.793  11.384 -1.1844 -0.7935  0.2561
  235MPD1     N 3573   3.269   1.787  10.981 -0.0998 -0.1781  0.0331
  235MPD1    H5 3574   3.274   1.729  10.898 -0.6801  2.3998 -1.8318
  235MPD1    N1 3575   3.116   1.374  11.216 -0.1061 -0.0576 -0.2071
  235MPD1    H6 3576   3.114   1.353  11.316  3.0019  2.3793  0.3298
  235MPD1    H7 3577   3.197   1.331  11.172 -0.0312 -1.4308  1.2644
  236MPD1     C 3578   2.339   3.125   9.791  0.3491  0.1773  0.6220
  236MPD1    C1 3579   2.311   2.991   9.788  0.2963 -0.5195  0.1713
  236MPD1    C2 3580   2.375   2.917   9.890  0.8995  0.6083 -0.5743
  236MPD1    C3 3581   2.465   2.975   9.981  0.3225 -0.6750 -0.2610
  236MPD1    C4 3582   2.482   3.108   9.975  0.2488  0.5725  0.2860
  236MPD1    C5 3583   2.426   3.182   9.879 -0.1347 -0.3815  0.2776
  236MPD1     H 3584   2.355   2.811   9.892  2.1872  0.3479 -1.3300
  236MPD1    H1 3585   2.553   3.161  10.039  1.3644  0.7462 -1.0890
  236MPD1    H2 3586   2.293   3.198   9.725 -0.6584  0.1485  1.2877
  236MPD1    H3 3587   2.448   3.287   9.869  2.7448 -0.8802  1.5065
  236MPD1     N 3588   2.548   2.906  10.069 -0.2992 -0.2888  0.3587
  236MPD1    H5 3589   2.614   2.956  10.127 -0.3605 -1.4037  1.3826
  236MPD1    N1 3590   2.209   2.944   9.707  0.1931 -0.7833 -0.5842
  236MPD1    H6 3591   2.222   2.994   9.619  0.3185  0.3084  0.0472
  236MPD1    H7 3592   2.224   2.845   9.689 -1.9257 -1.3703  0.8262
  237MPD1     C 3593   2.020   0.429  15.135 -0.4116  0.1610  0.8053
  237MPD1    C1 3594   2.007   0.393  15.263  0.6690 -0.3113  0.1564
  237MPD1    C2 3595   1.967   0.491  15.351  0.0933 -0.0996 -0.3954
  237MPD1    C3 3596   1.949   0.622  15.305  0.0060  0.1358 -1.3768
  237MPD1    C4 3597   1.982   0.654  15.173  0.1439  0.3928 -0.2668
  237MPD1    C5 3598   2.022   0.557  15.085  0.1107 -0.2134 -0.9015
  237MPD1     H 3599   1.941   0.463  15.452  0.8925 -0.0714 -0.1820
  237MPD1    H1 3600   1.955   0.749  15.128 -1.6083  1.4537  3.0231
  237MPD1    H2 3601   2.043   0.347  15.067 -2.3882 -0.5624  1.0058
  237MPD1    H3 3602   2.038   0.566  14.978 -0.8917 -1.4388 -1.1532
  237MPD1     N 3603   1.891   0.722  15.379  0.5314  0.3834  0.4410
  237MPD1    H5 3604   1.889   0.811  15.330 -1.4725 -0.3523 -0.7833
  237MPD1    N1 3605   2.008   0.257  15.313 -0.7101 -1.0363  0.0451
  237MPD1    H6 3606   2.018   0.252  15.415  0.0508 -1.9077 -0.0720
  237MPD1    H7 3607   2.066   0.186  15.269  0.2389 -0.3336  0.1545
  238MPD1     C 3608   4.246   4.519  14.913  0.5929  0.1806 -0.1513
  238MPD1    C1 3609   4.156   4.434  14.968  0.7117  0.6727 -0.1302
  238MPD1    C2 3610   4.035   4.413  14.904 -0.3918 -0.7918 -0.1101
  238MPD1    C3 3611   3.981   4.504  14.814 -1.4712 -0.0163 -0.4674
  238MPD1    C4 3612   4.071   4.598  14.765 -0.3415  0.7081 -0.5627
  238MPD1    C5 3613   4.198   4.603  14.813 -0.1261  0.0461  0.1278
  238MPD1     H 3614   3.971   4.338  14.949  1.8962 -1.0840  2.6164
  238MPD1    H1 3615   4.039   4.676  14.696 -1.3276  1.6419  0.9341
  238MPD1    H2 3616   4.342   4.545  14.954 -0.2728  1.8483  0.8408
  238MPD1    H3 3617   4.258   4.687  14.780 -1.9465  1.6327  0.8918
  238MPD1     N 3618   3.850   4.502  14.770 -0.6403 -0.8595  0.1044
  238MPD1    H5 3619   3.823   4.567  14.698  1.5092 -0.8239 -0.6732
  238MPD1    N1 3620   4.198   4.341  15.064  0.7374  0.1512 -0.5318
  238MPD1    H6 3621   4.276   4.380  15.116 -2.0125  1.9199  2.2706
  238MPD1    H7 3622   4.122   4.311  15.124  3.2921  0.3973  2.8217
  239MPD1     C 3623   4.282   0.484  14.918 -0.1041  0.7214  0.7009
  239MPD1    C1 3624   4.395   0.470  14.842 -0.3899  0.5026  0.2785
  239MPD1    C2 3625   4.388   0.500  14.701 -0.4204  0.4860 -0.0669
  239MPD1    C3 3626   4.262   0.519  14.646  0.3119 -0.4136 -0.2191
  239MPD1    C4 3627   4.149   0.527  14.724  0.3684  0.3136  0.3338
  239MPD1    C5 3628   4.161   0.507  14.859 -0.2749 -0.3696 -0.1519
  239MPD1     H 3629   4.481   0.501  14.646  0.4114  0.0682  1.3564
  239MPD1    H1 3630   4.049   0.538  14.683  0.8956  0.2297 -0.9875
  239MPD1    H2 3631   4.282   0.472  15.026 -0.6653  2.0645  0.8592
  239MPD1    H3 3632   4.080   0.505  14.930  0.9523  0.5841  1.2843
  239MPD1     N 3633   4.245   0.537  14.498 -0.0700  0.3360  0.2248
  239MPD1    H5 3634   4.154   0.571  14.469 -0.6394 -0.8103  0.6411
  239MPD1    N1 3635   4.519   0.463  14.906 -0.0871  0.1108 -0.3075
  239MPD1    H6 3636   4.595   0.424  14.852 -1.2838  0.2919 -2.1193
  239MPD1    H7 3637   4.503   0.401  14.985 -0.8351  1.8104  0.8906
  240MPD1     C 3638   2.992   0.252  13.469 -0.2016  0.0834 -0.0787
  240MPD1    C1 3639   2.881   0.203  13.526 -0.5210  0.5963  0.5217
  240MPD1    C2 3640   2.890   0.153  13.657  0.4316 -0.2137 -0.5015
  240MPD1    C3 3641   3.004   0.169  13.730  0.2906  0.3207  0.2830
  240MPD1    C4 3642   3.117   0.216  13.665  0.5175 -0.0142  0.2156
  240MPD1    C5 3643   3.107   0.261  13.537 -0.1936  0.2927  0.4011
  240MPD1     H 3644   2.803   0.109  13.704  0.0560  1.4320  0.3319
  240MPD1    H1 3645   3.212   0.216  13.718  0.2178 -0.0331  0.7551
  240MPD1    H2 3646   2.992   0.302  13.373  0.4099 -0.7635 -0.5229
  240MPD1    H3 3647   3.196   0.313  13.501  1.2870 -1.9858  0.7896
  240MPD1     N 3648   3.004   0.138  13.868  0.2734 -0.4233 -0.0733
  240MPD1    H5 3649   2.913   0.104  13.899 -1.1350  1.9515 -1.5091
  240MPD1    N1 3650   2.765   0.184  13.446 -0.2153  0.0948 -0.6941
  240MPD1    H6 3651   2.755   0.256  13.375  0.5154 -0.2230 -1.1139
  240MPD1    H7 3652   2.676   0.186  13.496 -0.5091 -1.6617 -1.1483
  241MPD1     C 3653   3.569   0.329  14.698 -0.6618 -0.1346  0.4774
  241MPD1    C1 3654   3.445   0.286  14.725  0.7945  0.0475  0.9878
  241MPD1    C2 3655   3.371   0.222  14.624 -0.2118  0.3695  0.8012
  241MPD1    C3 3656   3.411   0.206  14.494  0.4033 -0.0500  0.5780
  241MPD1    C4 3657   3.530   0.266  14.469 -0.3333 -0.3011 -0.1564
  241MPD1    C5 3658   3.597   0.331  14.565  0.0034  0.3220 -0.8622
  241MPD1     H 3659   3.276   0.174  14.648  0.2229 -0.1373  1.4941
  241MPD1    H1 3660   3.565   0.274  14.367  1.5197  0.2469  0.5238
  241MPD1    H2 3661   3.636   0.367  14.774  0.0615 -0.3065 -0.0828
  241MPD1    H3 3662   3.687   0.386  14.538 -0.3764  1.0542 -0.6387
  241MPD1     N 3663   3.332   0.147  14.393  0.5292  0.4718 -0.3912
  241MPD1    H5 3664   3.369   0.148  14.298  0.0792 -1.5252 -0.5823
  241MPD1    N1 3665   3.390   0.293  14.855  0.1320  0.4485  0.0315
  241MPD1    H6 3666   3.431   0.372  14.905  0.7395  0.2876 -0.2138
  241MPD1    H7 3667   3.289   0.305  14.851  0.5484  3.3428 -1.3816
  242MPD1     C 3668   2.729   3.375  15.814 -0.6309  0.3465  0.4145
  242MPD1    C1 3669   2.681   3.467  15.724  0.5249 -0.4034  0.5109
  242MPD1    C2 3670   2.729   3.472  15.593  0.1129 -0.5633  0.8989
  242MPD1    C3 3671   2.812   3.367  15.554  0.3038  0.1662  0.0690
  242MPD1    C4 3672   2.849   3.272  15.641  0.1901  0.4945  0.0961
  242MPD1    C5 3673   2.809   3.274  15.769 -0.4872 -0.3399 -0.3616
  242MPD1     H 3674   2.702   3.557  15.531 -0.7889 -1.6638 -0.2258
  242MPD1    H1 3675   2.923   3.201  15.606 -0.5577 -0.7323  0.9905
  242MPD1    H2 3676   2.698   3.366  15.918 -1.1210 -0.2044  0.2183
  242MPD1    H3 3677   2.850   3.200  15.837  2.0997  1.5490  0.1039
  242MPD1     N 3678   2.843   3.341  15.421 -0.7784 -0.3831  0.3195
  242MPD1    H5 3679   2.890   3.251  15.408 -1.1284 -0.1652 -2.4950
  242MPD1    N1 3680   2.610   3.577  15.779  0.2422  0.3091  0.4780
  242MPD1    H6 3681   2.554   3.539  15.855 -0.6589  0.3239 -0.1823
  242MPD1    H7 3682   2.553   3.631  15.714  0.1986 -0.1591  0.1301
  243MPD1     C 3683   4.401   1.976  17.318 -0.2734 -0.4975 -0.1912
  243MPD1    C1 3684   4.408   1.914  17.192 -0.2513 -0.3792  0.1549
  243MPD1    C2 3685   4.469   1.974  17.081  0.2273 -0.6521 -0.5235
  243MPD1    C3 3686   4.491   2.112  17.088  0.0584  0.1060 -0.6634
  243MPD1    C4 3687   4.483   2.174  17.208 -1.0376  0.0529 -0.8866
  243MPD1    C5 3688   4.444   2.107  17.318  0.1364 -0.6981  0.1718
  243MPD1     H 3689   4.467   1.916  16.990  2.2474  0.0858 -1.0398
  243MPD1    H1 3690   4.513   2.276  17.229 -1.8045  0.1367 -0.1599
  243MPD1    H2 3691   4.367   1.934  17.412  0.3231  1.8852  1.1208
  243MPD1    H3 3692   4.457   2.156  17.414  2.1759  0.6573 -0.7796
  243MPD1     N 3693   4.533   2.176  16.971  0.5769 -0.4539 -0.4843
  243MPD1    H5 3694   4.554   2.121  16.888 -3.8228 -0.8094 -1.3248
  243MPD1    N1 3695   4.377   1.776  17.184  0.7173 -0.0252 -0.3771
  243MPD1    H6 3696   4.321   1.738  17.259  0.9394  0.1347 -0.1312
  243MPD1    H7 3697   4.332   1.753  17.096 -0.4547  0.5216  0.0776
  244MPD1     C 3698   4.644   3.173  16.767 -0.3105 -0.1973 -0.6252
  244MPD1    C1 3699   4.590   3.102  16.867 -1.0760 -0.5266 -0.1795
  244MPD1    C2 3700   4.582   2.964  16.860  0.1932  0.6605 -0.0350
  244MPD1    C3 3701   4.651   2.898  16.761 -1.0050  0.0212 -0.8530
  244MPD1    C4 3702   4.717   2.965  16.666  0.0133 -0.7057  0.4824
  244MPD1    C5 3703   4.711   3.103  16.672  0.0092 -0.2760  0.0848
  244MPD1     H 3704   4.534   2.914  16.943 -1.8159  2.1521 -0.3084
  244MPD1    H1 3705   0.046   2.916  16.585  1.5506  2.2378 -0.2895
  244MPD1    H2 3706   4.636   3.280  16.751  2.0811 -0.1207 -1.3126
  244MPD1    H3 3707   0.023   3.162  16.588  1.0952 -0.3596  0.4826
  244MPD1     N 3708   4.657   2.759  16.764 -0.5941 -0.2669 -0.6431
  244MPD1    H5 3709   4.604   2.714  16.838 -0.4558 -0.3844 -0.6144
  244MPD1    N1 3710   4.510   3.165  16.962 -0.4587 -0.2740 -0.9863
  244MPD1    H6 3711   4.477   3.112  17.042  0.1242  0.4670 -0.2437
  244MPD1    H7 3712   4.543   3.257  16.992  0.8771 -0.4852 -1.8425
  245MPD1     C 3713   1.586   2.462  13.059 -0.4312  0.2389  0.6979
  245MPD1    C1 3714   1.724   2.474  13.076 -0.5576 -0.9459 -0.6758
  245MPD1    C2 3715   1.779   2.588  13.116  0.8872  0.2626  0.6961
  245MPD1    C3 3716   1.691   2.693  13.142 -0.6119 -0.2303  0.1637
  245MPD1    C4 3717   1.556   2.693  13.110 -0.1277 -0.1065 -0.8897
  245MPD1    C5 3718   1.503   2.571  13.068 -1.4315  0.0711  0.1004
  245MPD1     H 3719   1.885   2.606  13.127  0.6389  1.7398  0.6442
  245MPD1    H1 3720   1.490   2.778  13.122  0.9685  0.6349 -0.2417
  245MPD1    H2 3721   1.544   2.365  13.032 -1.1306  0.5448  0.6745
  245MPD1    H3 3722   1.397   2.571  13.045 -1.1638  1.3927 -1.1586
  245MPD1     N 3723   1.747   2.806  13.214  0.1226 -0.1122 -1.0532
  245MPD1    H5 3724   1.838   2.803  13.258 -1.7866 -3.7539  2.6569
  245MPD1    N1 3725   1.804   2.355  13.081 -0.0279 -0.2662 -0.5152
  245MPD1    H6 3726   1.767   2.270  13.039  1.6445 -1.6289  0.7560
  245MPD1    H7 3727   1.903   2.371  13.063  0.4332 -0.9096  1.4517
  246MPD1     C 3728   3.271   4.559   9.618 -0.6712  0.3284 -0.5396
  246MPD1    C1 3729   3.166   4.614   9.688 -0.7948 -0.1508  0.5241
  246MPD1    C2 3730   3.032   4.581   9.666 -0.0377 -0.8445  0.9751
  246MPD1    C3 3731   3.002   4.513   9.547 -0.1668  0.5178  0.1455
  246MPD1    C4 3732   3.106   4.458   9.476  0.3062  0.2829  0.2765
  246MPD1    C5 3733   3.233   4.489   9.511 -0.4660 -0.4087  0.0162
  246MPD1     H 3734   2.951   4.601   9.736  0.3123  0.8208  0.8986
  246MPD1    H1 3735   3.087   4.423   9.375  1.5881 -0.1073  0.1709
  246MPD1    H2 3736   3.374   4.582   9.643 -0.0515 -3.4284  0.3340
  246MPD1    H3 3737   3.318   4.451   9.455  0.3634 -1.7552  2.1579
  246MPD1     N 3738   2.872   4.499   9.503  0.5637 -0.4857  0.2139
  246MPD1    H5 3739   2.809   4.563   9.549  0.6454  0.2704 -0.7243
  246MPD1    N1 3740   3.209   4.673   9.811  0.5367  0.5287 -0.3566
  246MPD1    H6 3741   3.143   0.022   9.838  0.0559 -0.3997  0.9929
  246MPD1    H7 3742   3.298   4.723   9.816  0.6579  0.1075  1.8460
  247MPD1     C 3743   1.054   3.350  16.202 -0.2261  0.5473 -0.5211
  247MPD1    C1 3744   1.012   3.286  16.317  0.9756 -0.9452  1.1018
  247MPD1    C2 3745   1.015   3.150  16.317  0.2809 -0.0163 -0.1374
  247MPD1    C3 3746   1.015   3.074  16.202  0.9686  0.3908  0.4447
  247MPD1    C4 3747   1.044   3.146  16.084  0.2077  0.6558  0.3801
  247MPD1    C5 3748   1.056   3.277  16.085 -0.6064  1.4988  0.4599
  247MPD1     H 3749   1.007   3.109  16.418 -2.7087 -1.1386 -0.8546
  247MPD1    H1 3750   1.070   3.098  15.991 -0.0969 -0.0192  0.6419
  247MPD1    H2 3751   1.079   3.455  16.202 -0.1502  0.5289 -0.5951
  247MPD1    H3 3752   1.087   3.329  15.995  3.5347  1.4321  1.8719
  247MPD1     N 3753   0.999   2.934  16.203 -0.0935  0.0101  0.2636
  247MPD1    H5 3754   1.012   2.885  16.115 -0.2552 -0.2051  0.3576
  247MPD1    N1 3755   1.015   3.351  16.433  0.7676 -0.1684  0.1941
  247MPD1    H6 3756   0.987   3.449  16.428  1.7345  0.1286  0.5450
  247MPD1    H7 3757   0.955   3.308  16.503  0.2944 -0.1367 -0.1951
  248MPD1     C 3758   1.138   2.648   0.113 -0.4540  0.4800 -0.6913
  248MPD1    C1 3759   1.005   2.670   0.106  0.2358  0.3425 -0.4319
  248MPD1    C2 3760   0.927   2.655   0.218  0.0570  0.0458  0.2048
  248MPD1    C3 3761   0.976   2.595   0.332  0.0903 -0.0982 -0.0134
  248MPD1    C4 3762   1.111   2.572   0.340  0.4525  0.1808 -0.4778
  248MPD1    C5 3763   1.188   2.585   0.223 -0.5301  0.2005  0.0491
  248MPD1     H 3764   0.819   2.657   0.206  0.2098  0.2521 -1.1229
  248MPD1    H1 3765   1.161   2.533   0.428  0.2360 -0.3801 -0.6059
  248MPD1    H2 3766   1.206   2.659   0.029  1.1597 -1.4213  0.3576
  248MPD1    H3 3767   1.292   2.557   0.212 -0.3975  1.3708 -1.7356
  248MPD1     N 3768   0.890   2.553   0.428  0.0605  0.1030  0.2667
  248MPD1    H5 3769   0.795   2.588   0.416 -0.3566 -0.8486  0.7578
  248MPD1    N1 3770   0.960   2.742  17.692 -0.5058 -0.0800 -0.4313
  248MPD1    H6 3771   0.999   2.704  17.606  2.1688  1.7926 -0.0278
  248MPD1    H7 3772   0.859   2.750  17.687 -0.3939  1.7604  0.4596
  249MPD1     C 3773   3.935   0.612  10.532 -0.2211  0.3673  0.6594
  249MPD1    C1 3774   3.887   0.482  10.519 -0.8852 -0.2042 -0.0781
  249MPD1    C2 3775   3.790   0.460  10.420  0.4456  0.2925 -0.1241
  249MPD1    C3 3776   3.742   0.564  10.338 -0.1003 -0.0972  0.2953
  249MPD1    C4 3777   3.801   0.691  10.348  0.0900  0.0139 -0.3686
  249MPD1    C5 3778   3.897   0.707  10.440  0.0343  0.1180 -0.2978
  249MPD1     H 3779   3.765   0.356  10.403  1.0358 -0.1257  1.4867
  249MPD1    H1 3780   3.769   0.782  10.299 -1.9338 -0.2209  0.5251
  249MPD1    H2 3781   4.004   0.638  10.611  1.5819 -1.1594 -0.4125
  249MPD1    H3 3782   3.939   0.807  10.450  0.1451 -0.0198  0.5608
  249MPD1     N 3783   3.654   0.538  10.229  0.8333 -0.1381  0.4079
  249MPD1    H5 3784   3.648   0.605  10.153  0.1755  1.1499  1.5868
  249MPD1    N1 3785   3.957   0.389  10.588 -0.7354 -0.3391  0.3848
  249MPD1    H6 3786   3.976   0.424  10.682 -2.1301  2.0765 -0.2203
  249MPD1    H7 3787   3.901   0.305  10.600 -1.0815 -0.0789  0.6102
  250MPD2     C 3788   0.416   0.866  12.514  0.3325 -0.2778  0.2166
  250MPD2    C1 3789   0.302   0.934  12.532  0.3049  0.1642  0.0149
  250MPD2    C2 3790   0.180   0.873  12.502 -1.0070  0.3328  0.3028
  250MPD2    C3 3791   0.177   0.745  12.445  0.0362 -0.1918 -0.2618
  250MPD2    C4 3792   0.295   0.681  12.416  0.8169 -0.4923  0.8114
  250MPD2    C5 3793   0.413   0.743  12.449  0.1258  0.1787  0.7017
  250MPD2     H 3794   0.088   0.925  12.523  0.1502  3.1069 -1.4625
  250MPD2    H1 3795   0.299   0.578  12.380 -1.9520 -0.3989  0.2471
  250MPD2    H2 3796   0.512   0.911  12.536  0.1138 -0.4880  1.5970
  250MPD2    H3 3797   0.510   0.698  12.435 -0.4535 -0.5518 -0.9370
  250MPD2     N 3798   0.054   0.676  12.406  0.4804  0.2167  0.4995
  250MPD2    H5 3799   0.061   0.583  12.366 -1.4135  0.3430 -0.1278
  250MPD2    N1 3800   0.307   1.059  12.586  0.8170  0.3450  0.0663
  250MPD2    H7 3801   0.399   1.102  12.596  0.9359  0.2365 -0.5581
  251TMC3    C1 3802   0.264   1.288  12.643 -0.0904 -0.8770  0.5278
  251TMC3    C2 3803   0.173   1.373  12.696 -0.1260  0.0685 -0.3406
  251TMC3    C3 3804   0.220   1.491  12.743 -0.3090  0.2517  0.0624
  251TMC3    C4 3805   0.396   1.313  12.626 -0.2311 -0.1031 -0.4073
  251TMC3    C5 3806   0.432   1.437  12.668  0.3480 -0.3016 -0.3942
  251TMC3    C6 3807   0.350   1.528  12.726  0.4149  0.6483 -0.2542
  251TMC3     C 3808   0.205   1.155  12.601  0.2124  0.6376 -0.6341
  251TMC3     O 3809   0.085   1.146  12.598 -0.0307  0.2423  0.2949
  251TMC3     H 3810   0.068   1.356  12.719  0.0258  0.4316  0.6270
  251TMC3    H1 3811   0.457   1.249  12.563  0.9852  0.3493  0.3160
  251TMC3    H2 3812   0.391   1.618  12.771 -1.9197  2.4425 -1.7245
  251TMC3    C7 3813   0.569   1.466  12.666  0.0561 -0.0821 -0.5513
  251TMC3    C8 3814   0.129   1.577  12.820 -0.5248 -0.0056 -1.1987
  251TMC3    O1 3815   0.643   1.373  12.658  0.3383  0.4447 -0.0262
  251TMC3    O2 3816   0.027   1.531  12.871  0.0384 -0.4044  0.0490
  252TMC3    C1 3817   4.651   2.507   9.400  0.1693 -0.8897 -0.9019
  252TMC3    C2 3818   0.057   2.552   9.399  0.3342  0.2294 -0.1299
  252TMC3    C3 3819   0.134   2.504   9.505 -0.2058 -0.6666 -0.4067
  252TMC3    C4 3820   4.599   2.440   9.504 -0.4509 -0.4786  0.4469
  252TMC3    C5 3821   4.681   2.386   9.600  0.0605 -0.4494 -0.9441
  252TMC3    C6 3822   0.084   2.420   9.604 -0.0573 -0.1847 -0.6782
  252TMC3     C 3823   4.579   2.524   9.273 -0.0842 -0.4018 -0.3428
  252TMC3     O 3824   4.608   2.623   9.205 -0.3108  0.0069  1.0619
  252TMC3     H 3825   0.089   2.617   9.318  2.8430  0.1838  0.8215
  252TMC3    H1 3826   4.491   2.430   9.516 -0.6370  0.6785 -0.3060
  252TMC3    H2 3827   0.138   2.398   9.696 -1.1017  1.8553  0.4072
  252TMC3    C7 3828   4.626   2.287   9.691  0.9386 -0.3934 -0.3688
  252TMC3    C8 3829   0.272   2.534   9.501 -0.1822 -0.0975  0.7682
  252TMC3    O1 3830   4.506   2.292   9.700  0.3750  0.0630  0.2694
  252TMC3    O2 3831   0.305   2.608   9.405  0.8365 -0.0603  0.4224
  253MPD2     C 3832   1.426   1.202  15.292  0.5557 -0.1396  0.0137
  253MPD2    C1 3833   1.314   1.134  15.340  0.4965 -0.5970 -0.0344
  253MPD2    C2 3834   1.284   1.151  15.473  0.7260 -0.0266  0.7406
  253MPD2    C3 3835   1.370   1.227  15.560 -0.3738 -0.7131  0.0090
  253MPD2    C4 3836   1.478   1.296  15.503  0.5101 -0.1498  0.8985
  253MPD2    C5 3837   1.514   1.277  15.372 -0.0670  0.6377 -0.0026
  253MPD2     H 3838   1.205   1.095  15.522  1.0934 -0.0613  1.3024
  253MPD2    H1 3839   1.541   1.360  15.563  0.4431 -1.7587  2.7028
  253MPD2    H2 3840   1.460   1.185  15.190 -1.1655  0.9174 -0.7251
  253MPD2    H3 3841   1.604   1.320  15.330 -0.2409  0.7915 -0.2192
  253MPD2     N 3842   1.325   1.237  15.695  0.7347  0.2831  0.7182
  253MPD2    H5 3843   1.238   1.189  15.715  0.2796  0.0631 -1.7798
  253MPD2    N1 3844   1.230   1.056  15.262  0.2807 -0.0434  0.5290
  253MPD2    H7 3845   1.138   1.036  15.300 -0.0965 -0.2842 -0.5073
  254TMC3    C1 3846   1.276   1.298  15.911 -0.6282 -0.3035 -0.9149
  254TMC3    C2 3847   1.210   1.420  15.914  0.4775 -0.1398  0.9854
  254TMC3    C3 3848   1.189   1.478  16.042 -0.3397  0.5715  0.0116
  254TMC3    C4 3849   1.323   1.244  16.028  0.6408 -0.2815  0.4174
  254TMC3    C5 3850   1.305   1.303  16.152  0.1938 -0.2374 -0.4378
  254TMC3    C6 3851   1.240   1.423  16.153 -0.4673 -0.4160  0.8167
  254TMC3     C 3852   1.378   1.300  15.804 -0.7236 -0.0980 -0.9594
  254TMC3     O 3853   1.482   1.367  15.811 -0.5069  0.4787  0.0861
  254TMC3     H 3854   1.186   1.483  15.829  0.3805 -1.1704  0.2580
  254TMC3    H1 3855   1.395   1.163  16.020  0.1579 -0.8693  2.0162
  254TMC3    H2 3856   1.223   1.480  16.243  0.9396 -0.7835  1.3267
  254TMC3    C7 3857   1.270   1.215  16.262 -0.5694  0.3617 -0.0480
  254TMC3    C8 3858   1.058   1.540  16.065 -0.5181 -0.0794  0.7773
  254TMC3    O1 3859   1.316   1.102  16.263 -0.5398  0.1181 -0.1217
  254TMC3    O2 3860   1.003   1.499  16.167  0.2173  0.3142 -0.2932
  255MPD2     C 3861   4.215   3.507   9.583 -0.1522  0.8548 -0.1348
  255MPD2    C1 3862   4.335   3.576   9.613 -0.2699  0.6279 -0.4480
  255MPD2    C2 3863   4.422   3.527   9.713 -0.2650 -0.2958  0.1257
  255MPD2    C3 3864   4.398   3.404   9.763 -0.0765  0.0873 -0.1180
  255MPD2    C4 3865   4.280   3.339   9.739  0.7992 -0.1912 -0.3978
  255MPD2    C5 3866   4.179   3.398   9.657 -0.3911  0.5831  0.0822
  255MPD2     H 3867   4.519   3.571   9.733 -0.8093  1.4634 -1.0177
  255MPD2    H1 3868   4.265   3.242   9.785  1.6730 -0.2486 -0.2425
  255MPD2    H2 3869   4.140   3.540   9.512  0.6216 -1.7202 -2.1568
  255MPD2    H3 3870   4.084   3.346   9.648 -0.5588  0.6083  1.5926
  255MPD2     N 3871   4.508   3.352   9.839 -0.0878  0.0243 -0.1571
  255MPD2    H5 3872   4.595   3.404   9.837  0.2043 -0.4285  0.7084
  255MPD2    N1 3873   4.363   3.682   9.528 -0.8241  0.4621 -0.2295
  255MPD2    H7 3874   4.310   3.689   9.441 -0.9978 -2.0051 -0.3100
  256TMC3    C1 3875   4.515   3.803   9.400 -0.7551  0.5326  0.3819
  256TMC3    C2 3876   4.640   3.866   9.401 -0.1568  0.4814  0.8428
  256TMC3    C3 3877   4.723   3.852   9.290 -0.2671  0.2293 -0.0686
  256TMC3    C4 3878   4.485   3.720   9.295  0.7826  0.1190 -0.4542
  256TMC3    C5 3879   4.569   3.710   9.186  0.4071 -0.2328 -0.2359
  256TMC3    C6 3880   4.684   3.782   9.182  0.5118  0.9240  0.0694
  256TMC3     C 3881   4.476   3.760   9.530 -0.0556  0.1848 -0.4146
  256TMC3     O 3882   4.545   3.780   9.626 -0.0883 -0.1914 -0.1929
  256TMC3     H 3883   4.682   3.928   9.479  0.0281  3.0522 -1.2783
  256TMC3    H1 3884   4.415   3.637   9.305 -0.4729  1.1383 -0.8965
  256TMC3    H2 3885   0.015   3.781   9.089  1.9248 -0.8183  0.9136
  256TMC3    C7 3886   4.539   3.597   9.103 -0.2198  0.7999  0.2422
  256TMC3    C8 3887   0.141   3.903   9.293 -0.3530 -0.0805  0.6007
  256TMC3    O1 3888   4.418   3.571   9.092 -0.2782 -0.0585 -0.1265
  256TMC3    O2 3889   0.214   3.866   9.203 -0.0408  0.3437  0.2679
  257MPD2     C 3890   4.101   1.152  13.046  0.2733 -0.3498 -0.1785
  257MPD2    C1 3891   4.040   1.045  12.992  0.3976  0.0615 -0.0020
  257MPD2    C2 3892   4.052   0.919  13.053  0.1085 -0.5272  0.9296
  257MPD2    C3 3893   4.109   0.905  13.179  0.7389  0.1563 -1.1172
  257MPD2    C4 3894   4.158   1.013  13.241  0.1359  0.4282 -0.0682
  257MPD2    C5 3895   4.150   1.135  13.172 -0.2025  0.7635 -0.2843
  257MPD2     H 3896   4.020   0.824  13.012 -0.5690 -0.3314  1.0142
  257MPD2    H1 3897   4.204   1.004  13.339  1.2927  0.2499 -0.6267
  257MPD2    H2 3898   4.103   1.249  12.997  0.0750 -0.0737  0.3570
  257MPD2    H3 3899   4.182   1.226  13.221  1.3474  1.1272 -1.9805
  257MPD2     N 3900   4.132   0.774  13.223  1.4551  0.4698 -0.0397
  257MPD2    H5 3901   4.110   0.698  13.160 -0.5572 -0.2800  1.5762
  257MPD2    N1 3902   3.980   1.060  12.864 -0.2970 -0.3980  0.3181
  257MPD2    H7 3903   3.999   1.138  12.802 -0.3811 -0.1721  0.5770
  258TMC3    C1 3904   4.165   0.602  13.372 -0.3611 -0.0204 -0.3916
  258TMC3    C2 3905   4.242   0.518  13.293  0.2794  0.1783 -0.4402
  258TMC3    C3 3906   4.271   0.393  13.347  0.4936 -0.3256 -0.0532
  258TMC3    C4 3907   4.103   0.567  13.481  0.5691  0.0437 -0.2004
  258TMC3    C5 3908   4.132   0.444  13.532  0.4207  0.1453  0.3774
  258TMC3    C6 3909   4.212   0.351  13.466  0.1943 -0.5855 -0.3838
  258TMC3     C 3910   4.178   0.741  13.349 -0.2805  0.0238 -0.2066
  258TMC3     O 3911   4.210   0.817  13.440 -0.1544  0.2841  0.2737
  258TMC3     H 3912   4.278   0.559  13.199  0.1927  1.7375  0.2134
  258TMC3    H1 3913   4.051   0.636  13.547 -1.3359 -0.1423 -1.5154
  258TMC3    H2 3914   4.215   0.246  13.496 -1.3677 -0.5763 -0.2222
  258TMC3    C7 3915   4.087   0.406  13.665 -0.7536  0.2193  0.2427
  258TMC3    C8 3916   4.318   0.288  13.259  0.0616  0.4909  0.3166
  258TMC3    O1 3917   3.977   0.442  13.702  0.0496  0.5749 -0.0206
  258TMC3    O2 3918   4.279   0.171  13.271  0.1598 -0.0347 -0.3130
  259MPD2     C 3919   1.296   2.228   0.923 -0.3059  0.0558 -0.6298
  259MPD2    C1 3920   1.365   2.174   1.023 -0.1847 -0.0880 -0.6562
  259MPD2    C2 3921   1.447   2.063   1.002 -0.0907  0.3030 -0.4529
  259MPD2    C3 3922   1.464   2.014   0.875  0.2765 -0.9822 -0.3412
  259MPD2    C4 3923   1.389   2.076   0.771 -0.3832 -0.1372  1.0031
  259MPD2    C5 3924   1.299   2.181   0.798  0.3018 -0.1751 -0.1160
  259MPD2     H 3925   1.514   2.019   1.075 -0.3986  1.2631  0.4005
  259MPD2    H1 3926   1.397   2.037   0.670  1.6737  1.8376  0.4075
  259MPD2    H2 3927   1.226   2.309   0.940 -2.7979 -2.6287  1.6727
  259MPD2    H3 3928   1.258   2.238   0.715  1.7477 -1.3272 -1.6208
  259MPD2     N 3929   1.568   1.922   0.849 -0.1139  0.6280 -0.9329
  259MPD2    H5 3930   1.635   1.908   0.923 -1.9739  1.7276  0.9492
  259MPD2    N1 3931   1.340   2.240   1.142  0.4302 -0.1264 -0.2092
  259MPD2    H7 3932   1.272   2.315   1.131 -0.2306 -0.7941 -0.6378
  260TMC3    C1 3933   1.717   1.794   0.704  0.0022  0.2592  0.3246
  260TMC3    C2 3934   1.827   1.819   0.776 -0.2459  0.2972  0.7043
  260TMC3    C3 3935   1.950   1.760   0.756 -0.5020  0.1931  1.2265
  260TMC3    C4 3936   1.726   1.706   0.599  0.1379  0.1292 -0.3041
  260TMC3    C5 3937   1.851   1.656   0.572 -0.4953 -0.5822  0.6905
  260TMC3    C6 3938   1.967   1.682   0.647 -0.4957  0.0204 -0.2011
  260TMC3     C 3939   1.586   1.868   0.723  0.5218  0.4728 -0.1163
  260TMC3     O 3940   1.499   1.845   0.642  0.1491  0.2600 -0.2594
  260TMC3     H 3941   1.812   1.889   0.858 -1.1175  0.0740  0.7400
  260TMC3    H1 3942   1.642   1.698   0.532  0.0478 -0.9275 -0.0543
  260TMC3    H2 3943   2.066   1.645   0.624 -0.1622 -0.4166  2.0108
  260TMC3    C7 3944   1.874   1.582   0.452  0.0717  0.6121  0.0333
  260TMC3    C8 3945   2.060   1.800   0.848  0.4196 -0.4484  0.8872
  260TMC3    O1 3946   1.986   1.537   0.434  0.9190 -0.5520  0.0836
  260TMC3    O2 3947   2.029   1.827   0.963 -0.2870  0.1038  0.7293
  261MPD2     C 3948   4.002   0.845  12.125 -0.4107  0.0157 -0.6076
  261MPD2    C1 3949   4.131   0.874  12.101 -0.2490 -0.1599 -0.0417
  261MPD2    C2 3950   4.160   0.987  12.026 -0.9232 -0.2770  0.1725
  261MPD2    C3 3951   4.057   1.073  11.990  0.0995 -0.2405  0.1502
  261MPD2    C4 3952   3.929   1.039  12.029 -0.2138  0.2129 -0.8858
  261MPD2    C5 3953   3.901   0.924  12.092  0.0480 -0.1030 -0.0309
  261MPD2     H 3954   4.263   1.010  12.000 -0.5973 -0.9570  0.8902
  261MPD2    H1 3955   3.842   1.097  12.001 -2.1895 -1.6027  1.5388
  261MPD2    H2 3956   3.966   0.753  12.170  1.9002  0.4825  2.1671
  261MPD2    H3 3957   3.804   0.889  12.124  0.5254 -0.5428  0.9421
  261MPD2     N 3958   4.099   1.176  11.905 -0.5118  0.4436 -0.3100
  261MPD2    H5 3959   4.200   1.177  11.899 -0.4288 -0.0742  1.0346
  261MPD2    N1 3960   4.239   0.790  12.145 -0.4084 -0.1683  0.3863
  261MPD2    H7 3961   4.334   0.826  12.136 -1.0895  0.9472 -2.2557
  262TMC3    C1 3962   4.098   1.366  11.765  0.0182 -0.5981  0.1867
  262TMC3    C2 3963   4.047   1.494  11.742  0.4460 -0.0812  0.0691
  262TMC3    C3 3964   4.126   1.577  11.665 -0.9561 -0.3679  0.7219
  262TMC3    C4 3965   4.217   1.320  11.713  0.1264 -0.5922  0.3621
  262TMC3    C5 3966   4.278   1.407  11.627 -0.1411 -0.0602  0.5756
  262TMC3    C6 3967   4.240   1.534  11.598  0.0186 -0.2095 -0.0630
  262TMC3     C 3968   4.018   1.269  11.843 -0.3420 -0.3364 -0.0287
  262TMC3     O 3969   3.898   1.281  11.844  0.2702  0.2079 -0.2421
  262TMC3     H 3970   3.948   1.519  11.778  0.9975  0.0142  1.4887
  262TMC3    H1 3971   4.258   1.221  11.734 -0.7352 -1.4322 -1.9364
  262TMC3    H2 3972   4.294   1.602  11.534  0.9535  1.2265  2.2386
  262TMC3    C7 3973   4.421   1.375  11.584  0.3187  0.0675  0.0549
  262TMC3    C8 3974   4.105   1.724  11.668  0.2237  0.1908 -0.0785
  262TMC3    O1 3975   4.444   1.269  11.530  0.0504  0.0346  0.3701
  262TMC3    O2 3976   4.173   1.791  11.588  0.0952  0.5391  0.5665
  263MPD2     C 3977   0.563   0.376  11.474 -0.4091 -0.1142  0.6684
  263MPD2    C1 3978   0.639   0.301  11.382 -0.0452  0.7719 -0.2267
  263MPD2    C2 3979   0.659   0.347  11.248  0.4729 -0.4311  0.0360
  263MPD2    C3 3980   0.614   0.474  11.217  0.3809 -0.2890  0.2310
  263MPD2    C4 3981   0.554   0.549  11.317 -0.1750  0.0864  0.5255
  263MPD2    C5 3982   0.513   0.498  11.440  0.3300  0.3814  0.5575
  263MPD2     H 3983   0.729   0.287  11.191 -0.2760 -2.1283  0.9210
  263MPD2    H1 3984   0.530   0.653  11.299  0.2146  0.1025  0.1168
  263MPD2    H2 3985   0.543   0.329  11.569  0.8123 -0.8363  0.5613
  263MPD2    H3 3986   0.440   0.542  11.507 -0.8866 -0.3725 -0.2710
  263MPD2     N 3987   0.657   0.507  11.088 -0.2473 -0.0343  0.1515
  263MPD2    H5 3988   0.701   0.434  11.033  1.6535  1.7714 -0.6888
  263MPD2    N1 3989   0.701   0.180  11.433 -0.7872 -0.9164 -0.6897
  263MPD2    H7 3990   0.698   0.166  11.533  0.1090  2.5977 -0.1857
  264TMC3    C1 3991   0.679   0.656  10.895 -0.7727 -0.0373 -0.1904
  264TMC3    C2 3992   0.665   0.780  10.842  0.6443  0.4138 -0.3667
  264TMC3    C3 3993   0.722   0.823  10.732 -0.2594  0.7696 -0.0443
  264TMC3    C4 3994   0.768   0.571  10.830 -0.5674  0.5590 -0.6006
  264TMC3    C5 3995   0.816   0.613  10.704  0.2518  0.1125  0.4568
  264TMC3    C6 3996   0.788   0.734  10.650  0.8210 -0.9845  0.2209
  264TMC3     C 3997   0.637   0.635  11.034  0.7547  0.1028 -0.1737
  264TMC3     O 3998   0.581   0.729  11.092  0.4658  0.2150 -0.6197
  264TMC3     H 3999   0.608   0.843  10.910  2.4724 -0.1284  1.6675
  264TMC3    H1 4000   0.797   0.474  10.869  0.3340  1.3084  0.5866
  264TMC3    H2 4001   0.826   0.772  10.556 -1.7496  1.4395  0.1917
  264TMC3    C7 4002   0.953   0.585  10.662  0.2428  0.1146  0.1742
  264TMC3    C8 4003   0.800   0.951  10.747  0.4687 -0.4621  0.3107
  264TMC3    O1 4004   0.998   0.475  10.680 -0.4459 -0.4901 -0.5942
  264TMC3    O2 4005   0.909   0.946  10.692  0.8234 -0.5505 -0.3783
  265MPD2     C 4006   2.970   0.814  15.277 -0.5898 -0.3546  0.0283
  265MPD2    C1 4007   2.876   0.796  15.179  0.1935 -0.3806  0.7927
  265MPD2    C2 4008   2.914   0.757  15.050  0.1767 -1.0063 -0.4101
  265MPD2    C3 4009   3.050   0.741  15.018 -0.4629  0.8170 -0.2097
  265MPD2    C4 4010   3.140   0.764  15.123  0.2337 -0.0088  0.6467
  265MPD2    C5 4011   3.099   0.798  15.249 -0.4051 -0.2667  0.5710
  265MPD2     H 4012   2.836   0.727  14.980  0.1466 -1.4354 -0.1911
  265MPD2    H1 4013   3.247   0.748  15.111 -0.3286 -1.8380 -1.9703
  265MPD2    H2 4014   2.942   0.824  15.381 -1.8621  0.4572 -0.3979
  265MPD2    H3 4015   3.169   0.817  15.330  1.4322  3.1274 -1.8079
  265MPD2     N 4016   3.096   0.707  14.887 -0.7224 -0.0749  0.1792
  265MPD2    H5 4017   3.027   0.713  14.812  1.0042 -0.7997 -1.4541
  265MPD2    N1 4018   2.742   0.781  15.213  0.2060  0.7309 -0.1793
  265MPD2    H7 4019   2.683   0.730  15.148 -0.0912  0.3957  0.3594
  266TMC3    C1 4020   2.543   0.768  15.359  0.2811 -0.1946 -0.1633
  266TMC3    C2 4021   2.511   0.730  15.487  0.3630  0.2431  0.2821
  266TMC3    C3 4022   2.379   0.700  15.511 -0.0547 -0.0784 -0.7902
  266TMC3    C4 4023   2.450   0.805  15.267  0.0741 -0.5630 -0.0711
  266TMC3    C5 4024   2.322   0.779  15.298 -0.2297  0.0802 -0.1490
  266TMC3    C6 4025   2.289   0.708  15.408 -0.1613  0.1308 -0.2859
  266TMC3     C 4026   2.682   0.818  15.335  0.2546 -0.4758 -0.5713
  266TMC3     O 4027   2.731   0.894  15.420  0.1395 -0.3436 -0.1192
  266TMC3     H 4028   2.588   0.706  15.559  0.5388  0.5083  0.1802
  266TMC3    H1 4029   2.475   0.846  15.170  2.6000 -1.4098  0.2039
  266TMC3    H2 4030   2.182   0.704  15.423 -0.1925 -0.2065 -0.5872
  266TMC3    C7 4031   2.219   0.882  15.260  0.2254 -0.4717  0.4631
  266TMC3    C8 4032   2.325   0.672  15.638 -0.0516 -0.3185 -0.0042
  266TMC3    O1 4033   2.151   0.922  15.352 -0.0485  0.4320 -0.1051
  266TMC3    O2 4034   2.239   0.585  15.649 -0.5524 -0.6929  1.0848
  267MPD2     C 4035   4.114   2.801  17.354  0.3696  0.2415  0.4686
  267MPD2    C1 4036   4.229   2.841  17.291 -0.4146  0.1490 -0.7146
  267MPD2    C2 4037   4.255   2.778  17.173  0.0572 -0.2749 -0.4837
  267MPD2    C3 4038   4.171   2.683  17.115 -0.4498  0.0754 -0.2624
  267MPD2    C4 4039   4.062   2.639  17.185 -0.2525 -0.1269 -0.3322
  267MPD2    C5 4040   4.021   2.708  17.300  0.3003 -0.2221  0.5567
  267MPD2     H 4041   4.343   2.808  17.118  0.7413  0.0225  0.7807
  267MPD2    H1 4042   3.990   2.567  17.148 -0.3955 -0.0575 -0.1872
  267MPD2    H2 4043   4.076   2.858  17.438 -0.4051  5.0448 -3.0941
  267MPD2    H3 4044   3.932   2.692  17.360 -0.3631  1.5297  0.0195
  267MPD2     N 4045   4.208   2.607  17.004 -0.1245 -0.1725 -0.0073
  267MPD2    H5 4046   4.145   2.531  16.977 -1.8792  0.8529  1.1803
  267MPD2    N1 4047   4.305   2.938  17.359 -0.0684 -0.1273 -0.4777
  267MPD2    H7 4048   4.267   2.962  17.450 -0.1638  0.6364 -0.7189
  268TMC3    C1 4049   4.484   3.082  17.411  0.2069  0.0993 -0.1345
  268TMC3    C2 4050   4.588   3.167  17.377  0.3359 -0.7015  0.6264
  268TMC3    C3 4051   4.688   3.196  17.473  0.6479 -0.1224  0.2652
  268TMC3    C4 4052   4.479   3.028  17.538  0.1309 -0.5429  0.6697
  268TMC3    C5 4053   4.575   3.068  17.631  0.4157 -0.2344  0.5076
  268TMC3    C6 4054   4.683   3.144  17.599 -0.2323  0.5331 -0.1430
  268TMC3     C 4055   4.401   3.022  17.303  0.7771  0.0997  0.0625
  268TMC3     O 4056   4.434   3.033  17.188 -0.1075  0.0127 -0.0338
  268TMC3     H 4057   4.586   3.231  17.289 -0.0817 -0.6965  0.6425
  268TMC3    H1 4058   4.408   2.949  17.561  0.1891 -0.5231  0.9150
  268TMC3    H2 4059   0.039   3.163  17.671 -1.0006  2.5906  0.1723
  268TMC3    C7 4060   4.563   3.024   0.076  0.5779 -0.0411 -0.2858
  268TMC3    C8 4061   0.087   3.251  17.423  0.2228  0.1473 -0.6862
  268TMC3    O1 4062   4.670   2.996   0.133 -0.2126  0.1180  0.2285
  268TMC3    O2 4063   0.157   3.303  17.511  0.4347 -0.3295  0.8645
  269MPD2     C 4064   0.495   1.336  15.865 -0.4889 -0.4516 -0.6680
  269MPD2    C1 4065   0.362   1.345  15.828 -0.4099  0.9567  0.0183
  269MPD2    C2 4066   0.312   1.456  15.765  0.4308 -1.2408 -0.2882
  269MPD2    C3 4067   0.395   1.561  15.736  0.2309 -0.4469  0.4343
  269MPD2    C4 4068   0.524   1.551  15.771  0.5946  0.2290  0.3685
  269MPD2    C5 4069   0.572   1.444  15.845  0.0652 -0.1253  0.0982
  269MPD2     H 4070   0.209   1.455  15.731  0.5469  0.7641 -0.7021
  269MPD2    H1 4071   0.595   1.632  15.759  0.6859  0.2688  1.2124
  269MPD2    H2 4072   0.541   1.247  15.906  1.5254 -0.0402 -2.0290
  269MPD2    H3 4073   0.678   1.442  15.866  0.3706  1.3569 -1.2875
  269MPD2     N 4074   0.345   1.679  15.672 -0.3509 -0.2156  0.1346
  269MPD2    H5 4075   0.244   1.682  15.666 -0.2464 -1.3025 -1.8749
  269MPD2    N1 4076   0.283   1.226  15.850  0.2916  1.2138 -0.3958
  269MPD2    H7 4077   0.347   1.150  15.872 -1.7865  0.0431  1.5041
  270TMC3    C1 4078   0.099   1.076  15.803 -0.8534 -0.7439  0.0918
  270TMC3    C2 4079   4.698   1.061  15.760 -0.3590  0.7577  1.3932
  270TMC3    C3 4080   4.658   0.941  15.692  0.3810 -0.0361  0.1591
  270TMC3    C4 4081   0.187   0.977  15.796 -0.8819 -0.2437 -0.1688
  270TMC3    C5 4082   0.154   0.862  15.733  0.1480  0.4906 -0.3520
  270TMC3    C6 4083   0.030   0.843  15.682 -0.0437 -0.8979 -0.2700
  270TMC3     C 4084   0.148   1.211  15.840  0.6518  0.2499 -0.5450
  270TMC3     O 4085   0.062   1.302  15.835  0.8484 -0.5752  0.0409
  270TMC3     H 4086   4.624   1.138  15.747 -0.3686  0.4043 -0.6342
  270TMC3    H1 4087   0.293   0.987  15.817 -0.4018 -2.2152 -1.6527
  270TMC3    H2 4088   0.005   0.742  15.653 -0.7095 -0.6275 -0.6302
  270TMC3    C7 4089   0.269   0.807  15.652  0.1722 -0.0541 -0.3624
  270TMC3    C8 4090   4.600   0.962  15.566  0.3132 -0.6391  0.0495
  270TMC3    O1 4091   0.365   0.762  15.715  0.3323  0.2944  0.4383
  270TMC3    O2 4092   4.594   1.071  15.516  0.6459 -0.3074  0.4793
  271MPD2     C 4093   4.338   1.011  13.758  0.6226 -0.4513 -0.1349
  271MPD2    C1 4094   4.264   1.021  13.875  0.0462  0.0875 -0.7254
  271MPD2    C2 4095   4.135   1.064  13.865 -0.3512  0.7361 -0.3382
  271MPD2    C3 4096   4.077   1.096  13.748 -0.2740  0.3502 -0.1241
  271MPD2    C4 4097   4.154   1.086  13.633 -0.0649  0.2341 -0.8235
  271MPD2    C5 4098   4.281   1.033  13.638 -0.1843  0.5399 -1.1518
  271MPD2     H 4099   4.081   1.070  13.959  0.2958 -0.0133  0.0751
  271MPD2    H1 4100   4.110   1.098  13.535 -0.9848  0.5553 -0.3731
  271MPD2    H2 4101   4.436   0.963  13.758  0.6786 -0.3329  0.2634
  271MPD2    H3 4102   4.329   1.004  13.545  0.4101  0.6939 -0.8900
  271MPD2     N 4103   3.943   1.140  13.725  0.0785 -0.4152  0.0282
  271MPD2    H5 4104   3.906   1.126  13.631  0.5321 -1.8414  0.0690
  271MPD2    N1 4105   4.307   0.989  14.004 -1.0659  0.0858 -0.3824
  271MPD2    H7 4106   4.235   0.996  14.076  0.2081 -0.7465  0.9947
  272TMC3    C1 4107   4.470   0.933  14.181 -0.2880  0.2363 -0.1563
  272TMC3    C2 4108   4.591   0.862  14.207  0.4214  0.0736  0.0240
  272TMC3    C3 4109   4.610   0.803  14.330 -1.1862  0.3646  0.2605
  272TMC3    C4 4110   4.375   0.957  14.274  0.5852  0.1581  0.2066
  272TMC3    C5 4111   4.417   0.918  14.400  0.2573  0.5215  0.2021
  272TMC3    C6 4112   4.523   0.831  14.429  0.1332  0.3333 -0.1525
  272TMC3     C 4113   4.441   0.952  14.040  0.3817 -0.6408  0.2705
  272TMC3     O 4114   4.522   0.908  13.959  0.1089  0.0643 -0.3472
  272TMC3     H 4115   4.662   0.842  14.127 -1.0520  1.0074 -1.5249
  272TMC3    H1 4116   4.283   1.008  14.250 -0.5360 -2.2344 -0.6402
  272TMC3    H2 4117   4.529   0.795  14.531 -1.8497 -1.5757 -0.6847
  272TMC3    C7 4118   4.337   0.951  14.515 -0.2660  0.1882 -0.0626
  272TMC3    C8 4119   0.022   0.759  14.368 -0.3138  0.7202 -0.0631
  272TMC3    O1 4120   4.218   0.953  14.507  0.6117 -0.0748  0.2392
  272TMC3    O2 4121   0.097   0.734  14.273 -0.2853  0.2622  0.3984
  273MPD2     C 4122   0.967   3.459  11.892  0.7064 -0.2797 -0.0115
  273MPD2    C1 4123   1.006   3.595  11.884  0.2616  0.2138 -0.3329
  273MPD2    C2 4124   1.014   3.635  11.751  0.1570 -0.6911  0.8254
  273MPD2    C3 4125   0.990   3.554  11.638 -0.5077  0.1662 -0.3817
  273MPD2    C4 4126   0.958   3.420  11.657  1.0381  0.0192  0.3336
  273MPD2    C5 4127   0.954   3.373  11.781 -0.5223  0.0750 -0.0721
  273MPD2     H 4128   1.041   3.739  11.739  1.5914 -1.1268  0.2588
  273MPD2    H1 4129   0.934   3.349  11.578 -0.0836  0.0681  0.6257
  273MPD2    H2 4130   0.957   3.405  11.985 -0.5641 -1.8250 -1.0411
  273MPD2    H3 4131   0.936   3.268  11.799 -1.2756  0.2740  0.3524
  273MPD2     N 4132   0.997   3.593  11.501 -0.5549 -0.6092 -0.1665
  273MPD2    H5 4133   0.978   3.528  11.426  0.1969  0.6664 -1.4701
  273MPD2    N1 4134   1.035   3.671  11.998  1.0569 -0.8953  0.2207
  273MPD2    H7 4135   1.020   3.629  12.089  0.0782 -0.3793  0.3020
  274TMC3    C1 4136   1.069   3.721  11.315  0.3964  0.4306 -0.2652
  274TMC3    C2 4137   0.959   3.678  11.244 -0.6760  0.3125 -0.0537
  274TMC3    C3 4138   0.954   3.731  11.118  0.4740  0.0812  0.1900
  274TMC3    C4 4139   1.174   3.807  11.271  0.1515  0.4721 -0.4456
  274TMC3    C5 4140   1.153   3.856  11.141  0.1617  0.1610  0.8144
  274TMC3    C6 4141   1.050   3.812  11.065 -0.0063  0.2832 -0.1022
  274TMC3     C 4142   1.063   3.711  11.461  0.2417  0.6260  0.1753
  274TMC3     O 4143   1.127   3.789  11.527  0.3457 -0.5812 -0.4350
  274TMC3     H 4144   0.878   3.629  11.297 -0.3038  0.0698  0.2919
  274TMC3    H1 4145   1.261   3.829  11.331 -1.4805  1.5061  1.5448
  274TMC3    H2 4146   1.025   3.863  10.973 -2.6571 -0.8360 -0.0002
  274TMC3    C7 4147   1.187   3.995  11.125  0.5600 -0.0311 -0.5153
  274TMC3    C8 4148   0.819   3.723  11.058  0.9040  0.1272 -0.2163
  274TMC3    O1 4149   1.100   4.068  11.080 -0.4999 -0.1263 -0.1296
  274TMC3    O2 4150   0.728   3.672  11.120 -0.3923 -0.5034 -0.0905
  275MPD2     C 4151   1.251   1.881  14.363 -0.2232 -0.0923 -0.8665
  275MPD2    C1 4152   1.182   1.864  14.477 -0.0614 -0.1961 -0.3777
  275MPD2    C2 4153   1.052   1.811  14.462  0.0148  1.3897  0.6695
  275MPD2    C3 4154   0.989   1.803  14.340 -0.0178  0.0079  0.0154
  275MPD2    C4 4155   1.068   1.819  14.229 -0.1567  0.6458 -0.3076
  275MPD2    C5 4156   1.198   1.861  14.238  0.1356  0.0561 -0.0897
  275MPD2     H 4157   0.993   1.798  14.552 -1.4905 -4.0153 -1.1384
  275MPD2    H1 4158   1.020   1.794  14.135 -1.9904  0.6372  0.6342
  275MPD2    H2 4159   1.351   1.924  14.365  0.5343 -1.9028 -0.2355
  275MPD2    H3 4160   1.257   1.879  14.150  1.1215  0.4544  0.6578
  275MPD2     N 4161   0.856   1.767  14.311 -0.7579  0.3895  0.7880
  275MPD2    H5 4162   0.829   1.759  14.213 -0.7620  0.2998  0.7970
  275MPD2    N1 4163   1.224   1.909  14.601  0.5725  0.6124  0.4733
  275MPD2    H7 4164   1.160   1.903  14.680  0.8109  0.7870  0.6783
  276TMC3    C1 4165   1.353   1.974  14.778  0.2024 -0.1753  0.6708
  276TMC3    C2 4166   1.269   1.897  14.862 -0.7101 -0.1708  0.0579
  276TMC3    C3 4167   1.262   1.923  14.997 -0.6731  0.1879  0.0284
  276TMC3    C4 4168   1.418   2.084  14.830  0.4373 -1.1527 -0.4193
  276TMC3    C5 4169   1.412   2.108  14.968  0.3045  0.4572  0.3285
  276TMC3    C6 4170   1.339   2.022  15.050 -0.4897 -0.4032  0.0254
  276TMC3     C 4171   1.341   1.961  14.638  0.5883 -0.2359 -0.0282
  276TMC3     O 4172   1.440   1.974  14.564  0.0746  0.2654 -0.8160
  276TMC3     H 4173   1.231   1.804  14.820  0.6044 -0.7433  0.1119
  276TMC3    H1 4174   1.471   2.150  14.762 -0.8935 -0.2575 -0.5946
  276TMC3    H2 4175   1.343   2.032  15.158  2.8784  1.1399 -0.2516
  276TMC3    C7 4176   1.503   2.202  15.028 -0.5563  0.2073 -0.3114
  276TMC3    C8 4177   1.168   1.860  15.078  0.9226 -0.2132 -0.0340
  276TMC3    O1 4178   1.489   2.219  15.151  0.3163  0.0484  0.0155
  276TMC3    O2 4179   1.150   1.898  15.191  0.3522  0.0714  0.7386
  277MPD2     C 4180   3.154   0.895  13.375  0.1165 -0.2402 -0.1667
  277MPD2    C1 4181   3.026   0.910  13.396 -0.2717 -0.5988  0.1704
  277MPD2    C2 4182   2.965   0.857  13.510 -0.7423  0.2744 -0.2183
  277MPD2    C3 4183   3.031   0.768  13.599 -0.3895  0.0560  0.2654
  277MPD2    C4 4184   3.161   0.740  13.562  0.6329 -0.4420  0.4079
  277MPD2    C5 4185   3.220   0.806  13.461 -0.0041  0.3699  0.0696
  277MPD2     H 4186   2.861   0.871  13.537 -0.7136  1.3734 -0.6696
  277MPD2    H1 4187   3.223   0.670  13.616  0.4235  0.3824  1.7413
  277MPD2    H2 4188   3.210   0.931  13.290  2.1767  0.4758  1.5097
  277MPD2    H3 4189   3.323   0.792  13.433 -0.7265 -0.0492 -2.4157
  277MPD2     N 4190   2.969   0.726  13.718 -0.0142 -0.2871  0.1135
  277MPD2    H5 4191   2.875   0.762  13.731 -0.4992 -0.8529 -1.7324
  277MPD2    N1 4192   2.947   0.984  13.301  0.4831 -0.5714  0.6512
  277MPD2    H7 4193   3.003   1.026  13.227 -2.3319  0.5660 -0.8500
  278TMC3    C1 4194   2.928   0.641  13.937  0.2060  0.3077  0.2159
  278TMC3    C2 4195   2.896   0.509  13.962 -0.6747 -0.1862 -0.7675
  278TMC3    C3 4196   2.762   0.472  13.973 -0.0831  0.1052  0.1212
  278TMC3    C4 4197   2.832   0.737  13.957 -0.4444  0.4372  0.2027
  278TMC3    C5 4198   2.702   0.700  13.973  0.1347  0.2825  0.6614
  278TMC3    C6 4199   2.665   0.568  13.986  0.1460 -0.1450  0.1111
  278TMC3     C 4200   3.027   0.663  13.829 -0.3507  0.2857 -0.6713
  278TMC3     O 4201   3.135   0.607  13.830 -0.8638  0.4142 -0.0781
  278TMC3     H 4202   2.967   0.428  13.958 -1.1241 -0.6539  0.7461
  278TMC3    H1 4203   2.862   0.840  13.939 -0.6807  0.4657 -0.0235
  278TMC3    H2 4204   2.563   0.530  13.986 -0.5058  1.6104 -0.9901
  278TMC3    C7 4205   2.613   0.777  13.891 -0.1307 -0.3267  0.1491
  278TMC3    C8 4206   2.726   0.334  13.967 -0.3303  0.5951 -0.2339
  278TMC3    O1 4207   2.673   0.848  13.813  0.4894  0.2595 -0.3669
  278TMC3    O2 4208   2.792   0.264  14.045  0.4819  0.6070 -0.2512
  279MPD2     C 4209   1.598   0.767   0.549 -0.2806 -1.0926 -0.1770
  279MPD2    C1 4210   1.512   0.744   0.448 -0.1315 -0.4269  0.0986
  279MPD2    C2 4211   1.521   0.630   0.372  0.2763  0.3231 -0.3688
  279MPD2    C3 4212   1.641   0.560   0.381 -0.5143  0.2006 -0.4220
  279MPD2    C4 4213   1.735   0.583   0.477  0.4056  0.0352 -0.4545
  279MPD2    C5 4214   1.708   0.684   0.567 -0.2152  1.0925 -0.0574
  279MPD2     H 4215   1.451   0.613   0.291 -0.4875  1.4772  0.0529
  279MPD2    H1 4216   1.828   0.528   0.486  0.3344 -0.3331 -1.9049
  279MPD2    H2 4217   1.588   0.851   0.617 -1.0846 -1.5510  0.2757
  279MPD2    H3 4218   1.783   0.712   0.640  3.0079 -3.4709 -1.6483
  279MPD2     N 4219   1.666   0.463   0.280 -0.1090  0.2534 -0.0210
  279MPD2    H5 4220   1.749   0.405   0.291 -0.9536 -0.9383  0.0720
  279MPD2    N1 4221   1.402   0.832   0.432  0.2153  0.1559  0.5205
  279MPD2    H7 4222   1.420   0.919   0.481 -0.5674  0.3441  0.4764
  280TMC3    C1 4223   1.182   0.899   0.351  0.0354 -0.4933 -0.2478
  280TMC3    C2 4224   1.048   0.879   0.378 -0.2460 -0.1500 -0.4986
  280TMC3    C3 4225   0.968   0.976   0.340  0.2519 -0.5826  0.2571
  280TMC3    C4 4226   1.237   0.999   0.280 -0.3260 -0.3117  0.4330
  280TMC3    C5 4227   1.146   1.100   0.243 -0.3357 -1.1823 -0.4017
  280TMC3    C6 4228   1.014   1.085   0.263  0.0610  0.8743 -0.8739
  280TMC3     C 4229   1.277   0.790   0.386 -0.4598 -0.2061  0.8717
  280TMC3     O 4230   1.233   0.677   0.369  0.2576  0.3692 -0.7105
  280TMC3     H 4231   1.013   0.785   0.419 -1.1667 -0.1842 -1.3542
  280TMC3    H1 4232   1.343   1.017   0.262 -0.1462 -1.2441  0.5407
  280TMC3    H2 4233   0.944   1.165   0.237 -1.1435 -0.6097 -2.2120
  280TMC3    C7 4234   1.204   1.235   0.210  0.2188  0.5805  0.2681
  280TMC3    C8 4235   0.825   0.948   0.326 -0.0615 -0.0227 -0.2131
  280TMC3    O1 4236   1.318   1.266   0.243  0.5512  0.3508 -0.0298
  280TMC3    O2 4237   0.758   1.011   0.248 -0.0761 -0.3968  0.4735
  281TMC3    C1 4238   0.884   1.292  12.912 -0.2127 -0.3543 -0.0223
  281TMC3    C2 4239   0.974   1.376  12.853  0.4115 -0.3045 -0.3677
  281TMC3    C3 4240   1.033   1.343  12.739 -0.2304  0.1390  0.5249
  281TMC3    C4 4241   0.904   1.163  12.891  0.0658 -0.1405  0.3764
  281TMC3    C5 4242   0.985   1.120  12.793  0.0554  0.1651  0.4949
  281TMC3    C6 4243   1.050   1.211  12.711  0.2267  0.6131 -0.3481
  281TMC3     C 4244   0.770   1.335  12.995  0.0086 -0.1084  0.1621
  281TMC3     O 4245   0.715   1.253  13.069  0.3427 -0.0903  0.3872
  281TMC3     H 4246   0.978   1.477  12.892  0.4286  1.0909 -4.0519
  281TMC3    H1 4247   0.848   1.096  12.955  0.7052  1.1972  2.3081
  281TMC3    H2 4248   1.130   1.185  12.643  0.0850 -1.6280  0.3483
  281TMC3    C7 4249   1.048   0.984  12.787 -0.4714  0.2253  0.0997
  281TMC3    C8 4250   1.130   1.436  12.682 -0.0319 -0.3222  0.0609
  281TMC3    O1 4251   1.152   0.967  12.718 -0.2698  0.4912  0.7244
  281TMC3    O2 4252   1.240   1.382  12.650  0.1560 -0.4016  0.8105
  282MPD2     C 4253   2.639   2.949  15.141  0.0092  0.1273 -0.1538
  282MPD2    C1 4254   2.513   2.929  15.199  0.4622 -0.8494 -0.5901
  282MPD2    C2 4255   2.409   2.920  15.111 -0.2533  0.6674  0.9195
  282MPD2    C3 4256   2.425   2.911  14.976  0.3773 -0.0635 -0.2946
  282MPD2    C4 4257   2.554   2.916  14.923 -0.3942 -0.1161 -0.0685
  282MPD2    C5 4258   2.657   2.940  15.006 -0.7644  1.2098 -0.0031
  282MPD2     H 4259   2.308   2.917  15.150 -0.5900  2.0061  0.1653
  282MPD2    H1 4260   2.585   2.917  14.819  1.3090 -2.1640  0.4144
  282MPD2    H2 4261   2.722   2.976  15.204  0.9716 -0.5087 -1.1556
  282MPD2    H3 4262   2.759   2.957  14.971 -1.1481 -1.2207 -2.2855
  282MPD2     N 4263   2.316   2.893  14.894  0.4023  0.4923  0.3252
  282MPD2    H5 4264   2.226   2.906  14.939 -0.0503  1.8155 -0.9770
  282MPD2    N1 4265   2.487   2.923  15.340 -0.3346  0.3907 -0.3028
  282MPD2    H7 4266   2.393   2.903  15.371  0.2815 -1.3693  0.4246
  283TMC3    C1 4267   2.516   2.927  15.567  0.5590 -0.1142 -0.4288
  283TMC3    C2 4268   2.516   3.050  15.628  0.1437  0.0163  0.1849
  283TMC3    C3 4269   2.410   3.074  15.713 -0.6132 -0.4702  0.6238
  283TMC3    C4 4270   2.432   2.822  15.597 -1.0254  0.2131  0.5156
  283TMC3    C5 4271   2.335   2.847  15.694 -0.2409 -0.0548  1.0476
  283TMC3    C6 4272   2.317   2.976  15.747  0.0938 -0.7843  0.4168
  283TMC3     C 4273   2.584   2.933  15.438  0.1812 -0.4544  0.3509
  283TMC3     O 4274   2.696   2.987  15.433 -0.0521 -0.1365 -0.0479
  283TMC3     H 4275   2.589   3.121  15.591  1.9472 -1.2299  1.4090
  283TMC3    H1 4276   2.450   2.729  15.544 -1.3093  0.5114 -0.0994
  283TMC3    H2 4277   2.232   2.999  15.810  0.6197  1.9463  0.1673
  283TMC3    C7 4278   2.228   2.745  15.712  0.1766 -0.1230  0.1634
  283TMC3    C8 4279   2.363   3.204  15.743 -0.2546  0.0276 -0.3710
  283TMC3    O1 4280   2.145   2.772  15.795 -0.2367  0.1184 -0.1112
  283TMC3    O2 4281   2.304   3.228  15.848  0.2152 -0.3021 -0.4746
  284MPD2     C 4282   0.971   1.329  11.956 -1.2413  0.2919  0.4615
  284MPD2    C1 4283   0.986   1.393  11.836  0.6464  0.7304  0.6695
  284MPD2    C2 4284   0.928   1.345  11.723 -0.3913 -0.6786 -0.4526
  284MPD2    C3 4285   0.866   1.220  11.731  0.5012  0.3419 -0.4063
  284MPD2    C4 4286   0.859   1.150  11.853 -0.3833  0.0565 -0.2435
  284MPD2    C5 4287   0.907   1.213  11.963  0.3882  0.0408  0.4005
  284MPD2     H 4288   0.939   1.399  11.629 -1.0800 -0.1158 -0.2143
  284MPD2    H1 4289   0.806   1.055  11.864  3.2178 -2.1983 -2.4425
  284MPD2    H2 4290   1.013   1.372  12.046  1.0365 -0.5651 -0.1895
  284MPD2    H3 4291   0.887   1.174  12.062  1.3214 -0.3527  0.4280
  284MPD2     N 4292   0.826   1.150  11.613  0.7186  0.2964  0.3310
  284MPD2    H5 4293   0.797   1.054  11.627  0.0681  0.7088  1.8453
  284MPD2    N1 4294   1.085   1.497  11.812  0.4650  0.2482  0.2126
  284MPD2    H7 4295   1.096   1.529  11.716  1.0068 -0.1713  0.1326
  285TMC3    C1 4296   1.241   1.670  11.863  0.4891 -0.0666 -0.0705
  285TMC3    C2 4297   1.320   1.638  11.754 -0.4657  0.1122  0.4857
  285TMC3    C3 4298   1.402   1.734  11.702 -0.2326  0.8212 -0.3993
  285TMC3    C4 4299   1.242   1.797  11.923  0.4232  0.5304  0.5150
  285TMC3    C5 4300   1.326   1.893  11.867  0.7931  0.9499 -0.0436
  285TMC3    C6 4301   1.409   1.866  11.756 -0.4457 -0.0446  0.4067
  285TMC3     C 4302   1.153   1.564  11.910  0.0259  0.4550  0.0464
  285TMC3     O 4303   1.135   1.572  12.031 -0.1528 -0.4562 -0.5092
  285TMC3     H 4304   1.319   1.542  11.703 -0.1874 -1.8062  4.0742
  285TMC3    H1 4305   1.181   1.819  12.010 -1.8545 -2.1930 -0.4008
  285TMC3    H2 4306   1.466   1.941  11.703  1.2229 -0.5128  1.4980
  285TMC3    C7 4307   1.289   2.032  11.866 -0.3156 -0.5034  0.3491
  285TMC3    C8 4308   1.463   1.700  11.571  0.5817 -0.0818  0.3733
  285TMC3    O1 4309   1.380   2.110  11.840 -0.3219  0.1172 -0.2078
  285TMC3    O2 4310   1.460   1.583  11.535  0.8713  0.7468 -0.4534
  286MPD2     C 4311   0.460   1.095   1.519  0.3964  0.2105 -0.1009
  286MPD2    C1 4312   0.478   1.121   1.382 -0.3344  0.4318 -0.4417
  286MPD2    C2 4313   0.588   1.057   1.323 -0.3559  0.5252  0.2304
  286MPD2    C3 4314   0.680   0.978   1.391 -0.4232 -0.2672  0.2312
  286MPD2    C4 4315   0.663   0.975   1.528  0.0248  0.1102 -0.1501
  286MPD2    C5 4316   0.554   1.027   1.587 -0.3682 -0.9075 -0.3627
  286MPD2     H 4317   0.597   1.086   1.219 -2.5075 -2.6079 -0.8383
  286MPD2    H1 4318   0.726   0.923   1.599  1.3185 -1.0108 -2.1226
  286MPD2    H2 4319   0.375   1.131   1.576  0.1552 -2.6285  1.2981
  286MPD2    H3 4320   0.546   1.017   1.695  1.4407  0.5910 -0.0788
  286MPD2     N 4321   0.777   0.904   1.330 -0.0655  0.2672  0.1194
  286MPD2    H5 4322   0.811   0.829   1.390  1.0054 -0.1722 -1.0416
  286MPD2    N1 4323   0.402   1.216   1.310 -0.5002  0.0474  0.5119
  286MPD2    H7 4324   0.410   1.222   1.209  1.6080 -1.6934  0.5803
  287TMC3    C1 4325   0.929   0.814   1.188 -0.5670  0.9121 -0.0918
  287TMC3    C2 4326   0.923   0.735   1.079  0.5342 -0.0996  0.6798
  287TMC3    C3 4327   1.027   0.651   1.061  0.1669 -0.4321 -0.9141
  287TMC3    C4 4328   1.016   0.816   1.290  0.4306 -0.1806  0.5207
  287TMC3    C5 4329   1.118   0.724   1.264 -0.2188 -0.1310 -0.1399
  287TMC3    C6 4330   1.141   0.652   1.149 -0.0724  0.1236  0.1087
  287TMC3     C 4331   0.814   0.897   1.199 -0.2599 -0.2025  0.5227
  287TMC3     O 4332   0.778   0.966   1.107  0.9125  0.4477 -0.0390
  287TMC3     H 4333   0.845   0.747   1.004  0.7219 -1.2510  0.3087
  287TMC3    H1 4334   1.012   0.877   1.379  2.5935  1.4999 -0.5382
  287TMC3    H2 4335   1.228   0.587   1.140  0.4277  0.3561  3.1674
  287TMC3    C7 4336   1.217   0.722   1.375 -0.0983 -0.0279 -0.0783
  287TMC3    C8 4337   1.025   0.543   0.973 -0.4061  0.4387 -0.2565
  287TMC3    O1 4338   1.172   0.754   1.487 -0.6870 -0.1566  0.0296
  287TMC3    O2 4339   1.125   0.475   0.975 -0.6585 -0.4763 -0.1291
  288TMC3    C1 4340   2.537   0.556  14.414 -0.2062  0.0817 -0.5112
  288TMC3    C2 4341   2.496   0.486  14.531  0.5303  0.0704  0.3488
  288TMC3    C3 4342   2.556   0.512  14.653 -0.4787 -0.7996  0.1730
  288TMC3    C4 4343   2.624   0.661  14.418 -0.9672  0.0757 -0.3020
  288TMC3    C5 4344   2.685   0.680  14.540 -0.1746  0.3033 -0.2174
  288TMC3    C6 4345   2.638   0.623  14.661 -0.3281 -0.2445  0.1419
  288TMC3     C 4346   2.479   0.526  14.281 -0.0035 -0.6280  0.3557
  288TMC3     O 4347   2.474   0.618  14.202 -0.0687 -0.0685 -0.2462
  288TMC3     H 4348   2.418   0.412  14.518 -0.0436  0.7309  0.0274
  288TMC3    H1 4349   2.659   0.711  14.328  1.2301 -0.4818  0.2254
  288TMC3    H2 4350   2.682   0.642  14.758 -1.3118  0.9259  0.3587
  288TMC3    C7 4351   2.825   0.712  14.542  0.5237 -0.5847 -0.3535
  288TMC3    C8 4352   2.530   0.435  14.775  0.2090 -1.3693  0.0264
  288TMC3    O1 4353   2.877   0.734  14.651 -0.2323 -0.2312  0.3656
  288TMC3    O2 4354   2.609   0.456  14.861 -0.1370  0.0741  0.2645
  289MPD2     C 4355   2.791   4.316  14.473 -0.2274  0.5788 -0.1329
  289MPD2    C1 4356   2.757   4.408  14.377  0.6532 -0.3907  0.4406
  289MPD2    C2 4357   2.625   4.437  14.348  0.5612 -0.4729  0.2683
  289MPD2    C3 4358   2.523   4.386  14.430  0.7390 -0.1266  0.1119
  289MPD2    C4 4359   2.550   4.305  14.530  0.1010  0.4281  0.4150
  289MPD2    C5 4360   2.684   4.260  14.543  0.7101 -0.3691 -0.1529
  289MPD2     H 4361   2.600   4.501  14.264  0.7265 -1.9348 -0.8999
  289MPD2    H1 4362   2.482   4.265  14.605 -0.5343 -0.3732 -0.5889
  289MPD2    H2 4363   2.894   4.296  14.497 -0.4407 -0.3457  0.0022
  289MPD2    H3 4364   2.717   4.200  14.628 -0.3315  1.0574  1.2625
  289MPD2     N 4365   2.388   4.413  14.413 -0.3498 -0.4178 -0.8576
  289MPD2    H5 4366   2.323   4.353  14.463 -0.2125 -0.5397 -0.8250
  289MPD2    N1 4367   2.862   4.475  14.317 -1.1143  1.4508 -0.1432
  289MPD2    H7 4368   2.950   4.473  14.368 -0.8983 -0.7749 -0.5723
  290TMC3    C1 4369   2.188   4.515  14.340  0.5346 -0.0367  0.2486
  290TMC3    C2 4370   2.125   4.629  14.309 -0.1157 -0.0689 -0.1063
  290TMC3    C3 4371   1.990   4.630  14.297  0.4765 -0.5848 -0.1013
  290TMC3    C4 4372   2.126   4.394  14.349 -0.1324 -0.8642 -0.9757
  290TMC3    C5 4373   1.988   4.403  14.336 -0.0077  1.4819 -0.1691
  290TMC3    C6 4374   1.923   4.514  14.293  0.7791  0.6683  0.0893
  290TMC3     C 4375   2.331   4.512  14.332  0.0738 -0.2895 -0.1645
  290TMC3     O 4376   2.374   4.598  14.262 -0.1040 -0.6919  0.0966
  290TMC3     H 4377   2.192   4.713  14.300  0.2092 -0.3527 -0.3586
  290TMC3    H1 4378   2.172   4.304  14.386  1.3671  0.4544  0.3841
  290TMC3    H2 4379   1.815   4.510  14.285  0.9112  1.2540 -2.1412
  290TMC3    C7 4380   1.902   4.283  14.362  0.1648 -0.5099  0.3822
  290TMC3    C8 4381   1.920   0.029  14.271  0.3306  0.2807  0.2685
  290TMC3    O1 4382   1.777   4.292  14.345 -0.3300  0.1771 -0.6487
  290TMC3    O2 4383   1.808   0.029  14.219  0.1882  0.1238 -0.1548
  291MPD2     C 4384   1.984   3.737   0.124  0.0489  0.7665 -0.0558
  291MPD2    C1 4385   1.980   3.598   0.112  0.2127  0.2615  0.1223
  291MPD2    C2 4386   2.097   3.528   0.107  0.3480  0.5307  0.8472
  291MPD2    C3 4387   2.218   3.586   0.125  0.0046 -0.3179  0.7624
  291MPD2    C4 4388   2.223   3.725   0.145  0.5911  0.8228  0.0068
  291MPD2    C5 4389   2.109   3.795   0.155 -0.2813 -0.3184 -0.1747
  291MPD2     H 4390   2.088   3.420   0.106 -1.0817  0.6774 -1.5923
  291MPD2    H1 4391   2.311   3.785   0.165  1.3893 -1.0631  2.0512
  291MPD2    H2 4392   1.898   3.803   0.128 -1.0522 -0.5597 -1.6799
  291MPD2    H3 4393   2.114   3.901   0.175 -0.7158 -0.5815  1.3513
  291MPD2     N 4394   2.338   3.520   0.122  0.1796  0.0186  0.3060
  291MPD2    H5 4395   2.411   3.588   0.136  0.4836 -0.0601 -0.8294
  291MPD2    N1 4396   1.854   3.533   0.089  0.2600  0.5946 -0.4545
  291MPD2    H7 4397   1.860   3.432   0.076  0.3836  0.5029  0.3509
  292TMC3    C1 4398   1.626   3.502   0.059 -0.0730  0.3753  0.2213
  292TMC3    C2 4399   1.503   3.529   0.117 -0.0940 -0.1373 -0.1708
  292TMC3    C3 4400   1.398   3.448   0.070 -0.3880  0.1462 -0.6375
  292TMC3    C4 4401   1.642   3.389  17.675  0.7442 -0.1833  0.2620
  292TMC3    C5 4402   1.535   3.311  17.646 -0.4534 -0.3316 -0.3638
  292TMC3    C6 4403   1.410   3.339  17.688 -0.3632  0.4348  0.2763
  292TMC3     C 4404   1.731   3.591   0.094 -0.1583 -0.0236 -0.1968
  292TMC3     O 4405   1.692   3.705   0.109 -0.5028  0.0147  0.3258
  292TMC3     H 4406   1.489   3.616   0.180 -0.0112  0.3573 -0.8397
  292TMC3    H1 4407   1.739   3.363  17.635  0.2565 -0.5068 -0.6994
  292TMC3    H2 4408   1.329   3.273  17.657 -1.1587  0.9712  1.2236
  292TMC3    C7 4409   1.572   3.175  17.604  0.3109 -0.0101 -0.1085
  292TMC3    C8 4410   1.275   3.447   0.154 -0.2781  0.5000  0.0652
  292TMC3    O1 4411   1.642   3.173  17.505 -0.0084  0.1956 -0.3852
  292TMC3    O2 4412   1.176   3.398   0.106 -0.2722 -0.3491  0.1656
  293MPD2     C 4413   4.064   0.831  12.468  1.0698  0.5014  0.1124
  293MPD2    C1 4414   4.033   0.751  12.574  0.0798 -0.3336 -1.0975
  293MPD2    C2 4415   4.123   0.749  12.681 -0.9336 -0.2698 -0.7037
  293MPD2    C3 4416   4.228   0.842  12.694 -0.1334 -0.2857  0.0370
  293MPD2    C4 4417   4.259   0.918  12.579  0.6493  0.3896  0.0449
  293MPD2    C5 4418   4.175   0.912  12.475  0.6938  0.1810  0.4745
  293MPD2     H 4419   4.094   0.688  12.766  1.6186 -0.2463  0.1807
  293MPD2    H1 4420   4.333   0.997  12.578 -0.2075  1.1658 -0.9210
  293MPD2    H2 4421   4.002   0.852  12.382 -1.1558 -0.1825  1.5410
  293MPD2    H3 4422   4.204   0.972  12.389  1.8379  0.3652  0.9751
  293MPD2     N 4423   4.307   0.842  12.807 -0.2365  0.6914  0.0867
  293MPD2    H5 4424   4.297   0.760  12.866  0.5885  0.1771 -0.4849
  293MPD2    N1 4425   3.907   0.683  12.575 -0.5711  1.1121  0.4153
  293MPD2    H7 4426   3.871   0.688  12.480  1.5504 -1.3381 -0.5076
  294TMC3    C1 4427   3.737   0.529  12.603 -0.0263  0.0190  0.0912
  294TMC3    C2 4428   3.751   0.389  12.583  0.2003  0.8252 -0.2136
  294TMC3    C3 4429   3.689   0.327  12.483 -0.1669  0.4809  0.2390
  294TMC3    C4 4430   3.655   0.611  12.527  0.2833 -0.0562  0.2342
  294TMC3    C5 4431   3.593   0.543  12.422 -0.8083  0.3548  0.0853
  294TMC3    C6 4432   3.615   0.407  12.401 -0.1752  0.0430  0.3143
  294TMC3     C 4433   3.856   0.595  12.668  0.2671  0.3656 -0.3197
  294TMC3     O 4434   3.902   0.534  12.762 -0.5436  0.2784 -0.2033
  294TMC3     H 4435   3.822   0.337  12.646 -0.8150  1.3048  1.3137
  294TMC3    H1 4436   3.648   0.717  12.550 -1.9088 -0.2114  0.2827
  294TMC3    H2 4437   3.566   0.365  12.315 -3.0466 -0.7755  2.3424
  294TMC3    C7 4438   3.553   0.622  12.311 -0.8020 -0.2428  0.2592
  294TMC3    C8 4439   3.769   0.209  12.432  1.4408  0.7190 -0.2953
  294TMC3    O1 4440   3.526   0.739  12.341 -0.6678  0.0403  0.3871
  294TMC3    O2 4441   3.888   0.200  12.460 -0.3563 -0.5471 -0.2499
  295MPD2     C 4442   3.850   4.079   0.469 -0.1726  0.3899  0.2903
  295MPD2    C1 4443   3.881   4.209   0.480 -0.4923 -0.8097  0.4794
  295MPD2    C2 4444   3.829   4.279   0.588 -0.0931 -0.1785  0.3776
  295MPD2    C3 4445   3.757   4.215   0.692 -0.3156  0.0769 -0.4523
  295MPD2    C4 4446   3.741   4.077   0.678  0.6757 -0.1304 -0.0233
  295MPD2    C5 4447   3.783   4.011   0.570 -0.2853  0.0107  0.4096
  295MPD2     H 4448   3.848   4.385   0.602 -0.5611  0.0351 -0.6022
  295MPD2    H1 4449   3.692   4.018   0.755  0.0255 -0.6898 -0.8585
  295MPD2    H2 4450   3.889   4.017   0.390 -0.3276  0.5272  0.1062
  295MPD2    H3 4451   3.775   3.903   0.564 -0.2894 -0.0149  0.9320
  295MPD2     N 4452   3.712   4.278   0.805 -0.4504 -0.0607 -0.1836
  295MPD2    H5 4453   3.675   4.219   0.879  0.9735 -0.7727 -0.0345
  295MPD2    N1 4454   3.934   4.289   0.374 -0.2423  0.7598 -0.5321
  295MPD2    H7 4455   3.903   4.386   0.376  1.5353  1.2700  1.8701
  296TMC3    C1 4456   3.639   4.454   0.950  1.2724 -0.7838 -0.5894
  296TMC3    C2 4457   3.674   4.584   0.998  0.7341  0.4157  0.6628
  296TMC3    C3 4458   3.576   4.666   1.038  0.5638  0.4295  0.5937
  296TMC3    C4 4459   3.513   4.408   0.958  0.0732  0.4002  0.1385
  296TMC3    C5 4460   3.417   4.491   1.018 -0.9843 -0.5611  0.9265
  296TMC3    C6 4461   3.448   4.614   1.061 -0.1569  0.2646 -0.1913
  296TMC3     C 4462   3.704   4.415   0.825 -0.2546 -0.0255  0.1093
  296TMC3     O 4463   3.733   4.508   0.750  0.3546 -0.5515  0.2845
  296TMC3     H 4464   3.775   4.621   0.985  0.6641  1.6251  3.4247
  296TMC3    H1 4465   3.481   4.320   0.904  0.8821  1.1526 -1.5789
  296TMC3    H2 4466   3.371   4.679   1.100 -0.3584  0.0740 -0.2676
  296TMC3    C7 4467   3.290   4.438   1.064  0.4299  0.3150  0.4449
  296TMC3    C8 4468   3.610   0.070   1.104 -0.5831 -0.8092 -0.3414
  296TMC3    O1 4469   3.200   4.517   1.096 -0.2523  0.0364 -0.2998
  296TMC3    O2 4470   3.517   0.151   1.123  0.1346  0.1904  0.0110
  297MPD2     C 4471   1.749   1.545  16.012  0.0724  0.0150 -0.5577
  297MPD2    C1 4472   1.731   1.651  15.918  0.0101 -0.3175 -0.7001
  297MPD2    C2 4473   1.792   1.774  15.932 -0.2802  0.0042 -0.4561
  297MPD2    C3 4474   1.865   1.797  16.046  1.0348 -0.1504 -0.5195
  297MPD2    C4 4475   1.885   1.702  16.133  0.0754  0.2405 -0.0493
  297MPD2    C5 4476   1.823   1.578  16.122  0.1414  0.6083 -0.2836
  297MPD2     H 4477   1.769   1.858  15.868  0.2801  0.8186  0.4111
  297MPD2    H1 4478   1.951   1.715  16.218 -1.1407  0.7153  0.8100
  297MPD2    H2 4479   1.691   1.454  16.000  0.2526 -0.1953  0.2293
  297MPD2    H3 4480   1.827   1.510  16.207  1.0796 -0.2546 -1.0040
  297MPD2     N 4481   1.917   1.929  16.065  1.0173 -0.9133  0.0002
  297MPD2    H5 4482   1.936   1.979  15.979 -0.8559 -0.4937 -0.1794
  297MPD2    N1 4483   1.658   1.610  15.808 -0.0125  0.4735  0.3502
  297MPD2    H7 4484   1.627   1.514  15.814 -0.1111  0.5079  0.3957
  298TMC3    C1 4485   1.534   1.625  15.610 -0.3741  0.5242 -0.1338
  298TMC3    C2 4486   1.570   1.670  15.485  0.1521  0.6497 -0.1677
  298TMC3    C3 4487   1.475   1.713  15.396 -0.1196 -0.4065 -0.4651
  298TMC3    C4 4488   1.407   1.651  15.650 -0.1448  0.4576 -0.6171
  298TMC3    C5 4489   1.321   1.717  15.564 -0.2852  0.0332 -0.0441
  298TMC3    C6 4490   1.342   1.739  15.430 -0.0772 -0.2000 -0.4406
  298TMC3     C 4491   1.609   1.694  15.711  0.8294 -0.9242 -0.0071
  298TMC3     O 4492   1.622   1.815  15.699  0.2980  0.5396 -0.0622
  298TMC3     H 4493   1.672   1.673  15.449 -0.5586 -0.1805 -2.2574
  298TMC3    H1 4494   1.386   1.658  15.756 -1.1282 -0.1175 -0.7686
  298TMC3    H2 4495   1.267   1.767  15.358 -0.6393  2.1982  1.1159
  298TMC3    C7 4496   1.227   1.797  15.643  0.5102 -0.5793 -0.7285
  298TMC3    C8 4497   1.504   1.738  15.259 -0.1148  1.1190 -0.0546
  298TMC3    O1 4498   1.192   1.748  15.748  0.2728  0.1170 -0.5542
  298TMC3    O2 4499   1.557   1.842  15.225  0.3474 -0.1167 -0.2453
  299MPD2     C 4500   2.998   1.572  10.271  0.4521 -0.6537 -0.4715
  299MPD2    C1 4501   2.901   1.556  10.368 -0.1196  0.8249  0.7085
  299MPD2    C2 4502   2.782   1.496  10.330  0.2868  0.5240 -0.4319
  299MPD2    C3 4503   2.754   1.458  10.198  0.2716 -0.2599  0.4512
  299MPD2    C4 4504   2.846   1.504  10.105 -0.3248 -0.3618 -0.1646
  299MPD2    C5 4505   2.967   1.551  10.138 -0.4353 -0.5510 -0.1400
  299MPD2     H 4506   2.702   1.464  10.396  1.6740 -0.9344  0.5398
  299MPD2    H1 4507   2.817   1.487  10.002  0.6319  0.6539 -0.5930
  299MPD2    H2 4508   3.088   1.629  10.291  0.6607 -1.2642  0.3124
  299MPD2    H3 4509   3.029   1.588  10.057 -1.0638  3.3620  1.1473
  299MPD2     N 4510   2.635   1.397  10.155 -0.3106 -1.1944  0.5005
  299MPD2    H5 4511   2.621   1.393  10.054 -1.1066 -4.6573  0.7417
  299MPD2    N1 4512   2.927   1.616  10.495  0.2432  0.2846 -0.3803
  299MPD2    H7 4513   3.010   1.675  10.500 -0.3956  1.2721 -1.6486
  300TMC3    C1 4514   2.429   1.299  10.147 -0.0710 -0.2625 -0.1491
  300TMC3    C2 4515   2.372   1.403  10.073  0.0789 -0.3782 -0.3550
  300TMC3    C3 4516   2.236   1.406  10.058 -0.3202 -0.4921  0.0293
  300TMC3    C4 4517   2.347   1.204  10.202 -0.2048 -0.5108  0.2388
  300TMC3    C5 4518   2.210   1.215  10.175  0.5423 -0.1353  0.0679
  300TMC3    C6 4519   2.152   1.314  10.112  0.2948 -0.4037  0.1388
  300TMC3     C 4520   2.533   1.344  10.232 -0.0725  0.9067  0.3433
  300TMC3     O 4521   2.532   1.322  10.351 -0.1695  0.2458 -0.4617
  300TMC3     H 4522   2.431   1.485  10.035  1.1902 -0.9792  0.0621
  300TMC3    H1 4523   2.392   1.120  10.253  0.6623  0.3231  0.8460
  300TMC3    H2 4524   2.045   1.311  10.093  0.4865 -0.0201 -0.9671
  300TMC3    C7 4525   2.128   1.121  10.241 -0.1148  0.0509  0.6009
  300TMC3    C8 4526   2.185   1.533  10.013  0.6150 -0.3000 -0.2179
  300TMC3    O1 4527   2.172   1.012  10.241  0.0158  0.7735 -0.4377
  300TMC3    O2 4528   2.241   1.587   9.922  0.8476 -0.4737 -0.8062
  301MPD2     C 4529   3.696   2.315   1.247  0.0246 -0.5463 -0.4318
  301MPD2    C1 4530   3.620   2.284   1.139  0.1506  0.1722  0.6980
  301MPD2    C2 4531   3.663   2.195   1.039  0.9501  0.4894 -0.0635
  301MPD2    C3 4532   3.791   2.140   1.050 -0.3415  0.2333  0.5386
  301MPD2    C4 4533   3.866   2.186   1.157 -0.0032  0.5612  0.0593
  301MPD2    C5 4534   3.820   2.271   1.258  0.1920  0.4410 -0.6987
  301MPD2     H 4535   3.591   2.164   0.964  0.7987 -0.3783  0.4382
  301MPD2    H1 4536   3.964   2.146   1.179  0.5586  0.8766 -1.8279
  301MPD2    H2 4537   3.655   2.380   1.324  0.3796 -0.3877 -0.3733
  301MPD2    H3 4538   3.869   2.305   1.348  0.5591 -3.0850  0.4297
  301MPD2     N 4539   3.835   2.030   0.969 -1.1576 -0.7480 -0.1058
  301MPD2    H5 4540   3.923   1.987   0.994 -0.9364 -0.5440 -0.5361
  301MPD2    N1 4541   3.485   2.320   1.130 -0.0794  0.1857 -0.3927
  301MPD2    H7 4542   3.431   2.275   1.057  0.7215 -1.1825 -0.1473
  302TMC3    C1 4543   3.827   1.868   0.791  0.0432  0.5009  0.0426
  302TMC3    C2 4544   3.965   1.869   0.792 -0.1305 -0.1662  0.4443
  302TMC3    C3 4545   4.022   1.791   0.693  0.4408  0.0634 -0.2100
  302TMC3    C4 4546   3.748   1.796   0.705  0.7381  0.0110  0.1388
  302TMC3    C5 4547   3.808   1.719   0.612  0.4420 -0.3793 -0.0373
  302TMC3    C6 4548   3.944   1.722   0.598  0.6377  0.4616 -0.3030
  302TMC3     C 4549   3.756   1.969   0.872  0.0735  0.1600  0.1964
  302TMC3     O 4550   3.651   1.999   0.811  0.1298 -0.0704 -0.9473
  302TMC3     H 4551   4.030   1.926   0.857  1.7471 -0.4421 -1.1780
  302TMC3    H1 4552   3.642   1.783   0.720  0.9759 -1.4971  0.4713
  302TMC3    H2 4553   3.989   1.679   0.510 -1.2084  1.6581 -1.8161
  302TMC3    C7 4554   3.733   1.686   0.491  0.6168 -0.5517 -0.5830
  302TMC3    C8 4555   4.160   1.745   0.706  1.0141 -0.6201  0.1757
  302TMC3    O1 4556   3.781   1.601   0.417  0.0342  0.1828 -0.1732
  302TMC3    O2 4557   4.209   1.707   0.598  0.5794  0.4174 -0.1198
  303MPD2     C 4558   4.444   0.979  10.743  0.4332  0.1845 -0.3326
  303MPD2    C1 4559   4.381   0.859  10.694 -0.1872 -0.5432  0.1814
  303MPD2    C2 4560   4.346   0.854  10.562  0.7020 -0.9276  0.1917
  303MPD2    C3 4561   4.357   0.968  10.485  0.0220  0.1971  0.3317
  303MPD2    C4 4562   4.403   1.083  10.538 -0.0348  0.0394 -0.4047
  303MPD2    C5 4563   4.451   1.091  10.665  0.0602  0.2731 -0.6253
  303MPD2     H 4564   4.325   0.762  10.509  0.1890 -0.3254 -0.6421
  303MPD2    H1 4565   4.397   1.175  10.480  3.4164  1.3207  1.2553
  303MPD2    H2 4566   4.480   0.991  10.844 -0.2182 -2.4705  0.2114
  303MPD2    H3 4567   4.508   1.177  10.698  0.5059  0.1217 -1.0068
  303MPD2     N 4568   4.314   0.972  10.346  0.2124  0.3303  0.1946
  303MPD2    H5 4569   4.336   1.062  10.304 -0.3019  0.7345  0.7811
  303MPD2    N1 4570   4.389   0.740  10.759 -0.1402 -0.2312 -0.3023
  303MPD2    H7 4571   4.359   0.655  10.711 -0.5396  0.4313 -1.2096
  304TMC3    C1 4572   4.419   0.575  10.916 -0.1314 -0.3324  0.6666
  304TMC3    C2 4573   4.341   0.525  11.016  0.0824  0.3228 -1.3271
  304TMC3    C3 4574   4.325   0.392  11.029 -0.1594 -0.2034 -1.0299
  304TMC3    C4 4575   4.490   0.500  10.828 -0.0195  0.0402  0.0760
  304TMC3    C5 4576   4.484   0.363  10.848 -0.5116 -0.3031 -0.0268
  304TMC3    C6 4577   4.411   0.316  10.957  0.2484 -1.0230 -0.3077
  304TMC3     C 4578   4.417   0.719  10.894 -0.6076 -0.5684  0.2432
  304TMC3     O 4579   4.429   0.795  10.991 -0.1918 -0.1156  0.0103
  304TMC3     H 4580   4.265   0.592  11.056 -0.8238 -0.8720 -1.0226
  304TMC3    H1 4581   4.555   0.543  10.754  0.5362 -0.0797  0.4960
  304TMC3    H2 4582   4.413   0.209  10.969 -3.0475 -1.2749 -2.2490
  304TMC3    C7 4583   4.482   0.268  10.737 -0.3288  0.4251  0.3740
  304TMC3    C8 4584   4.187   0.366  11.015  0.2876 -0.1279  0.8467
  304TMC3    O1 4585   4.405   0.175  10.753  0.6748 -0.0412  0.0512
  304TMC3    O2 4586   4.099   0.436  11.068 -0.3121 -0.3872 -0.2565
  305MPD2     C 4587   2.135   2.692  13.841 -0.6225 -0.3453  0.2572
  305MPD2    C1 4588   2.251   2.627  13.877  0.6963 -0.0381 -0.3878
  305MPD2    C2 4589   2.296   2.515  13.810  0.3740  0.3048  0.2562
  305MPD2    C3 4590   2.227   2.476  13.695 -0.4095  0.0671  0.1525
  305MPD2    C4 4591   2.122   2.553  13.649 -1.0477 -0.7384 -0.1428
  305MPD2    C5 4592   2.070   2.651  13.725 -0.0285  0.3299  0.7351
  305MPD2     H 4593   2.390   2.473  13.846  0.0616  1.3042  2.2591
  305MPD2    H1 4594   2.067   2.521  13.561  0.7325  1.6304 -2.0944
  305MPD2    H2 4595   2.110   2.786  13.891  0.9944 -0.9295  2.1641
  305MPD2    H3 4596   1.981   2.704  13.693  0.0823  1.6801  2.6276
  305MPD2     N 4597   2.253   2.364  13.623 -0.2307  0.2899  0.2061
  305MPD2    H5 4598   2.189   2.342  13.548  1.8488  1.9718 -2.0447
  305MPD2    N1 4599   2.320   2.679  13.989 -0.2497 -0.1201 -0.0546
  305MPD2    H7 4600   2.285   2.764  14.033  0.8496  1.0508 -1.4540
  306TMC3    C1 4601   2.480   2.708  14.163 -0.2755  0.3585  0.4359
  306TMC3    C2 4602   2.558   2.639  14.256 -0.7009 -0.7480  0.1036
  306TMC3    C3 4603   2.592   2.700  14.375  0.1979  0.8754 -0.1389
  306TMC3    C4 4604   2.425   2.831  14.201 -0.4421 -0.1149 -0.2969
  306TMC3    C5 4605   2.453   2.879  14.327  0.6484  0.3282 -0.3981
  306TMC3    C6 4606   2.530   2.813  14.415 -0.4311  0.3657  0.2237
  306TMC3     C 4607   2.437   2.625  14.053 -0.5329 -0.3562 -0.3463
  306TMC3     O 4608   2.486   2.514  14.039 -0.3617 -0.0656 -0.0974
  306TMC3     H 4609   2.604   2.546  14.223  1.0948  1.3224 -3.2961
  306TMC3    H1 4610   2.380   2.906  14.137  1.9756  0.6550 -1.0676
  306TMC3    H2 4611   2.539   2.838  14.520  3.5462 -1.0193  0.2483
  306TMC3    C7 4612   2.390   3.004  14.373  0.3491 -0.0523 -0.4057
  306TMC3    C8 4613   2.685   2.634  14.464  0.3270  0.2508 -0.3643
  306TMC3    O1 4614   2.279   3.032  14.323 -0.0691 -0.4047 -0.4809
  306TMC3    O2 4615   2.690   2.515  14.450  0.3654 -0.1065  0.0484
  307MPD2     C 4616   0.121   0.020   0.412 -0.0420 -0.5568 -0.3762
  307MPD2    C1 4617   0.088   0.146   0.461 -1.1584  0.1627 -0.0094
  307MPD2    C2 4618   0.005   0.151   0.567 -0.6796  0.2697 -0.4376
  307MPD2    C3 4619   4.675   0.039   0.622  0.9725 -0.1072 -0.5348
  307MPD2    C4 4620   4.716   4.639   0.576  0.2875 -0.4548 -0.4314
  307MPD2    C5 4621   0.069   4.632   0.470  0.2630  0.5611  0.0163
  307MPD2     H 4622   4.698   0.245   0.612  2.8079 -1.0778  4.8090
  307MPD2    H1 4623   4.676   4.545   0.612  1.3155 -0.8552 -0.3296
  307MPD2    H2 4624   0.172   0.015   0.317 -0.2566 -0.4648 -0.4964
  307MPD2    H3 4625   0.082   4.537   0.420 -1.6915  0.8245 -0.9580
  307MPD2     N 4626   4.590   0.054   0.732  0.5776  0.3622 -0.2451
  307MPD2    H5 4627   4.571   0.144   0.775 -4.2141 -1.9180  2.4745
  307MPD2    N1 4628   0.110   0.267   0.389 -0.2379  1.0322 -0.1307
  307MPD2    H7 4629   0.050   0.346   0.413 -0.3242  0.7631  0.5388
  308TMC3    C1 4630   4.219   0.119   0.890  0.1204  0.0911  0.3622
  308TMC3    C2 4631   4.269   0.232   0.942 -0.4911 -0.4408  0.1421
  308TMC3    C3 4632   4.399   0.229   0.972 -0.4082 -0.0528 -0.5608
  308TMC3    C4 4633   4.289   0.003   0.858  0.7826 -1.2105 -0.1189
  308TMC3    C5 4634   4.425   0.008   0.888  0.5396  0.3186  0.2191
  308TMC3    C6 4635   4.479   0.118   0.945  0.4043  0.3037  0.7230
  308TMC3     C 4636   4.090   0.125   0.839  0.6338 -0.1941  0.2408
  308TMC3     O 4637   4.044   0.026   0.784  0.0593 -0.5511  0.0328
  308TMC3     H 4638   4.210   0.305   0.996  0.7911  0.0422  0.8712
  308TMC3    H1 4639   4.240   4.645   0.807 -0.9411 -0.4645  0.3340
  308TMC3    H2 4640   4.583   0.119   0.975  1.0192 -0.3742 -1.3585
  308TMC3    C7 4641   4.513   4.677   0.788 -0.1533  0.4931 -1.1905
  308TMC3    C8 4642   4.449   0.328   1.062  0.0640  0.3055  0.0627
  308TMC3    O1 4643   4.507   4.558   0.767 -0.1559  0.8497  0.0084
  308TMC3    O2 4644   4.547   0.297   1.126 -0.6009  0.0756 -0.0349
  309MPD2     C 4645   3.741   0.668  16.865 -0.1076 -0.6257  0.1682
  309MPD2    C1 4646   3.811   0.784  16.883  0.1322 -0.6700 -0.0999
  309MPD2    C2 4647   3.802   0.850  17.002  0.2712  0.3735 -0.3197
  309MPD2    C3 4648   3.708   0.811  17.092  0.2713 -0.9832  0.4594
  309MPD2    C4 4649   3.634   0.696  17.072  0.2219 -0.1351 -0.0203
  309MPD2    C5 4650   3.657   0.626  16.962  0.2409  0.2248 -0.1006
  309MPD2     H 4651   3.866   0.934  17.026  0.1612  0.6637 -1.0442
  309MPD2    H1 4652   3.566   0.658  17.147 -1.7815  1.7180 -0.8999
  309MPD2    H2 4653   3.741   0.608  16.775  0.8570 -2.7242  1.5871
  309MPD2    H3 4654   3.601   0.535  16.943  0.2110 -0.1491  1.7795
  309MPD2     N 4655   3.692   0.899  17.202  0.1530  0.0107 -0.1367
  309MPD2    H5 4656   3.726   0.994  17.195 -1.8756  0.6568 -1.1594
  309MPD2    N1 4657   3.910   0.836  16.786  0.2193 -0.0732 -0.0414
  309MPD2    H7 4658   3.956   0.924  16.804  2.6119 -0.9303 -2.1244
  310TMC3    C1 4659   4.038   0.860  16.610 -0.2269 -1.0806 -0.7117
  310TMC3    C2 4660   4.018   0.997  16.631 -0.5374  0.5140  0.3340
  310TMC3    C3 4661   4.128   1.084  16.621  0.0394  0.6820  0.5540
  310TMC3    C4 4662   4.162   0.808  16.584 -0.8570 -0.9103  0.5534
  310TMC3    C5 4663   4.271   0.895  16.580  0.0583  0.2334 -0.7628
  310TMC3    C6 4664   4.256   1.032  16.604 -0.3657 -0.2958  0.4388
  310TMC3     C 4665   3.963   0.763  16.682  0.5818 -1.0580  0.1594
  310TMC3     O 4666   3.956   0.643  16.642  0.5056  0.0675  0.6260
  310TMC3     H 4667   3.919   1.039  16.644 -1.2916 -1.3424  0.6274
  310TMC3    H1 4668   4.168   0.699  16.581 -0.4182 -0.9355  2.4004
  310TMC3    H2 4669   4.348   1.085  16.581  0.2043 -0.8087  1.5366
  310TMC3    C7 4670   4.399   0.846  16.529  0.0110 -0.2704 -0.3775
  310TMC3    C8 4671   4.090   1.210  16.559  0.0307 -0.0081  0.1626
  310TMC3    O1 4672   4.390   0.781  16.426  0.5925  0.2097 -0.4581
  310TMC3    O2 4673   3.994   1.200  16.483  0.6319 -0.2512  0.1539
  311MPD2     C 4674   1.554   2.178  12.715 -0.3839  0.4166 -0.4356
  311MPD2    C1 4675   1.533   2.308  12.752  0.8299 -0.5366 -0.5698
  311MPD2    C2 4676   1.411   2.349  12.807 -0.5354 -0.6484  0.1595
  311MPD2    C3 4677   1.306   2.266  12.815  0.4228 -0.5139 -0.6058
  311MPD2    C4 4678   1.326   2.133  12.779 -0.3265  0.5992  0.2020
  311MPD2    C5 4679   1.447   2.090  12.733 -0.0711  0.0696  0.0958
  311MPD2     H 4680   1.402   2.456  12.826 -1.2235 -0.9237  1.3624
  311MPD2    H1 4681   1.251   2.057  12.794  0.1115  0.2468  0.5970
  311MPD2    H2 4682   1.646   2.132  12.680  0.0596 -0.2670  1.5980
  311MPD2    H3 4683   1.472   1.991  12.698 -0.0142 -0.0351  0.4296
  311MPD2     N 4684   1.189   2.321  12.867 -0.2624 -0.4173 -0.0887
  311MPD2    H5 4685   1.195   2.420  12.889 -1.0953 -0.7874  1.8151
  311MPD2    N1 4686   1.632   2.411  12.745  0.2462  0.3922  0.3141
  311MPD2    H7 4687   1.604   2.503  12.777  0.3403  0.4178  0.3230
  312TMC3    C1 4688   0.967   2.336  12.932  1.2381 -0.1659 -0.2360
  312TMC3    C2 4689   0.853   2.328  12.867 -0.0321 -0.2661  0.1903
  312TMC3    C3 4690   0.769   2.438  12.873 -0.3316 -1.1593  0.4904
  312TMC3    C4 4691   1.004   2.448  13.000  0.0005  0.5552  0.0130
  312TMC3    C5 4692   0.923   2.557  13.009 -0.1074  0.0195  0.0518
  312TMC3    C6 4693   0.804   2.556  12.935 -0.4104 -0.4929 -0.2215
  312TMC3     C 4694   1.070   2.254  12.878  0.1308  0.5740 -0.5620
  312TMC3     O 4695   1.030   2.142  12.841 -0.4309  0.0214  0.3822
  312TMC3     H 4696   0.823   2.237  12.816 -1.9071  0.3652  0.1802
  312TMC3    H1 4697   1.101   2.448  13.049  0.9633 -1.0599 -1.8880
  312TMC3    H2 4698   0.741   2.644  12.944  1.3327  0.4650  2.4855
  312TMC3    C7 4699   0.948   2.655  13.111 -0.7631 -0.2758 -0.5114
  312TMC3    C8 4700   0.627   2.419  12.822 -0.1766 -0.5278 -0.5092
  312TMC3    O1 4701   0.906   2.767  13.079 -0.1166 -0.0147 -0.2616
  312TMC3    O2 4702   0.606   2.314  12.760  0.0699 -0.0745 -0.3565
  313MPD2     C 4703   1.483   1.723  10.502  0.0281 -0.0569  0.5455
  313MPD2    C1 4704   1.418   1.609  10.538  0.8358  0.4860  0.4148
  313MPD2    C2 4705   1.419   1.495  10.452 -0.1446 -0.0917  0.2424
  313MPD2    C3 4706   1.501   1.486  10.342 -0.3603 -0.1873  0.7457
  313MPD2    C4 4707   1.568   1.605  10.307 -1.0097  0.2032 -0.6762
  313MPD2    C5 4708   1.557   1.713  10.384  0.6946 -0.0782 -0.1699
  313MPD2     H 4709   1.354   1.416  10.489 -0.7896  0.6121  0.6078
  313MPD2    H1 4710   1.632   1.616  10.220 -0.1444  0.4425 -0.0111
  313MPD2    H2 4711   1.495   1.814  10.559  3.5669  1.2078 -2.2140
  313MPD2    H3 4712   1.612   1.801  10.352  0.6980 -0.1077 -0.2436
  313MPD2     N 4713   1.516   1.368  10.275 -0.4463  0.4679  0.0282
  313MPD2    H5 4714   1.473   1.288  10.321  1.7093 -0.5975  0.1820
  313MPD2    N1 4715   1.336   1.605  10.655 -0.4820  0.1882  0.5404
  313MPD2    H7 4716   1.257   1.542  10.651  0.6371 -1.1348 -0.8478
  314TMC3    C1 4717   1.242   1.691  10.859  0.2877  0.2726  0.1923
  314TMC3    C2 4718   1.267   1.724  10.990 -0.6224 -0.0318  0.9388
  314TMC3    C3 4719   1.154   1.743  11.069  0.2221  0.0723  0.8521
  314TMC3    C4 4720   1.117   1.689  10.802  0.5786  0.4513  0.0418
  314TMC3    C5 4721   1.011   1.705  10.893 -0.2507  0.4316  0.2023
  314TMC3    C6 4722   1.024   1.730  11.026  0.5726 -0.6982 -0.4872
  314TMC3     C 4723   1.356   1.674  10.767 -0.1538 -0.0394  0.6151
  314TMC3     O 4724   1.467   1.715  10.810  0.3636  0.5839  1.2181
  314TMC3     H 4725   1.368   1.730  11.029 -0.2566 -4.1974  0.6344
  314TMC3    H1 4726   1.107   1.674  10.695 -0.0867 -0.4955  0.2426
  314TMC3    H2 4727   0.939   1.749  11.092  0.8298 -0.5260 -0.2079
  314TMC3    C7 4728   0.878   1.747  10.837  0.0248 -0.3372 -0.4342
  314TMC3    C8 4729   1.166   1.812  11.196  0.3797 -0.3386  0.2545
  314TMC3    O1 4730   0.782   1.753  10.909 -0.5179  0.2076  0.2907
  314TMC3    O2 4731   1.087   1.774  11.285 -0.3087  0.0607  0.2200
  315MPD2     C 4732   0.173   1.398  17.340  0.0342 -0.9489 -0.7006
  315MPD2    C1 4733   0.268   1.395  17.436  0.5383  0.1318  0.1981
  315MPD2    C2 4734   0.389   1.445  17.406 -0.3941 -0.1419 -0.4832
  315MPD2    C3 4735   0.416   1.508  17.287 -0.4543  0.0781  0.3847
  315MPD2    C4 4736   0.323   1.500  17.190  0.4496  0.4073 -0.2945
  315MPD2    C5 4737   0.198   1.455  17.221 -0.5912  1.0286 -0.4638
  315MPD2     H 4738   0.465   1.435  17.483  0.1306  0.0039 -0.9848
  315MPD2    H1 4739   0.337   1.529  17.087 -2.1047  1.6934 -0.2878
  315MPD2    H2 4740   0.070   1.370  17.356 -0.6004  1.8159 -0.0186
  315MPD2    H3 4741   0.114   1.456  17.152  0.4012  1.6378 -1.6626
  315MPD2     N 4742   0.549   1.562  17.268 -0.1237  0.2416 -0.1425
  315MPD2    H5 4743   0.625   1.544  17.334  2.9564  3.0431 -2.8964
  315MPD2    N1 4744   0.253   1.356  17.572  0.1130  0.1407  0.0432
  315MPD2    H7 4745   0.339   1.358  17.626 -0.1773  2.0233  0.4501
  316TMC3    C1 4746   0.730   1.685  17.165 -0.2737  0.0932 -0.1911
  316TMC3    C2 4747   0.817   1.645  17.266  0.1988  0.6696  0.5829
  316TMC3    C3 4748   0.946   1.688  17.249 -0.3592  0.8176  0.2640
  316TMC3    C4 4749   0.771   1.738  17.044  0.6184 -0.0779 -0.5068
  316TMC3    C5 4750   0.898   1.766  17.025  0.7167  0.5609  0.2287
  316TMC3    C6 4751   0.989   1.735  17.122 -0.1208 -0.6520 -0.3542
  316TMC3     C 4752   0.591   1.634  17.160 -0.2199  0.4606 -0.2393
  316TMC3     O 4753   0.529   1.677  17.068  0.3095  0.1951 -0.1660
  316TMC3     H 4754   0.790   1.603  17.362  0.0025  1.8526  1.0451
  316TMC3    H1 4755   0.697   1.749  16.965 -0.4569 -1.5962  0.2867
  316TMC3    H2 4756   1.091   1.768  17.107 -0.9376  0.9158 -2.3583
  316TMC3    C7 4757   0.937   1.708  16.896  0.0864  0.6724  0.1657
  316TMC3    C8 4758   1.023   1.706  17.365 -0.0968  0.8082 -0.2704
  316TMC3    O1 4759   1.047   1.660  16.892 -0.1447 -0.4078  0.2049
  316TMC3    O2 4760   1.104   1.804  17.370 -0.4856  0.4684 -0.2026
  317MPD2     C 4761   2.351   4.366  12.772  0.2963  0.1064  0.0196
  317MPD2    C1 4762   2.416   4.244  12.777  0.3245 -0.2729 -0.1364
  317MPD2    C2 4763   2.473   4.218  12.897  0.6824 -0.5270 -0.0062
  317MPD2    C3 4764   2.476   4.307  13.002 -1.1205 -0.6507 -0.0607
  317MPD2    C4 4765   2.424   4.433  12.980 -0.2845 -0.2371  0.0914
  317MPD2    C5 4766   2.347   4.458  12.869 -0.1191 -0.1488  0.1629
  317MPD2     H 4767   2.517   4.121  12.916 -0.8478 -1.4141 -0.9974
  317MPD2    H1 4768   2.432   4.504  13.062  0.9937 -0.4713  0.1708
  317MPD2    H2 4769   2.293   4.396  12.685  2.1996  1.6554 -0.7319
  317MPD2    H3 4770   2.293   4.553  12.872  1.0065  0.4055  2.8409
  317MPD2     N 4771   2.539   4.262  13.118 -0.8006 -0.2998 -0.6425
  317MPD2    H5 4772   2.545   4.160  13.117  0.0714 -0.2869  2.3122
  317MPD2    N1 4773   2.411   4.146  12.675 -0.6547 -0.0968  0.2235
  317MPD2    H7 4774   2.474   4.068  12.691 -4.3122 -3.0910  0.1271
  318TMC3    C1 4775   2.651   4.275  13.319  0.5386 -0.4667 -0.0763
  318TMC3    C2 4776   2.593   4.153  13.363 -0.2878 -0.5930  0.4725
  318TMC3    C3 4777   2.666   4.058  13.423  0.7986  0.5331  0.2424
  318TMC3    C4 4778   2.783   4.293  13.337 -0.6643  0.5537  0.0018
  318TMC3    C5 4779   2.851   4.191  13.409 -0.4880 -0.3322  0.0122
  318TMC3    C6 4780   2.795   4.074  13.443  0.0329  0.4008 -0.9050
  318TMC3     C 4781   2.590   4.345  13.211  0.4056 -0.2788  0.1287
  318TMC3     O 4782   2.612   4.466  13.207  0.1895  0.2883  0.0397
  318TMC3     H 4783   2.485   4.147  13.370 -0.4147  1.1785  0.0412
  318TMC3    H1 4784   2.841   4.379  13.305  1.0796 -0.7515 -0.3794
  318TMC3    H2 4785   2.860   3.990  13.464  0.2431 -0.0077 -3.2035
  318TMC3    C7 4786   2.996   4.209  13.424  0.5473 -0.6746  0.4675
  318TMC3    C8 4787   2.607   3.935  13.473  0.5078  0.6145 -0.2369
  318TMC3    O1 4788   3.052   4.300  13.363  0.4109 -0.5209 -0.0711
  318TMC3    O2 4789   2.676   3.857  13.536 -0.0173  0.1361  0.0552
  319MPD2     C 4790   3.313   1.038  16.488 -0.0466  0.4398 -0.0848
  319MPD2    C1 4791   3.185   0.989  16.487 -0.3869 -0.1110 -0.4177
  319MPD2    C2 4792   3.128   0.951  16.364  0.3506 -0.7766  0.6472
  319MPD2    C3 4793   3.207   0.948  16.249  0.2589  0.3290  1.1702
  319MPD2    C4 4794   3.337   1.002  16.257 -0.3198 -0.3901  0.6542
  319MPD2    C5 4795   3.389   1.032  16.378  0.1823  0.7520 -0.3488
  319MPD2     H 4796   3.024   0.920  16.361 -0.1841  1.1820 -1.1886
  319MPD2    H1 4797   3.402   1.005  16.169 -1.1391  2.6017  0.1553
  319MPD2    H2 4798   3.364   1.071  16.577  0.6116 -0.6428 -0.0639
  319MPD2    H3 4799   3.489   1.071  16.391  1.2536 -1.2087 -2.8847
  319MPD2     N 4800   3.163   0.917  16.117  0.2491  0.6030 -0.0613
  319MPD2    H5 4801   3.234   0.923  16.044 -0.4340 -0.7857 -0.8433
  319MPD2    N1 4802   3.113   0.971  16.606 -0.1440 -0.5386 -0.7937
  319MPD2    H7 4803   3.022   0.929  16.587 -0.4213 -0.1517 -0.3421
  320TMC3    C1 4804   3.013   0.870  15.946 -0.0848  0.1746  0.0975
  320TMC3    C2 4805   3.036   0.978  15.866  0.1882 -0.0662  0.4535
  320TMC3    C3 4806   2.983   0.980  15.738  0.3685 -1.1812 -0.3974
  320TMC3    C4 4807   2.930   0.771  15.910 -0.4999  0.3008 -0.6276
  320TMC3    C5 4808   2.887   0.773  15.779  0.2277  0.1215 -0.1154
  320TMC3    C6 4809   2.916   0.877  15.688  0.5210 -0.1136  1.0580
  320TMC3     C 4810   3.037   0.875  16.089 -0.8207 -0.4251 -0.1928
  320TMC3     O 4811   2.957   0.816  16.160  0.3809  0.0261 -0.0916
  320TMC3     H 4812   3.106   1.050  15.908 -0.1790  0.4390  0.1963
  320TMC3    H1 4813   2.914   0.681  15.968  0.3062  1.5018  1.4401
  320TMC3    H2 4814   2.896   0.848  15.585 -1.0875 -2.5420  2.0419
  320TMC3    C7 4815   2.801   0.662  15.741  0.0661 -0.6841  0.1525
  320TMC3    C8 4816   3.001   1.103  15.663 -0.6855 -0.5197 -1.1485
  320TMC3    O1 4817   2.822   0.612  15.634  0.5520  0.2342  0.2079
  320TMC3    O2 4818   3.062   1.188  15.729  0.2127  0.7005 -0.0276
  321TMC3    C1 4819   3.062   0.986  16.841  0.7245 -0.0857  0.3419
  321TMC3    C2 4820   3.022   0.857  16.844 -0.8966 -0.0032  0.5417
  321TMC3    C3 4821   2.925   0.818  16.929 -0.7015  0.1242 -0.1754
  321TMC3    C4 4822   3.017   1.076  16.926 -0.0659  0.2228 -0.0582
  321TMC3    C5 4823   2.913   1.043  17.010  1.1507  0.0633  0.0926
  321TMC3    C6 4824   2.861   0.915  17.004  0.1254 -0.6453  0.4892
  321TMC3     C 4825   3.132   1.038  16.726  1.0921  0.1693 -1.7041
  321TMC3     O 4826   3.204   1.135  16.743  0.1711  0.0012 -0.2566
  321TMC3     H 4827   3.060   0.783  16.776  0.7061  1.8980 -0.6231
  321TMC3    H1 4828   3.069   1.170  16.942 -0.6947  0.5036  0.3120
  321TMC3    H2 4829   2.793   0.888  17.084 -1.8316 -0.1306 -0.9854
  321TMC3    C7 4830   2.909   1.094  17.144  0.3448  0.3846  0.5248
  321TMC3    C8 4831   2.954   0.709  17.016  0.1979  0.5591  0.1102
  321TMC3    O1 4832   2.920   1.212  17.173  0.0182  0.5937 -0.4597
  321TMC3    O2 4833   2.942   0.735  17.135 -0.1096 -0.6488 -0.1410
  322MPD2     C 4834   2.224   1.922  13.679  0.1561 -0.0852 -0.0829
  322MPD2    C1 4835   2.351   1.888  13.717  0.5358  0.2164 -0.3059
  322MPD2    C2 4836   2.418   1.786  13.649 -0.1855 -0.4914 -0.5720
  322MPD2    C3 4837   2.361   1.729  13.540  0.3569  0.6864  0.8823
  322MPD2    C4 4838   2.233   1.764  13.500  0.3183  0.3594  0.0672
  322MPD2    C5 4839   2.161   1.850  13.578  0.2493  0.0611 -0.1362
  322MPD2     H 4840   2.519   1.760  13.677 -0.6488 -1.7969 -0.1202
  322MPD2    H1 4841   2.178   1.723  13.416  0.1384 -1.8754  1.2816
  322MPD2    H2 4842   2.173   2.006  13.724  1.1283  0.0297  0.8105
  322MPD2    H3 4843   2.069   1.891  13.539 -0.0878  0.4871  1.1115
  322MPD2     N 4844   2.439   1.631  13.469 -0.4976  1.0152 -0.3944
  322MPD2    H5 4845   2.531   1.611  13.506 -0.4548 -0.9461 -1.5797
  322MPD2    N1 4846   2.402   1.946  13.835 -0.2150  0.3390  0.4194
  322MPD2    H7 4847   2.354   2.018  13.889  0.4878  0.2048  1.2248
  323TMC3    C1 4848   2.564   2.008  13.991 -0.8164 -0.3201 -0.0871
  323TMC3    C2 4849   2.576   2.138  13.976  0.0905  0.0580  0.1984
  323TMC3    C3 4850   2.659   2.212  14.057 -0.0451  0.1702 -0.4597
  323TMC3    C4 4851   2.625   1.932  14.088  0.9513  0.4802  0.3785
  323TMC3    C5 4852   2.709   2.001  14.164  0.5326 -1.0623 -0.2121
  323TMC3    C6 4853   2.725   2.139  14.156  0.3328  0.1334  0.1218
  323TMC3     C 4854   2.535   1.932  13.880 -0.1054  0.6118  0.1705
  323TMC3     O 4855   2.628   1.865  13.839  0.1019 -0.2146 -0.6294
  323TMC3     H 4856   2.527   2.192  13.896 -1.5374 -2.4739 -0.4955
  323TMC3    H1 4857   2.614   1.824  14.087 -1.0621  0.6625  1.7818
  323TMC3    H2 4858   2.799   2.188  14.218  0.7729  0.1812 -0.4451
  323TMC3    C7 4859   2.793   1.919  14.252  0.1811 -0.0970  0.0620
  323TMC3    C8 4860   2.753   2.305  14.002  0.2783 -0.4463 -0.1511
  323TMC3    O1 4861   2.791   1.801  14.218  0.4683  0.1569 -0.2898
  323TMC3    O2 4862   2.867   2.296  14.037 -0.7306  0.3607 -0.0380
  324MPD2     C 4863   3.918   2.658  14.037 -0.3042  0.2502  0.2458
  324MPD2    C1 4864   3.959   2.786  14.014 -0.4160 -0.0793  0.1851
  324MPD2    C2 4865   3.861   2.886  14.007 -0.7548 -0.3872 -0.4689
  324MPD2    C3 4866   3.728   2.853  14.021 -0.5021  0.0868  0.4274
  324MPD2    C4 4867   3.697   2.725  14.068  0.0643  0.4676  0.3274
  324MPD2    C5 4868   3.793   2.626  14.075 -0.1252  0.4608  0.2960
  324MPD2     H 4869   3.889   2.988  13.982  0.2802 -0.5148  0.1759
  324MPD2    H1 4870   3.591   2.704  14.067  0.4171 -1.3540  0.0847
  324MPD2    H2 4871   3.986   2.573  14.036 -0.8712 -0.2167  0.9789
  324MPD2    H3 4872   3.776   2.525  14.110 -0.2197  0.1991 -0.5056
  324MPD2     N 4873   3.625   2.946  14.016  0.4945  0.3219  0.2313
  324MPD2    H5 4874   3.541   2.916  14.065  0.2182 -1.3529 -1.2483
  324MPD2    N1 4875   4.093   2.822  13.990 -0.6344  0.7283  0.0499
  324MPD2    H7 4876   4.104   2.919  13.962 -0.6409  0.5192 -0.6801
  325TMC3    C1 4877   3.513   3.151  14.012  0.7059 -0.1329 -0.6713
  325TMC3    C2 4878   3.389   3.091  13.994  0.3225  0.0524 -0.6315
  325TMC3    C3 4879   3.276   3.163  14.013  0.3978 -0.4416  0.3455
  325TMC3    C4 4880   3.524   3.282  14.034 -0.2702  0.2879  0.3761
  325TMC3    C5 4881   3.413   3.352  14.067 -0.4108 -0.1589  0.7044
  325TMC3    C6 4882   3.290   3.299  14.050  0.0512  0.1229  0.1749
  325TMC3     C 4883   3.635   3.077  13.981  0.4308 -0.2332 -0.3724
  325TMC3     O 4884   3.734   3.142  13.951  0.5671  0.1583  0.5469
  325TMC3     H 4885   3.374   2.992  13.953 -0.9180  0.3777 -0.9773
  325TMC3    H1 4886   3.623   3.323  14.055  0.6560 -3.0352  2.5718
  325TMC3    H2 4887   3.201   3.361  14.047  1.1388  1.7162  0.8947
  325TMC3    C7 4888   3.420   3.493  14.084 -0.4284 -0.0084 -0.2607
  325TMC3    C8 4889   3.149   3.112  13.965 -0.4294  0.1155 -0.8029
  325TMC3    O1 4890   3.318   3.558  14.068  0.3184 -0.1209 -0.5283
  325TMC3    O2 4891   3.154   3.016  13.892 -0.6028  0.2979 -0.1089
  326MPD2     C 4892   0.565   3.975  11.200 -0.0837 -0.0354  0.0329
  326MPD2    C1 4893   0.537   4.081  11.113  0.3755 -0.9963  0.8727
  326MPD2    C2 4894   0.631   4.168  11.059 -0.4484  0.6791 -0.1365
  326MPD2    C3 4895   0.765   4.138  11.084  0.2552 -1.0821  0.3842
  326MPD2    C4 4896   0.793   4.042  11.176  0.4902 -0.3695  0.2353
  326MPD2    C5 4897   0.699   3.965  11.234  0.6119  0.2337  0.4580
  326MPD2     H 4898   0.599   4.246  10.991 -0.9320 -1.6078 -2.5630
  326MPD2    H1 4899   0.896   4.034  11.208  0.9323  1.3260 -0.7156
  326MPD2    H2 4900   0.492   3.909  11.247  0.3864 -0.2793  0.4202
  326MPD2    H3 4901   0.724   3.885  11.303  0.9176  0.3355  0.4642
  326MPD2     N 4902   0.881   4.209  11.037 -0.0005  0.5229  0.1665
  326MPD2    H5 4903   0.976   4.179  11.060 -1.0408 -0.4700  3.1883
  326MPD2    N1 4904   0.405   4.111  11.077  0.0778  0.7892 -0.4730
  326MPD2    H7 4905   0.384   4.192  11.020 -1.3895  0.6361 -0.1578
  327TMC3    C1 4906   0.184   4.055  11.015 -0.2143  0.3722 -0.2524
  327TMC3    C2 4907   0.176   4.172  10.947 -0.1939 -0.0219 -0.3999
  327TMC3    C3 4908   0.142   4.167  10.813  0.3370 -0.9565 -0.5892
  327TMC3    C4 4909   0.178   3.937  10.946 -0.9441  0.7658  0.1133
  327TMC3    C5 4910   0.146   3.935  10.812  0.3217 -0.2821 -0.4698
  327TMC3    C6 4911   0.119   4.050  10.745 -0.2299  0.2170 -0.0704
  327TMC3     C 4912   0.293   4.042  11.114 -1.1847 -0.4331  0.0385
  327TMC3     O 4913   0.292   3.946  11.191  0.7932  0.2223 -0.4231
  327TMC3     H 4914   0.212   4.262  10.996 -0.4136 -0.4890  0.6135
  327TMC3    H1 4915   0.196   3.848  11.005  3.7985  1.5299 -0.2260
  327TMC3    H2 4916   0.105   4.050  10.637  3.0091 -1.2206 -0.4863
  327TMC3    C7 4917   0.256   3.867  10.745 -0.5900 -0.5884  0.1064
  327TMC3    C8 4918   0.233   4.247  10.732 -0.0064 -0.4969 -0.3361
  327TMC3    O1 4919   0.250   3.877  10.625 -0.5650 -0.1518 -0.1089
  327TMC3    O2 4920   0.201   4.364  10.709 -0.1959 -0.1665  0.2968
  328MPD2     C 4921   3.268   3.492  17.197 -0.4050  0.5140 -0.0002
  328MPD2    C1 4922   3.219   3.501  17.071  0.0671  0.0450 -0.3686
  328MPD2    C2 4923   3.192   3.622  17.019  0.3340  0.6132 -0.3005
  328MPD2    C3 4924   3.207   3.737  17.096  0.1763 -0.0374 -0.5160
  328MPD2    C4 4925   3.250   3.724  17.224 -0.4701  0.5111  0.0389
  328MPD2    C5 4926   3.288   3.601  17.271 -0.1339 -0.2573 -0.4288
  328MPD2     H 4927   3.150   3.629  16.920 -1.8472  2.1311  0.7236
  328MPD2    H1 4928   3.269   3.806  17.292  3.5500  1.0294 -1.7075
  328MPD2    H2 4929   3.273   3.391  17.237  0.8451  1.2167  1.6002
  328MPD2    H3 4930   3.341   3.588  17.365 -1.1438  0.7595  0.2874
  328MPD2     N 4931   3.201   3.865  17.045  0.1832  0.1036  0.3329
  328MPD2    H5 4932   3.218   3.942  17.109  1.0064  0.9979 -0.9578
  328MPD2    N1 4933   3.190   3.379  17.005  0.5030  0.1133  0.5852
  328MPD2    H7 4934   3.204   3.294  17.059 -1.9754  1.5557  3.5204
  329TMC3    C1 4935   3.124   3.223  16.830  0.2476  0.2186 -0.0879
  329TMC3    C2 4936   3.081   3.135  16.926 -0.2913 -0.6211 -0.1700
  329TMC3    C3 4937   3.030   3.022  16.882  0.2169 -0.4914 -0.1935
  329TMC3    C4 4938   3.115   3.195  16.695  0.6294 -0.5830  0.1931
  329TMC3    C5 4939   3.058   3.078  16.656 -0.0521 -0.4390 -0.1450
  329TMC3    C6 4940   3.020   2.985  16.745 -0.2084  0.9758 -0.1220
  329TMC3     C 4941   3.144   3.366  16.875  0.1099  0.1410  0.6017
  329TMC3     O 4942   3.127   3.448  16.788 -0.3759  0.0440 -0.3119
  329TMC3     H 4943   3.091   3.155  17.032 -1.8841  0.9696 -0.3306
  329TMC3    H1 4944   3.146   3.273  16.627  0.8286  0.3281  1.3315
  329TMC3    H2 4945   2.980   2.889  16.714  3.5368 -0.4043 -0.6864
  329TMC3    C7 4946   3.032   3.060  16.511  0.6274 -0.0776  0.3558
  329TMC3    C8 4947   2.947   2.944  16.979  0.6270  0.2697 -0.3925
  329TMC3    O1 4948   2.949   2.973  16.483  0.3492 -0.0446  0.1768
  329TMC3    O2 4949   2.940   2.826  16.950 -0.5640 -0.4370  0.4464
  330TMC3    C1 4950   0.937   4.035   9.067 -0.3829 -0.0121  0.0068
  330TMC3    C2 4951   0.819   3.975   9.115 -0.0318 -0.0502  1.0270
  330TMC3    C3 4952   0.813   3.840   9.113 -0.1063  0.1617  0.2792
  330TMC3    C4 4953   1.042   3.956   9.025 -0.0945 -0.3823  0.7091
  330TMC3    C5 4954   1.024   3.821   9.020  0.4285 -0.0824  0.1375
  330TMC3    C6 4955   0.916   3.759   9.076  0.1802  0.5025 -0.0241
  330TMC3     C 4956   0.972   4.181   9.085 -0.7275 -0.1882  0.7456
  330TMC3     O 4957   1.091   4.218   9.080 -0.3921 -0.1160  0.3559
  330TMC3     H 4958   0.734   4.024   9.163 -0.7552 -0.6306  0.3351
  330TMC3    H1 4959   1.130   4.006   8.986 -1.2181  2.1131  1.3615
  330TMC3    H2 4960   0.891   3.655   9.064  0.1076  0.2887  2.0387
  330TMC3    C7 4961   1.153   3.746   9.009 -0.4515 -0.6772  0.1086
  330TMC3    C8 4962   0.683   3.778   9.131 -0.1315  0.5031 -0.3391
  330TMC3    O1 4963   1.257   3.804   8.978  0.5418 -0.1926  0.4214
  330TMC3    O2 4964   0.591   3.847   9.093 -0.3624 -0.3349 -0.4274
  331MPD2     C 4965   3.528   2.446  13.033 -0.0344 -0.0633 -0.3024
  331MPD2    C1 4966   3.605   2.507  12.938  0.5198 -0.1725 -0.1492
  331MPD2    C2 4967   3.619   2.443  12.814  0.1900 -0.1037  0.1243
  331MPD2    C3 4968   3.559   2.326  12.791  0.2303  0.0436  0.6819
  331MPD2    C4 4969   3.491   2.263  12.892 -0.0450  0.3024 -0.0579
  331MPD2    C5 4970   3.478   2.321  13.012 -0.1333 -0.1761 -0.1567
  331MPD2     H 4971   3.674   2.483  12.729  0.8071  1.8614  1.4425
  331MPD2    H1 4972   3.426   2.177  12.880 -0.0845  0.2652  0.4585
  331MPD2    H2 4973   3.519   2.490  13.132 -3.3508 -0.7877 -0.2984
  331MPD2    H3 4974   3.409   2.290  13.089 -0.3931 -2.2761 -1.2526
  331MPD2     N 4975   3.566   2.276  12.660 -0.6741  0.2572  0.0113
  331MPD2    H5 4976   3.629   2.320  12.594  0.6578  0.3970  1.3807
  331MPD2    N1 4977   3.650   2.636  12.963  0.2650 -0.4288 -0.0064
  331MPD2    H7 4978   3.619   2.679  13.050  0.8134 -1.3491  0.6444
  332TMC3    C1 4979   3.540   2.115  12.481 -0.2146 -0.1027  0.2830
  332TMC3    C2 4980   3.590   2.212  12.397 -0.4405  0.3002 -0.1079
  332TMC3    C3 4981   3.685   2.182  12.301 -0.1869 -0.4006  0.8083
  332TMC3    C4 4982   3.589   1.985  12.471  0.1164  0.6365 -0.3624
  332TMC3    C5 4983   3.688   1.967  12.387  0.0298  0.3158 -0.0764
  332TMC3    C6 4984   3.744   2.057  12.305 -0.3087 -0.2881 -0.4191
  332TMC3     C 4985   3.499   2.156  12.615  0.9515 -0.3273 -0.2827
  332TMC3     O 4986   3.416   2.086  12.675 -0.0123 -0.7196  0.1858
  332TMC3     H 4987   3.548   2.312  12.400  0.5378  0.6634  1.7974
  332TMC3    H1 4988   3.559   1.901  12.533  1.2226 -0.2493 -1.0110
  332TMC3    H2 4989   3.823   2.030  12.236  0.8265 -2.1664  1.6338
  332TMC3    C7 4990   3.772   1.854  12.419  0.1385 -0.7907 -0.1593
  332TMC3    C8 4991   3.733   2.281  12.208 -0.5530  0.2974 -0.5921
  332TMC3    O1 4992   3.726   1.746  12.454 -0.1862 -0.8817  0.1277
  332TMC3    O2 4993   3.850   2.293  12.188  0.6233  0.4510 -0.0117
  333MPD2     C 4994   3.933   2.498  11.412 -0.3643 -0.1533 -0.2504
  333MPD2    C1 4995   3.985   2.400  11.336 -0.8386  0.6656  0.1338
  333MPD2    C2 4996   3.940   2.265  11.353 -0.5434  0.3554 -0.2098
  333MPD2    C3 4997   3.843   2.240  11.450 -0.3831  0.1099 -0.2128
  333MPD2    C4 4998   3.780   2.340  11.527  0.2260  0.0083 -0.7792
  333MPD2    C5 4999   3.834   2.466  11.508 -0.0481 -0.2501  0.4566
  333MPD2     H 5000   3.958   2.182  11.287  1.2359  0.5906 -0.0084
  333MPD2    H1 5001   3.697   2.334  11.597  1.4810  0.6886  0.7808
  333MPD2    H2 5002   3.971   2.598  11.399 -1.0733  0.0475 -0.7509
  333MPD2    H3 5003   3.794   2.547  11.568  0.1306  0.6907 -0.6823
  333MPD2     N 5004   3.805   2.106  11.474  0.6059  0.3795  0.3858
  333MPD2    H5 5005   3.867   2.037  11.432 -1.3662 -0.8932 -0.4240
  333MPD2    N1 5006   4.085   2.446  11.243  0.0126 -0.1301 -0.1164
  333MPD2    H7 5007   4.104   2.545  11.227 -0.0776 -0.1741 -0.4950
  334TMC3    C1 5008   4.281   2.409  11.104  0.3684 -0.0274  0.0787
  334TMC3    C2 5009   4.374   2.323  11.063  0.4579 -0.2422 -0.0038
  334TMC3    C3 5010   4.493   2.367  11.018 -0.0401 -0.0498  0.8504
  334TMC3    C4 5011   4.284   2.544  11.082  0.0870 -0.6689 -0.1742
  334TMC3    C5 5012   4.398   2.590  11.021  0.0731 -0.2459 -0.2683
  334TMC3    C6 5013   4.500   2.503  10.987 -0.3224  0.8086 -0.3158
  334TMC3     C 5014   4.168   2.353  11.177  0.4759  0.3094 -0.1377
  334TMC3     O 5015   4.171   2.231  11.187  0.4643 -0.4960 -0.1268
  334TMC3     H 5016   4.362   2.216  11.075 -0.0408 -0.2467 -0.5139
  334TMC3    H1 5017   4.197   2.605  11.106  0.7337  0.2104 -0.0912
  334TMC3    H2 5018   4.589   2.554  10.952 -1.1399  1.6909 -1.1148
  334TMC3    C7 5019   4.415   2.727  10.988  0.2018  0.2914  0.3161
  334TMC3    C8 5020   4.605   2.282  10.985 -0.2384 -0.4283 -0.9575
  334TMC3    O1 5021   4.497   2.751  10.900 -0.1447 -0.2138  0.9866
  334TMC3    O2 5022   4.596   2.167  11.023 -0.3934 -0.2973  0.4547
  335TMC3    C1 5023   3.763   4.542  17.299 -0.7645  0.5828 -0.2370
  335TMC3    C2 5024   3.720   4.447  17.208  0.0468 -0.1006  0.0378
  335TMC3    C3 5025   3.732   4.488  17.077  0.3340  0.6735  0.0137
  335TMC3    C4 5026   3.832   4.658  17.264 -0.4343 -0.1206 -0.5118
  335TMC3    C5 5027   3.844   4.684  17.126  0.8790  0.0484  0.3196
  335TMC3    C6 5028   3.793   4.603  17.037  0.0931 -0.0232  0.1301
  335TMC3     C 5029   3.717   4.546  17.435  0.0361 -0.9005 -0.4624
  335TMC3     O 5030   3.711   4.655  17.489  0.5964  0.3299 -0.2208
  335TMC3     H 5031   3.663   4.363  17.246  0.0080  0.8353  2.0447
  335TMC3    H1 5032   3.883   4.708  17.345 -0.4614 -2.2268  0.8074
  335TMC3    H2 5033   3.802   4.635  16.934 -1.9222 -2.1344 -0.6694
  335TMC3    C7 5034   3.946   0.049  17.078  0.2490  0.3182 -0.3404
  335TMC3    C8 5035   3.712   4.403  16.966  0.0034  0.2706  0.4762
  335TMC3    O1 5036   3.980   0.037  16.961  0.4812  0.1685 -0.1778
  335TMC3    O2 5037   3.734   4.442  16.854 -0.2680 -0.3421  0.4587
  336MPD2     C 5038   3.342   2.119  16.355 -0.2692 -0.0225 -0.3518
  336MPD2    C1 5039   3.392   2.066  16.235  0.1652 -0.1498  0.1148
  336MPD2    C2 5040   3.417   1.932  16.237 -0.0634  0.3160 -0.2160
  336MPD2    C3 5041   3.390   1.855  16.348  0.1207 -0.0905  0.4745
  336MPD2    C4 5042   3.342   1.911  16.464 -0.4356 -0.2969  0.7096
  336MPD2    C5 5043   3.310   2.045  16.468 -0.4909 -0.9299  0.7224
  336MPD2     H 5044   3.445   1.882  16.144 -0.0974  1.3893 -0.8029
  336MPD2    H1 5045   3.313   1.852  16.550 -0.0533 -0.8610  0.4489
  336MPD2    H2 5046   3.313   2.223  16.367  0.1483  0.2356 -1.5066
  336MPD2    H3 5047   3.262   2.094  16.552 -0.3843  2.6082 -1.2959
  336MPD2     N 5048   3.409   1.712  16.351  0.6288  0.1938 -0.0874
  336MPD2    H5 5049   3.373   1.658  16.429  0.1463 -0.1467 -0.5462
  336MPD2    N1 5050   3.416   2.141  16.112  0.9630  0.2017  0.3245
  336MPD2    H7 5051   3.456   2.083  16.039  1.9784  0.5402  0.6091
  337TMC3    C1 5052   3.384   2.320  15.952  0.4149  0.1406  0.3583
  337TMC3    C2 5053   3.268   2.373  15.907 -0.1123  0.2485 -0.5057
  337TMC3    C3 5054   3.243   2.374  15.772 -0.5896  0.3449  0.5102
  337TMC3    C4 5055   3.478   2.264  15.870 -0.2038  0.1132  0.2502
  337TMC3    C5 5056   3.448   2.260  15.737  0.0787  0.4815 -0.7765
  337TMC3    C6 5057   3.335   2.323  15.689  1.0875  0.5145  0.3567
  337TMC3     C 5058   3.376   2.275  16.089 -0.7094 -0.9536 -0.8666
  337TMC3     O 5059   3.316   2.351  16.161  0.0902  0.1370 -0.2228
  337TMC3     H 5060   3.192   2.420  15.969  1.4940 -0.5408  2.0328
  337TMC3    H1 5061   3.582   2.267  15.902 -0.0870 -0.4722 -0.0705
  337TMC3    H2 5062   3.327   2.351  15.584 -0.2168  0.1473  0.3593
  337TMC3    C7 5063   3.546   2.208  15.647  0.3424  0.4063  0.2490
  337TMC3    C8 5064   3.126   2.445  15.730  0.2564 -0.3946  0.4416
  337TMC3    O1 5065   3.521   2.236  15.530  0.0161 -0.2984  0.3170
  337TMC3    O2 5066   3.064   2.506  15.818 -0.2619  0.4712  0.2975
  338MPD2     C 5067   3.476   0.952   1.401  0.1525 -0.5106 -0.8895
  338MPD2    C1 5068   3.435   1.034   1.298 -0.0275  0.2427  0.1443
  338MPD2    C2 5069   3.375   1.157   1.331 -0.5809  0.5696 -0.1039
  338MPD2    C3 5070   3.351   1.193   1.464 -0.2704  0.8202 -0.4014
  338MPD2    C4 5071   3.374   1.099   1.562 -0.2756 -0.3323 -0.1211
  338MPD2    C5 5072   3.442   0.985   1.522 -0.2626 -0.7800 -0.7994
  338MPD2     H 5073   3.344   1.221   1.249 -1.1064  1.2718  0.6448
  338MPD2    H1 5074   3.361   1.101   1.669 -2.9635 -0.2986 -0.4500
  338MPD2    H2 5075   3.523   0.856   1.384  1.1082 -0.0087 -1.1014
  338MPD2    H3 5076   3.467   0.912   1.598  1.0620  0.6325  0.1273
  338MPD2     N 5077   3.274   1.316   1.484  0.1785 -0.0272  0.2087
  338MPD2    H5 5078   3.262   1.378   1.404 -0.3363  0.2175  0.4737
  338MPD2    N1 5079   3.465   1.013   1.165  1.4357  0.3182  0.2297
  338MPD2    H7 5080   3.433   1.088   1.104 -0.9021  0.3026  1.4483
  339TMC3    C1 5081   3.137   1.475   1.581  0.1149  0.2782  0.0631
  339TMC3    C2 5082   3.019   1.481   1.655  0.6032 -0.0078  0.1536
  339TMC3    C3 5083   2.932   1.583   1.627 -0.3035  0.4850  0.3761
  339TMC3    C4 5084   3.172   1.573   1.490 -0.4765 -0.9603 -0.8477
  339TMC3    C5 5085   3.083   1.673   1.465 -0.2155  0.4989 -0.0754
  339TMC3    C6 5086   2.958   1.677   1.528 -0.3904  0.1010  0.0431
  339TMC3     C 5087   3.216   1.355   1.602  0.2324  0.5924 -0.1928
  339TMC3     O 5088   3.204   1.291   1.708 -0.1955 -0.2835 -0.5218
  339TMC3     H 5089   2.999   1.404   1.730  2.4070 -1.3946 -0.7981
  339TMC3    H1 5090   3.262   1.560   1.431  0.5825  1.1188  0.3415
  339TMC3    H2 5091   2.895   1.765   1.517 -1.6346 -0.9222 -0.9938
  339TMC3    C7 5092   3.089   1.757   1.352 -0.0559 -0.4882  0.3793
  339TMC3    C8 5093   2.793   1.575   1.665  0.3794  0.2873  0.0443
  339TMC3    O1 5094   2.981   1.776   1.295  0.1505 -0.4478 -0.1621
  339TMC3    O2 5095   2.712   1.662   1.635  0.2099 -0.2881 -0.0009
  340MPD2     C 5096   4.670   3.125   8.957  0.4329  0.4103  0.6597
  340MPD2    C1 5097   4.560   3.171   9.036 -0.8164  0.3740 -0.2015
  340MPD2    C2 5098   4.547   3.309   9.068 -0.0001  0.3805  0.1262
  340MPD2    C3 5099   4.646   3.392   9.019  0.6841 -0.2184 -0.0547
  340MPD2    C4 5100   0.029   3.337   8.948  0.2910 -0.1398  0.4314
  340MPD2    C5 5101   0.037   3.212   8.910  0.6170 -0.1276  0.1045
  340MPD2     H 5102   4.473   3.359   9.129 -1.7956 -1.3722 -0.6234
  340MPD2    H1 5103   0.117   3.399   8.935 -0.2044  1.2371  3.7479
  340MPD2    H2 5104   4.682   3.021   8.930  0.2769  0.2694  1.1206
  340MPD2    H3 5105   0.127   3.185   8.856 -0.5261 -0.9296 -1.3882
  340MPD2     N 5106   4.652   3.528   9.059 -0.7655 -0.0593 -0.7764
  340MPD2    H5 5107   0.018   3.574   9.071 -0.3284 -1.0584 -0.2221
  340MPD2    N1 5108   4.460   3.077   9.068  0.1860 -0.5409  0.0026
  340MPD2    H7 5109   4.476   2.982   9.037  0.2111 -0.2081 -0.9774
  341TMC3    C1 5110   4.263   2.993   9.149 -0.5416 -0.5909  0.6265
  341TMC3    C2 5111   4.128   3.020   9.146 -0.4067  0.0441 -0.3662
  341TMC3    C3 5112   4.051   2.923   9.199  0.3730  0.4836 -0.0900
  341TMC3    C4 5113   4.318   2.880   9.202  0.3225  0.5106  0.2533
  341TMC3    C5 5114   4.230   2.778   9.236  0.1166  0.1850 -0.4959
  341TMC3    C6 5115   4.098   2.804   9.243  0.1267 -0.2754  0.1821
  341TMC3     C 5116   4.341   3.107   9.126  0.0751  0.0643 -0.0952
  341TMC3     O 5117   4.290   3.215   9.150  0.2846 -0.2176  0.2554
  341TMC3     H 5118   4.084   3.119   9.142  1.8413  1.1400  1.3591
  341TMC3    H1 5119   4.424   2.858   9.197 -0.1935 -1.1226 -3.8314
  341TMC3    H2 5120   4.043   2.729   9.300  0.2890 -0.5096  0.0284
  341TMC3    C7 5121   4.268   2.658   9.313 -0.2269  0.0474 -0.5936
  341TMC3    C8 5122   3.940   2.986   9.274  0.0411  0.0720 -0.2254
  341TMC3    O1 5123   4.322   2.680   9.421 -0.2651  0.0351 -0.2759
  341TMC3    O2 5124   3.940   3.106   9.309  0.2252  0.0568  0.4955
  342MPD2     C 5125   1.737   1.842  16.755 -0.6574  0.7755  0.4302
  342MPD2    C1 5126   1.726   1.841  16.885  0.7316  0.1909 -0.2451
  342MPD2    C2 5127   1.738   1.964  16.936  0.4369  0.4305  0.7093
  342MPD2    C3 5128   1.741   2.080  16.864 -0.7095 -0.1286  0.5113
  342MPD2    C4 5129   1.745   2.076  16.727  0.9738 -0.6124  0.1565
  342MPD2    C5 5130   1.750   1.955  16.672  0.4034 -0.8409  0.5378
  342MPD2     H 5131   1.742   1.968  17.044 -1.6296  0.5328  0.7803
  342MPD2    H1 5132   1.756   2.166  16.668 -1.5325 -0.5449 -0.1718
  342MPD2    H2 5133   1.738   1.753  16.692 -0.4577  2.0226 -1.3381
  342MPD2    H3 5134   1.765   1.948  16.565 -0.4414  2.9153  0.1871
  342MPD2     N 5135   1.738   2.208  16.915 -0.3266 -0.9273  0.2206
  342MPD2    H5 5136   1.755   2.284  16.851 -2.5251  0.3969  1.2195
  342MPD2    N1 5137   1.728   1.726  16.964 -0.3521 -0.3148  0.2470
  342MPD2    H7 5138   1.740   1.736  17.064  1.8713 -0.7529  0.0242
  343TMC3    C1 5139   1.709   1.513  17.032 -1.0591 -0.0159  0.0422
  343TMC3    C2 5140   1.811   1.536  17.122 -0.2529 -0.0898  0.0470
  343TMC3    C3 5141   1.806   1.444  17.227  0.0452 -0.5461 -0.0855
  343TMC3    C4 5142   1.609   1.419  17.042  0.2269 -0.0220  0.5577
  343TMC3    C5 5143   1.599   1.343  17.156 -0.4590  0.4515 -0.3740
  343TMC3    C6 5144   1.707   1.356  17.239 -0.2334 -0.3868  0.4476
  343TMC3     C 5145   1.703   1.603  16.916 -0.4455 -0.2690 -0.0677
  343TMC3     O 5146   1.666   1.560  16.806 -0.1900 -0.3576  0.0194
  343TMC3     H 5147   1.900   1.593  17.097 -1.3393  1.8098  0.5411
  343TMC3    H1 5148   1.548   1.408  16.953 -3.3761 -0.4279  3.0707
  343TMC3    H2 5149   1.730   1.277  17.311 -2.4231 -0.1930  1.3456
  343TMC3    C7 5150   1.508   1.231  17.149 -0.1711 -0.4164  0.3128
  343TMC3    C8 5151   1.936   1.410  17.280  0.0126  0.1930 -0.1671
  343TMC3    O1 5152   1.440   1.213  17.047  0.6221 -0.9863  0.0581
  343TMC3    O2 5153   1.949   1.420  17.401  0.1598  0.4047 -0.1706
  344MPD2     C 5154   3.117   2.267  10.794 -0.2963 -0.1499 -0.5576
  344MPD2    C1 5155   3.078   2.196  10.686  0.4395 -0.0284 -0.4104
  344MPD2    C2 5156   3.107   2.244  10.557 -0.3191  0.1583  0.0055
  344MPD2    C3 5157   3.172   2.364  10.531  0.5096  0.0654 -0.1932
  344MPD2    C4 5158   3.211   2.435  10.645 -0.3947  0.3457  0.3699
  344MPD2    C5 5159   3.183   2.387  10.768  0.0967  0.2785  0.6197
  344MPD2     H 5160   3.098   2.179  10.471  1.5454  2.4155 -1.9130
  344MPD2    H1 5161   3.276   2.522  10.645 -0.4686  0.4077 -0.8508
  344MPD2    H2 5162   3.092   2.243  10.896  0.7932 -0.3597 -0.3449
  344MPD2    H3 5163   3.191   2.448  10.857  0.8625  0.2932  0.5426
  344MPD2     N 5164   3.213   2.412  10.408  0.0293 -0.4535  0.0562
  344MPD2    H5 5165   3.282   2.486  10.412  0.1871 -0.6256  0.5252
  344MPD2    N1 5166   3.007   2.071  10.697 -0.4244 -0.4836 -0.1760
  344MPD2    H7 5167   2.977   2.025  10.611 -1.2615  1.6732 -1.0332
  345TMC3    C1 5168   3.219   2.441  10.184 -0.6729  0.3443  0.9522
  345TMC3    C2 5169   3.352   2.474  10.210 -0.1204  0.0952  0.4534
  345TMC3    C3 5170   3.406   2.553  10.115 -0.1169 -0.1735  0.3441
  345TMC3    C4 5171   3.147   2.479  10.077  1.0953 -0.8173  0.2279
  345TMC3    C5 5172   3.204   2.563   9.990 -0.3692 -0.1003 -0.4092
  345TMC3    C6 5173   3.331   2.607  10.009 -0.1342 -0.0610  0.4199
  345TMC3     C 5174   3.152   2.380  10.292  0.1981  0.5135 -0.0179
  345TMC3     O 5175   3.051   2.312  10.275 -0.5290  0.0482  0.8197
  345TMC3     H 5176   3.414   2.430  10.287 -0.1326  0.1703  0.5061
  345TMC3    H1 5177   3.051   2.430  10.064  0.9285 -0.4365  0.0388
  345TMC3    H2 5178   3.379   2.681   9.948  1.1002  0.6789  2.2872
  345TMC3    C7 5179   3.112   2.662   9.921 -0.4419  0.4092 -0.4056
  345TMC3    C8 5180   3.537   2.608  10.154 -0.5206  0.5549  0.6214
  345TMC3    O1 5181   3.170   2.762   9.882  0.0221  0.0257  0.4054
  345TMC3    O2 5182   3.559   2.607  10.271  0.0390 -0.9529  0.4629
  346MPD2     C 5183   2.380   3.832  14.394  1.1660 -0.3964 -0.1276
  346MPD2    C1 5184   2.477   3.801  14.307  0.0528 -0.5680 -0.0996
  346MPD2    C2 5185   2.611   3.818  14.337  0.1577  0.1878  0.6897
  346MPD2    C3 5186   2.644   3.861  14.460 -0.7634 -0.3085 -0.2285
  346MPD2    C4 5187   2.545   3.888  14.555 -0.7718  0.3752 -0.0412
  346MPD2    C5 5188   2.412   3.863  14.525 -0.2178  0.4767 -0.2086
  346MPD2     H 5189   2.685   3.777  14.269  0.1438 -0.3953  1.0198
  346MPD2    H1 5190   2.564   3.932  14.652  1.0699 -2.6051  0.9693
  346MPD2    H2 5191   2.272   3.824  14.387  0.8999  4.3132 -1.0801
  346MPD2    H3 5192   2.331   3.893  14.590 -0.1516 -0.2561  0.2151
  346MPD2     N 5193   2.784   3.888  14.479  0.3218 -0.0287  0.1460
  346MPD2    H5 5194   2.850   3.847  14.412  1.6287  0.8219  0.9079
  346MPD2    N1 5195   2.451   3.744  14.182 -0.1995 -0.1338 -0.1128
  346MPD2    H7 5196   2.536   3.725  14.129  1.8964 -2.0840  3.9326
  347TMC3    C1 5197   2.979   3.984  14.562  0.0112 -0.2028  0.6840
  347TMC3    C2 5198   3.035   3.970  14.441  0.4853  0.3760 -0.2209
  347TMC3    C3 5199   3.170   3.990  14.437 -0.0450  0.2363 -0.1882
  347TMC3    C4 5200   3.044   4.019  14.675  0.5383 -0.4302  0.6624
  347TMC3    C5 5201   3.176   4.040  14.675  0.0037 -0.4224 -0.7508
  347TMC3    C6 5202   3.242   4.022  14.553 -0.5196  1.6007 -0.2683
  347TMC3     C 5203   2.837   3.955  14.584  0.2574 -0.0593 -0.0926
  347TMC3     O 5204   2.787   3.981  14.696 -0.3243 -0.3646 -0.3039
  347TMC3     H 5205   2.978   3.941  14.353  0.0656 -0.9074  0.4745
  347TMC3    H1 5206   2.991   4.028  14.770 -2.2496  0.2523 -0.9530
  347TMC3    H2 5207   3.350   4.013  14.553 -0.6985 -0.4645 -0.0918
  347TMC3    C7 5208   3.239   3.983  14.791  0.6928  0.6693 -0.2063
  347TMC3    C8 5209   3.237   3.931  14.325 -0.1684  0.1739 -0.3609
  347TMC3    O1 5210   3.165   3.933  14.871  0.0078 -0.5574 -0.5958
  347TMC3    O2 5211   3.176   3.860  14.254  0.4844 -0.1955  0.2415
  348MPD2     C 5212   1.269   2.852  12.049  0.3927  0.8842  0.1573
  348MPD2    C1 5213   1.352   2.960  12.042 -0.4789  0.5954  0.2112
  348MPD2    C2 5214   1.343   3.050  11.939 -0.3059  0.0286  0.7092
  348MPD2    C3 5215   1.262   3.024  11.832  0.0557  0.2574 -0.0524
  348MPD2    C4 5216   1.187   2.908  11.841  0.3320 -0.7831 -0.2723
  348MPD2    C5 5217   1.181   2.832  11.954  0.1347 -0.0357  0.3195
  348MPD2     H 5218   1.412   3.134  11.947 -0.8767  0.6297 -0.7774
  348MPD2    H1 5219   1.121   2.877  11.761 -0.3755 -1.2580  0.4890
  348MPD2    H2 5220   1.268   2.778  12.128  1.0234 -0.7699 -1.3775
  348MPD2    H3 5221   1.117   2.745  11.961  1.5346 -1.1294 -0.7122
  348MPD2     N 5222   1.250   3.114  11.730 -0.0989 -0.0156  0.2708
  348MPD2    H5 5223   1.319   3.189  11.733  0.2620 -0.4185  2.0685
  348MPD2    N1 5224   1.445   2.980  12.144  0.1368 -0.3273 -0.0911
  348MPD2    H7 5225   1.502   3.063  12.143  0.9003 -0.8644 -2.3676
  349TMC3    C1 5226   1.606   2.929  12.312 -0.3264 -0.2117  0.1107
  349TMC3    C2 5227   1.666   2.828  12.385  0.0488 -0.5831  0.0517
  349TMC3    C3 5228   1.797   2.796  12.358  0.1167  0.0181 -0.0196
  349TMC3    C4 5229   1.693   3.027  12.259 -0.1958  0.1757 -0.3828
  349TMC3    C5 5230   1.821   2.994  12.224  0.7946  0.6183 -0.8082
  349TMC3    C6 5231   1.871   2.878  12.275  0.8000 -0.4109 -0.4585
  349TMC3     C 5232   1.491   2.894  12.239 -0.2763 -0.4336  0.7954
  349TMC3     O 5233   1.442   2.787  12.270 -0.0414  0.1397 -0.1061
  349TMC3     H 5234   1.600   2.752  12.426 -0.7814  1.1911  2.0170
  349TMC3    H1 5235   1.658   3.118  12.212 -0.3424  0.9045  1.1414
  349TMC3    H2 5236   1.970   2.847  12.244  1.0986 -1.1517  1.2614
  349TMC3    C7 5237   1.816   2.982  12.084 -0.3491 -0.2264 -0.1928
  349TMC3    C8 5238   1.823   2.660  12.377 -0.3844  0.2870 -0.1292
  349TMC3    O1 5239   1.820   2.868  12.043  0.2729 -0.4509 -1.0484
  349TMC3    O2 5240   1.758   2.596  12.462 -0.0629 -0.1229  0.5693
  350MPD2     C 5241   0.871   1.203   9.796  1.7716 -0.0454 -0.5309
  350MPD2    C1 5242   0.904   1.092   9.869 -0.2272 -0.6739  0.8865
  350MPD2    C2 5243   1.039   1.067   9.887 -0.2307  0.6411  0.1961
  350MPD2    C3 5244   1.140   1.142   9.843 -0.1231  0.2341 -0.0845
  350MPD2    C4 5245   1.104   1.258   9.780  0.9751  0.0532 -0.0296
  350MPD2    C5 5246   0.970   1.286   9.756  0.4148  0.1567  0.1908
  350MPD2     H 5247   1.065   0.980   9.946  0.9447  1.0996  0.3560
  350MPD2    H1 5248   1.184   1.324   9.748  0.5892  2.0189  3.1329
  350MPD2    H2 5249   0.771   1.240   9.774  1.8109 -0.0101 -0.6496
  350MPD2    H3 5250   0.946   1.377   9.702 -1.2695 -0.7238 -0.5442
  350MPD2     N 5251   1.266   1.103   9.884 -0.3758  0.3405 -0.7845
  350MPD2    H5 5252   1.264   1.015   9.934  0.5265 -1.3342 -3.6974
  350MPD2    N1 5253   0.810   1.011   9.930  1.1304 -0.6505  0.6020
  350MPD2    H7 5254   0.848   0.926   9.970  1.5458 -0.5889  0.3366
  351TMC3    C1 5255   0.618   0.914  10.003 -0.0760  0.0679  0.3340
  351TMC3    C2 5256   0.668   0.784   9.980  0.7663 -1.2435  0.7321
  351TMC3    C3 5257   0.611   0.673  10.036  0.6410  0.4015 -0.2188
  351TMC3    C4 5258   0.496   0.926  10.067  0.3750 -0.1838 -0.6197
  351TMC3    C5 5259   0.438   0.811  10.105  0.7575 -1.1779 -0.2825
  351TMC3    C6 5260   0.487   0.683  10.096 -0.3180 -0.6382  0.3841
  351TMC3     C 5261   0.675   1.026   9.944 -0.3681  0.7054 -0.2775
  351TMC3     O 5262   0.605   1.126   9.924 -0.2355  0.4169 -0.4373
  351TMC3     H 5263   0.769   0.770   9.941  0.8948  2.0729 -0.1532
  351TMC3    H1 5264   0.441   1.019  10.063 -0.0427 -0.3649  0.9773
  351TMC3    H2 5265   0.462   0.613  10.176 -0.7004  1.4653  2.0880
  351TMC3    C7 5266   0.322   0.832  10.187  0.1243  0.5568  0.5060
  351TMC3    C8 5267   0.655   0.551   9.978  0.8034 -0.0126 -0.4186
  351TMC3    O1 5268   0.310   0.945  10.238  0.3148  0.2951  0.1263
  351TMC3    O2 5269   0.765   0.548   9.924 -0.0864  0.2958 -0.0317
  352MPD2     C 5270   2.618   2.905   0.921  0.1765  0.6124 -0.4374
  352MPD2    C1 5271   2.754   2.945   0.940  0.3213 -0.0271 -0.0009
  352MPD2    C2 5272   2.836   2.862   1.013  0.7124 -0.2569  0.4971
  352MPD2    C3 5273   2.789   2.736   1.057 -0.4169 -0.2296 -0.5932
  352MPD2    C4 5274   2.657   2.703   1.035 -0.4725  0.2222  0.0564
  352MPD2    C5 5275   2.571   2.787   0.970  0.0295 -0.2440 -0.4948
  352MPD2     H 5276   2.941   2.885   1.028  1.4652 -3.1447 -0.4045
  352MPD2    H1 5277   2.617   2.607   1.067  0.0030  0.5864  1.7314
  352MPD2    H2 5278   2.545   2.970   0.874  0.2864  1.8894  1.1473
  352MPD2    H3 5279   2.467   2.758   0.970 -0.3114  0.9774 -0.0275
  352MPD2     N 5280   2.869   2.635   1.109 -0.0054  0.0794 -0.2027
  352MPD2    H5 5281   2.808   2.560   1.142  0.8170  0.3324  1.8947
  352MPD2    N1 5282   2.795   3.070   0.884 -0.6010  0.3991  0.1978
  352MPD2    H7 5283   2.720   3.120   0.837 -0.4324 -0.8518 -1.3873
  353TMC3    C1 5284   3.073   2.509   1.153  0.4129 -0.7227 -0.0422
  353TMC3    C2 5285   3.203   2.513   1.197  0.1934 -0.5110  0.4359
  353TMC3    C3 5286   3.271   2.393   1.195  0.4110 -0.2358 -0.7743
  353TMC3    C4 5287   3.001   2.396   1.109 -0.4535  0.2680 -0.3912
  353TMC3    C5 5288   3.079   2.280   1.105 -0.7511  0.0682  1.0874
  353TMC3    C6 5289   3.207   2.277   1.153 -0.3980  0.4383  0.1045
  353TMC3     C 5290   3.010   2.636   1.127  0.0855  0.4295 -0.2204
  353TMC3     O 5291   3.084   2.723   1.084 -0.3444  0.3510 -0.7722
  353TMC3     H 5292   3.261   2.601   1.223 -0.3398  0.1218 -0.5424
  353TMC3    H1 5293   2.909   2.405   1.053  0.4019 -1.1422 -2.0114
  353TMC3    H2 5294   3.263   2.185   1.162 -0.8106  0.2804  1.0185
  353TMC3    C7 5295   3.052   2.200   0.989 -0.9045 -0.9860 -0.1725
  353TMC3    C8 5296   3.414   2.392   1.221 -0.1922  0.4078 -0.9482
  353TMC3    O1 5297   3.141   2.195   0.904  0.1132  0.5581 -0.6569
  353TMC3    O2 5298   3.459   2.474   1.303  0.0433 -0.0973 -0.3204
  354TMC3    C1 5299   0.333   4.656  13.306  0.0674  0.3627  0.8863
  354TMC3    C2 5300   0.370   0.064  13.332 -0.5149  0.1085 -0.2820
  354TMC3    C3 5301   0.403   0.134  13.218 -0.2757 -0.0688 -0.3453
  354TMC3    C4 5302   0.324   4.604  13.189 -0.2689 -0.2068 -0.2413
  354TMC3    C5 5303   0.375   4.669  13.080  0.0025 -1.5673  0.1384
  354TMC3    C6 5304   0.421   0.072  13.094  0.4852  0.8181 -0.8372
  354TMC3     C 5305   0.335   4.555  13.413  0.1428 -0.4774 -0.2195
  354TMC3     O 5306   0.268   4.454  13.402  0.2485  0.2430  0.4012
  354TMC3     H 5307   0.349   0.116  13.425  0.6191 -1.7473  1.0206
  354TMC3    H1 5308   0.298   4.499  13.183  0.9054 -0.5928  1.4401
  354TMC3    H2 5309   0.447   0.138  13.012  1.0059  1.7263  0.0551
  354TMC3    C7 5310   0.412   4.587  12.966 -0.0701  0.1632 -0.1401
  354TMC3    C8 5311   0.496   0.243  13.228  0.4159  0.1589 -0.4059
  354TMC3    O1 5312   0.370   4.472  12.961  0.7019  0.1390  0.1521
  354TMC3    O2 5313   0.468   0.329  13.144 -0.8750  0.3888  0.2740
  355MPD2     C 5314   1.603   0.129  11.980  0.6085 -0.4299 -0.1093
  355MPD2    C1 5315   1.563   0.186  11.864  0.1881  0.4515 -0.3736
  355MPD2    C2 5316   1.664   0.216  11.775 -0.0304  0.2727  0.2556
  355MPD2    C3 5317   1.798   0.214  11.816 -0.1090  0.4732  0.1391
  355MPD2    C4 5318   1.827   0.148  11.928  0.2898  0.0858  0.1022
  355MPD2    C5 5319   1.731   0.106  12.014 -0.1021  1.2624  0.1854
  355MPD2     H 5320   1.633   0.267  11.684 -1.3402 -1.2161 -0.1380
  355MPD2    H1 5321   1.929   0.148  11.965 -0.2534  1.3622  1.6144
  355MPD2    H2 5322   1.540   0.103  12.064  0.7568  0.6741  0.3450
  355MPD2    H3 5323   1.754   0.064  12.111  0.9800  3.1091  0.7215
  355MPD2     N 5324   1.895   0.278  11.744 -0.0142 -0.0886  0.5044
  355MPD2    H5 5325   1.973   0.303  11.804  0.2957 -2.2498  0.9958
  355MPD2    N1 5326   1.434   0.222  11.831  0.5496 -0.8748 -0.6391
  355MPD2    H7 5327   1.424   0.245  11.732  0.3771 -1.4657 -0.7613
  356TMC3    C1 5328   1.938   0.482  11.625  0.6660 -0.0020  0.7627
  356TMC3    C2 5329   1.961   0.552  11.508 -0.3953  0.0885 -0.7175
  356TMC3    C3 5330   1.997   0.683  11.517  0.8276  0.3901  0.5519
  356TMC3    C4 5331   1.948   0.546  11.745  0.0420  0.0306 -0.0424
  356TMC3    C5 5332   1.974   0.679  11.747  0.1929 -1.0634 -0.4657
  356TMC3    C6 5333   2.007   0.752  11.636 -0.6265  0.2489 -0.5643
  356TMC3     C 5334   1.881   0.339  11.621 -0.0290  0.0506  0.0308
  356TMC3     O 5335   1.811   0.303  11.526 -0.2607 -0.4249  0.1916
  356TMC3     H 5336   1.933   0.514  11.410  0.1035 -0.9867 -0.4392
  356TMC3    H1 5337   1.933   0.492  11.837  0.9657 -0.1566  0.0024
  356TMC3    H2 5338   2.025   0.858  11.646  1.6982 -0.3776  1.8466
  356TMC3    C7 5339   1.967   0.747  11.884  0.3228  1.0432 -1.1625
  356TMC3    C8 5340   2.023   0.759  11.393  0.3864  0.3772  0.0916
  356TMC3    O1 5341   1.975   0.668  11.978 -0.1016  1.0632  0.0254
  356TMC3    O2 5342   1.981   0.704  11.295  0.6940  0.0370  0.2258
  357MPD2     C 5343   0.112   0.350   0.909 -0.1808  1.0074 -0.0962
  357MPD2    C1 5344   0.231   0.376   0.966  0.1453  0.4655 -0.6057
  357MPD2    C2 5345   0.263   0.501   1.007  0.5802 -0.1522 -0.6164
  357MPD2    C3 5346   0.171   0.605   1.003 -0.1770  0.4903 -0.5647
  357MPD2    C4 5347   0.043   0.582   0.947  0.2895  0.3518 -0.2313
  357MPD2    C5 5348   0.022   0.452   0.898 -0.7850  0.0597 -0.1013
  357MPD2     H 5349   0.351   0.527   1.065 -0.4078  0.5536  0.5684
  357MPD2    H1 5350   4.693   0.661   0.947 -0.1619 -0.0757 -1.2920
  357MPD2    H2 5351   0.079   0.251   0.878  0.6591  0.2242  1.5037
  357MPD2    H3 5352   4.650   0.437   0.849 -0.2517 -1.2058 -0.7668
  357MPD2     N 5353   0.179   0.729   1.068  0.0083  0.6317  0.4659
  357MPD2    H5 5354   0.091   0.779   1.077 -0.7486 -0.7244  0.4582
  357MPD2    N1 5355   0.325   0.274   0.977  0.7252  0.7144 -0.0642
  357MPD2    H7 5356   0.288   0.184   0.947  2.2180 -0.5475  1.9194
  358TMC3    C1 5357   0.525   0.164   0.999 -0.4982  0.0667  0.6353
  358TMC3    C2 5358   0.525   0.127   0.866  0.3253 -0.3084  0.6314
  358TMC3    C3 5359   0.639   0.068   0.810 -0.0315 -0.0675  0.5306
  358TMC3    C4 5360   0.641   0.155   1.070 -0.1073 -0.4471  0.1388
  358TMC3    C5 5361   0.753   0.101   1.011  0.4340  0.4354  0.7068
  358TMC3    C6 5362   0.755   0.051   0.882 -0.0870 -0.7217 -0.5747
  358TMC3     C 5363   0.444   0.279   1.040  0.4469  0.1495  0.4633
  358TMC3     O 5364   0.495   0.366   1.111 -0.1508  1.0035  0.0263
  358TMC3     H 5365   0.445   0.161   0.801 -0.7663 -1.6098  1.2649
  358TMC3    H1 5366   0.630   0.172   1.176 -1.8357  1.4325 -0.3368
  358TMC3    H2 5367   0.846   0.030   0.828  0.6733  0.7894  0.1258
  358TMC3    C7 5368   0.874   0.152   1.068 -0.0267 -0.7108  0.0917
  358TMC3    C8 5369   0.624   4.717   0.686 -0.3224 -0.2252 -0.2463
  358TMC3    O1 5370   0.976   0.099   1.029  0.4741 -0.5217 -0.8131
  358TMC3    O2 5371   0.520   0.006   0.623 -0.6092 -0.1681  0.8471
  359MPD2     C 5372   0.965   4.036  12.767  1.1524 -0.7210  0.1625
  359MPD2    C1 5373   0.894   3.966  12.674  0.7030  0.7593 -0.2266
  359MPD2    C2 5374   0.753   3.946  12.676  0.0800 -0.0555 -0.6715
  359MPD2    C3 5375   0.685   3.997  12.791  0.4407  0.1293  0.6759
  359MPD2    C4 5376   0.754   4.055  12.894  0.6374 -0.8674  0.3790
  359MPD2    C5 5377   0.892   4.067  12.881  0.4026  0.2267 -0.5375
  359MPD2     H 5378   0.708   3.881  12.601  1.8059 -0.1963 -1.5863
  359MPD2    H1 5379   0.703   4.099  12.978  3.5552 -0.8391  2.1280
  359MPD2    H2 5380   1.068   4.066  12.754  1.5994 -2.3899 -0.0588
  359MPD2    H3 5381   0.942   4.121  12.961 -3.4147 -1.0704  2.7406
  359MPD2     N 5382   0.543   3.974  12.804 -0.1336  0.2139 -0.2517
  359MPD2    H5 5383   0.508   4.002  12.895 -1.1294  2.0546 -1.1912
  359MPD2    N1 5384   0.975   3.937  12.552  0.4677 -0.6092 -0.0151
  359MPD2    H7 5385   1.072   3.963  12.565  0.0480  0.9581  0.0247
  360TMC3    C1 5386   1.051   3.836  12.355 -0.7686 -0.0962 -0.5483
  360TMC3    C2 5387   1.171   3.899  12.382  0.1353 -0.1195 -0.3168
  360TMC3    C3 5388   1.259   3.933  12.285  0.8483  0.2482  0.2256
  360TMC3    C4 5389   1.015   3.810  12.223 -0.4204 -0.2117  0.7505
  360TMC3    C5 5390   1.112   3.835  12.135  0.0494 -0.4474 -0.1588
  360TMC3    C6 5391   1.227   3.905  12.155  0.6652  0.1532  0.1517
  360TMC3     C 5392   0.940   3.861  12.442  0.0432  0.6135 -0.0591
  360TMC3     O 5393   0.827   3.834  12.407  0.2213  0.1429  0.1448
  360TMC3     H 5394   1.198   3.909  12.486  0.6367 -1.0193 -0.3587
  360TMC3    H1 5395   0.918   3.765  12.205 -1.2556  1.1301  1.8766
  360TMC3    H2 5396   1.292   3.931  12.073  0.8982  2.0811  0.9376
  360TMC3    C7 5397   1.090   3.797  12.001 -1.0857  0.1830  0.2647
  360TMC3    C8 5398   1.386   3.986  12.322  0.3070  0.5535 -0.0061
  360TMC3    O1 5399   1.133   3.864  11.908  0.2606  0.1543  0.4560
  360TMC3    O2 5400   1.397   4.045  12.428  0.3995  0.0395  0.3984
  361MPD2     C 5401   2.746   2.495  16.633  0.0051 -0.0643  0.0179
  361MPD2    C1 5402   2.789   2.573  16.736 -0.1775 -0.1793 -0.0933
  361MPD2    C2 5403   2.866   2.514  16.836  0.7258 -0.3178 -0.4305
  361MPD2    C3 5404   2.887   2.376  16.844 -0.1004  0.5204 -0.0044
  361MPD2    C4 5405   2.842   2.300  16.740 -0.1743 -0.3880  0.7656
  361MPD2    C5 5406   2.774   2.356  16.631 -0.6326 -0.1182 -0.0192
  361MPD2     H 5407   2.908   2.582  16.910 -0.4735  0.2736 -0.2925
  361MPD2    H1 5408   2.855   2.192  16.741 -0.3614 -0.4120  0.5028
  361MPD2    H2 5409   2.679   2.535  16.558  1.0506 -0.9109 -1.3600
  361MPD2    H3 5410   2.719   2.293  16.562 -1.9644  0.7651  0.2377
  361MPD2     N 5411   2.961   2.317  16.949  0.0737  1.1181 -0.1888
  361MPD2    H5 5412   2.995   2.222  16.937 -0.5150  0.8502  0.2589
  361MPD2    N1 5413   2.762   2.708  16.754 -0.3932 -0.1207 -0.1349
  361MPD2    H7 5414   2.794   2.750  16.840 -1.6306 -1.4267  0.9656
  362TMC3    C1 5415   2.661   2.922  16.726 -0.1483 -0.0794  0.2716
  362TMC3    C2 5416   2.603   2.921  16.849 -0.4761 -0.5465 -0.2537
  362TMC3    C3 5417   2.554   3.030  16.920 -0.3841 -0.1566 -0.4100
  362TMC3    C4 5418   2.676   3.043  16.671  0.3210 -0.2299  0.1787
  362TMC3    C5 5419   2.623   3.153  16.734  0.4039 -0.3339 -0.1639
  362TMC3    C6 5420   2.562   3.150  16.855 -0.3067 -0.2082  0.7133
  362TMC3     C 5421   2.706   2.799  16.663  0.1316  0.5919  0.9670
  362TMC3     O 5422   2.702   2.793  16.538 -0.0061 -0.0927  0.1974
  362TMC3     H 5423   2.578   2.821  16.885  0.5493 -0.7596 -0.1127
  362TMC3    H1 5424   2.706   3.034  16.567 -2.0959  2.0741 -0.7044
  362TMC3    H2 5425   2.515   3.243  16.884  0.3677  0.5070 -0.4555
  362TMC3    C7 5426   2.624   3.277  16.658  0.0468 -0.8212 -0.7642
  362TMC3    C8 5427   2.473   2.994  17.037  0.1947 -1.0292  0.3597
  362TMC3    O1 5428   2.563   3.377  16.697 -0.2888 -0.0263 -0.2123
  362TMC3    O2 5429   2.426   2.881  17.034 -0.0477  0.3499  0.2071
  363TMC3    C1 5430   1.812   0.682   9.725 -0.3967  0.0431  0.7901
  363TMC3    C2 5431   1.780   0.567   9.790  0.6943 -0.0733 -0.7361
  363TMC3    C3 5432   1.641   0.560   9.827 -0.7791  0.2620 -0.3765
  363TMC3    C4 5433   1.718   0.776   9.680  0.8392 -0.0455  0.3427
  363TMC3    C5 5434   1.590   0.757   9.722 -0.5775 -0.4350 -0.4296
  363TMC3    C6 5435   1.545   0.650   9.786 -0.2249 -0.6975 -0.5709
  363TMC3     C 5436   1.947   0.721   9.683  0.0020 -0.3327 -0.1393
  363TMC3     O 5437   1.969   0.836   9.656  0.5001  0.1853  0.1565
  363TMC3     H 5438   1.858   0.499   9.824  1.0400  0.0344 -1.3084
  363TMC3    H1 5439   1.743   0.854   9.608 -0.3548  0.6515  0.6876
  363TMC3    H2 5440   1.439   0.638   9.804 -0.3929  1.8320  0.1022
  363TMC3    C7 5441   1.488   0.847   9.682 -0.0148 -0.3812  0.2894
  363TMC3    C8 5442   1.592   0.443   9.896  0.1334  0.2384 -0.5593
  363TMC3    O1 5443   1.369   0.820   9.687  0.3401 -0.1612 -0.3210
  363TMC3    O2 5444   1.477   0.452   9.935 -0.4212  0.2282  0.3598
  364MPD2     C 5445   0.722   4.322  10.589  0.6870 -0.6196 -0.2790
  364MPD2    C1 5446   0.613   4.407  10.564  0.1126  0.5127  0.7967
  364MPD2    C2 5447   0.485   4.370  10.612  0.5053 -0.7359 -0.4877
  364MPD2    C3 5448   0.477   4.249  10.677  0.4341  0.0976  0.3693
  364MPD2    C4 5449   0.587   4.167  10.695  0.5741 -0.3182  0.1497
  364MPD2    C5 5450   0.709   4.200  10.646 -0.0026 -0.1366 -0.0640
  364MPD2     H 5451   0.398   4.432  10.592  1.6378  0.6558 -1.1335
  364MPD2    H1 5452   0.577   4.077  10.754  1.0877 -1.6136 -1.7358
  364MPD2    H2 5453   0.818   4.360  10.553  0.1230  0.5964 -0.4996
  364MPD2    H3 5454   0.799   4.140  10.646 -1.2863 -2.1078 -0.4966
  364MPD2     N 5455   0.357   4.186  10.721  0.2441 -0.0479  0.8211
  364MPD2    H5 5456   0.366   4.093  10.761  0.8317 -0.7019 -0.8731
  364MPD2    N1 5457   0.645   4.534  10.505  0.1331  0.3618 -0.5687
  364MPD2    H7 5458   0.741   4.553  10.476  0.6068  0.4511  1.0583
  365TMC3    C1 5459   0.615   0.032  10.421 -0.3391  0.3123 -0.2297
  365TMC3    C2 5460   0.704   0.002  10.327 -0.7040  0.3291 -0.3471
  365TMC3    C3 5461   0.758   0.103  10.260  0.0691 -0.5927 -0.0372
  365TMC3    C4 5462   0.561   0.155  10.436 -0.6151 -0.5140  0.1696
  365TMC3    C5 5463   0.623   0.256  10.362 -0.1506  0.0774 -0.3439
  365TMC3    C6 5464   0.725   0.234  10.274  0.2468 -0.0000  0.2151
  365TMC3     C 5465   0.561   4.643  10.498 -0.0190 -0.4672 -0.0521
  365TMC3     O 5466   0.454   4.666  10.554  0.2253  0.1676 -0.2430
  365TMC3     H 5467   0.744   4.625  10.313  0.8986  0.9251 -0.0215
  365TMC3    H1 5468   0.491   0.175  10.517 -0.1977  0.5293  0.2731
  365TMC3    H2 5469   0.759   0.312  10.207  2.0922 -2.6827 -1.9777
  365TMC3    C7 5470   0.599   0.396  10.387  0.1724 -0.3204  0.5732
  365TMC3    C8 5471   0.866   0.077  10.171 -0.0619  0.1794 -0.5264
  365TMC3    O1 5472   0.645   0.481  10.312  0.5972 -0.1334  0.3096
  365TMC3    O2 5473   0.951   0.166  10.156  0.0059  0.2109  0.3624
  366MPD2     C 5474   3.320   1.079  14.738  0.9141  0.8333 -0.8690
  366MPD2    C1 5475   3.301   1.091  14.874  0.1920 -0.2666  0.6417
  366MPD2    C2 5476   3.373   1.011  14.968  0.0047  0.7252 -0.0644
  366MPD2    C3 5477   3.466   0.918  14.927 -0.2324 -0.2949 -0.0228
  366MPD2    C4 5478   3.478   0.904  14.789  0.3841  0.0759  0.2949
  366MPD2    C5 5479   3.399   0.972  14.703 -0.1530  0.0491 -0.0747
  366MPD2     H 5480   3.355   1.022  15.074 -0.4253 -1.1014  0.0514
  366MPD2    H1 5481   3.543   0.830  14.743  1.8290  0.9592  0.9191
  366MPD2    H2 5482   3.250   1.133  14.675  0.0376  1.1668  0.3658
  366MPD2    H3 5483   3.415   0.971  14.596  0.4731  1.9175 -0.0004
  366MPD2     N 5484   3.566   0.864  15.006  0.0283 -0.0420  0.0203
  366MPD2    H5 5485   3.628   0.813  14.943 -0.1127  0.3127 -0.4093
  366MPD2    N1 5486   3.212   1.177  14.933 -0.4646 -0.1867  0.6342
  366MPD2    H7 5487   3.214   1.174  15.035  1.4011  1.4789  0.6466
  367TMC3    C1 5488   3.102   1.378  14.971  0.8750  0.5063  0.3838
  367TMC3    C2 5489   3.176   1.385  15.078  0.2383 -0.0368 -0.5343
  367TMC3    C3 5490   3.159   1.502  15.153 -0.2924 -0.3165  0.7162
  367TMC3    C4 5491   3.006   1.464  14.933 -0.4099  0.1800 -0.2962
  367TMC3    C5 5492   2.984   1.572  15.021  0.4604  0.2455  0.5012
  367TMC3    C6 5493   3.067   1.599  15.128 -0.0358  0.0468 -1.1624
  367TMC3     C 5494   3.137   1.276  14.870  0.5121  0.2801  0.5117
  367TMC3     O 5495   3.127   1.300  14.751  0.1257  0.0340 -0.7381
  367TMC3     H 5496   3.255   1.323  15.118  0.3314  0.0819 -0.5326
  367TMC3    H1 5497   2.942   1.436  14.850  0.3045 -1.3952 -0.3070
  367TMC3    H2 5498   3.047   1.682  15.194  0.9053  1.0077 -2.0792
  367TMC3    C7 5499   2.899   1.681  14.976  0.2910  0.2999  0.2372
  367TMC3    C8 5500   3.243   1.512  15.268 -0.3662 -0.2856 -0.4795
  367TMC3    O1 5501   2.922   1.787  15.034 -0.1097 -0.4375  0.5760
  367TMC3    O2 5502   3.295   1.414  15.319  0.0668 -0.3505  0.5506
  368MPD2     C 5503   3.718   3.025  13.266  0.1689  0.2128  0.3160
  368MPD2    C1 5504   3.750   3.116  13.170 -0.7201  0.2340 -0.0372
  368MPD2    C2 5505   3.877   3.109  13.117 -0.1052  0.2142  0.1524
  368MPD2    C3 5506   3.973   3.024  13.166 -0.5235 -0.6168 -0.8853
  368MPD2    C4 5507   3.940   2.951  13.275  1.1582 -0.2214 -0.8985
  368MPD2    C5 5508   3.810   2.945  13.324  0.1395 -0.3791 -0.3490
  368MPD2     H 5509   3.907   3.181  13.042  2.6112  0.5573  1.5494
  368MPD2    H1 5510   4.025   2.899  13.317  0.5331 -0.0549  0.5900
  368MPD2    H2 5511   3.612   3.032  13.287 -0.4057 -2.3592 -1.7432
  368MPD2    H3 5512   3.787   2.874  13.403  0.4250  2.0372  1.9213
  368MPD2     N 5513   4.103   3.017  13.114  0.0120  0.5602  0.2697
  368MPD2    H5 5514   4.158   2.941  13.154  0.0935  1.2967  1.5465
  368MPD2    N1 5515   3.648   3.206  13.127 -0.2869 -0.2900 -0.2228
  368MPD2    H7 5516   3.553   3.202  13.165 -1.0361  0.4105 -2.0112
  369TMC3    C1 5517   3.555   3.389  13.010 -0.1244 -0.2751  0.0805
  369TMC3    C2 5518   3.565   3.522  12.982  0.5023  0.0419  0.0681
  369TMC3    C3 5519   3.455   3.598  12.963  0.2939 -0.3961 -0.8126
  369TMC3    C4 5520   3.434   3.325  13.013 -0.0614  0.0968  0.2108
  369TMC3    C5 5521   3.323   3.404  12.986  0.4674  0.4195 -0.6383
  369TMC3    C6 5522   3.329   3.538  12.973 -0.1713 -0.3920 -0.1148
  369TMC3     C 5523   3.675   3.317  13.049 -0.0991 -0.2432  0.2606
  369TMC3     O 5524   3.781   3.369  13.041  0.1910 -0.6809  0.0171
  369TMC3     H 5525   3.666   3.559  12.993  0.9469 -1.2136  0.2816
  369TMC3    H1 5526   3.433   3.219  13.036  0.8068  0.6694  2.8209
  369TMC3    H2 5527   3.249   3.601  12.934  1.4754  1.7546 -0.0596
  369TMC3    C7 5528   3.198   3.329  13.008  0.2695  0.5515 -0.1187
  369TMC3    C8 5529   3.477   3.706  12.858  0.0668 -0.3107 -0.1193
  369TMC3    O1 5530   3.200   3.210  13.015 -0.0692 -0.0668  0.0890
  369TMC3    O2 5531   3.384   3.730  12.783 -0.2880 -0.5348  0.3810
  370TMC3    C1 5532   3.909   3.647  16.121 -0.4711 -0.2648  0.2114
  370TMC3    C2 5533   3.866   3.624  16.250 -0.0695  0.4076  0.3579
  370TMC3    C3 5534   3.752   3.546  16.270  0.5375  0.1131  0.6446
  370TMC3    C4 5535   3.848   3.585  16.009 -0.2202  0.0224  0.6131
  370TMC3    C5 5536   3.740   3.503  16.038 -0.8407 -0.4487 -0.3943
  370TMC3    C6 5537   3.686   3.489  16.160 -0.0371  0.3321 -0.7299
  370TMC3     C 5538   3.994   3.761  16.088  0.1269 -0.0240 -0.3049
  370TMC3     O 5539   4.023   3.783  15.968  0.5542 -0.1079  0.1530
  370TMC3     H 5540   3.931   3.652  16.332  0.2944 -1.1712  0.6093
  370TMC3    H1 5541   3.879   3.598  15.906  0.1554  0.0285  0.7264
  370TMC3    H2 5542   3.593   3.433  16.164  0.0686  0.2663  0.6217
  370TMC3    C7 5543   3.688   3.417  15.937 -0.2064  0.5469 -0.1431
  370TMC3    C8 5544   3.702   3.500  16.401  0.1797 -0.2818  0.0232
  370TMC3    O1 5545   3.576   3.364  15.949 -0.2356 -0.3244 -0.8048
  370TMC3    O2 5546   3.610   3.416  16.400 -0.3259  0.4108 -0.6591
  371TMC3    C1 5547   0.339   1.885  15.579 -0.7034  0.0165 -0.3859
  371TMC3    C2 5548   0.209   1.891  15.620  0.1936  0.0892 -0.1317
  371TMC3    C3 5549   0.121   1.989  15.572  0.2568 -0.2751  0.7554
  371TMC3    C4 5550   0.397   1.987  15.497 -0.4944 -0.5482  1.0361
  371TMC3    C5 5551   0.308   2.079  15.457 -0.1546  0.0806  0.2632
  371TMC3    C6 5552   0.172   2.082  15.486 -0.0164 -0.4092  0.6084
  371TMC3     C 5553   0.422   1.781  15.633  0.0161 -0.0200  0.2120
  371TMC3     O 5554   0.538   1.785  15.607  0.3569  0.4306 -0.1898
  371TMC3     H 5555   0.157   1.823  15.686 -0.5781  1.4605  0.6830
  371TMC3    H1 5556   0.503   1.994  15.472 -0.5425  2.5622  1.6920
  371TMC3    H2 5557   0.116   2.163  15.442 -1.1113 -0.6262  1.6248
  371TMC3    C7 5558   0.350   2.179  15.358 -0.0424  0.2714  0.0526
  371TMC3    C8 5559   4.702   1.973  15.581 -0.0238  0.6105 -0.2904
  371TMC3    O1 5560   0.284   2.282  15.344 -0.6841 -0.2268 -0.5495
  371TMC3    O2 5561   4.673   1.866  15.636 -0.0816  0.2239  0.2447
  372MPD2     C 5562   4.353   3.302  13.366  0.5238  0.0434  0.0827
  372MPD2    C1 5563   4.467   3.259  13.428 -0.2022 -0.2120  0.0460
  372MPD2    C2 5564   4.464   3.129  13.481  0.4674  0.7135 -0.7786
  372MPD2    C3 5565   4.352   3.053  13.471 -0.6842 -0.0129 -0.0590
  372MPD2    C4 5566   4.234   3.111  13.422 -0.1981  0.4723  0.5896
  372MPD2    C5 5567   4.238   3.228  13.365 -0.6546 -0.2337 -0.2421
  372MPD2     H 5568   4.549   3.087  13.533 -1.2240 -0.1574  1.3431
  372MPD2    H1 5569   4.139   3.061  13.410  1.1099 -1.6011 -1.1630
  372MPD2    H2 5570   4.348   3.393  13.308  3.4109  1.2442  1.7584
  372MPD2    H3 5571   4.151   3.264  13.311 -0.2711 -2.0276 -2.0844
  372MPD2     N 5572   4.360   2.915  13.504  0.1463 -0.2774  0.5286
  372MPD2    H5 5573   4.450   2.869  13.507  0.1673 -0.2391  0.4666
  372MPD2    N1 5574   4.587   3.336  13.438  0.2709  0.5341  0.0927
  372MPD2    H7 5575   4.665   3.290  13.483 -1.0047  0.0462  1.8029
  373TMC3    C1 5576   4.278   2.694  13.584  0.1495  0.1146  0.0981
  373TMC3    C2 5577   4.189   2.631  13.666  1.0571  0.4880 -0.0636
  373TMC3    C3 5578   4.152   2.503  13.641  0.4089  0.0313 -0.1475
  373TMC3    C4 5579   4.349   2.629  13.490  0.6404  0.0765  0.2535
  373TMC3    C5 5580   4.316   2.495  13.473 -0.2664 -0.2972 -0.1558
  373TMC3    C6 5581   4.206   2.437  13.536  0.7939  0.3891 -0.1602
  373TMC3     C 5582   4.256   2.838  13.554  0.1858 -0.5445  0.3135
  373TMC3     O 5583   4.144   2.883  13.582  0.3138  0.0706  0.1944
  373TMC3     H 5584   4.131   2.686  13.740  1.7205  0.9288  0.1374
  373TMC3    H1 5585   4.407   2.684  13.417 -0.3619 -0.6258 -1.0607
  373TMC3    H2 5586   4.174   2.335  13.516 -1.3222  1.0690 -0.3131
  373TMC3    C7 5587   4.425   2.416  13.436  0.4852  0.2384 -0.3387
  373TMC3    C8 5588   4.050   2.441  13.723 -0.6646 -0.1915  0.5571
  373TMC3    O1 5589   4.521   2.478  13.393  0.2984 -0.2889 -0.5187
  373TMC3    O2 5590   3.955   2.509  13.753 -0.6127 -0.3066  0.1391
  374TMC3    C1 5591   0.349   3.804   9.669  0.6804  0.0398  0.5250
  374TMC3    C2 5592   0.484   3.811   9.644 -0.1915  0.4008  0.3993
  374TMC3    C3 5593   0.545   3.689   9.640 -0.2425  0.6662 -0.8202
  374TMC3    C4 5594   0.286   3.689   9.700  0.0521 -0.0740 -0.2612
  374TMC3    C5 5595   0.354   3.573   9.722  0.1378  0.0202 -0.1605
  374TMC3    C6 5596   0.490   3.567   9.676 -0.1371  0.1305 -0.0102
  374TMC3     C 5597   0.277   3.924   9.718  0.1581 -0.0044 -0.6439
  374TMC3     O 5598   0.157   3.918   9.714 -1.0849 -0.0794  0.1011
  374TMC3     H 5599   0.523   3.905   9.606 -1.4642 -0.0259 -1.9917
  374TMC3    H1 5600   0.190   3.708   9.747  0.4066 -3.6493  1.8756
  374TMC3    H2 5601   0.540   3.471   9.663 -0.5458 -0.4705  2.9906
  374TMC3    C7 5602   0.275   3.462   9.702 -0.1375  0.1502 -0.8982
  374TMC3    C8 5603   0.692   3.688   9.623 -0.4630 -0.2172  0.1330
  374TMC3    O1 5604   0.326   3.349   9.706  0.0661  0.0492 -0.4204
  374TMC3    O2 5605   0.727   3.787   9.560 -0.6271 -0.6371 -0.2317
  375MPD2     C 5606   0.333   4.513  17.012  0.2825 -0.1843 -0.0328
  375MPD2    C1 5607   0.327   4.546  16.877  0.3349 -0.6833  0.3896
  375MPD2    C2 5608   0.387   4.471  16.784  0.6093 -0.4626 -0.5667
  375MPD2    C3 5609   0.452   4.353  16.817 -0.3741 -0.3861  0.7076
  375MPD2    C4 5610   0.471   4.329  16.953 -0.3124 -0.8009  0.5042
  375MPD2    C5 5611   0.417   4.414  17.048 -0.5424  0.2130  0.5169
  375MPD2     H 5612   0.378   4.504  16.681 -1.0119 -0.8478 -0.5587
  375MPD2    H1 5613   0.526   4.246  16.996 -0.2569 -1.7829 -1.4624
  375MPD2    H2 5614   0.269   4.557  17.089 -0.9023 -2.0500  0.0368
  375MPD2    H3 5615   0.428   4.403  17.155 -0.1407  1.6603  0.6259
  375MPD2     N 5616   0.506   4.270  16.712 -0.4989  0.1200 -0.4406
  375MPD2    H5 5617   0.504   4.304  16.616  0.4611 -0.9165 -0.8266
  375MPD2    N1 5618   0.254   4.653  16.819 -0.5559 -0.6368  0.3244
  375MPD2    H7 5619   0.265   4.666  16.719 -0.8476  1.0450  0.5102
  376TMC3    C1 5620   0.639   4.095  16.612 -0.5625 -1.0495  0.1944
  376TMC3    C2 5621   0.746   4.014  16.637 -0.0365 -0.1429  0.2500
  376TMC3    C3 5622   0.782   3.931  16.534 -0.2828  0.3168 -0.8016
  376TMC3    C4 5623   0.565   4.081  16.497 -0.4092 -0.5759  0.0756
  376TMC3    C5 5624   0.590   3.986  16.408  0.2487  0.4915 -0.5991
  376TMC3    C6 5625   0.706   3.913  16.419 -0.3137  0.2498 -0.5896
  376TMC3     C 5626   0.577   4.158  16.735  0.1057  0.3085 -0.8651
  376TMC3     O 5627   0.610   4.109  16.845 -0.1862 -0.5469 -0.5535
  376TMC3     H 5628   0.819   4.037  16.714 -0.4761 -1.4336  1.0496
  376TMC3    H1 5629   0.469   4.130  16.484  0.3109  0.5908 -0.7451
  376TMC3    H2 5630   0.744   3.864  16.331  1.2531  3.9881 -1.9735
  376TMC3    C7 5631   0.521   3.988  16.282  0.0587  0.3272 -0.1672
  376TMC3    C8 5632   0.922   3.957  16.499  0.4227  0.0448  0.4870
  376TMC3    O1 5633   0.487   4.095  16.241  0.8815 -0.1618 -0.0354
  376TMC3    O2 5634   0.947   4.010  16.396  0.0068 -0.4024 -0.5657
  377MPD2     C 5635   2.741   3.594  12.535 -0.5409 -0.0773  0.4429
  377MPD2    C1 5636   2.834   3.502  12.586  0.3880 -0.0876  0.4340
  377MPD2    C2 5637   2.812   3.417  12.689  0.3331 -0.1478  0.0094
  377MPD2    C3 5638   2.683   3.414  12.745 -0.1036  0.4945  0.2625
  377MPD2    C4 5639   2.588   3.506  12.697  0.2171 -0.1802  0.6164
  377MPD2    C5 5640   2.617   3.598  12.600  0.3138  0.5495 -0.7385
  377MPD2     H 5641   2.881   3.343  12.729  0.9551 -0.3206 -1.3762
  377MPD2    H1 5642   2.489   3.501  12.741  0.6476  1.2849  1.7314
  377MPD2    H2 5643   2.775   3.659  12.455 -1.0805 -0.0288  0.2529
  377MPD2    H3 5644   2.538   3.669  12.576 -1.5456 -1.6036 -0.9505
  377MPD2     N 5645   2.643   3.326  12.852  0.2436  0.4754  0.5680
  377MPD2    H5 5646   2.552   3.334  12.897 -0.9244 -0.6383 -1.6039
  377MPD2    N1 5647   2.967   3.526  12.542  0.2260  0.6641 -0.1917
  377MPD2    H7 5648   2.974   3.579  12.456 -2.0153 -1.2670 -1.5580
  378TMC3    C1 5649   3.321   3.522  12.327  0.3737 -0.0084  0.2759
  378TMC3    C2 5650   3.200   3.523  12.396  0.5803 -0.5367  0.3858
  378TMC3    C3 5651   3.202   3.509  12.533  0.8427 -0.4721 -0.1801
  378TMC3    C4 5652   3.440   3.508  12.396  0.3038  0.6909 -0.1947
  378TMC3    C5 5653   3.432   3.487  12.527 -0.2674 -0.4652 -0.3751
  378TMC3    C6 5654   3.316   3.480  12.595  0.3992 -0.1445 -0.1389
  378TMC3     C 5655   3.323   3.579  12.196 -0.6943  0.5110  0.3269
  378TMC3     O 5656   3.238   3.665  12.175 -0.1600 -0.0790  0.5316
  378TMC3     H 5657   3.108   3.542  12.342  1.1586  0.5421 -0.2127
  378TMC3    H1 5658   3.530   3.536  12.344  2.2006 -2.7670  1.1694
  378TMC3    H2 5659   3.309   3.460  12.701 -1.2511  0.2533 -0.1735
  378TMC3    C7 5660   3.553   3.436  12.599  0.2653  0.2782  0.0651
  378TMC3    C8 5661   3.078   3.477  12.606 -0.7085  0.0413 -0.3560
  378TMC3    O1 5662   3.536   3.387  12.712 -0.0061  0.4071 -0.0054
  378TMC3    O2 5663   3.089   3.441  12.722 -0.0540  0.2031 -0.1504
  379MPD2     C 5664   4.327   1.577  16.273 -0.2886  1.0434  0.4881
  379MPD2    C1 5665   4.201   1.519  16.257  0.6830 -0.2422 -0.1837
  379MPD2    C2 5666   4.146   1.435  16.351 -0.0671  0.1538 -0.8795
  379MPD2    C3 5667   4.231   1.398  16.461 -0.6183 -0.2643 -0.1904
  379MPD2    C4 5668   4.349   1.463  16.479  0.3503  0.4617  0.2824
  379MPD2    C5 5669   4.393   1.552  16.385 -0.2940 -0.3532 -0.6320
  379MPD2     H 5670   4.051   1.385  16.352  0.4124 -0.7365  0.2337
  379MPD2    H1 5671   4.415   1.451  16.564  1.5650 -0.6014 -0.8104
  379MPD2    H2 5672   4.368   1.646  16.200  0.2610 -1.0819 -1.1838
  379MPD2    H3 5673   4.488   1.603  16.393  0.8840 -2.7500  0.7531
  379MPD2     N 5674   4.206   1.292  16.550  0.0411 -0.6078 -0.2619
  379MPD2    H5 5675   4.282   1.281  16.617  0.5029 -0.3361 -0.7351
  379MPD2    N1 5676   4.125   1.550  16.136 -0.0054 -0.3908 -0.0572
  379MPD2    H7 5677   4.185   1.591  16.065  0.4485 -0.4512  0.3003
  380TMC3    C1 5678   3.950   1.546  15.973  0.5930  0.0920 -0.2745
  380TMC3    C2 5679   4.044   1.520  15.878 -0.1538  0.5713 -0.6137
  380TMC3    C3 5680   4.004   1.510  15.748 -0.1420 -0.3593  0.1786
  380TMC3    C4 5681   3.820   1.540  15.940 -0.2775  0.2932 -0.8334
  380TMC3    C5 5682   3.781   1.534  15.805  0.1562  0.4734  0.0147
  380TMC3    C6 5683   3.879   1.524  15.708 -0.5411 -0.4633 -0.0122
  380TMC3     C 5684   3.990   1.531  16.114 -0.2184 -0.6416  0.6261
  380TMC3     O 5685   3.898   1.516  16.197  0.6172 -0.6651  0.0360
  380TMC3     H 5686   4.150   1.510  15.900  0.1295  2.4356 -1.1260
  380TMC3    H1 5687   3.753   1.576  16.017 -0.3007  0.3382 -0.8746
  380TMC3    H2 5688   3.849   1.505  15.606  1.5230 -1.1428 -0.4725
  380TMC3    C7 5689   3.672   1.621  15.766  0.4682 -1.0729 -0.5372
  380TMC3    C8 5690   4.104   1.497  15.636  0.3206 -0.2387 -0.5830
  380TMC3    O1 5691   3.617   1.692  15.853  0.2974  0.4339  0.0038
  380TMC3    O2 5692   4.073   1.523  15.518 -0.1469  0.7544 -0.2051
  381TMC3    C1 5693   3.455   2.961  15.998 -0.8480 -1.5045 -0.0135
  381TMC3    C2 5694   3.579   3.015  15.996 -0.2393 -0.2027  0.5412
  381TMC3    C3 5695   3.627   3.061  16.117  0.5167 -0.6523  0.3552
  381TMC3    C4 5696   3.380   2.949  16.115  0.3352 -0.1005  0.3122
  381TMC3    C5 5697   3.427   3.000  16.234 -0.0292 -0.2923 -0.4623
  381TMC3    C6 5698   3.554   3.065  16.233  0.2210 -0.1842 -0.3963
  381TMC3     C 5699   3.416   2.870  15.895  0.3528  0.0987 -0.1158
  381TMC3     O 5700   3.299   2.867  15.857 -0.2108  0.2457  0.0848
  381TMC3     H 5701   3.639   3.011  15.906 -2.3394 -1.5710 -0.7926
  381TMC3    H1 5702   3.287   2.893  16.120  0.1469  0.4342  2.8449
  381TMC3    H2 5703   3.597   3.093  16.328  1.2294  0.6500 -1.1114
  381TMC3    C7 5704   3.386   2.940  16.357 -0.2548 -0.1969 -0.2004
  381TMC3    C8 5705   3.765   3.103  16.117  0.0959  0.3683 -0.2149
  381TMC3    O1 5706   3.311   2.843  16.361  0.2800 -0.3195 -0.1784
  381TMC3    O2 5707   3.825   3.094  16.011 -0.2670 -0.5404  0.5783
  382MPD2     C 5708   3.300   0.309   0.175 -0.2080  0.0146  0.0583
  382MPD2    C1 5709   3.164   0.319   0.180 -0.6378  0.0342 -0.9422
  382MPD2    C2 5710   3.090   0.212   0.137  0.5195  0.7389 -0.5102
  382MPD2    C3 5711   3.150   0.093   0.089  0.3943 -0.6617 -0.1482
  382MPD2    C4 5712   3.287   0.083   0.092 -0.5723 -0.0021 -0.2997
  382MPD2    C5 5713   3.360   0.197   0.130 -0.7623 -0.8511 -0.1673
  382MPD2     H 5714   2.982   0.216   0.147  0.5032  1.7068 -1.0985
  382MPD2    H1 5715   3.341   4.713   0.083 -2.6904 -1.3155  0.7000
  382MPD2    H2 5716   3.365   0.389   0.207  1.8753 -0.7808 -2.1385
  382MPD2    H3 5717   3.468   0.199   0.135 -0.6392 -1.3271 -2.6973
  382MPD2     N 5718   3.084   4.702   0.043 -0.7827 -0.2009 -0.0455
  382MPD2    H5 5719   3.138   4.619   0.018  0.7052  0.8774 -0.3816
  382MPD2    N1 5720   3.103   0.432   0.223  0.3349  0.7333 -0.0514
  382MPD2    H7 5721   3.003   0.422   0.236  0.5762 -1.3633  0.1714
  383TMC3    C1 5722   2.924   4.582  17.604 -0.3526  0.1770 -0.0681
  383TMC3    C2 5723   2.802   4.589  17.545  0.4357 -0.3479 -0.5538
  383TMC3    C3 5724   2.772   4.479  17.470 -0.6280 -0.2345  0.5525
  383TMC3    C4 5725   3.007   4.468  17.600 -0.7337 -0.3278  0.1195
  383TMC3    C5 5726   2.966   4.361  17.531  0.8098 -0.4358  0.2224
  383TMC3    C6 5727   2.847   4.360  17.469  0.9280  0.5766 -0.3807
  383TMC3     C 5728   2.961   4.698  17.685  0.4268  0.2543 -0.1426
  383TMC3     O 5729   2.891   0.073  17.665  0.3283 -0.4485 -0.0065
  383TMC3     H 5730   2.737   4.675  17.536  2.5531  1.0651 -2.4281
  383TMC3    H1 5731   3.109   4.471  17.636 -1.1642  0.0594  1.3131
  383TMC3    H2 5732   2.802   4.277  17.416 -1.6437  0.1634  2.3869
  383TMC3    C7 5733   3.052   4.255  17.493 -0.0465  0.0482  0.7546
  383TMC3    C8 5734   2.683   4.492  17.357  0.1978  0.1485 -0.0982
  383TMC3    O1 5735   3.014   4.206  17.389 -0.7078  0.2547 -0.2602
  383TMC3    O2 5736   2.627   4.392  17.307  0.0933 -0.5714 -0.1790
  384MPD2     C 5737   0.139   1.914  12.091  0.0776 -0.4484  0.0918
  384MPD2    C1 5738   0.151   1.780  12.130  0.3622 -0.7696 -0.7596
  384MPD2    C2 5739   0.259   1.712  12.084  0.1921  0.2684 -0.3995
  384MPD2    C3 5740   0.357   1.773  12.015 -0.2296  0.1897  0.1285
  384MPD2    C4 5741   0.352   1.910  11.992 -0.3433 -0.0027 -0.6096
  384MPD2    C5 5742   0.239   1.974  12.030  0.1529 -0.3205  0.3775
  384MPD2     H 5743   0.270   1.605  12.102 -1.9055 -0.1568 -1.6462
  384MPD2    H1 5744   0.431   1.965  11.943 -0.5862  0.3117 -0.6544
  384MPD2    H2 5745   0.059   1.979  12.125 -1.2608 -0.5287 -2.8857
  384MPD2    H3 5746   0.227   2.081  12.017 -2.2977 -0.5814  0.4709
  384MPD2     N 5747   0.476   1.699  11.989  0.3494 -0.0841 -0.2628
  384MPD2    H5 5748   0.476   1.604  12.025 -1.7059  0.6430  1.5992
  384MPD2    N1 5749   0.067   1.718  12.222 -0.6281 -0.2344  0.0286
  384MPD2    H7 5750   0.100   1.629  12.258  0.2250 -0.4998 -1.4166
  385TMC3    C1 5751   0.667   1.635  11.880 -0.0006  0.0143 -0.7492
  385TMC3    C2 5752   0.633   1.604  11.755 -1.2841  0.6586  0.0059
  385TMC3    C3 5753   0.592   1.477  11.729  1.4558 -0.3920  0.1514
  385TMC3    C4 5754   0.668   1.540  11.980  0.0950  0.1005 -0.4243
  385TMC3    C5 5755   0.622   1.420  11.950 -0.0279 -0.3433  0.6607
  385TMC3    C6 5756   0.588   1.376  11.819 -0.0655 -0.2273 -0.2730
  385TMC3     C 5757   0.583   1.747  11.913 -0.2366 -0.0296  0.0975
  385TMC3     O 5758   0.590   1.846  11.840 -0.2897  0.7067  0.1048
  385TMC3     H 5759   0.632   1.683  11.681 -0.7714  1.1470  0.5187
  385TMC3    H1 5760   0.699   1.572  12.079 -0.8016 -0.2320 -0.0355
  385TMC3    H2 5761   0.543   1.281  11.796  0.7880 -0.5989 -0.4202
  385TMC3    C7 5762   0.531   1.367  12.053 -0.4988  0.5280 -0.7069
  385TMC3    C8 5763   0.506   1.464  11.608 -0.1568 -0.5164  0.0796
  385TMC3    O1 5764   0.469   1.453  12.116 -0.4223  0.2162 -0.1417
  385TMC3    O2 5765   0.498   1.569  11.549 -0.0252 -0.3348  0.1005
  386TMC3    C1 5766   4.677   3.576  11.809  0.0521 -0.6198 -0.4914
  386TMC3    C2 5767   0.003   3.573  11.679 -0.0636 -0.0052  0.2207
  386TMC3    C3 5768   4.635   3.559  11.581 -0.0131 -0.0229 -0.4021
  386TMC3    C4 5769   4.543   3.577  11.841 -0.3407  0.3526 -0.0163
  386TMC3    C5 5770   4.455   3.570  11.735  0.3949  0.1288  0.6022
  386TMC3    C6 5771   4.497   3.559  11.604 -0.3748 -0.5211  0.3388
  386TMC3     C 5772   0.027   3.492  11.902  0.5412  0.3445 -0.0587
  386TMC3     O 5773   4.711   3.381  11.928 -0.2345  0.0902  0.2876
  386TMC3     H 5774   0.109   3.557  11.661  0.2153 -0.4572  2.1730
  386TMC3    H1 5775   4.506   3.583  11.943  0.4956  1.8525  0.2024
  386TMC3    H2 5776   4.429   3.561  11.519  0.7371  0.9173 -0.5185
  386TMC3    C7 5777   4.314   3.580  11.767  0.0532  0.8957 -0.0964
  386TMC3    C8 5778   4.671   3.579  11.444  0.1737  0.2101  0.5078
  386TMC3    O1 5779   4.279   3.607  11.881  0.0152 -0.1023  0.5029
  386TMC3    O2 5780   4.578   3.593  11.363  0.0473  0.1002  0.2580
  387MPD2     C 5781   2.341   4.013   9.499 -0.0159  0.2523  0.6385
  387MPD2    C1 5782   2.472   4.021   9.540 -0.1665 -1.3102  0.2426
  387MPD2    C2 5783   2.559   3.907   9.523  0.5771  1.0761  0.4830
  387MPD2    C3 5784   2.513   3.788   9.489  0.0084 -0.6166  0.3676
  387MPD2    C4 5785   2.379   3.780   9.448  0.6911  0.1684 -0.2720
  387MPD2    C5 5786   2.298   3.893   9.454 -0.2984 -0.2123 -0.1374
  387MPD2     H 5787   2.664   3.916   9.551  0.7608  0.7539 -0.1055
  387MPD2    H1 5788   2.331   3.690   9.412 -2.2795  1.7284 -0.2288
  387MPD2    H2 5789   2.270   4.094   9.507 -0.8632 -0.4586  0.3591
  387MPD2    H3 5790   2.193   3.879   9.431 -0.1856  0.3445 -0.9877
  387MPD2     N 5791   2.606   3.681   9.490 -0.6006  0.3763 -0.0428
  387MPD2    H5 5792   2.701   3.713   9.508 -1.1206  1.3394  1.0260
  387MPD2    N1 5793   2.518   4.140   9.605 -0.4016  0.2386 -0.3841
  387MPD2    H7 5794   2.611   4.135   9.646 -0.0358  1.2922 -1.0819
  388TMC3    C1 5795   2.494   4.319   9.752 -0.4832 -0.9604  0.6317
  388TMC3    C2 5796   2.535   4.452   9.749 -1.0952  0.1039  0.5168
  388TMC3    C3 5797   2.614   4.490   9.853  0.1233 -0.6693  0.0701
  388TMC3    C4 5798   2.516   4.232   9.855 -0.1054  0.1766 -0.4601
  388TMC3    C5 5799   2.584   4.282   9.961 -0.0033 -0.2954  0.4316
  388TMC3    C6 5800   2.633   4.408   9.961 -0.0012 -0.1065  0.3507
  388TMC3     C 5801   2.447   4.252   9.634 -0.0977  0.7444  0.0401
  388TMC3     O 5802   2.344   4.299   9.591 -0.1668  0.2294 -0.7481
  388TMC3     H 5803   2.515   4.519   9.666 -0.1457  1.8745  1.6967
  388TMC3    H1 5804   2.463   4.137   9.849 -3.1002  1.8133 -0.0559
  388TMC3    H2 5805   2.710   4.426  10.035  0.8599 -0.7445 -0.3863
  388TMC3    C7 5806   2.649   4.185  10.048  0.4961  0.1974 -0.7948
  388TMC3    C8 5807   2.698   4.611   9.834 -0.6159 -0.0617  0.2528
  388TMC3    O1 5808   2.715   4.233  10.143  0.0842 -0.4776 -0.4335
  388TMC3    O2 5809   2.702   4.658   9.724 -0.1460 -0.1978  0.4598
  389MPD2     C 5810   1.993   1.915  11.131 -0.5493  0.0517 -0.5126
  389MPD2    C1 5811   1.959   1.834  11.021 -0.1594  0.1219  0.4766
  389MPD2    C2 5812   1.955   1.700  11.030  0.3393 -0.6953  0.5825
  389MPD2    C3 5813   1.964   1.633  11.157  0.0717  0.0413  0.1220
  389MPD2    C4 5814   1.975   1.714  11.269 -0.1095 -0.1728 -0.6859
  389MPD2    C5 5815   2.003   1.848  11.252 -0.3462  0.6230  0.3563
  389MPD2     H 5816   1.934   1.638  10.944  1.8617 -0.3800 -0.0126
  389MPD2    H1 5817   1.987   1.676  11.369 -2.8850 -1.2132 -0.7573
  389MPD2    H2 5818   2.005   2.021  11.115  0.7258  0.1668  1.2041
  389MPD2    H3 5819   2.028   1.912  11.335  0.1988  0.7901  0.0622
  389MPD2     N 5820   1.923   1.504  11.179  0.4254  0.0744 -0.3100
  389MPD2    H5 5821   1.907   1.471  11.273  1.1406  0.4734 -0.0506
  389MPD2    N1 5822   1.930   1.903  10.901 -0.5887  0.0454 -0.3020
  389MPD2    H7 5823   1.941   2.004  10.901 -0.7809  0.0673 -0.1900
  390TMC3    C1 5824   1.877   1.272  11.124  0.9646 -0.1679  0.5336
  390TMC3    C2 5825   1.888   1.232  11.250 -0.4285 -0.0884 -0.2388
  390TMC3    C3 5826   1.833   1.114  11.285  0.4674 -0.1358 -0.1799
  390TMC3    C4 5827   1.814   1.189  11.030  0.8001  0.1761  0.0620
  390TMC3    C5 5828   1.761   1.070  11.068 -0.0004  0.4512 -0.3097
  390TMC3    C6 5829   1.783   1.024  11.196  0.3970  0.1117 -0.4047
  390TMC3     C 5830   1.903   1.407  11.079  0.0888 -0.1899  0.1433
  390TMC3     O 5831   1.910   1.424  10.957  0.1213  0.2888 -0.4371
  390TMC3     H 5832   1.948   1.290  11.319 -2.1748  0.2813  0.9676
  390TMC3    H1 5833   1.788   1.231  10.934  0.0829  0.5794  0.4322
  390TMC3    H2 5834   1.739   0.930  11.228 -0.3761  0.2019 -1.2102
  390TMC3    C7 5835   1.661   0.998  10.996 -0.2888  0.6400 -0.9087
  390TMC3    C8 5836   1.836   1.089  11.434 -0.8029  0.3684 -0.7763
  390TMC3    O1 5837   1.682   0.973  10.878  0.4743 -0.1370  0.2766
  390TMC3    O2 5838   1.929   1.147  11.496  0.2215 -0.0315  0.0942
  391MPD2     C 5839   1.031   2.974  10.950  0.3307  0.2764 -0.4537
  391MPD2    C1 5840   1.126   3.077  10.969  0.3841 -0.1085  0.4985
  391MPD2    C2 5841   1.169   3.143  10.851  0.3008  0.4179  0.8584
  391MPD2    C3 5842   1.133   3.103  10.727 -0.9096 -0.5567  0.6144
  391MPD2    C4 5843   1.043   2.996  10.715  0.0424  0.3367 -0.1594
  391MPD2    C5 5844   0.994   2.931  10.822  0.3916 -0.5887  0.0673
  391MPD2     H 5845   1.235   3.228  10.860  0.2220  0.5880 -0.2484
  391MPD2    H1 5846   1.025   2.948  10.619 -0.1075  0.4310 -0.1785
  391MPD2    H2 5847   0.989   2.916  11.031 -0.8609  0.1991 -1.1284
  391MPD2    H3 5848   0.921   2.855  10.799  0.1065  0.2513 -1.7622
  391MPD2     N 5849   1.176   3.178  10.620 -0.2173  0.3288  0.5638
  391MPD2    H5 5850   1.232   3.261  10.632 -0.1981  0.2090  1.2871
  391MPD2    N1 5851   1.161   3.104  11.106  0.0684  0.0599  0.1071
  391MPD2    H7 5852   1.121   3.049  11.181  0.6790  0.8559  1.0067
  392TMC3    C1 5853   1.186   3.256  10.390  0.5610 -0.4084 -0.0572
  392TMC3    C2 5854   1.133   3.266  10.265  0.5636  0.1594  0.0137
  392TMC3    C3 5855   1.192   3.349  10.171 -0.3625  1.0012 -0.0847
  392TMC3    C4 5856   1.308   3.321  10.416  0.7714  0.1359  0.0054
  392TMC3    C5 5857   1.373   3.389  10.316  0.5010  0.6741 -0.3902
  392TMC3    C6 5858   1.319   3.404  10.194 -0.4337  0.4616  0.0641
  392TMC3     C 5859   1.139   3.155  10.488  0.1475  0.3488  0.0012
  392TMC3     O 5860   1.087   3.060  10.437  0.0776  0.5891  0.7034
  392TMC3     H 5861   1.040   3.216  10.242  1.6166 -1.5515 -0.5743
  392TMC3    H1 5862   1.358   3.308  10.511  0.0246  0.1452  0.4024
  392TMC3    H2 5863   1.376   3.455  10.116  1.6506  0.0149  1.3045
  392TMC3    C7 5864   1.507   3.456  10.350 -0.2167  0.5414 -0.2184
  392TMC3    C8 5865   1.119   3.383  10.057  0.4258 -0.1604  0.0788
  392TMC3    O1 5866   1.559   3.407  10.449 -0.1459  0.6484  0.5099
  392TMC3    O2 5867   1.011   3.329  10.040  0.5785 -0.2473  0.2591
  393TMC3    C1 5868   0.705   1.468  10.558  0.5898  0.2917 -0.4511
  393TMC3    C2 5869   0.603   1.445  10.642  0.4754 -0.3264  0.0208
  393TMC3    C3 5870   0.568   1.318  10.668 -0.0861  0.2807 -0.2702
  393TMC3    C4 5871   0.758   1.360  10.494  0.3927 -0.3459  0.5892
  393TMC3    C5 5872   0.706   1.230  10.512 -0.1669 -0.1782  0.1145
  393TMC3    C6 5873   0.607   1.212  10.598  0.0861  0.3999 -0.6790
  393TMC3     C 5874   0.659   1.566  10.453 -0.1820  0.1607 -0.4895
  393TMC3     O 5875   0.542   1.591  10.464 -0.0234  0.4228 -0.7994
  393TMC3     H 5876   0.553   1.526  10.693 -1.3418 -0.3630 -1.7282
  393TMC3    H1 5877   0.833   1.369  10.416  0.0880 -0.4867  0.2768
  393TMC3    H2 5878   0.574   1.110  10.617 -1.7374  0.9134 -1.1522
  393TMC3    C7 5879   0.725   1.119  10.416  0.2170  0.1771  0.1090
  393TMC3    C8 5880   0.434   1.300  10.720  0.0319 -0.3820  0.4945
  393TMC3    O1 5881   0.634   1.040  10.400  0.3374 -0.4832  0.3812
  393TMC3    O2 5882   0.373   1.201  10.690  0.0254 -0.1455 -0.2011
  394TMC3    C1 5883   1.876   1.955  10.673  0.4292 -0.2562 -0.0474
  394TMC3    C2 5884   1.789   1.940  10.573  0.0387 -0.6240  0.3661
  394TMC3    C3 5885   1.775   2.058  10.495 -0.1125  0.2650 -0.2455
  394TMC3    C4 5886   1.960   2.065  10.696  0.0520 -0.4873  0.0044
  394TMC3    C5 5887   1.939   2.182  10.624  0.1524  0.6479  0.7136
  394TMC3    C6 5888   1.843   2.174  10.528  0.1263 -0.8258  0.1999
  394TMC3     C 5889   1.882   1.849  10.781 -0.4508 -0.1851 -0.2074
  394TMC3     O 5890   1.833   1.738  10.756  0.0587  0.2677  0.0844
  394TMC3     H 5891   1.739   1.845  10.557 -1.3024  0.0753  0.4324
  394TMC3    H1 5892   2.052   2.048  10.749  0.5512  0.7707 -0.4458
  394TMC3    H2 5893   1.847   2.253  10.454  1.1155 -1.5169 -0.4732
  394TMC3    C7 5894   2.069   2.218  10.580  0.6725  0.3363  0.5257
  394TMC3    C8 5895   1.775   2.032  10.349  0.0796  0.0528  0.3294
  394TMC3    O1 5896   2.113   2.325  10.610 -0.2310  0.0644  0.5243
  394TMC3    O2 5897   1.769   2.127  10.272 -0.3966  0.0233 -0.1421
  395TMC3    C1 5898   0.799   4.075  14.622 -0.3223  0.1993  0.3515
  395TMC3    C2 5899   0.722   4.000  14.705  1.1638  0.7397  0.6973
  395TMC3    C3 5900   0.746   3.991  14.840  0.6510 -0.2188  0.0617
  395TMC3    C4 5901   0.892   4.158  14.678  0.1676 -0.1660  0.2504
  395TMC3    C5 5902   0.919   4.143  14.811 -0.4807 -0.3281 -0.0034
  395TMC3    C6 5903   0.849   4.060  14.901 -0.6210 -0.1772 -0.0103
  395TMC3     C 5904   0.870   3.981  14.536  0.0419 -0.2364  0.1611
  395TMC3     O 5905   0.995   3.988  14.525  0.3278 -0.3227  0.3092
  395TMC3     H 5906   0.635   3.947  14.668  0.0815  2.2613  1.0467
  395TMC3    H1 5907   0.961   4.211  14.613 -1.2437  0.0107 -1.1104
  395TMC3    H2 5908   0.876   4.049  15.005  1.7654 -0.4201 -0.6501
  395TMC3    C7 5909   1.031   4.216  14.869  0.1481 -0.4594  0.0970
  395TMC3    C8 5910   0.692   3.884  14.922  0.1978  0.2885 -0.1105
  395TMC3    O1 5911   1.038   4.330  14.834 -0.0397  0.4372  0.2166
  395TMC3    O2 5912   0.705   3.894  15.041  0.3377 -0.1836  0.1787
  396MPD2     C 5913   0.761   4.589  16.830  0.4238  0.2186  0.2095
  396MPD2    C1 5914   0.821   4.621  16.948  0.1635 -0.3549  0.0660
  396MPD2    C2 5915   0.886   0.024  16.967 -0.4470  1.1431  0.3350
  396MPD2    C3 5916   0.874   0.120  16.867 -0.1544  0.1219  0.1745
  396MPD2    C4 5917   0.797   0.095  16.754 -0.2188 -1.0513  0.1983
  396MPD2    C5 5918   0.747   4.687  16.738  0.5578 -0.1387 -0.1421
  396MPD2     H 5919   0.942   0.032  17.059 -0.8517  3.3264  0.3878
  396MPD2    H1 5920   0.782   0.166  16.674 -0.4731 -1.2843  0.0398
  396MPD2    H2 5921   0.712   4.495  16.811  0.3602 -0.0128  1.5255
  396MPD2    H3 5922   0.713   4.660  16.638 -1.0556 -2.0251  0.9322
  396MPD2     N 5923   0.935   0.254  16.883  0.2906 -0.2228 -0.3371
  396MPD2    H5 5924   0.999   0.268  16.961 -1.9214 -0.2286  1.4620
  396MPD2    N1 5925   0.817   4.513  17.043  0.0945  0.4848 -0.6365
  396MPD2    H7 5926   0.762   4.431  17.020 -0.2677  0.2946  0.8751
  397TMC3    C1 5927   0.864   4.382  17.211  0.2525 -0.0405 -0.4348
  397TMC3    C2 5928   0.849   4.296  17.103  0.0394 -0.1716 -0.5031
  397TMC3    C3 5929   0.929   4.187  17.083  0.3900  0.3556  0.2365
  397TMC3    C4 5930   0.959   4.358  17.299 -0.1116  0.1482  0.4392
  397TMC3    C5 5931   1.030   4.240  17.292  0.1830  0.1538  1.1046
  397TMC3    C6 5932   1.018   4.157  17.186 -0.2612  0.3064 -0.2373
  397TMC3     C 5933   0.858   4.517  17.172  0.3789 -0.7621 -0.2530
  397TMC3     O 5934   0.926   4.602  17.231  0.4214 -0.1742 -0.2569
  397TMC3     H 5935   0.749   4.287  17.061  0.1103  0.4685 -0.8091
  397TMC3    H1 5936   0.976   4.424  17.383 -0.9820  0.7342  0.1608
  397TMC3    H2 5937   1.067   4.062  17.172 -2.1664 -0.7613  0.2320
  397TMC3    C7 5938   1.124   4.188  17.390  0.2169 -0.3103  0.1052
  397TMC3    C8 5939   0.989   4.204  16.953 -0.1864  0.5225 -0.3865
  397TMC3    O1 5940   1.195   4.098  17.356 -0.3024  0.6570 -0.3321
  397TMC3    O2 5941   0.917   4.254  16.863 -0.0308  0.5465  0.1980
  398MPD2     C 5942   3.739   0.969   0.408 -0.1053 -0.0573 -0.1738
  398MPD2    C1 5943   3.831   0.885   0.473  0.0805 -0.1312 -0.3255
  398MPD2    C2 5944   3.922   0.938   0.565  0.5835  0.0191 -0.0571
  398MPD2    C3 5945   3.922   1.075   0.590 -0.4125 -1.0517 -0.4759
  398MPD2    C4 5946   3.838   1.157   0.519  0.3598  0.1093 -0.0173
  398MPD2    C5 5947   3.751   1.105   0.426  0.3225  0.7601  0.4328
  398MPD2     H 5948   4.002   0.872   0.598  0.6284  0.3483  0.4851
  398MPD2    H1 5949   3.831   1.265   0.528  0.0160  0.0329  0.6380
  398MPD2    H2 5950   3.678   0.942   0.323  0.9005  0.4257 -1.0528
  398MPD2    H3 5951   3.689   1.169   0.364 -0.0514  1.4302  1.4953
  398MPD2     N 5952   4.023   1.119   0.676  0.3706 -0.3435 -0.1017
  398MPD2    H5 5953   4.061   1.050   0.740  1.1612  0.2545  0.0630
  398MPD2    N1 5954   3.828   0.751   0.445  0.0881 -0.6952  0.1691
  398MPD2    H7 5955   3.909   0.699   0.478  1.1680  1.0582  0.2842
  399TMC3    C1 5956   3.756   0.538   0.388 -0.0926 -0.2368 -0.1534
  399TMC3    C2 5957   3.888   0.491   0.401  0.0358  0.0434  0.5916
  399TMC3    C3 5958   3.907   0.363   0.414 -0.0319  0.0438 -0.0670
  399TMC3    C4 5959   3.650   0.452   0.376 -0.2966  0.4060  0.0426
  399TMC3    C5 5960   3.682   0.319   0.387  0.3563 -0.1119 -0.3161
  399TMC3    C6 5961   3.805   0.271   0.403  0.5098 -0.7403  0.0925
  399TMC3     C 5962   3.734   0.676   0.373 -0.3073  0.0273  0.0845
  399TMC3     O 5963   3.624   0.704   0.325  0.3400  0.0264  0.0691
  399TMC3     H 5964   3.973   0.558   0.401  1.5192 -1.8817  2.4910
  399TMC3    H1 5965   3.554   0.493   0.346 -0.7048 -0.7727 -0.2623
  399TMC3    H2 5966   3.816   0.168   0.433  0.7039 -0.9582 -0.7177
  399TMC3    C7 5967   3.575   0.230   0.424 -0.1996 -0.7944 -0.0918
  399TMC3    C8 5968   4.049   0.324   0.408  0.7598 -0.1470 -0.7111
  399TMC3    O1 5969   3.600   0.112   0.439  0.4040  0.6743 -0.1277
  399TMC3    O2 5970   4.135   0.409   0.417  0.2608  0.1705  0.2082
  400TMC3    C1 5971   3.178   4.043  16.890  0.4400  0.4261 -0.1171
  400TMC3    C2 5972   3.082   4.096  16.798 -0.0632 -0.6819  0.5800
  400TMC3    C3 5973   3.080   4.234  16.796  0.7337 -0.1993 -0.0422
  400TMC3    C4 5974   3.263   4.115  16.973  0.0505 -0.6559  0.1665
  400TMC3    C5 5975   3.243   4.253  16.969 -0.0199 -0.0630 -0.3125
  400TMC3    C6 5976   3.160   4.311  16.878 -0.3386 -0.8693  0.4133
  400TMC3     C 5977   3.167   3.899  16.914 -0.1047 -0.4068 -0.9244
  400TMC3     O 5978   3.151   3.826  16.816 -0.1331  0.0954 -0.6722
  400TMC3     H 5979   3.020   4.028  16.740  1.6836 -2.3183  0.6408
  400TMC3    H1 5980   3.332   4.068  17.041 -1.3401 -1.8411  0.7459
  400TMC3    H2 5981   3.150   4.419  16.869  4.3450 -0.2902  1.6755
  400TMC3    C7 5982   3.305   4.333  17.066  0.0534 -0.4060 -0.7506
  400TMC3    C8 5983   2.966   4.295  16.736  0.2070  0.0485 -0.4375
  400TMC3    O1 5984   3.408   4.282  17.116 -0.2171  0.4521  0.2702
  400TMC3    O2 5985   2.959   4.418  16.750  0.8159 -0.2315  0.0105
  401MPD2     C 5986   0.838   3.533   1.377 -0.8003 -0.2981  0.0674
  401MPD2    C1 5987   0.827   3.488   1.251  0.6305 -0.1480  0.6297
  401MPD2    C2 5988   0.700   3.475   1.197 -0.1276  0.2990 -0.0575
  401MPD2    C3 5989   0.591   3.509   1.271 -0.1230  0.6994 -0.5456
  401MPD2    C4 5990   0.600   3.560   1.400  0.3420  0.3682  0.7352
  401MPD2    C5 5991   0.727   3.573   1.454 -1.2593 -0.4772  0.0295
  401MPD2     H 5992   0.671   3.434   1.101  1.8347 -1.4510  0.0952
  401MPD2    H1 5993   0.514   3.594   1.456  0.7596 -0.4017  1.8499
  401MPD2    H2 5994   0.936   3.538   1.424 -0.3474 -1.4829 -0.7660
  401MPD2    H3 5995   0.726   3.618   1.553 -2.4373 -3.2273  1.2727
  401MPD2     N 5996   0.462   3.485   1.212  0.1917 -0.2097  0.7490
  401MPD2    H5 5997   0.466   3.463   1.113 -0.7463 -0.6024  0.8017
  401MPD2    N1 5998   0.935   3.440   1.179 -0.2260  0.6301  0.0491
  401MPD2    H7 5999   0.921   3.411   1.083  0.1859  2.6738 -0.6237
  402TMC3    C1 6000   0.239   3.402   1.199 -0.3761  0.4782  0.6207
  402TMC3    C2 6001   0.183   3.301   1.267  0.3552 -0.2893 -0.3591
  402TMC3    C3 6002   0.129   3.191   1.201 -0.1770 -0.1373 -0.3360
  402TMC3    C4 6003   0.248   3.403   1.058  0.3459  0.4060  0.0520
  402TMC3    C5 6004   0.191   3.294   0.999  0.8437 -0.3021  0.0287
  402TMC3    C6 6005   0.151   3.179   1.066 -0.5647  0.1551 -0.2749
  402TMC3     C 6006   0.343   3.467   1.281 -0.5863  0.0000  0.3027
  402TMC3     O 6007   0.314   3.480   1.395 -0.2011 -0.2173  0.5933
  402TMC3     H 6008   0.202   3.293   1.374 -2.0410  0.8158  0.1593
  402TMC3    H1 6009   0.275   3.492   1.003  0.2458  0.7185  0.5118
  402TMC3    H2 6010   0.144   3.082   1.018 -2.1868  0.8191 -1.3869
  402TMC3    C7 6011   0.242   3.263   0.864  0.8041 -0.0117 -0.2054
  402TMC3    C8 6012   0.091   3.072   1.274  0.1498 -0.3685  0.7537
  402TMC3    O1 6013   0.218   3.342   0.770 -0.0011 -0.3140  0.2323
  402TMC3    O2 6014   0.105   2.966   1.212 -0.1218  0.8803  0.5356
  403MPD2     C 6015   4.616   1.506  13.167  0.6774 -0.3154  0.3134
  403MPD2    C1 6016   4.612   1.395  13.251  0.2143  0.1471  0.0459
  403MPD2    C2 6017   4.676   1.401  13.383  0.2144 -0.7197  0.8760
  403MPD2    C3 6018   0.015   1.519  13.417  0.2810 -0.2528 -0.1756
  403MPD2    C4 6019   0.024   1.623  13.323  0.2257 -0.4281  0.1987
  403MPD2    C5 6020   4.680   1.618  13.205 -0.4073 -0.0446  0.8439
  403MPD2     H 6021   4.681   1.314  13.447  1.0853 -1.1051  0.2866
  403MPD2    H1 6022   0.071   1.721  13.333 -0.7975  0.2444 -1.5316
  403MPD2    H2 6023   4.578   1.509  13.066  1.1337  0.0383  0.1505
  403MPD2    H3 6024   4.676   1.707  13.144 -2.5848 -1.5664 -1.2084
  403MPD2     N 6025   0.080   1.525  13.543 -0.3471 -0.4422  0.5881
  403MPD2    H5 6026   0.105   1.437  13.586  0.1296 -0.3525  0.4945
  403MPD2    N1 6027   4.552   1.282  13.199  0.2510  0.3731  0.2085
  403MPD2    H7 6028   4.538   1.284  13.098 -3.3780 -0.4792  0.6902
  404TMC3    C1 6029   4.509   1.048  13.184  0.1961 -0.7373 -0.4169
  404TMC3    C2 6030   4.557   0.932  13.231  0.5306  0.8421  0.0116
  404TMC3    C3 6031   4.547   0.820  13.150 -0.3390  0.9276  0.2958
  404TMC3    C4 6032   4.462   1.054  13.053 -0.3270 -0.5213  0.5605
  404TMC3    C5 6033   4.455   0.937  12.973 -0.7023 -0.3999 -0.7592
  404TMC3    C6 6034   4.482   0.812  13.031  0.8279  0.8399 -0.5004
  404TMC3     C 6035   4.535   1.163  13.267 -0.0365 -0.4676  0.0435
  404TMC3     O 6036   4.549   1.141  13.385  0.2384 -0.4052 -0.0446
  404TMC3     H 6037   4.602   0.925  13.329 -0.7985  1.9700  0.7148
  404TMC3    H1 6038   4.430   1.145  13.004  0.9912  1.1094  2.7313
  404TMC3    H2 6039   4.509   0.733  12.962  2.3009  0.8678  0.0481
  404TMC3    C7 6040   4.381   0.952  12.847 -0.3839  0.1253 -0.1284
  404TMC3    C8 6041   4.542   0.692  13.227  0.3037  0.3003 -0.1266
  404TMC3    O1 6042   4.360   1.063  12.800  0.0603  0.1840  0.0017
  404TMC3    O2 6043   4.541   0.588  13.165  0.4545  0.0400 -0.0205
  405MPD2     C 6044   4.422   2.121  14.519  0.0187 -0.8253 -0.2901
  405MPD2    C1 6045   4.453   2.014  14.429 -0.6223 -0.5682  0.0681
  405MPD2    C2 6046   4.371   1.995  14.317  0.1707 -0.0256 -0.0024
  405MPD2    C3 6047   4.274   2.091  14.286  0.0690  0.1163 -0.3702
  405MPD2    C4 6048   4.237   2.190  14.381 -0.2374  0.7347 -0.1737
  405MPD2    C5 6049   4.319   2.206  14.496 -0.4129  0.0864 -0.1399
  405MPD2     H 6050   4.381   1.910  14.251  0.6692  0.1955 -0.2103
  405MPD2    H1 6051   4.155   2.260  14.364 -0.9624 -0.1139 -0.1330
  405MPD2    H2 6052   4.478   2.134  14.610 -1.6017  3.0160  0.1357
  405MPD2    H3 6053   4.293   2.273  14.577 -0.8361 -1.1635  0.7685
  405MPD2     N 6054   4.214   2.076  14.162 -0.2897 -0.0513 -0.7079
  405MPD2    H5 6055   4.239   1.988  14.117 -0.1188  0.4397 -1.5787
  405MPD2    N1 6056   4.545   1.915  14.470 -0.0988  0.3754  0.2646
  405MPD2    H7 6057   4.592   1.926  14.559  0.0877  2.3303 -0.0848
  406TMC3    C1 6058   3.776   2.044  14.074 -0.3841  0.5969  0.1500
  406TMC3    C2 6059   3.788   1.908  14.077 -0.5752  0.2776 -0.2287
  406TMC3    C3 6060   3.919   1.854  14.058  0.1208  0.8975 -0.3491
  406TMC3    C4 6061   3.879   2.129  14.060  0.3276  0.4037 -0.0044
  406TMC3    C5 6062   4.006   2.072  14.044  0.1383  0.1464  0.4082
  406TMC3    C6 6063   4.019   1.942  14.035  0.6945 -0.2641 -1.2437
  406TMC3     C 6064   3.648   2.102  14.102 -0.0265  0.4777  0.0340
  406TMC3     O 6065   3.638   2.222  14.070  0.0381 -0.5727  0.5780
  406TMC3     H 6066   3.702   1.842  14.087 -1.6970  1.9441  1.0754
  406TMC3    H1 6067   3.869   2.237  14.053  1.4298  0.2752 -3.2945
  406TMC3    H2 6068   4.121   1.907  14.028  0.9620 -0.1820  2.0001
  406TMC3    C7 6069   4.103   2.150  14.115 -0.1976 -0.2397 -0.6686
  406TMC3    C8 6070   3.947   1.718  14.097 -0.0700 -0.9441  0.5278
  406TMC3    O1 6071   4.081   2.270  14.140  0.3383  0.1595  0.2040
  406TMC3    O2 6072   3.840   1.649  14.107 -0.7924  0.1776  0.2778
  407MPD2     C 6073   1.999   3.515   9.690 -1.1529 -0.3234 -0.6237
  407MPD2    C1 6074   2.135   3.506   9.659 -0.1523  0.1586  0.3076
  407MPD2    C2 6075   2.234   3.535   9.757  0.3490  0.0090 -0.3763
  407MPD2    C3 6076   2.190   3.578   9.882  0.4160  0.5363  0.1523
  407MPD2    C4 6077   2.055   3.577   9.915  0.1697 -0.4444  0.3170
  407MPD2    C5 6078   1.964   3.542   9.821  0.1616 -0.0978 -1.0758
  407MPD2     H 6079   2.334   3.507   9.729  1.3804  3.0332  0.2991
  407MPD2    H1 6080   2.015   3.595  10.014  1.4524 -0.8018  0.8879
  407MPD2    H2 6081   1.922   3.496   9.616  0.0065 -2.5976 -1.2512
  407MPD2    H3 6082   1.859   3.538   9.849  0.4369  1.5488  0.1792
  407MPD2     N 6083   2.284   3.595   9.993 -0.2847 -0.2866 -0.1307
  407MPD2    H5 6084   2.244   3.619  10.083 -2.8237 -2.6431 -0.6442
  407MPD2    N1 6085   2.178   3.484   9.529 -0.3646 -0.6358 -0.2128
  407MPD2    H7 6086   2.279   3.485   9.514 -0.2906  0.3577  0.3454
  408TMC3    C1 6087   2.176   3.460   9.297  0.2576  0.6413 -0.0930
  408TMC3    C2 6088   2.285   3.378   9.293 -0.0030  0.7032  0.6046
  408TMC3    C3 6089   2.376   3.394   9.194 -0.4259  0.3150 -0.5986
  408TMC3    C4 6090   2.147   3.561   9.213 -0.1324 -0.4032 -0.7204
  408TMC3    C5 6091   2.236   3.574   9.108 -0.0307 -0.1623 -0.4790
  408TMC3    C6 6092   2.352   3.495   9.099  0.1000  0.3652  0.4470
  408TMC3     C 6093   2.101   3.472   9.422  1.1493  0.2714  0.1502
  408TMC3     O 6094   1.981   3.487   9.397  0.1108  0.4022  0.3124
  408TMC3     H 6095   2.295   3.304   9.371 -3.4104 -0.7648 -0.3617
  408TMC3    H1 6096   2.071   3.635   9.235  1.1274  0.3747  1.0032
  408TMC3    H2 6097   2.409   3.497   9.007  1.1244 -2.4020  1.0231
  408TMC3    C7 6098   2.254   3.705   9.053  0.3513 -0.0627 -0.4267
  408TMC3    C8 6099   2.505   3.336   9.225  0.6175  0.4417  0.3092
  408TMC3    O1 6100   2.366   3.731   9.012 -0.3421  0.0177  0.1909
  408TMC3    O2 6101   2.502   3.227   9.283 -0.7466  0.4492  0.2115
  409MPD2     C 6102   1.889   3.741  16.985 -0.1733 -0.4534  0.2719
  409MPD2    C1 6103   1.994   3.811  17.043  0.3855 -0.1868  0.1536
  409MPD2    C2 6104   2.061   3.901  16.968 -0.1490  0.0663  0.3712
  409MPD2    C3 6105   2.050   3.908  16.833 -0.3958  0.1953  0.6335
  409MPD2    C4 6106   1.954   3.836  16.763 -0.0042  0.2522  0.0843
  409MPD2    C5 6107   1.874   3.754  16.844  0.1950  0.7954 -0.4897
  409MPD2     H 6108   2.131   3.970  17.012 -0.6112 -1.4135  3.4375
  409MPD2    H1 6109   1.928   3.859  16.660 -1.5973 -1.7206  0.0558
  409MPD2    H2 6110   1.834   3.660  17.032 -1.7669  0.7575  0.4823
  409MPD2    H3 6111   1.794   3.710  16.786 -1.8080  2.3330  1.1382
  409MPD2     N 6112   2.130   3.994  16.756 -0.3948 -0.2435  0.5322
  409MPD2    H5 6113   2.120   3.994  16.654 -1.1916 -1.0869  0.6028
  409MPD2    N1 6114   2.027   3.803  17.178 -0.2902 -0.0512 -0.0697
  409MPD2    H7 6115   2.094   3.869  17.216  1.8610 -0.8456 -2.5159
  410TMC3    C1 6116   2.290   4.160  16.696  0.0668  0.2628 -0.2651
  410TMC3    C2 6117   2.408   4.220  16.741  0.1117  0.5738 -0.3715
  410TMC3    C3 6118   2.403   4.359  16.750 -0.5244  0.7533  0.0051
  410TMC3    C4 6119   2.187   4.235  16.631  0.0047  0.3975  0.2759
  410TMC3    C5 6120   2.183   4.373  16.642 -0.2790  0.1789  0.3731
  410TMC3    C6 6121   2.294   4.436  16.706  0.1243 -0.5957 -1.1139
  410TMC3     C 6122   2.241   4.061  16.794 -0.8268 -0.2328  0.0473
  410TMC3     O 6123   2.308   4.051  16.893  0.4818  0.2705  0.2742
  410TMC3     H 6124   2.489   4.157  16.777 -1.3178 -1.0670 -0.0553
  410TMC3    H1 6125   2.108   4.178  16.585  2.1046 -1.8243 -0.5904
  410TMC3    H2 6126   2.295   4.544  16.718  1.5305 -0.5015 -2.0814
  410TMC3    C7 6127   2.081   4.439  16.565  0.1492 -0.3453 -0.2979
  410TMC3    C8 6128   2.476   4.410  16.863 -0.0092 -0.0119  0.2771
  410TMC3    O1 6129   2.002   4.379  16.495 -0.2096 -0.6510  0.1480
  410TMC3    O2 6130   2.509   4.329  16.947 -0.8931 -0.2581  0.1242
  411MPD2     C 6131   1.945   4.592  14.675 -0.3628 -0.3862  0.6260
  411MPD2    C1 6132   1.822   4.646  14.646 -0.2271 -0.7962  0.2930
  411MPD2    C2 6133   1.711   4.563  14.637 -0.0280 -0.4875  0.3020
  411MPD2    C3 6134   1.721   4.426  14.657  0.6210  0.4525 -1.1188
  411MPD2    C4 6135   1.848   4.373  14.680 -1.0260 -0.2417 -0.0987
  411MPD2    C5 6136   1.952   4.452  14.692 -0.4315 -0.0405  0.5072
  411MPD2     H 6137   1.616   4.611  14.618  0.5631 -0.6944 -3.1508
  411MPD2    H1 6138   1.865   4.276  14.725 -0.6542 -0.0985  0.0694
  411MPD2    H2 6139   2.041   4.640  14.690  0.1615 -1.1725 -0.2135
  411MPD2    H3 6140   2.044   4.403  14.719 -2.1132 -4.2562 -1.3013
  411MPD2     N 6141   1.606   4.340  14.661  0.5361  0.0413 -0.3912
  411MPD2    H5 6142   1.624   4.242  14.682 -0.6121  0.2057  1.3514
  411MPD2    N1 6143   1.801   0.058  14.608 -0.1324  0.2631 -0.5476
  411MPD2    H7 6144   1.712   0.089  14.571  0.5436  1.7737 -0.9276
  412TMC3    C1 6145   1.380   4.307  14.636 -0.0568 -0.2214  0.2442
  412TMC3    C2 6146   1.257   4.376  14.607  0.0357 -0.4203  0.9082
  412TMC3    C3 6147   1.174   4.301  14.530  0.2962  0.0085  0.4816
  412TMC3    C4 6148   1.414   4.179  14.586 -0.1290  0.2726 -0.7060
  412TMC3    C5 6149   1.324   4.121  14.497  0.1996  0.5342  0.6521
  412TMC3    C6 6150   1.202   4.177  14.486  0.0903  0.0012 -0.0610
  412TMC3     C 6151   1.483   4.396  14.673  0.1342  0.1377  0.3206
  412TMC3     O 6152   1.452   4.487  14.746  0.0465 -0.3885  0.1198
  412TMC3     H 6153   1.246   4.482  14.628 -2.7618 -0.6214  0.4208
  412TMC3    H1 6154   1.513   4.136  14.598 -0.7252 -0.9769 -0.2129
  412TMC3    H2 6155   1.141   4.122  14.416 -2.0546  1.0507  0.9859
  412TMC3    C7 6156   1.377   4.074  14.371  1.1521 -0.3124 -0.0713
  412TMC3    C8 6157   1.114   4.378  14.424 -0.2599 -0.4047 -0.1529
  412TMC3    O1 6158   1.485   4.014  14.371 -0.4547  0.0313 -0.0774
  412TMC3    O2 6159   1.106   4.326  14.314 -0.0545  0.4342  0.2138
  413MPD2     C 6160   3.428   3.310  15.289  0.4344 -0.9021  0.6914
  413MPD2    C1 6161   3.387   3.264  15.168 -0.0538  0.1327  0.7366
  413MPD2    C2 6162   3.473   3.177  15.094 -0.0140 -0.1231 -0.5578
  413MPD2    C3 6163   3.596   3.145  15.150  0.3577 -0.0437 -1.0355
  413MPD2    C4 6164   3.647   3.214  15.256  0.5518 -0.7750 -0.2326
  413MPD2    C5 6165   3.560   3.289  15.327  0.0925  0.5184  0.0316
  413MPD2     H 6166   3.440   3.119  15.009  0.3250 -0.5054 -0.4336
  413MPD2    H1 6167   3.747   3.214  15.298  0.2039  3.9154  0.6180
  413MPD2    H2 6168   3.373   3.368  15.363 -1.4212  0.0596 -1.4028
  413MPD2    H3 6169   3.597   3.332  15.419  0.6926 -1.4128  0.6994
  413MPD2     N 6170   3.658   3.049  15.076  0.4266 -0.3923  0.3028
  413MPD2    H5 6171   3.604   3.011  14.999 -1.9913  0.4102  1.6152
  413MPD2    N1 6172   3.253   3.293  15.137 -0.4018 -0.0011 -0.0285
  413MPD2    H7 6173   3.209   3.362  15.198 -0.1355  1.2083 -1.2208
  414TMC3    C1 6174   3.816   2.875  15.023  0.6855  0.5458 -0.4131
  414TMC3    C2 6175   3.924   2.793  15.063  0.4854  0.6328 -0.2695
  414TMC3    C3 6176   3.937   2.674  14.997  0.0015 -0.3325  0.4286
  414TMC3    C4 6177   3.744   2.850  14.908  0.3706  0.4799  0.2183
  414TMC3    C5 6178   3.783   2.732  14.834  0.2120  0.9648 -0.8881
  414TMC3    C6 6179   3.868   2.637  14.883 -0.1444 -0.0340  0.2343
  414TMC3     C 6180   3.789   2.995  15.094 -0.9839 -0.3514 -0.7139
  414TMC3     O 6181   3.861   3.020  15.190  0.1583 -1.1226  0.1011
  414TMC3     H 6182   3.969   2.805  15.161 -0.5452  1.7304  0.0610
  414TMC3    H1 6183   3.683   2.926  14.861 -1.9541 -0.9484  0.9190
  414TMC3    H2 6184   3.898   2.545  14.834  0.8977 -0.0339  0.8772
  414TMC3    C7 6185   3.706   2.715  14.710 -0.0011  0.1227  0.5822
  414TMC3    C8 6186   4.045   2.588  15.032 -0.6871 -0.3006 -0.2241
  414TMC3    O1 6187   3.585   2.744  14.712 -0.3761  0.1007  0.2557
  414TMC3    O2 6188   4.040   2.472  14.985  0.2201 -0.2018  0.0900
  415TMC3    C1 6189   4.192   0.899  10.149 -0.5704 -0.1642  0.0561
  415TMC3    C2 6190   4.277   0.964  10.064 -0.5361 -0.1871 -0.3588
  415TMC3    C3 6191   4.231   0.973   9.931 -0.5172 -0.5724  0.1149
  415TMC3    C4 6192   4.078   0.835  10.113 -0.8017 -0.3545 -0.0078
  415TMC3    C5 6193   4.044   0.849   9.982  0.0858 -0.4182 -0.2688
  415TMC3    C6 6194   4.113   0.919   9.887  0.2493 -0.6194 -0.1933
  415TMC3     C 6195   4.235   0.877  10.283 -0.2691 -0.8614  0.6289
  415TMC3     O 6196   4.193   0.768  10.319 -0.2586  0.1937  0.7174
  415TMC3     H 6197   4.358   1.024  10.104  0.5544 -0.9145 -1.4626
  415TMC3    H1 6198   4.009   0.803  10.189 -0.3308 -2.5316 -0.4877
  415TMC3    H2 6199   4.099   0.917   9.780 -0.8025 -0.4781 -0.0653
  415TMC3    C7 6200   3.957   0.755   9.930 -0.4656 -0.2526 -0.1132
  415TMC3    C8 6201   4.328   1.015   9.826  0.7106 -0.0785  0.1142
  415TMC3    O1 6202   3.917   0.763   9.818 -0.0159 -0.1705  0.4415
  415TMC3    O2 6203   4.295   1.002   9.708 -0.2579 -0.0648  0.2207
  416MPD2     C 6204   1.439   4.387  11.314 -0.0624 -0.2412 -0.0951
  416MPD2    C1 6205   1.305   4.357  11.329 -0.3971 -0.0831  1.3317
  416MPD2    C2 6206   1.264   4.243  11.261  0.4587  0.8580 -0.6462
  416MPD2    C3 6207   1.350   4.158  11.190 -0.7524 -0.4643 -0.3254
  416MPD2    C4 6208   1.489   4.188  11.174  0.2412 -0.1175  0.2605
  416MPD2    C5 6209   1.526   4.304  11.248 -0.1256 -0.3218  0.0290
  416MPD2     H 6210   1.164   4.212  11.288  1.0381  1.5589  2.2947
  416MPD2    H1 6211   1.569   4.118  11.152  1.8781  1.2081  1.9317
  416MPD2    H2 6212   1.492   4.473  11.355 -1.4255  0.7622 -0.4449
  416MPD2    H3 6213   1.632   4.327  11.259 -0.5590  1.9537 -0.5537
  416MPD2     N 6214   1.312   4.027  11.162  0.2006  0.3210  0.3601
  416MPD2    H5 6215   1.387   3.959  11.151 -1.5115 -1.3204 -1.1504
  416MPD2    N1 6216   1.211   4.443  11.392  0.1319 -0.1400  0.2726
  416MPD2    H7 6217   1.251   4.528  11.432  0.8797 -1.6169  2.6992
  417TMC3    C1 6218   1.012   4.551  11.441  0.1840  0.2153  0.4885
  417TMC3    C2 6219   1.064   4.589  11.570 -0.4263  0.1383 -0.0996
  417TMC3    C3 6220   0.993   4.690  11.629 -0.4917 -0.2187 -0.1186
  417TMC3    C4 6221   0.910   4.619  11.371  0.1750 -0.4166 -0.1510
  417TMC3    C5 6222   0.853   4.721  11.435  0.7870 -0.1358 -0.4038
  417TMC3    C6 6223   0.888   0.034  11.561  0.0876 -0.3900 -1.1878
  417TMC3     C 6224   1.076   4.444  11.370 -0.1624  0.0088 -0.3796
  417TMC3     O 6225   1.007   4.400  11.277  0.5217 -1.0739 -0.0584
  417TMC3     H 6226   1.120   4.517  11.628 -0.5268 -0.9635 -1.3839
  417TMC3    H1 6227   0.865   4.593  11.276 -1.6995 -0.9905  0.8877
  417TMC3    H2 6228   0.843   0.120  11.610  1.1623 -0.4068 -0.1790
  417TMC3    C7 6229   0.767   0.088  11.359  0.2897  0.4378 -0.0720
  417TMC3    C8 6230   0.995   4.705  11.769 -0.3970 -0.0929  0.2871
  417TMC3    O1 6231   0.756   0.065  11.235  0.6662  0.4161 -0.0732
  417TMC3    O2 6232   0.899   0.037  11.827  0.2021  0.4602 -0.2103
  418TMC3    C1 6233   4.415   1.264   0.700  0.3695 -0.0659  0.5591
  418TMC3    C2 6234   4.297   1.334   0.724  0.1066 -0.4196 -0.4859
  418TMC3    C3 6235   4.195   1.263   0.781 -0.0426  0.1654 -0.7431
  418TMC3    C4 6236   4.440   1.148   0.771  0.3250 -0.1019  0.1814
  418TMC3    C5 6237   4.342   1.086   0.839 -0.3202  0.0837  0.5787
  418TMC3    C6 6238   4.218   1.138   0.843  0.4761  0.9191 -0.1444
  418TMC3     C 6239   4.447   1.267   0.557  0.1926  0.6575  0.1550
  418TMC3     O 6240   4.428   1.370   0.498 -0.5672  0.5427  0.2992
  418TMC3     H 6241   4.276   1.424   0.666 -0.4793  0.2640  0.7925
  418TMC3    H1 6242   4.535   1.096   0.772 -0.4922 -1.5678  2.1881
  418TMC3    H2 6243   4.137   1.087   0.893  0.0080 -0.8279 -2.6918
  418TMC3    C7 6244   4.345   0.955   0.890  0.2400  0.2341  0.1843
  418TMC3    C8 6245   4.069   1.249   0.689  0.0853 -0.2930  0.5051
  418TMC3    O1 6246   4.250   0.890   0.856  0.3748  0.1730 -0.6849
  418TMC3    O2 6247   4.035   1.349   0.630 -0.3195 -0.1326 -0.4702
  419MPD2     C 6248   2.878   4.228  11.969  0.6230  0.3103 -0.0861
  419MPD2    C1 6249   2.991   4.278  12.032  0.4299 -0.0901  0.4124
  419MPD2    C2 6250   2.983   4.296  12.167  0.8111  0.1125 -0.0278
  419MPD2    C3 6251   2.870   4.265  12.234 -0.1659  0.1372  0.1781
  419MPD2    C4 6252   2.762   4.213  12.172  0.2683  0.0101  0.5123
  419MPD2    C5 6253   2.765   4.195  12.038  0.4132 -0.1704 -0.8380
  419MPD2     H 6254   3.069   4.344  12.212  0.8237  0.3861 -0.3425
  419MPD2    H1 6255   2.671   4.203  12.231 -0.6831  3.1039 -0.4467
  419MPD2    H2 6256   2.868   4.202  11.864 -1.1306  0.4736  0.0390
  419MPD2    H3 6257   2.672   4.155  11.998  0.4591  1.0731 -2.1690
  419MPD2     N 6258   2.865   4.277  12.375 -0.1284  0.7073  0.2032
  419MPD2    H5 6259   2.775   4.252  12.416 -0.4625  1.0703 -0.3084
  419MPD2    N1 6260   3.098   4.319  11.962  0.0957 -0.3275 -0.9522
  419MPD2    H7 6261   3.169   4.358  12.023 -2.4753  1.0556  1.1399
  420TMC3    C1 6262   2.905   4.305  12.594 -0.3049 -1.0135  0.8365
  420TMC3    C2 6263   2.778   4.345  12.618 -0.0040  0.4407  0.1699
  420TMC3    C3 6264   2.738   4.353  12.745  0.4731  0.1713 -0.4280
  420TMC3    C4 6265   2.991   4.286  12.695  0.4149 -0.2430 -0.5510
  420TMC3    C5 6266   2.942   4.285  12.823  0.6235 -0.2332 -0.2627
  420TMC3    C6 6267   2.809   4.303  12.852  0.6474  0.2071 -0.2206
  420TMC3     C 6268   2.961   4.316  12.464 -0.3221  0.0171  0.0796
  420TMC3     O 6269   3.082   4.327  12.450  0.2122 -0.2288 -0.1860
  420TMC3     H 6270   2.714   4.382  12.538  0.0212  0.7212  0.2786
  420TMC3    H1 6271   3.091   4.263  12.661  0.7886 -0.4085  0.6787
  420TMC3    H2 6272   2.782   4.306  12.957  1.6015 -0.3787  0.0499
  420TMC3    C7 6273   3.026   4.331  12.930  0.3146 -0.2141  0.2712
  420TMC3    C8 6274   2.677   4.489  12.772 -0.7700 -0.0310 -0.4629
  420TMC3    O1 6275   3.010   4.273  13.037 -0.7649  0.4285  0.0352
  420TMC3    O2 6276   2.631   4.552  12.679 -0.0320  0.1371 -0.1864
  421TMC3    C1 6277   0.225   1.635  13.704  0.0657 -0.7438 -0.3275
  421TMC3    C2 6278   0.287   1.751  13.745  0.2459  0.0444 -0.0643
  421TMC3    C3 6279   0.406   1.750  13.804 -0.1655 -0.6139  0.3676
  421TMC3    C4 6280   0.281   1.515  13.723  0.5873 -0.7285  1.4722
  421TMC3    C5 6281   0.406   1.518  13.779  0.4101 -0.7164 -0.3602
  421TMC3    C6 6282   0.470   1.629  13.824 -0.1727  0.1725 -0.6375
  421TMC3     C 6283   0.130   1.647  13.591  0.1518 -0.4277 -0.3761
  421TMC3     O 6284   0.101   1.757  13.556 -0.1982 -0.0289 -0.7273
  421TMC3     H 6285   0.227   1.840  13.730 -2.4707 -1.4121  2.0246
  421TMC3    H1 6286   0.252   1.418  13.683  0.6891 -0.7154  1.3679
  421TMC3    H2 6287   0.573   1.629  13.859 -1.2031 -0.1883  2.3136
  421TMC3    C7 6288   0.469   1.396  13.833 -0.1605  0.2283  0.2455
  421TMC3    C8 6289   0.442   1.856  13.896  0.2258  0.5914 -0.2359
  421TMC3    O1 6290   0.581   1.412  13.873 -0.7484 -0.1739 -0.7366
  421TMC3    O2 6291   0.558   1.893  13.909 -0.2667  0.2326 -0.0329
  422TMC3    C1 6292   2.053   2.582  12.718  0.3614 -0.1478  0.3043
  422TMC3    C2 6293   2.002   2.711  12.734 -0.2181 -0.0912 -0.1578
  422TMC3    C3 6294   1.878   2.718  12.776 -0.5145  0.0535 -0.1044
  422TMC3    C4 6295   1.978   2.471  12.727  0.4754  0.2235  0.3870
  422TMC3    C5 6296   1.849   2.493  12.755  0.2600 -0.5670  0.8938
  422TMC3    C6 6297   1.795   2.616  12.781 -1.0489 -0.1440  0.0987
  422TMC3     C 6298   2.173   2.569  12.641  0.3083 -0.2077 -0.0792
  422TMC3     O 6299   2.217   2.672  12.601 -0.5031 -0.1332  0.2114
  422TMC3     H 6300   2.064   2.800  12.741  0.7954 -0.8760  0.8267
  422TMC3    H1 6301   2.008   2.367  12.718 -0.0392  0.1894 -0.9729
  422TMC3    H2 6302   1.705   2.618  12.842 -0.0671  0.6383  1.5103
  422TMC3    C7 6303   1.762   2.382  12.723  0.0842 -0.0343 -0.3414
  422TMC3    C8 6304   1.835   2.847  12.839 -0.2461  0.3447  0.4938
  422TMC3    O1 6305   1.809   2.283  12.664 -0.0303 -0.1555 -0.6225
  422TMC3    O2 6306   1.923   2.927  12.864 -0.0477  0.3559  0.3830
  423MPD2     C 6307   3.441   3.529   0.534  0.2929 -0.4195  0.1154
  423MPD2    C1 6308   3.364   3.421   0.491 -1.0503  0.4189 -0.0431
  423MPD2    C2 6309   3.403   3.346   0.381  0.4683  0.0597  0.2688
  423MPD2    C3 6310   3.518   3.378   0.310 -0.8253  0.1295  0.7726
  423MPD2    C4 6311   3.586   3.486   0.346 -0.4965  0.2729 -0.4361
  423MPD2    C5 6312   3.547   3.564   0.456  0.2038 -0.0822 -0.1677
  423MPD2     H 6313   3.349   3.256   0.351  0.2113 -0.0308  1.0055
  423MPD2    H1 6314   3.673   3.514   0.288 -1.2875  1.8240 -0.8922
  423MPD2    H2 6315   3.413   3.595   0.616 -3.5964 -0.1207 -1.4781
  423MPD2    H3 6316   3.605   3.652   0.484 -1.1764  0.7160  0.1730
  423MPD2     N 6317   3.555   3.312   0.188  0.0306 -1.1188 -1.0823
  423MPD2    H5 6318   3.637   3.356   0.148  0.6352 -1.6028 -0.3721
  423MPD2    N1 6319   3.254   3.388   0.568 -0.5135 -0.2376 -0.0482
  423MPD2    H7 6320   3.208   3.300   0.547  2.3910 -1.6690 -0.5661
  424TMC3    C1 6321   3.068   3.412   0.717 -0.0152 -0.5390  0.3728
  424TMC3    C2 6322   3.054   3.279   0.751 -0.4778 -0.8375  0.6356
  424TMC3    C3 6323   2.929   3.240   0.799  0.5338  0.6639 -0.2386
  424TMC3    C4 6324   2.962   3.493   0.716 -0.2447 -0.1816  0.6959
  424TMC3    C5 6325   2.849   3.455   0.774  0.4392 -0.3562  0.6070
  424TMC3    C6 6326   2.826   3.328   0.809  0.8077 -0.5422  0.4333
  424TMC3     C 6327   3.189   3.468   0.657  0.0575 -0.5112 -0.1601
  424TMC3     O 6328   3.185   3.593   0.641  0.0587  0.1280  0.0233
  424TMC3     H 6329   3.139   3.213   0.741  1.7957  2.1690 -0.1288
  424TMC3    H1 6330   2.972   3.597   0.689  1.1858 -0.6266 -0.4842
  424TMC3    H2 6331   2.731   3.299   0.854  0.0557  0.2789 -0.6492
  424TMC3    C7 6332   2.743   3.558   0.794  0.3023 -0.5001 -0.6655
  424TMC3    C8 6333   2.924   3.108   0.862 -0.7753  0.1669  0.1498
  424TMC3    O1 6334   2.787   3.673   0.807  0.0826 -0.0353 -0.2672
  424TMC3    O2 6335   3.028   3.049   0.893  0.0434 -0.3099 -0.1431
  425MPD2     C 6336   2.521   2.378  17.061  0.6115 -0.1634 -0.7590
  425MPD2    C1 6337   2.429   2.272  17.066 -0.2698  1.4031  0.0227
  425MPD2    C2 6338   2.295   2.306  17.063  0.0825  0.3579 -0.1512
  425MPD2    C3 6339   2.251   2.438  17.069  0.6225  0.9884 -0.7328
  425MPD2    C4 6340   2.345   2.540  17.054  0.4466  0.0918  0.4669
  425MPD2    C5 6341   2.478   2.509  17.042 -0.2511 -0.2927 -0.2527
  425MPD2     H 6342   2.222   2.228  17.080 -1.0745  0.9644 -2.2894
  425MPD2    H1 6343   2.319   2.642  17.030  1.0241 -0.5994 -3.0437
  425MPD2    H2 6344   2.626   2.355  17.074  0.9571  1.5385 -0.5929
  425MPD2    H3 6345   2.557   2.583  17.034  0.5599 -1.4073 -2.5666
  425MPD2     N 6346   2.108   2.458  17.091 -0.0336 -0.2586  0.5300
  425MPD2    H5 6347   2.046   2.378  17.089 -1.0930  0.5575  0.8664
  425MPD2    N1 6348   2.461   2.141  17.069  0.3049 -0.1006 -0.4922
  425MPD2    H7 6349   2.391   2.067  17.067 -0.0374  0.1478  2.1957
  426TMC3    C1 6350   2.575   1.947  17.061  0.3193 -0.9141  0.5124
  426TMC3    C2 6351   2.480   1.893  16.982  0.7473 -0.3460 -0.0136
  426TMC3    C3 6352   2.439   1.763  17.008 -0.1967 -0.6959 -1.0221
  426TMC3    C4 6353   2.641   1.874  17.154 -0.6111  0.3147 -0.1463
  426TMC3    C5 6354   2.594   1.747  17.182 -0.7002  0.2098 -0.2953
  426TMC3    C6 6355   2.494   1.691  17.113  0.2312 -1.0537  0.1533
  426TMC3     C 6356   2.585   2.087  17.077  0.6456  0.3767 -0.3445
  426TMC3     O 6357   2.688   2.139  17.119 -0.0528 -0.0454  1.0316
  426TMC3     H 6358   2.436   1.943  16.897  3.4249 -0.3221 -1.3862
  426TMC3    H1 6359   2.703   1.928  17.224 -1.0588  1.9849 -1.0359
  426TMC3    H2 6360   2.465   1.587  17.123  1.6834 -1.4131  0.6224
  426TMC3    C7 6361   2.605   1.714  17.314  0.4032  0.7766  0.2560
  426TMC3    C8 6362   2.393   1.701  16.890  0.7147 -0.0873 -0.3861
  426TMC3    O1 6363   2.691   1.771  17.376 -0.5613  0.9056 -0.9683
  426TMC3    O2 6364   2.454   1.729  16.787 -0.0604 -0.2107 -0.1782
  427MPD2     C 6365   0.407   4.362  15.264  0.5092 -0.6632 -0.0803
  427MPD2    C1 6366   0.525   4.425  15.222 -0.2929 -0.7132  0.7226
  427MPD2    C2 6367   0.517   4.556  15.181 -0.5995  0.3867 -0.3234
  427MPD2    C3 6368   0.405   4.624  15.205 -0.2286  0.4549 -0.4704
  427MPD2    C4 6369   0.295   4.563  15.261 -0.4684  0.7563 -0.4802
  427MPD2    C5 6370   0.294   4.429  15.290  0.1551  0.2095  0.6823
  427MPD2     H 6371   0.602   4.599  15.129  1.4663 -1.5368  1.4906
  427MPD2    H1 6372   0.205   4.621  15.275 -0.2901  0.8478  0.2903
  427MPD2    H2 6373   0.406   4.256  15.285 -2.4934 -0.8202 -1.0675
  427MPD2    H3 6374   0.204   4.381  15.327  1.2152 -1.2376  1.3622
  427MPD2     N 6375   0.408   0.043  15.190  0.0954  0.3302 -0.7586
  427MPD2    H5 6376   0.336   0.098  15.236  0.6077  0.8964 -0.6301
  427MPD2    N1 6377   0.647   4.358  15.203  0.5392  0.1054  0.3592
  427MPD2    H7 6378   0.707   4.414  15.144  0.5732 -0.3693 -0.0624
  428TMC3    C1 6379   0.836   4.218  15.235  0.6155  0.2142  0.1964
  428TMC3    C2 6380   0.882   4.092  15.274 -0.7382 -0.6745  0.2439
  428TMC3    C3 6381   1.016   4.095  15.307  0.3987 -0.0684  0.6387
  428TMC3    C4 6382   0.913   4.334  15.232  0.1935  1.1615  0.1084
  428TMC3    C5 6383   1.049   4.319  15.250 -0.3106 -0.2982 -0.4714
  428TMC3    C6 6384   1.106   4.203  15.290 -0.2308  0.1963 -0.5256
  428TMC3     C 6385   0.692   4.228  15.241  0.4123  0.6613  0.3858
  428TMC3     O 6386   0.640   4.146  15.309 -0.5592  0.6226  0.8472
  428TMC3     H 6387   0.828   3.997  15.269  0.1421 -1.3308  2.7632
  428TMC3    H1 6388   0.877   4.433  15.205 -2.6559 -0.0355 -0.4166
  428TMC3    H2 6389   1.208   4.196  15.326 -0.3320  2.0595  0.0933
  428TMC3    C7 6390   1.130   4.425  15.211  0.7741  0.4019 -0.8692
  428TMC3    C8 6391   1.078   3.967  15.288 -0.3577 -0.0059  0.0372
  428TMC3    O1 6392   1.233   4.435  15.273 -0.0459  0.0261  0.4369
  428TMC3    O2 6393   1.038   3.904  15.193 -0.1928 -0.3577 -0.0139
  429MPD2     C 6394   2.534   0.373   0.332 -0.1531  0.4875 -0.1723
  429MPD2    C1 6395   2.544   0.267   0.243 -0.6144  0.1605 -0.4920
  429MPD2    C2 6396   2.640   0.266   0.149  0.2886  0.3195 -0.1670
  429MPD2    C3 6397   2.720   0.379   0.121 -0.2027 -0.2519  0.0728
  429MPD2    C4 6398   2.700   0.493   0.199 -0.1041 -0.0215 -0.1324
  429MPD2    C5 6399   2.612   0.483   0.303 -0.8435 -0.3786 -0.3148
  429MPD2     H 6400   2.653   0.184   0.080  0.9062 -0.8535  1.3604
  429MPD2    H1 6401   2.752   0.587   0.182 -0.1951 -0.1579 -1.1788
  429MPD2    H2 6402   2.455   0.382   0.405 -1.3208 -0.6760 -1.2820
  429MPD2    H3 6403   2.602   0.574   0.362 -0.6261  0.9385 -2.2835
  429MPD2     N 6404   2.804   0.371   0.006 -0.3859  0.3831  0.1976
  429MPD2    H5 6405   2.786   0.289  17.645  2.8034 -0.5886  0.6125
  429MPD2    N1 6406   2.458   0.153   0.249 -0.3567  0.5137  0.2935
  429MPD2    H7 6407   2.488   0.076   0.191 -1.7108 -0.1116  0.4290
  430TMC3    C1 6408   2.910   0.446  17.507  0.0794  0.0121  0.2468
  430TMC3    C2 6409   2.830   0.511  17.418 -0.1502 -0.0341  0.3319
  430TMC3    C3 6410   2.788   0.446  17.302 -0.0737  0.0515 -1.0485
  430TMC3    C4 6411   2.951   0.318  17.487  0.1539 -0.3366  0.1715
  430TMC3    C5 6412   2.913   0.258  17.374 -0.6736 -0.5246 -0.9025
  430TMC3    C6 6413   2.833   0.319  17.278 -0.0235 -0.0478 -0.6923
  430TMC3     C 6414   2.879   0.476  17.650  0.3264  0.1249 -0.1886
  430TMC3     O 6415   2.906   0.584  17.693 -0.1160 -0.4530 -0.3484
  430TMC3     H 6416   2.773   0.595  17.457  2.8801  0.9806  2.5172
  430TMC3    H1 6417   3.008   0.267  17.563  0.1920 -0.2167  0.2225
  430TMC3    H2 6418   2.812   0.270  17.183 -2.0626 -1.3306  0.4186
  430TMC3    C7 6419   2.977   0.130  17.334  1.1060 -0.3675 -0.4825
  430TMC3    C8 6420   2.686   0.505  17.225  0.5361 -0.1448 -0.0489
  430TMC3    O1 6421   2.931   0.069  17.241  0.2206  0.1437 -0.0970
  430TMC3    O2 6422   2.631   0.442  17.137  0.1979  0.2708  0.0097
  431MPD2     C 6423   3.893   0.017  12.244 -0.1141  0.0483  0.5005
  431MPD2    C1 6424   3.757   0.039  12.260 -0.1312 -0.4031  0.2580
  431MPD2    C2 6425   3.670   4.695  12.173  0.1754 -0.4934  0.2456
  431MPD2    C3 6426   3.726   4.620  12.064 -0.0229  0.6289  0.1990
  431MPD2    C4 6427   3.864   4.613  12.052  0.1091  0.5344  0.0594
  431MPD2    C5 6428   3.946   4.668  12.148  0.1959  0.6673  0.8747
  431MPD2     H 6429   3.562   4.706  12.177  0.1522 -0.1636 -1.2032
  431MPD2    H1 6430   3.900   4.563  11.963 -1.1585 -1.0515  0.4424
  431MPD2    H2 6431   3.963   0.057  12.317  0.7870 -0.3155 -0.1567
  431MPD2    H3 6432   4.054   4.657  12.138 -0.0699  0.5792 -1.8072
  431MPD2     N 6433   3.650   4.558  11.961  0.2247  0.2171  0.4905
  431MPD2    H5 6434   3.705   4.499  11.899  1.2486 -1.4337  2.9804
  431MPD2    N1 6435   3.696   0.141  12.339 -0.5930  0.0422  0.5713
  431MPD2    H7 6436   3.596   0.153  12.339 -0.5922  0.0339  1.1508
  432TMC3    C1 6437   3.456   4.458  11.854  0.6269 -0.0777  0.2178
  432TMC3    C2 6438   3.534   4.380  11.776 -0.4723  0.3791 -0.2480
  432TMC3    C3 6439   3.468   4.287  11.699  0.0812  0.5226  0.0803
  432TMC3    C4 6440   3.319   4.440  11.862 -0.3941  0.1436 -0.5400
  432TMC3    C5 6441   3.257   4.342  11.793 -0.7740  0.6116 -0.2913
  432TMC3    C6 6442   3.336   4.258  11.707  0.2686  0.0304 -0.5432
  432TMC3     C 6443   3.512   4.558  11.949 -0.5640  0.4555  0.0563
  432TMC3     O 6444   3.434   4.627  12.013 -0.0937  0.0030 -0.5923
  432TMC3     H 6445   3.640   4.401  11.763 -0.6089  1.7846  0.9485
  432TMC3    H1 6446   3.258   4.510  11.918  1.0391  0.5789  0.4623
  432TMC3    H2 6447   3.278   4.177  11.664  1.4291 -1.1951  0.1818
  432TMC3    C7 6448   3.118   4.310  11.825  0.2373 -0.3863  0.0066
  432TMC3    C8 6449   3.542   4.234  11.585  0.3449  0.1490 -0.2130
  432TMC3    O1 6450   3.068   4.232  11.747  0.3652 -0.0674 -0.4767
  432TMC3    O2 6451   3.493   4.138  11.527 -0.3148  0.4029  0.4409
  433MPD2     C 6452   2.483   3.652  11.119  0.6191  0.1800  0.0844
  433MPD2    C1 6453   2.356   3.595  11.131 -0.6970 -0.9007  0.3606
  433MPD2    C2 6454   2.299   3.613  11.256 -0.6527  0.5989  0.2485
  433MPD2    C3 6455   2.335   3.698  11.355 -0.4677  0.3910  0.7625
  433MPD2    C4 6456   2.444   3.773  11.325 -0.4708 -0.0016  0.1255
  433MPD2    C5 6457   2.521   3.751  11.214 -0.2348  0.3591 -0.0461
  433MPD2     H 6458   2.208   3.557  11.273  0.0520 -1.0199 -1.3601
  433MPD2    H1 6459   2.477   3.851  11.393 -1.2870 -1.4310  2.1517
  433MPD2    H2 6460   2.549   3.632  11.036 -0.2007  0.5389 -0.6550
  433MPD2    H3 6461   2.611   3.811  11.210  1.1786 -1.7740 -0.1883
  433MPD2     N 6462   2.262   3.702  11.478  0.4546 -0.0789 -1.0950
  433MPD2    H5 6463   2.174   3.651  11.473  0.7365 -0.3079 -3.8501
  433MPD2    N1 6464   2.320   3.510  11.024  0.3516  0.6413  0.3647
  433MPD2    H7 6465   2.395   3.484  10.960  0.1252 -0.5844  0.5937
  434TMC3    C1 6466   2.207   3.336  10.928 -0.4563  0.2000  0.0627
  434TMC3    C2 6467   2.146   3.224  10.965  0.6417  0.0124  0.1943
  434TMC3    C3 6468   2.181   3.109  10.896  0.4190 -0.0112 -0.4864
  434TMC3    C4 6469   2.298   3.345  10.830 -0.3417  0.2513 -0.1523
  434TMC3    C5 6470   2.333   3.235  10.752 -0.7242  0.4372 -0.2684
  434TMC3    C6 6471   2.271   3.115  10.790 -0.1097  0.0108 -0.3862
  434TMC3     C 6472   2.204   3.439  11.029  0.0002 -1.0918  0.3298
  434TMC3     O 6473   2.109   3.458  11.109  0.0351 -0.6858 -0.2577
  434TMC3     H 6474   2.087   3.223  11.057  2.3348  0.4348  1.2805
  434TMC3    H1 6475   2.335   3.439  10.792  1.4829 -0.0534  0.8544
  434TMC3    H2 6476   2.309   3.021  10.753 -0.5285  0.0868 -1.0146
  434TMC3    C7 6477   2.336   3.262  10.605 -0.2025  0.0463  0.7762
  434TMC3    C8 6478   2.207   2.991  10.974 -0.4000 -0.4440 -0.6185
  434TMC3    O1 6479   2.378   3.367  10.571 -0.2075  0.2129  0.3326
  434TMC3    O2 6480   2.283   3.010  11.064  0.2015  0.3377  0.0659
  435MPD2     C 6481   3.691   3.597  15.366  0.4216 -0.3642  0.6208
  435MPD2    C1 6482   3.697   3.585  15.502 -0.5853  0.3440  0.2575
  435MPD2    C2 6483   3.818   3.571  15.579  0.1781  0.2971  0.1309
  435MPD2    C3 6484   3.931   3.555  15.500  0.2425 -0.7929  0.5780
  435MPD2    C4 6485   3.923   3.564  15.359  0.1040  0.1148 -0.2372
  435MPD2    C5 6486   3.802   3.579  15.297  0.1645  0.4151  0.6855
  435MPD2     H 6487   3.813   3.577  15.688 -0.6662  1.0657  0.0489
  435MPD2    H1 6488   4.005   3.546  15.291 -2.6929 -3.3269 -2.6796
  435MPD2    H2 6489   3.594   3.609  15.319  0.3244  0.8038  1.1196
  435MPD2    H3 6490   3.792   3.575  15.189 -0.6285 -3.7724  0.9388
  435MPD2     N 6491   4.054   3.525  15.563 -0.0523 -0.7781  0.0306
  435MPD2    H5 6492   4.050   3.512  15.663 -1.8588 -2.9594 -0.3231
  435MPD2    N1 6493   3.587   3.604  15.589  0.3316  0.3435 -0.0419
  435MPD2    H7 6494   3.610   3.630  15.685 -0.3995  0.4803  0.0916
  436TMC3    C1 6495   3.218   3.829  15.716 -0.1215 -0.1719 -0.1294
  436TMC3    C2 6496   3.275   3.754  15.614  0.1841 -0.1192 -0.2201
  436TMC3    C3 6497   3.379   3.665  15.651  0.5076  0.5963  0.0567
  436TMC3    C4 6498   3.246   3.801  15.851 -0.2693  0.3549 -0.0295
  436TMC3    C5 6499   3.336   3.703  15.881 -0.2309 -0.1568 -0.1227
  436TMC3    C6 6500   3.410   3.634  15.785  0.5597  0.0320 -0.2544
  436TMC3     C 6501   3.183   3.964  15.673  0.5097 -0.5760 -0.2806
  436TMC3     O 6502   3.197   3.997  15.557  0.2862 -0.1427 -0.0794
  436TMC3     H 6503   3.268   3.783  15.510  2.0047 -0.9636 -0.5783
  436TMC3    H1 6504   3.223   3.880  15.922  0.0551  1.2069 -0.8721
  436TMC3    H2 6505   3.486   3.562  15.816  0.9764  0.8174  0.5577
  436TMC3    C7 6506   3.381   3.693  16.019 -0.2534 -0.1264 -0.0872
  436TMC3    C8 6507   3.461   3.613  15.548 -0.0965  0.6980  0.0231
  436TMC3    O1 6508   3.495   3.650  16.035 -0.3238  0.1233 -0.2147
  436TMC3    O2 6509   3.407   3.602  15.438 -0.2191  0.3201 -0.5109
  437TMC3    C1 6510   2.727   0.920  12.758 -0.4460  0.2551  0.4418
  437TMC3    C2 6511   2.595   0.958  12.761  0.1467 -0.0769 -0.0602
  437TMC3    C3 6512   2.551   1.044  12.659 -0.1315 -0.0544 -0.1028
  437TMC3    C4 6513   2.822   0.973  12.677  0.3876  0.0023  0.0004
  437TMC3    C5 6514   2.777   1.064  12.582 -0.2964  0.7510  0.3033
  437TMC3    C6 6515   2.645   1.104  12.576  0.2921 -0.3310 -0.2155
  437TMC3     C 6516   2.759   0.816  12.862  0.2294  0.2860 -0.0211
  437TMC3     O 6517   2.668   0.769  12.928 -0.3272 -0.0726  0.0301
  437TMC3     H 6518   2.520   0.925  12.832 -0.1731 -0.7207 -0.7006
  437TMC3    H1 6519   2.925   0.953  12.706 -0.1587 -2.8069 -0.0781
  437TMC3    H2 6520   2.616   1.170  12.496  0.9936  0.3418  0.0827
  437TMC3    C7 6521   2.868   1.125  12.489 -0.1881  0.1547  0.3317
  437TMC3    C8 6522   2.417   1.105  12.671 -0.1070 -0.1756  0.4739
  437TMC3    O1 6523   2.829   1.145  12.377  0.8943 -0.1709  0.0507
  437TMC3    O2 6524   2.339   1.049  12.744  0.3541  0.3847  0.5599
  438MPD2     C 6525   0.229   2.078  16.741  0.0600  0.6612 -0.5801
  438MPD2    C1 6526   0.251   1.947  16.776  0.7279  0.1684  0.0662
  438MPD2    C2 6527   0.233   1.909  16.903  0.0811 -0.1598  0.3497
  438MPD2    C3 6528   0.184   1.994  16.997  0.8101 -0.0076  0.7467
  438MPD2    C4 6529   0.166   2.124  16.961  0.0163  0.2836  0.1175
  438MPD2    C5 6530   0.178   2.164  16.828 -0.0163  0.6358 -0.0790
  438MPD2     H 6531   0.262   1.810  16.936  0.8009  0.5705  1.9513
  438MPD2    H1 6532   0.133   2.197  17.034  0.8094  1.1088 -0.3347
  438MPD2    H2 6533   0.243   2.102  16.636  0.9301 -2.0572 -1.0939
  438MPD2    H3 6534   0.166   2.267  16.795  1.2527 -0.4788 -4.0859
  438MPD2     N 6535   0.126   1.952  17.122  0.1131 -0.0264  0.3601
  438MPD2    H5 6536   0.089   2.033  17.171  0.1070  0.8237 -1.0494
  438MPD2    N1 6537   0.296   1.848  16.687  0.4040  0.1657 -0.1570
  438MPD2    H7 6538   0.318   1.759  16.729 -2.7659 -0.6104 -0.0985
  439TMC3    C1 6539   0.341   1.733  16.488  0.6208 -0.2196  0.2047
  439TMC3    C2 6540   0.410   1.737  16.368  0.5985  0.2884 -0.0682
  439TMC3    C3 6541   0.436   1.616  16.311 -0.3039 -0.0994 -0.3044
  439TMC3    C4 6542   0.294   1.619  16.536 -0.2703 -0.6416  0.6771
  439TMC3    C5 6543   0.311   1.502  16.474 -0.4413 -0.0352  0.6588
  439TMC3    C6 6544   0.396   1.497  16.367 -0.4563 -0.9162 -0.3524
  439TMC3     C 6545   0.312   1.862  16.551 -0.3550 -0.4291  0.4820
  439TMC3     O 6546   0.307   1.958  16.472  0.0867  0.4529  0.0013
  439TMC3     H 6547   0.443   1.836  16.336 -0.4954  0.4676 -0.6453
  439TMC3    H1 6548   0.246   1.609  16.633  0.2829  3.8811  1.4246
  439TMC3    H2 6549   0.411   1.404  16.313 -0.6995 -1.2296  0.1136
  439TMC3    C7 6550   0.309   1.375  16.552  0.0302 -0.5059  0.2989
  439TMC3    C8 6551   0.554   1.615  16.223 -0.0193 -0.3891 -0.5347
  439TMC3    O1 6552   0.389   1.289  16.512  0.1402  0.0712  0.4363
  439TMC3    O2 6553   0.626   1.515  16.241  0.2888 -0.4009 -0.3473
  440MPD2     C 6554   4.005   1.854  14.507  0.2519  0.8029  0.4833
  440MPD2    C1 6555   4.025   1.972  14.571 -0.1544 -0.0228  0.1558
  440MPD2    C2 6556   4.136   1.990  14.661  0.5745  0.2159  0.1455
  440MPD2    C3 6557   4.218   1.886  14.695  0.3697  0.4366 -0.2357
  440MPD2    C4 6558   4.198   1.773  14.626  0.1527 -0.0967 -0.2319
  440MPD2    C5 6559   4.103   1.758  14.525  0.1604  0.2616  0.2279
  440MPD2     H 6560   4.145   2.086  14.710 -0.6270  0.5246 -0.2329
  440MPD2    H1 6561   4.253   1.683  14.651 -0.3173 -0.3742 -0.1842
  440MPD2    H2 6562   3.923   1.838  14.439 -0.3186 -0.2336  1.4097
  440MPD2    H3 6563   4.104   1.662  14.476 -0.6170 -0.4259  1.5826
  440MPD2     N 6564   4.318   1.885  14.790 -0.2878 -0.1828 -0.1928
  440MPD2    H5 6565   4.371   1.800  14.807 -1.0491 -1.0191 -1.9975
  440MPD2    N1 6566   3.943   2.081  14.560 -0.1834  0.1003 -0.5519
  440MPD2    H7 6567   3.975   2.164  14.608 -0.1638 -0.9242  1.1787
  441TMC3    C1 6568   4.437   1.970  14.973 -0.0901  0.3998  0.0040
  441TMC3    C2 6569   4.508   2.071  15.021  0.6490  0.3205 -0.4815
  441TMC3    C3 6570   4.549   2.074  15.153 -1.1307  0.0287  0.2226
  441TMC3    C4 6571   4.405   1.868  15.061 -0.5746 -0.8392 -0.4592
  441TMC3    C5 6572   4.451   1.870  15.188  0.5965 -0.0860 -0.1679
  441TMC3    C6 6573   4.538   1.966  15.236  0.5477 -0.3494  0.0337
  441TMC3     C 6574   4.365   1.999  14.853  0.0630  0.9149 -0.3462
  441TMC3     O 6575   4.350   2.114  14.825  0.0525  0.2973  0.2504
  441TMC3     H 6576   4.532   2.156  14.958 -0.6379  1.6764  0.8478
  441TMC3    H1 6577   4.354   1.776  15.032  1.9358 -1.4234 -2.9597
  441TMC3    H2 6578   4.571   1.961  15.339 -0.5516  0.5933  0.4301
  441TMC3    C7 6579   4.408   1.767  15.281  0.2278 -0.4492  0.0912
  441TMC3    C8 6580   4.537   2.197  15.222 -0.2654 -0.3977  0.1857
  441TMC3    O1 6581   4.316   1.690  15.250 -0.1702 -0.2420  0.2832
  441TMC3    O2 6582   4.632   2.224  15.296  0.3299 -0.9059  0.3103
  442MPD2     C 6583   1.939   2.910  16.489  0.4646  0.0222 -0.1874
  442MPD2    C1 6584   1.858   2.800  16.502 -0.3023 -0.0284 -0.2002
  442MPD2    C2 6585   1.873   2.689  16.425  0.7390  0.1689 -0.4844
  442MPD2    C3 6586   1.978   2.677  16.334  0.1021 -0.9107  0.0209
  442MPD2    C4 6587   2.067   2.783  16.322 -0.1194 -0.2284 -0.3493
  442MPD2    C5 6588   2.048   2.900  16.405 -0.5175  0.0381 -0.7888
  442MPD2     H 6589   1.795   2.614  16.433  0.7596  0.0636 -1.3172
  442MPD2    H1 6590   2.144   2.769  16.247  0.5456  0.2514  0.2512
  442MPD2    H2 6591   1.920   3.008  16.534 -1.5004 -1.1678  1.6114
  442MPD2    H3 6592   2.122   2.978  16.388 -0.1990  0.3001  1.8052
  442MPD2     N 6593   2.013   2.561  16.271 -0.2604  0.0101 -0.3636
  442MPD2    H5 6594   2.106   2.565  16.229 -0.3130 -2.8891 -0.7223
  442MPD2    N1 6595   1.760   2.795  16.602 -0.0056 -0.1097  0.0655
  442MPD2    H7 6596   1.718   2.704  16.614  0.0288 -0.1330  0.0093
  443TMC3    C1 6597   1.604   2.863  16.764  0.2658  0.4843 -0.5920
  443TMC3    C2 6598   1.493   2.928  16.735 -0.2604 -0.0876  0.2489
  443TMC3    C3 6599   1.374   2.855  16.759 -0.3439  0.3210 -0.6999
  443TMC3    C4 6600   1.613   2.739  16.833  0.8883 -0.0742 -0.5733
  443TMC3    C5 6601   1.495   2.686  16.876  0.3279 -0.6055 -0.1369
  443TMC3    C6 6602   1.374   2.749  16.840  0.4982 -0.1512 -0.5639
  443TMC3     C 6603   1.718   2.896  16.689 -0.1275  0.2857  0.0137
  443TMC3     O 6604   1.758   3.010  16.712 -0.1139 -0.1622 -0.4442
  443TMC3     H 6605   1.501   3.023  16.682 -0.5985 -0.6481 -0.7930
  443TMC3    H1 6606   1.709   2.706  16.871  0.6591  0.6969  0.6924
  443TMC3    H2 6607   1.280   2.698  16.858 -0.7390  2.6409  0.8169
  443TMC3    C7 6608   1.484   2.547  16.916 -0.2761  0.0378 -0.5603
  443TMC3    C8 6609   1.311   2.806  16.638  0.2104  0.1861 -1.0451
  443TMC3    O1 6610   1.562   2.469  16.869 -0.1450  0.2293  0.6236
  443TMC3    O2 6611   1.281   2.688  16.636  0.2719 -0.1330  0.2580
  444MPD2     C 6612   2.244   1.401  17.280 -0.3314  0.6503  0.2480
  444MPD2    C1 6613   2.159   1.347  17.182  0.6318  0.0289  0.7960
  444MPD2    C2 6614   2.216   1.278  17.075  0.2078  0.3196  0.1846
  444MPD2    C3 6615   2.347   1.264  17.065  0.2672  0.7592 -0.0913
  444MPD2    C4 6616   2.432   1.316  17.161  0.3647  0.4530 -0.5558
  444MPD2    C5 6617   2.381   1.379  17.275 -0.1652 -0.3951  0.1529
  444MPD2     H 6618   2.150   1.238  16.999 -0.1220  1.4238 -0.1100
  444MPD2    H1 6619   2.536   1.286  17.153 -0.0737 -1.8001  2.1693
  444MPD2    H2 6620   2.201   1.452  17.365 -1.2780 -0.2741  0.3214
  444MPD2    H3 6621   2.442   1.414  17.357  0.7978  2.0066 -1.6172
  444MPD2     N 6622   2.389   1.197  16.951 -0.1162 -0.0375 -0.3938
  444MPD2    H5 6623   2.312   1.162  16.894 -0.9095  0.9250  0.0829
  444MPD2    N1 6624   2.017   1.365  17.179  0.2101 -0.1713  0.4401
  444MPD2    H7 6625   1.963   1.356  17.093  0.6548 -0.9222  0.2449
  445TMC3    C1 6626   2.536   1.078  16.801 -0.4202  0.0282  0.7680
  445TMC3    C2 6627   2.442   0.989  16.771 -0.0510 -0.5161 -0.3346
  445TMC3    C3 6628   2.459   0.916  16.662  0.6270  0.3658  0.2863
  445TMC3    C4 6629   2.645   1.089  16.724 -0.2268  0.1328  0.0992
  445TMC3    C5 6630   2.665   1.019  16.611  0.2399  0.2215 -0.1479
  445TMC3    C6 6631   2.573   0.925  16.585  0.0261  0.2830  0.0361
  445TMC3     C 6632   2.519   1.172  16.909 -0.1870 -0.1558 -0.4574
  445TMC3     O 6633   2.617   1.228  16.955 -0.3264  0.2470 -0.4198
  445TMC3     H 6634   2.352   0.977  16.831  0.7303  1.5169  1.2260
  445TMC3    H1 6635   2.727   1.153  16.754 -0.7535  0.0258  1.7570
  445TMC3    H2 6636   2.572   0.870  16.491 -1.1838 -1.5345  1.1338
  445TMC3    C7 6637   2.758   1.069  16.508  0.5840 -0.5981 -0.4216
  445TMC3    C8 6638   2.340   0.850  16.608 -0.2381 -0.3374 -0.3599
  445TMC3    O1 6639   2.849   1.133  16.555  0.3402  0.6219 -0.2048
  445TMC3    O2 6640   2.232   0.887  16.653 -0.7606  0.1861  0.0123
  446MPD2     C 6641   1.863   2.964  11.479 -0.2382  0.5809  0.3510
  446MPD2    C1 6642   1.886   2.960  11.348  0.1102 -0.1518 -0.3485
  446MPD2    C2 6643   1.998   3.024  11.297  0.3556  0.2223  0.4950
  446MPD2    C3 6644   2.092   3.083  11.379  0.1060 -0.4210  0.2110
  446MPD2    C4 6645   2.058   3.096  11.510 -0.7995 -0.3910 -0.9402
  446MPD2    C5 6646   1.948   3.030  11.562  0.3298 -0.0793 -0.6787
  446MPD2     H 6647   2.004   3.012  11.189  1.5197 -0.3351  0.6303
  446MPD2    H1 6648   2.116   3.160  11.575  0.4130 -1.2833 -1.1526
  446MPD2    H2 6649   1.769   2.935  11.524  0.2093 -1.2864  0.0798
  446MPD2    H3 6650   1.921   3.036  11.666  0.5263  1.7335 -0.7352
  446MPD2     N 6651   2.218   3.131  11.320  0.3968  0.1715  0.2410
  446MPD2    H5 6652   2.239   3.084  11.233 -0.5722 -1.2515  0.7828
  446MPD2    N1 6653   1.795   2.892  11.262  0.9161  0.2882  0.1024
  446MPD2    H7 6654   1.815   2.879  11.164  3.8137 -1.8498  0.9758
  447TMC3    C1 6655   2.451   3.173  11.322  0.1604  0.2044  0.6742
  447TMC3    C2 6656   2.474   3.214  11.196  0.8307 -0.3082  0.3935
  447TMC3    C3 6657   2.593   3.177  11.132 -0.8692  0.7425 -0.0297
  447TMC3    C4 6658   2.543   3.101  11.398 -0.3394 -0.1791  0.1310
  447TMC3    C5 6659   2.667   3.082  11.336  0.7060  0.1034  0.8824
  447TMC3    C6 6660   2.692   3.104  11.202 -0.8316 -0.1393 -0.0929
  447TMC3     C 6661   2.322   3.195  11.387  0.1515 -0.3797 -0.3550
  447TMC3     O 6662   2.328   3.229  11.504 -1.1038  0.6126 -0.0466
  447TMC3     H 6663   2.400   3.277  11.148  1.4781  0.3979  0.3224
  447TMC3    H1 6664   2.517   3.070  11.499 -0.7170  1.6060  0.5876
  447TMC3    H2 6665   2.789   3.082  11.161  0.4030  1.9919  1.6334
  447TMC3    C7 6666   2.766   3.012  11.410 -0.4218 -1.4668 -0.8484
  447TMC3    C8 6667   2.623   3.234  11.000  0.4173 -0.0259  0.2798
  447TMC3    O1 6668   2.842   2.945  11.343 -0.0286 -0.0208  0.2518
  447TMC3    O2 6669   2.558   3.336  10.975 -0.6065 -0.0167 -0.0980
  448TMC3    C1 6670   0.323   3.213  16.388 -0.1561 -0.3371 -0.2852
  448TMC3    C2 6671   0.303   3.078  16.383  0.0845  0.2087 -0.3220
  448TMC3    C3 6672   0.320   3.006  16.503 -0.6593 -0.1959 -0.1837
  448TMC3    C4 6673   0.329   3.278  16.503 -0.4085 -0.1009 -0.4091
  448TMC3    C5 6674   0.315   3.208  16.619  0.6163 -0.7108 -0.3579
  448TMC3    C6 6675   0.322   3.068  16.625  0.1422  0.1125 -0.7225
  448TMC3     C 6676   0.325   3.294  16.270 -0.8148 -0.5279 -0.4581
  448TMC3     O 6677   0.309   3.416  16.275  0.1898 -0.4295  0.0071
  448TMC3     H 6678   0.287   3.024  16.290 -1.5490  2.1056 -1.1553
  448TMC3    H1 6679   0.338   3.386  16.505 -1.0976 -0.0138 -1.7674
  448TMC3    H2 6680   0.343   3.014  16.716  0.7252 -0.3693 -1.1486
  448TMC3    C7 6681   0.333   3.288  16.742 -0.1328  0.8364 -0.1321
  448TMC3    C8 6682   0.335   2.869  16.489 -0.7264 -0.3578 -0.6469
  448TMC3    O1 6683   0.389   3.398  16.728 -0.5299  0.0074 -0.1195
  448TMC3    O2 6684   0.335   2.825  16.374  0.0148  0.1194 -0.1578
  449MPD2     C 6685   1.825   1.584  13.661  0.2294  0.2961 -0.0355
  449MPD2    C1 6686   1.717   1.586  13.576  0.3819 -0.1639  0.1359
  449MPD2    C2 6687   1.608   1.504  13.603 -0.1343  0.7584  0.3667
  449MPD2    C3 6688   1.607   1.424  13.715 -0.2756  0.3617 -0.2368
  449MPD2    C4 6689   1.711   1.419  13.803 -0.0223  0.8824 -0.2113
  449MPD2    C5 6690   1.824   1.498  13.773 -0.3843  0.0490 -1.1479
  449MPD2     H 6691   1.531   1.490  13.527  0.2825 -0.3181  0.1380
  449MPD2    H1 6692   1.708   1.368  13.899 -0.0843  1.0193 -0.1400
  449MPD2    H2 6693   1.915   1.641  13.639  0.0611  0.5069 -0.1815
  449MPD2    H3 6694   1.912   1.502  13.836 -0.5807 -1.9083 -0.7444
  449MPD2     N 6695   1.494   1.338  13.736  0.0283 -0.0624 -0.0209
  449MPD2    H5 6696   1.411   1.341  13.677  0.4251 -0.1661 -0.5744
  449MPD2    N1 6697   1.705   1.663  13.457  0.7801 -0.4378  0.0814
  449MPD2    H7 6698   1.624   1.643  13.399  0.4634  0.5760  0.1774
  450TMC3    C1 6699   1.764   1.746  13.250 -0.1263  0.0677  0.0720
  450TMC3    C2 6700   1.839   1.679  13.157 -0.1603  0.2781  0.2937
  450TMC3    C3 6701   1.773   1.630  13.052  0.0132 -0.4085 -0.8533
  450TMC3    C4 6702   1.631   1.762  13.237  0.2647 -0.4135  0.2106
  450TMC3    C5 6703   1.565   1.712  13.130 -0.4371 -0.0285  0.7591
  450TMC3    C6 6704   1.641   1.653  13.027  0.1301 -0.4325  0.2516
  450TMC3     C 6705   1.808   1.721  13.387  0.2276  0.3579 -0.6689
  450TMC3     O 6706   1.925   1.697  13.408 -0.6682  0.2530 -0.1942
  450TMC3     H 6707   1.944   1.665  13.184  0.3409  1.8839 -0.7995
  450TMC3    H1 6708   1.572   1.811  13.314 -0.3806  0.4749 -0.8440
  450TMC3    H2 6709   1.589   1.610  12.942 -0.5946 -1.9636  1.4535
  450TMC3    C7 6710   1.452   1.631  13.181 -0.4739 -0.1633 -0.4084
  450TMC3    C8 6711   1.807   1.500  13.005 -0.1562  0.1960  0.3247
  450TMC3    O1 6712   1.425   1.638  13.300  0.2052  0.6409  0.1527
  450TMC3    O2 6713   1.736   1.449  12.919  0.3068 -0.7516 -0.0478
  451MPD2     C 6714   2.578   0.518   1.622 -0.6048  0.4034 -1.1676
  451MPD2    C1 6715   2.458   0.463   1.652  0.5737  0.1616  0.2540
  451MPD2    C2 6716   2.439   0.327   1.642 -0.8261 -0.4804 -0.4836
  451MPD2    C3 6717   2.546   0.245   1.600 -0.3450 -0.7051  0.3541
  451MPD2    C4 6718   2.667   0.301   1.578  0.2367 -0.1458  0.6180
  451MPD2    C5 6719   2.676   0.436   1.577 -0.1363  0.4548  0.0383
  451MPD2     H 6720   2.341   0.287   1.664  0.4456 -2.8196  0.8356
  451MPD2    H1 6721   2.759   0.252   1.548  0.4762  0.9495 -0.4403
  451MPD2    H2 6722   2.591   0.625   1.610  0.0581  0.4861  0.3527
  451MPD2    H3 6723   2.769   0.475   1.538  1.3097 -0.5762  2.4536
  451MPD2     N 6724   2.542   0.103   1.583  0.0980 -0.3017 -0.1583
  451MPD2    H5 6725   2.627   0.057   1.552  1.5105  2.8274 -0.9651
  451MPD2    N1 6726   2.356   0.557   1.681  0.0568 -0.4731  0.1127
  451MPD2    H7 6727   2.377   0.657   1.677 -0.6186 -0.4453 -2.9564
  452TMC3    C1 6728   2.444   4.609   1.595  0.5999  0.7487 -0.5220
  452TMC3    C2 6729   2.357   4.526   1.659  0.3118  0.2867 -1.0253
  452TMC3    C3 6730   2.332   4.405   1.602  0.3436  0.2655  0.1137
  452TMC3    C4 6731   2.507   4.573   1.480  0.0126  0.4000 -0.3180
  452TMC3    C5 6732   2.468   4.448   1.428 -0.6327 -0.0837  0.6812
  452TMC3    C6 6733   2.389   4.359   1.492 -0.3030 -0.2579  0.6668
  452TMC3     C 6734   2.438   0.028   1.625 -0.2059 -0.2349 -0.2406
  452TMC3     O 6735   2.339   0.062   1.692 -0.4503 -0.1987 -0.3959
  452TMC3     H 6736   2.312   4.564   1.751  1.1435 -2.4189  0.5042
  452TMC3    H1 6737   2.578   4.633   1.425  0.8083 -1.7272 -1.6239
  452TMC3    H2 6738   2.372   4.256   1.464 -0.3880 -0.3088  0.8994
  452TMC3    C7 6739   2.553   4.396   1.323 -0.1167 -0.1359 -0.1098
  452TMC3    C8 6740   2.242   4.306   1.663  0.3598 -0.0614  0.5939
  452TMC3    O1 6741   2.635   4.473   1.276 -0.0274 -0.0916 -0.2377
  452TMC3    O2 6742   2.231   4.195   1.617 -0.9269 -0.8773  0.8429
  453TMC3    C1 6743   4.334   2.542  11.787  0.7812 -0.0272 -0.5500
  453TMC3    C2 6744   4.235   2.446  11.788  0.1659  1.0343  0.7901
  453TMC3    C3 6745   4.210   2.393  11.663 -0.4330  0.8152 -0.4348
  453TMC3    C4 6746   4.395   2.589  11.673 -0.1030  0.2282  0.8191
  453TMC3    C5 6747   4.356   2.544  11.554 -0.4608  0.4439  0.2029
  453TMC3    C6 6748   4.259   2.442  11.547 -0.5410 -0.1487  0.1791
  453TMC3     C 6749   4.428   2.553  11.900 -0.5730 -0.4940  0.0525
  453TMC3     O 6750   4.540   2.579  11.874 -0.2053  0.3536 -0.2963
  453TMC3     H 6751   4.192   2.406  11.879  0.5158  0.5904  0.7630
  453TMC3    H1 6752   4.476   2.661  11.677 -2.3434  2.7005  0.8274
  453TMC3    H2 6753   4.225   2.407  11.450  0.9595 -0.1096 -0.3575
  453TMC3    C7 6754   4.445   2.543  11.440 -0.1216 -0.1165  0.7202
  453TMC3    C8 6755   4.157   2.260  11.670  0.2770 -0.3616  0.2534
  453TMC3    O1 6756   4.454   2.434  11.383 -0.0898 -0.2412 -0.6540
  453TMC3    O2 6757   4.204   2.184  11.587 -0.4474  0.7014 -0.4197
  454MPD2     C 6758   3.093   1.869  16.156  0.2825  0.2925 -0.3793
  454MPD2    C1 6759   3.028   1.806  16.052  0.3428  0.8156 -0.1303
  454MPD2    C2 6760   2.939   1.700  16.086 -0.0549 -0.2464  0.4536
  454MPD2    C3 6761   2.899   1.668  16.216 -0.3281 -0.4253  0.1839
  454MPD2    C4 6762   2.980   1.730  16.315  0.5771 -0.6260  0.1088
  454MPD2    C5 6763   3.070   1.824  16.280  0.9196 -0.7061  0.0476
  454MPD2     H 6764   2.889   1.652  16.003  1.0992 -1.6406  0.5687
  454MPD2    H1 6765   2.972   1.696  16.417 -1.4684  2.6608  1.0263
  454MPD2    H2 6766   3.169   1.945  16.141 -0.7353  1.4052  0.0610
  454MPD2    H3 6767   3.125   1.879  16.355  0.4862  0.1403 -0.2510
  454MPD2     N 6768   2.799   1.575  16.249  0.2294  1.0744  0.3831
  454MPD2    H5 6769   2.784   1.542  16.344 -0.9291  1.3033  0.2793
  454MPD2    N1 6770   3.046   1.828  15.908  0.9399 -0.4587 -0.6740
  454MPD2    H7 6771   2.985   1.774  15.848 -0.3236 -2.0856  2.0535
  455TMC3    C1 6772   2.611   1.416  16.199  0.2888 -0.3147 -0.5339
  455TMC3    C2 6773   2.582   1.407  16.333  0.0855 -0.0945 -0.4240
  455TMC3    C3 6774   2.482   1.320  16.367  0.1001  0.5660  0.2179
  455TMC3    C4 6775   2.542   1.340  16.102 -0.3210 -0.8509  0.1990
  455TMC3    C5 6776   2.432   1.268  16.138 -0.2533  0.4170  0.5669
  455TMC3    C6 6777   2.401   1.258  16.271  0.3171  0.2398 -0.2478
  455TMC3     C 6778   2.707   1.520  16.160 -0.0469 -0.5221  0.3814
  455TMC3     O 6779   2.699   1.559  16.045  0.4155 -0.1029 -0.3077
  455TMC3     H 6780   2.639   1.451  16.414  0.0770  1.7671 -1.4275
  455TMC3    H1 6781   2.576   1.335  15.999  2.2986  1.4672  0.9499
  455TMC3    H2 6782   2.335   1.179  16.307  1.7451 -2.3354 -3.2566
  455TMC3    C7 6783   2.391   1.168  16.041 -0.1665 -0.0455  0.0344
  455TMC3    C8 6784   2.423   1.340  16.502  0.4284  0.6470  0.4725
  455TMC3    O1 6785   2.453   1.167  15.935 -0.1755 -0.2059  0.0132
  455TMC3    O2 6786   2.513   1.350  16.589 -0.4223 -0.4686  0.0998
  456MPD2     C 6787   1.069   2.110  15.529 -0.3200 -0.0577  0.6844
  456MPD2    C1 6788   1.093   2.005  15.615  0.3817  0.9393 -0.1395
  456MPD2    C2 6789   1.033   2.017  15.737 -0.3109 -0.3862  0.4079
  456MPD2    C3 6790   0.945   2.121  15.772 -0.1861 -0.6093  0.6478
  456MPD2    C4 6791   0.926   2.220  15.677 -0.7118 -0.9107 -0.3658
  456MPD2    C5 6792   0.985   2.217  15.553  0.3441  0.8357  0.8334
  456MPD2     H 6793   1.071   1.950  15.813 -1.6066 -3.1374 -1.3725
  456MPD2    H1 6794   0.856   2.302  15.694 -0.4835 -0.7173 -0.3691
  456MPD2    H2 6795   1.104   2.111  15.426  0.2671  0.3516  0.8917
  456MPD2    H3 6796   0.964   2.298  15.484  0.3576  0.2657  0.1625
  456MPD2     N 6797   0.881   2.119  15.894 -0.3476 -0.0797  0.1880
  456MPD2    H5 6798   0.893   2.034  15.948 -0.2760 -0.3469 -0.2580
  456MPD2    N1 6799   1.185   1.906  15.574  0.1955  0.4903  0.2217
  456MPD2    H7 6800   1.227   1.917  15.482 -0.4379  1.1668  0.0176
  457TMC3    C1 6801   0.723   2.189  16.063 -0.9336 -0.2422 -0.2690
  457TMC3    C2 6802   0.642   2.286  16.112  0.7056  1.1490  0.0840
  457TMC3    C3 6803   0.579   2.270  16.231 -0.8335  0.4146  1.2303
  457TMC3    C4 6804   0.740   2.073  16.129  0.5482 -0.0329 -0.2527
  457TMC3    C5 6805   0.664   2.056  16.241 -0.6361  0.0919 -0.3614
  457TMC3    C6 6806   0.576   2.149  16.285 -0.1989 -0.0389  0.3886
  457TMC3     C 6807   0.803   2.217  15.949  0.7696 -0.0982  0.1186
  457TMC3     O 6808   0.779   2.326  15.898 -0.1042  0.3036 -0.3504
  457TMC3     H 6809   0.633   2.385  16.069  0.4014  1.0405 -0.1049
  457TMC3    H1 6810   0.806   1.998  16.086 -0.1274 -1.3004  0.9364
  457TMC3    H2 6811   0.508   2.131  16.368  0.5884  0.7931  1.2112
  457TMC3    C7 6812   0.692   1.951  16.341  0.0970  0.3953 -0.0156
  457TMC3    C8 6813   0.517   2.384  16.302  1.1345  0.9519 -0.3254
  457TMC3    O1 6814   0.614   1.952  16.439 -0.6449 -0.3655 -0.4193
  457TMC3    O2 6815   0.504   2.485  16.236  0.3478  0.5462  0.5441
  458MPD2     C 6816   3.325   1.281  12.331  0.1233  0.3256  0.2104
  458MPD2    C1 6817   3.344   1.171  12.418 -0.3254  0.5593 -0.5609
  458MPD2    C2 6818   3.233   1.116  12.479  0.8500 -0.5190  0.2358
  458MPD2    C3 6819   3.110   1.160  12.448  0.6013  0.0130  0.2123
  458MPD2    C4 6820   3.093   1.256  12.350  0.2940  0.0091 -0.7102
  458MPD2    C5 6821   3.201   1.311  12.291 -0.0586  0.1229  0.5184
  458MPD2     H 6822   3.236   1.036  12.552  1.3099 -1.5466 -0.9208
  458MPD2    H1 6823   2.996   1.298  12.327  0.8423  0.7886 -1.5870
  458MPD2    H2 6824   3.413   1.328  12.289 -0.9562  1.1080 -1.1699
  458MPD2    H3 6825   3.188   1.385  12.213 -1.7270 -2.2300 -1.4478
  458MPD2     N 6826   3.004   1.107  12.520 -0.5574  0.0007 -0.0295
  458MPD2    H5 6827   3.029   1.059  12.606 -1.5592 -1.0142 -0.3033
  458MPD2    N1 6828   3.474   1.124  12.448 -0.1851 -0.3787  0.2933
  458MPD2    H7 6829   3.550   1.187  12.425 -0.2469  0.6059  2.7821
  459TMC3    C1 6830   3.657   1.029  12.538 -0.0195  0.4664  0.1556
  459TMC3    C2 6831   3.740   1.095  12.452 -0.4303  0.3420 -0.0694
  459TMC3    C3 6832   3.865   1.136  12.493  0.4291 -0.0042  0.8789
  459TMC3    C4 6833   3.710   0.976  12.658  0.4378  0.1427  0.3000
  459TMC3    C5 6834   3.839   1.009  12.697 -0.0755  0.5249  0.1239
  459TMC3    C6 6835   3.918   1.091  12.615 -0.8471 -0.0609 -0.2575
  459TMC3     C 6836   3.517   1.017  12.518 -0.3244  0.0719  0.2356
  459TMC3     O 6837   3.456   0.931  12.573 -0.3378 -0.0916 -0.1153
  459TMC3     H 6838   3.710   1.119  12.350 -0.4537 -2.0594 -0.6413
  459TMC3    H1 6839   3.639   0.935  12.728  0.5547 -0.5018  0.0367
  459TMC3    H2 6840   4.023   1.116  12.628 -0.7008 -1.0780  0.5113
  459TMC3    C7 6841   3.885   0.973  12.826 -0.8850  0.3146  0.2498
  459TMC3    C8 6842   3.957   1.217  12.409 -0.5677 -0.5080 -0.4185
  459TMC3    O1 6843   3.835   0.879  12.891  0.2775  0.1834 -0.1311
  459TMC3    O2 6844   4.074   1.211  12.432 -0.3622  0.5989 -0.1075
  460MPD2     C 6845   2.857   3.130  10.739 -0.2821 -0.8350 -0.7603
  460MPD2    C1 6846   2.754   3.200  10.794 -0.6512  0.4140 -0.5416
  460MPD2    C2 6847   2.690   3.292  10.716 -0.3563 -0.2430  0.4182
  460MPD2    C3 6848   2.734   3.311  10.579 -0.3056  0.1999  0.3974
  460MPD2    C4 6849   2.842   3.241  10.536  0.0113  0.0109 -0.7605
  460MPD2    C5 6850   2.901   3.151  10.615  0.0328 -0.2298 -0.2091
  460MPD2     H 6851   2.610   3.356  10.752  0.1841 -1.0709  3.0837
  460MPD2    H1 6852   2.879   3.246  10.434 -0.7663  0.4832 -1.0136
  460MPD2    H2 6853   2.906   3.052  10.797  1.0862  0.6389  0.0713
  460MPD2    H3 6854   2.982   3.087  10.579  1.0383  0.6295  0.5164
  460MPD2     N 6855   2.665   3.410  10.505  0.0914 -0.6032  0.6933
  460MPD2    H5 6856   2.574   3.432  10.543  0.3371  0.4153  0.6767
  460MPD2    N1 6857   2.725   3.172  10.932  0.5238  0.1603  0.9723
  460MPD2    H7 6858   2.767   3.090  10.974 -1.6538  0.9572  4.6730
  461TMC3    C1 6859   2.578   3.530  10.321  0.2750 -0.6599 -0.2168
  461TMC3    C2 6860   2.564   3.521  10.183 -0.1566 -0.2449 -0.0960
  461TMC3    C3 6861   2.476   3.603  10.124 -0.0020 -0.4057  0.3253
  461TMC3    C4 6862   2.512   3.621  10.399  0.9226  0.4438 -0.1198
  461TMC3    C5 6863   2.423   3.700  10.331 -0.1476 -0.3524 -0.2386
  461TMC3    C6 6864   2.399   3.696  10.195  0.3756 -0.1798  0.1338
  461TMC3     C 6865   2.691   3.455  10.375  0.1491 -0.1326 -0.1727
  461TMC3     O 6866   2.779   3.432  10.293  0.2599 -0.2985 -0.4650
  461TMC3     H 6867   2.612   3.440  10.130  0.1476 -0.4200  0.4528
  461TMC3    H1 6868   2.536   3.615  10.504 -0.1551  2.6445  0.2477
  461TMC3    H2 6869   2.350   3.775  10.141 -3.8619 -2.9451 -0.0440
  461TMC3    C7 6870   2.400   3.834  10.376 -0.4726 -0.3844  0.1341
  461TMC3    C8 6871   2.414   3.560  10.000 -0.3045  0.4111  0.2150
  461TMC3    O1 6872   2.297   3.894  10.340 -0.4946  0.4025  0.4500
  461TMC3    O2 6873   2.481   3.501   9.915 -0.3086  0.0770  0.0941
  462TMC3    C1 6874   2.691   3.404  17.696 -0.3055  0.0830  0.3365
  462TMC3    C2 6875   2.710   3.275  17.652 -0.5530 -0.5804 -0.9416
  462TMC3    C3 6876   2.621   3.177  17.694 -0.3152 -1.0103 -0.0297
  462TMC3    C4 6877   2.587   3.441   0.077  0.6754 -0.3563 -0.4147
  462TMC3    C5 6878   2.498   3.345   0.108 -0.5391  0.4366  0.1841
  462TMC3    C6 6879   2.511   3.211   0.071  0.4712  0.2270 -0.7451
  462TMC3     C 6880   2.799   3.495  17.678 -0.3769  0.4794  0.1671
  462TMC3     O 6881   2.889   3.447  17.608 -0.0654  0.0635 -0.6007
  462TMC3     H 6882   2.804   3.234  17.616  0.9728  1.6935  0.4734
  462TMC3    H1 6883   2.590   3.535   0.132  0.6483  0.5914 -2.0435
  462TMC3    H2 6884   2.430   3.141   0.085  0.8351 -0.4243 -1.9924
  462TMC3    C7 6885   2.359   3.385   0.133  0.6780  0.1328  0.4499
  462TMC3    C8 6886   2.610   3.059  17.606  0.5136 -0.7891  0.1263
  462TMC3    O1 6887   2.275   3.296   0.144 -0.5911  0.3824  0.6805
  462TMC3    O2 6888   2.545   2.966  17.646 -0.4310 -0.0728 -0.2689
  463MPD2     C 6889   2.951   2.845   1.407  0.7561 -0.4292 -0.1776
  463MPD2    C1 6890   2.861   2.927   1.352  0.7208  0.0059  0.5384
  463MPD2    C2 6891   2.892   3.047   1.286  0.3852  0.6070 -0.1196
  463MPD2    C3 6892   3.024   3.083   1.270 -0.0697 -0.8803 -0.3546
  463MPD2    C4 6893   3.118   3.007   1.326 -0.1200  0.5944 -0.1871
  463MPD2    C5 6894   3.082   2.884   1.390  0.4392  0.7628  0.1005
  463MPD2     H 6895   2.820   3.096   1.222  0.2268  1.1150  0.4484
  463MPD2    H1 6896   3.222   3.038   1.322  0.2003 -0.4534  0.1513
  463MPD2    H2 6897   2.927   2.746   1.443 -0.4818 -0.2844 -0.6007
  463MPD2    H3 6898   3.160   2.828   1.440 -0.4880  0.3497  1.0802
  463MPD2     N 6899   3.064   3.205   1.211  0.1265  0.0859 -0.9654
  463MPD2    H5 6900   3.164   3.224   1.215  0.2316 -1.0506  1.9300
  463MPD2    N1 6901   2.729   2.887   1.340 -0.4175 -0.2454 -0.4185
  463MPD2    H7 6902   2.657   2.945   1.299 -1.5585 -0.8949  0.6484
  464TMC3    C1 6903   2.521   2.788   1.379 -0.2362 -0.3390  0.1390
  464TMC3    C2 6904   2.464   2.849   1.272  0.9646 -0.1505  0.5907
  464TMC3    C3 6905   2.335   2.832   1.246  0.1706  0.5399  0.1633
  464TMC3    C4 6906   2.442   2.706   1.457  0.1381 -0.6741 -0.0912
  464TMC3    C5 6907   2.314   2.682   1.416  0.0518 -0.3158 -0.3311
  464TMC3    C6 6908   2.251   2.753   1.323  0.9904 -0.1656 -0.2548
  464TMC3     C 6909   2.664   2.785   1.410 -0.4920  0.2486  0.3418
  464TMC3     O 6910   2.706   2.704   1.493 -0.2244  0.3537  0.6641
  464TMC3     H 6911   2.520   2.922   1.215  0.0966 -0.1743 -0.3049
  464TMC3    H1 6912   2.491   2.644   1.531 -0.8966  1.1751  2.1742
  464TMC3    H2 6913   2.143   2.748   1.323  0.9509  0.5528  3.8226
  464TMC3    C7 6914   2.234   2.640   1.531  0.0428  0.4515  0.5380
  464TMC3    C8 6915   2.260   2.920   1.153  0.3170 -0.0425  0.3839
  464TMC3    O1 6916   2.287   2.663   1.642  0.0199 -0.0449 -0.0324
  464TMC3    O2 6917   2.336   2.988   1.082  0.2827 -0.6871  0.1200
  465MPD2     C 6918   4.601   2.091  16.235  0.6319 -0.2599 -0.6771
  465MPD2    C1 6919   4.517   2.114  16.345 -0.9522 -0.2714 -0.4880
  465MPD2    C2 6920   4.398   2.052  16.338 -0.0593 -0.6431 -0.2312
  465MPD2    C3 6921   4.352   1.996  16.222  0.4031 -0.0444  0.1632
  465MPD2    C4 6922   4.434   1.984  16.115 -0.5265 -0.2268 -0.3726
  465MPD2    C5 6923   4.557   2.022  16.128 -0.0924 -0.3750  0.1536
  465MPD2     H 6924   4.324   2.049  16.417 -0.4278  1.5799 -0.5001
  465MPD2    H1 6925   4.408   1.934  16.022 -0.5809 -0.2517 -0.3433
  465MPD2    H2 6926   4.706   2.117  16.241  0.1298  1.4677  0.7208
  465MPD2    H3 6927   4.623   2.010  16.043 -0.5457  0.2026 -0.2780
  465MPD2     N 6928   4.220   1.945  16.221  1.0141 -0.3127 -0.3150
  465MPD2    H5 6929   4.169   1.939  16.309  0.3374 -1.6985 -0.8010
  465MPD2    N1 6930   4.556   2.182  16.461  0.2561  0.0395  0.3349
  465MPD2    H7 6931   4.481   2.190  16.529  0.2502 -2.4733  0.6225
  466TMC3    C1 6932   3.836   1.879  16.311  0.1092  0.0116 -0.0800
  466TMC3    C2 6933   3.761   1.967  16.249  0.8714  0.5781 -0.0381
  466TMC3    C3 6934   3.803   2.006  16.125  0.1307  0.2910  0.4497
  466TMC3    C4 6935   3.958   1.837  16.262  0.0981  0.5653  0.0783
  466TMC3    C5 6936   4.001   1.887  16.142  0.2930  0.8634 -0.7720
  466TMC3    C6 6937   3.925   1.973  16.066  0.7633 -0.3062  0.1501
  466TMC3     C 6938   3.774   1.816  16.425  0.1549  0.3681 -0.0553
  466TMC3     O 6939   3.709   1.895  16.494  0.0428  0.2559  0.9732
  466TMC3     H 6940   3.665   2.000  16.289  1.1623 -0.0693  1.2044
  466TMC3    H1 6941   4.034   1.792  16.326  0.5596  1.8438  0.4197
  466TMC3    H2 6942   3.956   2.025  15.976 -0.2123  0.0166 -0.0019
  466TMC3    C7 6943   4.145   1.926  16.113 -0.3802 -0.4271 -0.6624
  466TMC3    C8 6944   3.765   2.141  16.087  0.2644  0.5620 -0.4206
  466TMC3    O1 6945   4.186   1.937  15.995  0.4635  0.4565 -0.9739
  466TMC3    O2 6946   3.792   2.175  15.973 -0.2106 -0.4637 -0.3006
  467TMC3    C1 6947   0.853   0.466  13.553 -0.1913 -0.5464  0.4802
  467TMC3    C2 6948   0.871   0.455  13.417 -0.9666  0.5215 -0.1569
  467TMC3    C3 6949   0.774   0.504  13.340  0.3936  0.9451  0.0411
  467TMC3    C4 6950   0.752   0.524  13.612  0.1756  0.0161 -0.6308
  467TMC3    C5 6951   0.648   0.555  13.536  0.2512  0.5232  0.3276
  467TMC3    C6 6952   0.657   0.542  13.401 -0.2185  0.2147  0.4494
  467TMC3     C 6953   0.974   0.440  13.632 -0.1428 -0.3327 -0.1458
  467TMC3     O 6954   0.984   0.510  13.731  0.4996 -0.2965  0.0181
  467TMC3     H 6955   0.959   0.415  13.366 -2.1327 -0.7803 -1.1542
  467TMC3    H1 6956   0.754   0.540  13.719 -1.1264 -1.5001 -0.3785
  467TMC3    H2 6957   0.576   0.579  13.339 -0.2278 -1.7015 -0.6661
  467TMC3    C7 6958   0.523   0.615  13.594  0.1571 -0.7740 -0.0170
  467TMC3    C8 6959   0.800   0.556  13.211  0.0038  0.3145  0.3782
  467TMC3    O1 6960   0.449   0.660  13.510 -0.3818  0.2100  0.4166
  467TMC3    O2 6961   0.709   0.614  13.152  0.8524 -0.1113 -0.1195
  468MPD2     C 6962   4.210   3.194  10.929  0.2681 -0.7115 -0.6066
  468MPD2    C1 6963   4.330   3.148  10.893 -0.5993  0.4902  0.0754
  468MPD2    C2 6964   4.375   3.016  10.918 -0.9754 -0.8495  0.5705
  468MPD2    C3 6965   4.289   2.938  10.999 -0.1757 -0.4937 -0.2970
  468MPD2    C4 6966   4.170   2.993  11.040  0.1267  0.1389 -0.6258
  468MPD2    C5 6967   4.132   3.119  11.008 -0.6816 -0.0947  0.4049
  468MPD2     H 6968   4.474   2.983  10.889 -1.7110 -1.1181 -1.6600
  468MPD2    H1 6969   4.094   2.937  11.093  1.8775 -1.1127  0.6004
  468MPD2    H2 6970   4.182   3.298  10.918  0.2567 -0.7824 -1.2917
  468MPD2    H3 6971   4.033   3.152  11.035 -0.9241 -1.6400  1.3830
  468MPD2     N 6972   4.312   2.800  11.042 -0.1710 -0.4543 -0.2199
  468MPD2    H5 6973   4.251   2.760  11.113 -0.2837  0.3107  0.1069
  468MPD2    N1 6974   4.412   3.224  10.816 -0.0307 -0.1880  0.1602
  468MPD2    H7 6975   4.512   3.206  10.815 -0.1217 -0.6854 -0.3603
  469TMC3    C1 6976   4.480   3.403  10.687  0.0762 -0.0743 -0.3530
  469TMC3    C2 6977   4.586   3.421  10.773 -0.0063 -0.1579  0.2779
  469TMC3    C3 6978   4.670   3.523  10.734  0.2795  0.6929 -0.1117
  469TMC3    C4 6979   4.464   3.468  10.572  0.7917 -0.2891 -0.2333
  469TMC3    C5 6980   4.558   3.563  10.534  1.2277  0.4988  0.2096
  469TMC3    C6 6981   4.668   3.587  10.615  0.4006  0.0615  0.2399
  469TMC3     C 6982   4.370   3.324  10.733  0.5011  0.2724  0.0916
  469TMC3     O 6983   4.258   3.360  10.701  0.3315 -0.4080 -0.4440
  469TMC3     H 6984   4.595   3.366  10.867 -0.3990 -1.9691 -0.7460
  469TMC3    H1 6985   4.387   3.445  10.500  0.1690  0.0449  0.3203
  469TMC3    H2 6986   0.018   3.665  10.600  0.4829 -0.6113 -2.8161
  469TMC3    C7 6987   4.525   3.640  10.414  1.0896  0.8409  0.3435
  469TMC3    C8 6988   0.057   3.546  10.825 -0.0551 -0.1824  0.4744
  469TMC3    O1 6989   4.414   3.622  10.369  0.3818  0.2713  0.5521
  469TMC3    O2 6990   0.161   3.574  10.770  0.2359 -0.3681  0.8909
  470TMC3    C1 6991   1.622   0.404   0.736  0.6988  0.2941  0.0267
  470TMC3    C2 6992   1.520   0.484   0.778 -0.2469  0.1439  0.4750
  470TMC3    C3 6993   1.548   0.569   0.884  0.1781 -0.0861 -0.7255
  470TMC3    C4 6994   1.743   0.398   0.797  0.0802 -0.4445  0.1550
  470TMC3    C5 6995   1.763   0.474   0.913 -0.2677 -0.7107 -0.3652
  470TMC3    C6 6996   1.660   0.558   0.961  0.1905  0.1062 -0.1097
  470TMC3     C 6997   1.608   0.293   0.643  0.7493  0.2223 -0.3033
  470TMC3     O 6998   1.701   0.211   0.631 -0.2266 -0.6861 -0.9177
  470TMC3     H 6999   1.417   0.473   0.746 -0.4003 -0.4763  1.1650
  470TMC3    H1 7000   1.830   0.343   0.762  1.6782  0.3546  2.8623
  470TMC3    H2 7001   1.670   0.622   1.048  0.3793 -1.2253  0.8495
  470TMC3    C7 7002   1.887   0.459   0.979 -0.5862  0.3068  0.5567
  470TMC3    C8 7003   1.447   0.665   0.924 -0.4091  0.5026  0.0228
  470TMC3    O1 7004   1.987   0.465   0.908  0.2447  0.8560  0.2566
  470TMC3    O2 7005   1.459   0.722   1.027  0.4297 -0.0508 -0.6453
  471MPD2     C 7006   2.357   0.882  17.114 -0.5997 -0.3729  0.3509
  471MPD2    C1 7007   2.356   0.750  17.085  0.3225 -0.2834  0.8397
  471MPD2    C2 7008   2.452   0.670  17.141 -0.1915 -0.4967  0.0470
  471MPD2    C3 7009   2.561   0.716  17.203  0.6595  0.8111  0.7201
  471MPD2    C4 7010   2.571   0.853  17.223 -0.2406 -0.0488 -0.1945
  471MPD2    C5 7011   2.463   0.937  17.185  0.3999 -0.3097  0.5195
  471MPD2     H 7012   2.449   0.564  17.119  1.0520 -0.5875  0.3372
  471MPD2    H1 7013   2.656   0.895  17.277 -1.5601 -1.2676  2.8271
  471MPD2    H2 7014   2.279   0.949  17.079 -0.4279 -1.3941 -1.9497
  471MPD2    H3 7015   2.464   1.043  17.208 -0.8393  0.0212 -0.9758
  471MPD2     N 7016   2.671   0.640  17.251  0.9034 -0.7242 -0.1378
  471MPD2    H5 7017   2.743   0.692  17.300 -2.7941  1.4261  2.9283
  471MPD2    N1 7018   2.253   0.686  16.999 -0.2328 -0.1403 -0.1914
  471MPD2    H7 7019   2.256   0.584  16.999 -1.0593 -0.1634  2.5802
  472TMC3    C1 7020   2.046   0.670  16.880 -0.0589  0.1377  0.4741
  472TMC3    C2 7021   1.930   0.735  16.854 -0.0424  0.4753 -0.5166
  472TMC3    C3 7022   1.833   0.674  16.786  0.1195 -1.2208 -0.2683
  472TMC3    C4 7023   2.075   0.546  16.834 -0.2287 -0.5795  0.3579
  472TMC3    C5 7024   1.973   0.482  16.770  0.2902  0.2127 -0.6655
  472TMC3    C6 7025   1.852   0.545  16.738  0.3185 -0.1873 -0.3963
  472TMC3     C 7026   2.154   0.753  16.939  0.2676 -0.0416  0.1268
  472TMC3     O 7027   2.125   0.870  16.957 -0.5035 -0.0384  0.2610
  472TMC3     H 7028   1.912   0.839  16.880 -0.1746 -0.1881  2.0772
  472TMC3    H1 7029   2.171   0.497  16.844  0.0015  0.4805  3.3441
  472TMC3    H2 7030   1.776   0.503  16.673 -0.1700 -1.5653  1.0748
  472TMC3    C7 7031   1.989   0.347  16.734  0.0379  0.2479 -0.4816
  472TMC3    C8 7032   1.721   0.746  16.742  0.8966  0.2051 -0.1620
  472TMC3    O1 7033   2.082   0.283  16.785  0.5004  0.0582  0.1772
  472TMC3    O2 7034   1.745   0.855  16.689 -0.3692  0.5914 -0.3383
  473MPD2     C 7035   1.718   2.959  13.999  0.1199  0.2128 -0.2164
  473MPD2    C1 7036   1.818   3.028  13.941 -0.0312 -0.9289 -0.3464
  473MPD2    C2 7037   1.905   3.100  14.008  0.5054  0.1134  0.5896
  473MPD2    C3 7038   1.890   3.113  14.145 -0.8967 -0.0059 -0.9315
  473MPD2    C4 7039   1.787   3.053  14.209  1.0328  0.7010  0.4846
  473MPD2    C5 7040   1.697   2.976  14.133  0.1891 -0.0093  0.1551
  473MPD2     H 7041   1.990   3.149  13.962  0.9575 -1.0800  0.1593
  473MPD2    H1 7042   1.771   3.057  14.316 -1.1482  0.1302  0.1824
  473MPD2    H2 7043   1.655   2.897  13.937 -0.9311  1.6877 -0.6397
  473MPD2    H3 7044   1.617   2.921  14.180  0.0626  1.6363  1.8691
  473MPD2     N 7045   1.992   3.183  14.221  0.0507  0.2089 -0.1966
  473MPD2    H5 7046   1.973   3.194  14.320 -1.5298  1.3079 -0.6180
  473MPD2    N1 7047   1.843   3.026  13.803 -0.0411 -0.3592  0.1954
  473MPD2    H7 7048   1.919   3.087  13.774  0.6054  0.1505  2.9791
  474TMC3    C1 7049   2.161   3.320  14.276 -0.3798 -0.0625 -0.5691
  474TMC3    C2 7050   2.079   3.378  14.372  0.1322  1.1571  0.2756
  474TMC3    C3 7051   2.137   3.481  14.437 -0.0464  0.1403  0.2965
  474TMC3    C4 7052   2.289   3.355  14.244 -0.0675 -0.3352 -0.2513
  474TMC3    C5 7053   2.341   3.445  14.332 -0.0017 -0.0433  0.5961
  474TMC3    C6 7054   2.268   3.515  14.428 -0.2779  0.3880  0.2367
  474TMC3     C 7055   2.091   3.261  14.172  0.0441  0.3885 -1.2325
  474TMC3     O 7056   2.136   3.280  14.060 -0.0084 -0.1428 -0.6217
  474TMC3     H 7057   1.976   3.354  14.396  0.7784 -0.7773  1.1821
  474TMC3    H1 7058   2.347   3.282  14.189  1.6996  0.5754  0.4089
  474TMC3    H2 7059   2.306   3.593  14.494  0.6481 -0.1362  0.3152
  474TMC3    C7 7060   2.478   3.444  14.355  0.3360  0.0003 -0.0620
  474TMC3    C8 7061   2.037   3.572  14.493 -0.3307  0.1315 -0.1828
  474TMC3    O1 7062   2.553   3.434  14.256 -0.1343  0.5309 -0.1055
  474TMC3    O2 7063   1.944   3.520  14.551 -0.9317  0.0714  0.3250
  475MPD2     C 7064   1.058   0.790  10.197 -0.0366 -0.4566  0.1637
  475MPD2    C1 7065   1.122   0.906  10.229 -0.5325  0.1307  0.3841
  475MPD2    C2 7066   1.058   1.018  10.284  1.0632 -0.2070 -0.2542
  475MPD2    C3 7067   0.925   1.007  10.306  0.6213  0.3051  0.0676
  475MPD2    C4 7068   0.854   0.895  10.264  0.3352 -0.5577  0.6204
  475MPD2    C5 7069   0.919   0.790  10.204 -0.5547  1.2555  0.3244
  475MPD2     H 7070   1.104   1.113  10.309  1.8532 -1.2733  2.2998
  475MPD2    H1 7071   0.751   0.876  10.291  0.1844 -2.5414 -1.3108
  475MPD2    H2 7072   1.119   0.712  10.153  2.0443 -0.4469  3.0258
  475MPD2    H3 7073   0.859   0.705  10.175 -1.7829  1.9921  0.6985
  475MPD2     N 7074   0.861   1.113  10.375 -0.2340  0.4453  0.3728
  475MPD2    H5 7075   0.924   1.189  10.400  0.0387  0.5482 -0.6127
  475MPD2    N1 7076   1.261   0.913  10.203  0.2262 -0.0531 -0.3177
  475MPD2    H7 7077   1.305   0.836  10.153 -0.5138 -0.3723 -0.4653
  476TMC3    C1 7078   1.474   1.011  10.165  0.2031  0.4192 -0.0335
  476TMC3    C2 7079   1.449   1.004  10.027 -0.3228 -0.1100 -0.2126
  476TMC3    C3 7080   1.495   1.100   9.940  0.6628 -0.1496 -0.3451
  476TMC3    C4 7081   1.556   1.117  10.212  0.3477 -0.2687  0.1871
  476TMC3    C5 7082   1.605   1.209  10.130  0.6095 -0.0253  0.2890
  476TMC3    C6 7083   1.576   1.196   9.995 -0.1233  0.5785  0.3134
  476TMC3     C 7084   1.356   1.009  10.243  0.0500  0.4956  1.0715
  476TMC3     O 7085   1.341   1.110  10.314  0.0949 -0.1861  1.3361
  476TMC3     H 7086   1.392   0.918   9.994 -1.0753  1.6026 -3.4649
  476TMC3    H1 7087   1.580   1.121  10.317  0.4335  1.8336  0.0695
  476TMC3    H2 7088   1.614   1.278   9.935  1.2308  0.4307  0.9598
  476TMC3    C7 7089   1.596   1.344  10.170 -0.5345 -0.3732 -0.1251
  476TMC3    C8 7090   1.389   1.154   9.860  0.0500 -0.3607 -1.2390
  476TMC3    O1 7091   1.644   1.429  10.090 -0.0632 -0.2060  0.1779
  476TMC3    O2 7092   1.411   1.260   9.800  0.1856  0.1715  0.9500
  477MPD2     C 7093   2.681   2.200  11.690 -0.4175 -0.1885 -0.3336
  477MPD2    C1 7094   2.601   2.257  11.791 -0.0935  0.5484  0.9511
  477MPD2    C2 7095   2.649   2.255  11.917 -0.2112 -0.0388 -0.2219
  477MPD2    C3 7096   2.762   2.187  11.953 -0.4826 -0.0705  0.1197
  477MPD2    C4 7097   2.832   2.116  11.853  0.1965  0.2574  0.0714
  477MPD2    C5 7098   2.788   2.125  11.726  0.1008 -0.1050  0.5783
  477MPD2     H 7099   2.591   2.304  11.993  0.3250 -1.5652  1.1729
  477MPD2    H1 7100   2.924   2.060  11.866 -1.1409 -1.6108  1.3458
  477MPD2    H2 7101   2.654   2.189  11.586 -0.3957  3.0864 -0.6725
  477MPD2    H3 7102   2.844   2.066  11.654  0.0012  0.9766 -0.3938
  477MPD2     N 7103   2.804   2.199  12.089  0.3760 -0.1766 -0.6014
  477MPD2    H5 7104   2.756   2.265  12.150  1.1439 -0.8422  0.7297
  477MPD2    N1 7105   2.483   2.319  11.755 -0.1756  0.3237  0.1465
  477MPD2    H7 7106   2.479   2.333  11.655 -0.2579  2.7185  0.4725
  478TMC3    C1 7107   2.321   2.489  11.785 -1.0704  0.9796 -0.6220
  478TMC3    C2 7108   2.281   2.595  11.860  0.1252  0.2506  0.1139
  478TMC3    C3 7109   2.218   2.699  11.806  0.0007  0.5993  0.6342
  478TMC3    C4 7110   2.294   2.486  11.652 -0.0734  0.3221 -0.1279
  478TMC3    C5 7111   2.226   2.588  11.600 -0.0579 -0.4116  0.4903
  478TMC3    C6 7112   2.190   2.706  11.670  0.4040 -0.4086 -0.0206
  478TMC3     C 7113   2.401   2.385  11.843  0.4160  0.2488 -0.0966
  478TMC3     O 7114   2.410   2.403  11.961 -0.5133  0.5105  0.0908
  478TMC3     H 7115   2.318   2.607  11.961  0.0043 -0.8201  0.2845
  478TMC3    H1 7116   2.322   2.400  11.591  2.3111  1.6817 -0.9498
  478TMC3    H2 7117   2.134   2.788  11.627  1.8733 -0.1579 -1.4736
  478TMC3    C7 7118   2.154   2.568  11.472 -0.5507 -0.1786 -0.6534
  478TMC3    C8 7119   2.186   2.805  11.900 -0.5721 -0.5625  0.2662
  478TMC3    O1 7120   2.102   2.457  11.452  0.3931 -0.2161 -0.5278
  478TMC3    O2 7121   2.179   2.763  12.014 -0.1039  0.5558  0.2888
  479MPD2     C 7122   1.105   4.666  14.946  0.4152 -0.7120  0.3988
  479MPD2    C1 7123   1.133   4.618  15.069  0.0802 -0.6888 -0.3810
  479MPD2    C2 7124   1.178   4.704  15.171  0.2888 -0.0192 -0.2123
  479MPD2    C3 7125   1.208   0.116  15.136 -0.5124  0.6570  1.0416
  479MPD2    C4 7126   1.192   0.162  15.005 -0.3745 -0.7993  0.0141
  479MPD2    C5 7127   1.134   0.073  14.912  0.7301  0.7092  0.2101
  479MPD2     H 7128   1.202   4.675  15.273 -0.7835 -1.5168 -0.3843
  479MPD2    H1 7129   1.221   0.261  14.970 -0.5478  0.0906  2.3527
  479MPD2    H2 7130   1.069   4.597  14.871 -0.2629  0.0506  0.0212
  479MPD2    H3 7131   1.114   0.101  14.809  0.0123 -0.8614 -0.0685
  479MPD2     N 7132   1.262   0.210  15.227  0.3820 -0.2652 -1.0653
  479MPD2    H5 7133   1.297   0.287  15.171  1.0013 -0.4186 -0.8922
  479MPD2    N1 7134   1.088   4.491  15.094 -0.4156 -0.3518  0.5831
  479MPD2    H7 7135   1.037   4.442  15.021  2.5990 -0.4485 -1.4522
  480TMC3    C1 7136   1.364   0.410  15.641 -0.0061  0.0544 -0.1254
  480TMC3    C2 7137   1.447   0.501  15.590  0.5726 -0.6405 -0.3121
  480TMC3    C3 7138   1.443   0.511  15.452  0.6806  0.8243  0.3635
  480TMC3    C4 7139   1.306   0.307  15.566  0.7688  0.4199  0.1990
  480TMC3    C5 7140   1.313   0.312  15.431 -0.2322 -0.2512  0.3764
  480TMC3    C6 7141   1.376   0.419  15.368 -0.0942  0.4865 -0.2632
  480TMC3     C 7142   1.375   0.381  15.781  0.0188 -0.1702  0.6363
  480TMC3     O 7143   1.483   0.388  15.841 -0.3500 -0.1951  0.0928
  480TMC3     H 7144   1.499   0.570  15.655  0.0034 -1.7495  1.3448
  480TMC3    H1 7145   1.245   0.235  15.619  2.6896 -2.2102 -1.1940
  480TMC3    H2 7146   1.406   0.408  15.264 -1.2802  3.3586 -0.9117
  480TMC3    C7 7147   1.258   0.204  15.359 -0.2471  0.3101  0.0367
  480TMC3    C8 7148   1.513   0.619  15.390 -0.5877  0.1892 -0.2232
  480TMC3    O1 7149   1.209   0.113  15.425 -0.0717  0.3137  0.8240
  480TMC3    O2 7150   1.508   0.726  15.454  0.2099  0.6968 -0.7042
  481MPD2     C 7151   3.570   0.070  14.012  0.4986 -0.2692 -0.0303
  481MPD2    C1 7152   3.478   4.702  14.034 -0.0599  0.0748 -0.2859
  481MPD2    C2 7153   3.473   4.643  14.164  0.6647 -0.6658 -0.0570
  481MPD2    C3 7154   3.569   4.680  14.261  0.0632  0.5922  0.2953
  481MPD2    C4 7155   3.662   0.061  14.230 -0.1964  0.0553 -0.3081
  481MPD2    C5 7156   3.656   0.122  14.107  0.5859 -0.3806  0.2178
  481MPD2     H 7157   3.409   4.560  14.190 -0.7216  0.3656 -0.2152
  481MPD2    H1 7158   3.735   0.091  14.303 -1.2322 -0.4421  0.9313
  481MPD2    H2 7159   3.571   0.116  13.914  0.6655 -0.6274 -0.1988
  481MPD2    H3 7160   3.725   0.203  14.085 -1.1136  0.5662 -1.5843
  481MPD2     N 7161   3.576   4.628  14.387  0.9130 -0.3877  0.0614
  481MPD2    H5 7162   3.657   4.660  14.439  1.4098  0.6019 -1.3251
  481MPD2    N1 7163   3.403   4.653  13.929 -0.3366 -0.4824 -0.2555
  481MPD2    H7 7164   3.425   4.686  13.836 -0.3760  0.2863  0.0098
  482TMC3    C1 7165   3.234   4.538  13.818 -0.5371  0.0897 -0.0979
  482TMC3    C2 7166   3.113   4.471  13.826  0.2427 -0.8888  0.5509
  482TMC3    C3 7167   3.041   4.461  13.712 -0.0428  0.2343  0.0646
  482TMC3    C4 7168   3.282   4.584  13.700 -0.3909  0.2098 -0.6841
  482TMC3    C5 7169   3.201   4.571  13.588 -0.1495  0.1553  0.6936
  482TMC3    C6 7170   3.082   4.510  13.590  0.2865  0.5692  0.7048
  482TMC3     C 7171   3.302   4.563  13.938 -0.1452 -0.1267 -0.4185
  482TMC3     O 7172   3.255   4.509  14.036  0.2324 -0.2936 -0.9277
  482TMC3     H 7173   3.079   4.420  13.916  2.4665 -2.4348  0.5026
  482TMC3    H1 7174   3.375   4.637  13.690  0.4799 -1.2320 -0.1824
  482TMC3    H2 7175   3.009   4.501  13.511  0.5504  0.2233  0.4955
  482TMC3    C7 7176   3.239   4.629  13.460 -0.6546  0.7493 -0.2266
  482TMC3    C8 7177   2.917   4.401  13.726  0.2504  0.3804  0.1460
  482TMC3    O1 7178   3.319   4.720  13.460  0.0866  0.1412 -0.2247
  482TMC3    O2 7179   2.914   4.315  13.817  0.0905  0.4732  0.4169
  483TMC3    C1 7180   1.149   3.359   1.131 -0.3060 -0.6590  0.1003
  483TMC3    C2 7181   1.160   3.411   1.007 -0.1928 -0.3474 -0.3548
  483TMC3    C3 7182   1.266   3.360   0.932 -0.4201 -0.2068 -0.0594
  483TMC3    C4 7183   1.248   3.292   1.188 -0.2079 -0.1779  0.7085
  483TMC3    C5 7184   1.358   3.257   1.113  0.4843 -0.5190  0.4141
  483TMC3    C6 7185   1.369   3.283   0.978  0.1725  0.5307 -0.4260
  483TMC3     C 7186   1.066   3.431   1.225 -0.0893 -0.5605 -0.0277
  483TMC3     O 7187   1.119   3.450   1.332  0.2461  0.0564  0.0095
  483TMC3     H 7188   1.085   3.483   0.977 -0.3560 -0.3628  0.0213
  483TMC3    H1 7189   1.229   3.250   1.286  0.4373  0.9939  1.3335
  483TMC3    H2 7190   1.452   3.255   0.914  0.2375  2.9018 -1.3801
  483TMC3    C7 7191   1.440   3.144   1.155 -0.7085  0.5356  0.6391
  483TMC3    C8 7192   1.272   3.391   0.794 -0.6700 -0.3744 -0.6937
  483TMC3    O1 7193   1.492   3.091   1.064 -0.5724  0.0103 -0.2389
  483TMC3    O2 7194   1.371   3.354   0.734  0.3180  0.3623 -0.6473
  484MPD2     C 7195   3.854   1.491  12.184  0.2836  0.7809  0.0977
  484MPD2    C1 7196   3.940   1.394  12.228  0.5565  0.9261  1.1892
  484MPD2    C2 7197   4.073   1.409  12.203 -0.3416 -0.0434  0.8696
  484MPD2    C3 7198   4.133   1.517  12.136  0.1300 -0.1447  0.5403
  484MPD2    C4 7199   4.041   1.617  12.097  0.5321 -0.0130 -0.1147
  484MPD2    C5 7200   3.906   1.601  12.120  0.5920  0.2508  0.0916
  484MPD2     H 7201   4.134   1.348  12.269 -0.3369 -1.5123 -0.4741
  484MPD2    H1 7202   4.084   1.704  12.049 -1.5717  0.8891 -0.3996
  484MPD2    H2 7203   3.750   1.496  12.213  0.6469  0.8399  1.3890
  484MPD2    H3 7204   3.835   1.680  12.096  0.6258  0.5184  0.8679
  484MPD2     N 7205   4.273   1.528  12.116 -0.1874 -0.4325  0.5779
  484MPD2    H5 7206   4.308   1.619  12.088 -1.9670  0.3905  1.0357
  484MPD2    N1 7207   3.887   1.302  12.326  0.3061  0.3980 -0.3090
  484MPD2    H7 7208   3.788   1.308  12.345  0.2236  0.3582 -0.7417
  485TMC3    C1 7209   4.493   1.482  12.172 -0.0242  1.0925  0.3103
  485TMC3    C2 7210   4.584   1.388  12.209 -0.1938 -0.2015  0.1256
  485TMC3    C3 7211   4.682   1.427  12.305  0.6266  0.5877 -0.1663
  485TMC3    C4 7212   4.495   1.604  12.231  0.4850 -0.0513  0.0857
  485TMC3    C5 7213   4.595   1.646  12.309  0.2213  0.3194 -0.6596
  485TMC3    C6 7214   4.677   1.552  12.357  0.2192 -0.4305 -0.0367
  485TMC3     C 7215   4.365   1.433  12.143  0.2510  0.1703 -0.4692
  485TMC3     O 7216   4.342   1.315  12.157  0.6662  0.0040 -0.0789
  485TMC3     H 7217   4.567   1.287  12.173 -1.3793  0.3241 -0.7538
  485TMC3    H1 7218   4.430   1.680  12.188  1.9759  1.8004  1.0597
  485TMC3    H2 7219   0.027   1.580  12.431  2.1395 -1.4278 -1.5830
  485TMC3    C7 7220   4.669   1.766  12.265  0.0357 -0.2190 -0.1396
  485TMC3    C8 7221   0.093   1.374  12.291 -0.2334 -0.0620  0.5713
  485TMC3    O1 7222   4.610   1.868  12.235  0.0807  0.5802 -0.0468
  485TMC3    O2 7223   0.183   1.455  12.303  0.6621  0.3760 -0.3585
  486MPD2     C 7224   1.539   0.304  12.774  0.6708  0.1212 -0.0849
  486MPD2    C1 7225   1.434   0.266  12.690 -0.0857 -0.3858  0.0672
  486MPD2    C2 7226   1.379   0.360  12.608  0.3193  0.4733 -0.1014
  486MPD2    C3 7227   1.425   0.490  12.603  0.3327 -0.0692  0.2049
  486MPD2    C4 7228   1.537   0.524  12.681 -0.1891 -0.4278  0.6765
  486MPD2    C5 7229   1.594   0.432  12.767  0.8482  0.2015 -0.4621
  486MPD2     H 7230   1.294   0.330  12.547  0.7116 -1.2501  0.1819
  486MPD2    H1 7231   1.578   0.624  12.690  0.0271 -0.5423  0.9702
  486MPD2    H2 7232   1.577   0.233  12.847  0.4454  1.3406  1.2352
  486MPD2    H3 7233   1.673   0.469  12.831  1.3274 -1.8398  0.1117
  486MPD2     N 7234   1.344   0.580  12.525  0.2808 -0.6480  0.1783
  486MPD2    H5 7235   1.269   0.535  12.474  0.2896 -2.2609  1.5937
  486MPD2    N1 7236   1.384   0.133  12.712  0.6716 -0.0674 -0.6309
  486MPD2    H7 7237   1.442   0.084  12.779 -0.5597  0.8244  1.0894
  487TMC3    C1 7238   1.263   4.657  12.682  0.1184 -0.6461  0.0714
  487TMC3    C2 7239   1.183   4.585  12.600 -0.0457  0.3063  0.7602
  487TMC3    C3 7240   1.147   4.458  12.640 -0.0851 -0.3325 -0.6295
  487TMC3    C4 7241   1.299   4.605  12.802 -0.1048 -0.2059 -0.2205
  487TMC3    C5 7242   1.248   4.486  12.844  0.2483  0.4994 -0.1202
  487TMC3    C6 7243   1.196   4.405  12.754 -0.5893  0.5317 -0.4429
  487TMC3     C 7244   1.294   0.066  12.635 -0.0937  0.2077 -0.3590
  487TMC3     O 7245   1.240   0.105  12.533  0.1281 -0.1420  0.5882
  487TMC3     H 7246   1.148   4.624  12.505 -0.7047 -2.8004 -0.2687
  487TMC3    H1 7247   1.337   4.666  12.883  0.2146  1.0040 -1.2710
  487TMC3    H2 7248   1.152   4.316  12.797 -2.7243  1.7972  0.0218
  487TMC3    C7 7249   1.164   4.507  12.966  0.8487 -0.8420 -0.1688
  487TMC3    C8 7250   1.012   4.429  12.620  0.4114 -0.8307 -0.0383
  487TMC3    O1 7251   1.215   4.562  13.066  0.3761 -0.3983 -0.0082
  487TMC3    O2 7252   0.996   4.310  12.624  0.7855  0.0438 -0.0252
  488MPD2     C 7253   1.516   1.766  16.194  0.8120  0.1997  1.0018
  488MPD2    C1 7254   1.515   1.877  16.279  0.6960 -0.1087  0.2680
  488MPD2    C2 7255   1.473   1.866  16.408  0.4113 -0.2393 -0.0252
  488MPD2    C3 7256   1.422   1.748  16.458  0.2135  0.2414  0.5535
  488MPD2    C4 7257   1.428   1.636  16.378 -0.5900 -0.0570  0.0814
  488MPD2    C5 7258   1.471   1.651  16.247 -0.4480 -0.0743  0.0645
  488MPD2     H 7259   1.476   1.947  16.480  0.9119 -0.7514  0.5300
  488MPD2    H1 7260   1.390   1.537  16.402 -0.7105 -0.0080  0.0896
  488MPD2    H2 7261   1.532   1.776  16.088 -1.7666 -0.1043  0.5922
  488MPD2    H3 7262   1.477   1.561  16.187 -0.8401 -0.2107  0.2311
  488MPD2     N 7263   1.390   1.740  16.596  0.3202 -0.1820  0.2055
  488MPD2    H5 7264   1.412   1.828  16.643  2.1959  0.7157 -2.3839
  488MPD2    N1 7265   1.544   2.005  16.233 -0.1561 -0.2744 -0.1289
  488MPD2    H7 7266   1.551   2.083  16.297  0.3506 -0.4468  0.0276
  489TMC3    C1 7267   1.352   1.661  16.815 -0.0449 -1.1881 -0.2250
  489TMC3    C2 7268   1.385   1.782  16.871  0.0697 -0.1291 -0.0220
  489TMC3    C3 7269   1.383   1.790  17.007 -0.3018  0.4794 -0.5149
  489TMC3    C4 7270   1.322   1.547  16.892 -0.5656  0.6094 -0.4623
  489TMC3    C5 7271   1.316   1.566  17.024  0.2281 -0.0970  0.3486
  489TMC3    C6 7272   1.347   1.678  17.084 -0.3718 -0.6133  0.4734
  489TMC3     C 7273   1.360   1.631  16.671 -0.2019 -0.0173 -0.5116
  489TMC3     O 7274   1.360   1.518  16.636  0.2553 -0.1015 -0.2415
  489TMC3     H 7275   1.426   1.856  16.804  1.8720 -1.5603 -0.4930
  489TMC3    H1 7276   1.296   1.452  16.847  1.5162  0.4925 -1.4567
  489TMC3    H2 7277   1.350   1.674  17.192  1.2048  0.5709  0.4804
  489TMC3    C7 7278   1.244   1.470  17.111  0.2425 -0.0343 -0.1076
  489TMC3    C8 7279   1.388   1.916  17.079 -0.4445  0.5803  0.2779
  489TMC3    O1 7280   1.289   1.446  17.222 -0.2777 -0.0298  0.4803
  489TMC3    O2 7281   1.400   1.896  17.201 -0.0759  0.1934  0.1895
  490MPD2     C 7282   2.291   0.532  17.623  0.1611  0.5769 -0.0308
  490MPD2    C1 7283   2.175   0.590  17.584 -0.3448  0.0055  0.0627
  490MPD2    C2 7284   2.183   0.718  17.522  0.3361  0.3295 -0.5969
  490MPD2    C3 7285   2.305   0.781  17.514  0.3914 -0.1737  0.4732
  490MPD2    C4 7286   2.421   0.717  17.564 -0.0234  0.5286 -0.1486
  490MPD2    C5 7287   2.417   0.588  17.623 -0.3040 -0.0900 -0.4273
  490MPD2     H 7288   2.096   0.771  17.486 -0.3798  0.3987  1.2403
  490MPD2    H1 7289   2.512   0.777  17.562  1.8225 -2.2590 -0.3584
  490MPD2    H2 7290   2.305   0.432  17.663  0.1824  0.2210 -0.9185
  490MPD2    H3 7291   2.506   0.544  17.665 -0.9904 -0.6597  0.4137
  490MPD2     N 7292   2.324   0.915  17.478 -0.6500 -0.8383 -0.1231
  490MPD2    H5 7293   2.419   0.943  17.499 -0.7158 -1.7387  1.4280
  490MPD2    N1 7294   2.046   0.532  17.598 -0.6663  0.1641  1.1050
  490MPD2    H7 7295   1.967   0.585  17.563 -0.8242 -0.2047  0.9114
  491TMC3    C1 7296   1.876   0.388  17.652 -0.2424  0.2931  0.4856
  491TMC3    C2 7297   1.803   0.372   0.068  0.1974  1.0806 -0.1110
  491TMC3    C3 7298   1.665   0.362   0.065  0.2033 -0.1062 -0.1738
  491TMC3    C4 7299   1.824   0.410  17.529  0.8067  0.1071  0.2773
  491TMC3    C5 7300   1.685   0.405  17.533 -0.8348  0.1620  0.2951
  491TMC3    C6 7301   1.603   0.374  17.636 -0.3906  0.4206 -0.4716
  491TMC3     C 7302   2.015   0.426  17.679 -0.1462  1.2189 -0.1169
  491TMC3     O 7303   2.084   0.367   0.063  0.7856  0.4456  0.1935
  491TMC3     H 7304   1.861   0.357   0.158 -1.2559  0.3988  0.7119
  491TMC3    H1 7305   1.884   0.417  17.439 -1.0435  0.6330 -0.9307
  491TMC3    H2 7306   1.497   0.359  17.620 -0.2395 -1.4023  0.2087
  491TMC3    C7 7307   1.611   0.447  17.414  0.1163  0.0053 -0.3594
  491TMC3    C8 7308   1.587   0.433   0.167  0.6598  0.3742 -0.0511
  491TMC3    O1 7309   1.505   0.389  17.383  0.8133 -0.2262  0.3675
  491TMC3    O2 7310   1.465   0.449   0.143  0.3329 -0.4750 -0.3926
  492MPD2     C 7311   2.747   1.825  11.394  1.0402  1.1327 -0.1622
  492MPD2    C1 7312   2.737   1.721  11.303 -0.0160 -0.8908  0.1739
  492MPD2    C2 7313   2.697   1.597  11.352 -0.5245  0.1691  0.3668
  492MPD2    C3 7314   2.672   1.580  11.485 -0.0975  1.0683  0.5456
  492MPD2    C4 7315   2.685   1.687  11.569 -0.3174 -0.2978 -0.0116
  492MPD2    C5 7316   2.720   1.809  11.525 -0.1669  0.1479 -0.2133
  492MPD2     H 7317   2.701   1.509  11.288  0.8514 -0.5622  1.4279
  492MPD2    H1 7318   2.672   1.674  11.676  2.2808 -2.3236  0.0782
  492MPD2    H2 7319   2.775   1.919  11.348 -0.0652  0.3347 -2.5195
  492MPD2    H3 7320   2.726   1.891  11.596  0.8023  0.6824 -0.9132
  492MPD2     N 7321   2.635   1.455  11.544 -0.6107  0.2183  0.4838
  492MPD2    H5 7322   2.610   1.456  11.642  0.9703  1.5888  0.8818
  492MPD2    N1 7323   2.777   1.747  11.170  0.0306  0.1383  0.5276
  492MPD2    H7 7324   2.810   1.840  11.147  0.2725 -0.0270  0.2173
  493TMC3    C1 7325   2.800   1.716  10.939  0.4143  0.5369 -0.6335
  493TMC3    C2 7326   2.837   1.845  10.924  0.4746  0.4318  0.1420
  493TMC3    C3 7327   2.904   1.885  10.814 -0.5716 -0.1144 -0.1524
  493TMC3    C4 7328   2.825   1.624  10.837 -0.1139 -0.0371 -0.3693
  493TMC3    C5 7329   2.873   1.673  10.719  0.8142 -0.7297 -0.0415
  493TMC3    C6 7330   2.909   1.806  10.709  0.2085 -0.5825 -0.5094
  493TMC3     C 7331   2.768   1.654  11.071 -0.2111  0.2223 -0.0709
  493TMC3     O 7332   2.725   1.542  11.072  0.3658  0.3915 -0.0220
  493TMC3     H 7333   2.813   1.924  10.994 -2.1971 -1.1509  1.0111
  493TMC3    H1 7334   2.804   1.518  10.849 -2.8957  0.4811 -0.6921
  493TMC3    H2 7335   2.937   1.847  10.612 -1.8256  1.1325 -0.3547
  493TMC3    C7 7336   2.846   1.599  10.604  0.6893  0.1379 -0.2070
  493TMC3    C8 7337   2.978   2.012  10.819  0.0890  0.0736 -0.6721
  493TMC3    O1 7338   2.752   1.523  10.618 -0.4909  0.4026 -1.2546
  493TMC3    O2 7339   3.008   2.045  10.932 -0.5904  0.0595  0.4365
  494TMC3    C1 7340   2.958   3.277   0.266 -0.2057 -0.0005  0.4930
  494TMC3    C2 7341   2.964   3.143   0.247 -0.5416  0.8023  0.7097
  494TMC3    C3 7342   3.044   3.093   0.145  0.5186  0.2070 -0.5109
  494TMC3    C4 7343   3.041   3.363   0.197 -0.7221 -0.4132  0.9877
  494TMC3    C5 7344   3.113   3.305   0.098  0.0697  0.2553 -0.7545
  494TMC3    C6 7345   3.121   3.179   0.074 -0.2394  0.2945 -0.0140
  494TMC3     C 7346   2.848   3.328   0.337 -0.0686  0.8477 -0.6783
  494TMC3     O 7347   2.761   3.248   0.370  0.1412  0.1295 -0.0363
  494TMC3     H 7348   2.900   3.077   0.304  0.7508  1.2298  2.6111
  494TMC3    H1 7349   3.020   3.469   0.185  0.6404 -0.2839 -0.2860
  494TMC3    H2 7350   3.193   3.145   0.001  1.9104 -0.7061  2.5784
  494TMC3    C7 7351   3.204   3.381   0.012  0.5039 -0.3765  0.1248
  494TMC3    C8 7352   3.030   2.959   0.112 -0.4698  0.0442 -0.1174
  494TMC3    O1 7353   3.236   3.340  17.594  1.1809  0.3915  0.2330
  494TMC3    O2 7354   3.001   2.886   0.206  0.3700  0.2565 -0.6997
  495TMC3    C1 7355   1.847   0.288  14.581  0.4891 -0.2184 -0.2324
  495TMC3    C2 7356   1.747   0.286  14.487 -0.9060 -0.0431 -0.0043
  495TMC3    C3 7357   1.682   0.408  14.483 -0.5860 -0.3458 -0.2438
  495TMC3    C4 7358   1.874   0.389  14.664 -0.1293  0.1610  0.9081
  495TMC3    C5 7359   1.799   0.504  14.662  0.0370 -0.1855  0.3819
  495TMC3    C6 7360   1.703   0.516  14.566 -0.5028 -0.6601  0.7159
  495TMC3     C 7361   1.894   0.156  14.622  0.4173 -0.4894 -0.5182
  495TMC3     O 7362   2.007   0.147  14.671  0.1105  0.0150  0.0461
  495TMC3     H 7363   1.756   0.207  14.413  1.0408 -0.4014  0.6276
  495TMC3    H1 7364   1.931   0.364  14.753  0.3174  0.4145  0.6963
  495TMC3    H2 7365   1.628   0.595  14.564  0.0667 -0.1717 -0.9125
  495TMC3    C7 7366   1.746   0.529  14.796  0.1757  0.0965 -0.1893
  495TMC3    C8 7367   1.571   0.418  14.388  0.6468  0.2583  0.3401
  495TMC3    O1 7368   1.728   0.422  14.857 -0.7241 -0.3597 -0.1332
  495TMC3    O2 7369   1.489   0.507  14.404 -0.1965 -0.2083 -0.0557
  496MPD2     C 7370   3.547   4.629  15.146  0.6604 -0.6409 -0.3598
  496MPD2    C1 7371   3.618   0.020  15.143 -0.1562 -0.2416 -0.1332
  496MPD2    C2 7372   3.547   0.142  15.140  0.2211  0.0098  0.3441
  496MPD2    C3 7373   3.411   0.143  15.164 -0.2946 -0.0900  0.0575
  496MPD2    C4 7374   3.342   0.024  15.165 -0.5425 -1.0706  0.6805
  496MPD2    C5 7375   3.411   4.627  15.153  0.3225  0.2292  0.0493
  496MPD2     H 7376   3.602   0.234  15.123 -1.8531  1.2442  0.3084
  496MPD2    H1 7377   3.235   0.013  15.159 -0.6143 -1.4811  2.5554
  496MPD2    H2 7378   3.602   4.536  15.136 -1.5746 -2.0777  0.7602
  496MPD2    H3 7379   3.357   4.534  15.165 -0.7993  0.7254 -1.0605
  496MPD2     N 7380   3.326   0.250  15.176 -0.1245 -0.2216  0.4509
  496MPD2    H5 7381   3.228   0.232  15.198 -0.0395 -3.0537 -1.6100
  496MPD2    N1 7382   3.758   0.014  15.138 -0.6705  0.2243 -0.0344
  496MPD2    H7 7383   3.796   4.645  15.152  2.1694  1.5599  1.2949
  497TMC3    C1 7384   3.256   0.463  15.240  0.0647 -0.2957 -0.2167
  497TMC3    C2 7385   3.128   0.461  15.196 -0.3938 -0.4863  0.9859
  497TMC3    C3 7386   3.027   0.471  15.290  0.2747 -0.2982  0.2904
  497TMC3    C4 7387   3.285   0.494  15.368  0.2543  0.2177 -0.0283
  497TMC3    C5 7388   3.180   0.500  15.457  0.2542  0.3194 -0.2790
  497TMC3    C6 7389   3.051   0.490  15.422 -0.2052 -0.1827  0.1046
  497TMC3     C 7390   3.364   0.384  15.181 -0.2065 -1.1905  0.5252
  497TMC3     O 7391   3.476   0.436  15.191  0.3040 -0.0920 -0.1720
  497TMC3     H 7392   3.115   0.441  15.090 -2.1841 -0.6026  1.2217
  497TMC3    H1 7393   3.387   0.487  15.405 -0.0277 -2.7950  0.1686
  497TMC3    H2 7394   2.977   0.490  15.501 -1.1451 -1.2077 -0.7605
  497TMC3    C7 7395   3.209   0.484  15.597 -0.2466  0.7245 -0.1347
  497TMC3    C8 7396   2.892   0.439  15.254  0.9273 -0.0640  0.4554
  497TMC3    O1 7397   3.117   0.441  15.671  0.5262  0.1543 -0.1747
  497TMC3    O2 7398   2.867   0.438  15.134  0.0318 -0.0611  0.0356
  498MPD2     C 7399   0.081   1.145   9.676  0.6960 -0.0993 -0.3850
  498MPD2    C1 7400   0.057   1.193   9.806  0.2256  0.2670 -0.0031
  498MPD2    C2 7401   4.658   1.171   9.865  0.2424 -0.1297 -0.5897
  498MPD2    C3 7402   4.559   1.099   9.803  0.0396  0.0666 -0.2273
  498MPD2    C4 7403   4.588   1.049   9.674 -0.4263  0.2315 -0.5274
  498MPD2    C5 7404   4.705   1.081   9.606  0.3667  0.3058 -0.0438
  498MPD2     H 7405   4.638   1.193   9.969  1.6882  1.1495 -0.5973
  498MPD2    H1 7406   4.506   1.007   9.618 -0.4645 -1.0720  0.4983
  498MPD2    H2 7407   0.176   1.146   9.624 -0.7844 -2.0331 -3.0954
  498MPD2    H3 7408   4.719   1.050   9.503 -1.5803  1.5075 -0.6666
  498MPD2     N 7409   4.440   1.075   9.875  0.3305 -0.1360  0.2262
  498MPD2    H5 7410   4.427   1.111   9.969 -0.9712  0.4601 -0.1836
  498MPD2    N1 7411   0.157   1.268   9.880  0.0657  0.1538 -0.2888
  498MPD2    H7 7412   0.126   1.304   9.970  2.2729  0.0987  0.4956
  499TMC3    C1 7413   0.334   1.410   9.897 -0.4773  0.0960  0.5134
  499TMC3    C2 7414   0.473   1.423   9.910  0.1828  0.6152 -0.2174
  499TMC3    C3 7415   0.529   1.539   9.962  0.4080  0.0221  0.3946
  499TMC3    C4 7416   0.259   1.528   9.912  0.2531  0.0277 -0.0024
  499TMC3    C5 7417   0.323   1.651   9.942  0.3802  0.2145  0.2891
  499TMC3    C6 7418   0.458   1.653   9.980 -0.0213  0.0955  0.5643
  499TMC3     C 7419   0.283   1.300   9.833 -0.7061  0.8425  0.1963
  499TMC3     O 7420   0.353   1.252   9.743  0.5309 -0.6451 -0.5115
  499TMC3     H 7421   0.534   1.336   9.890  0.3537  0.4067  1.1974
  499TMC3    H1 7422   0.154   1.521   9.887  1.0203 -1.0302 -2.9310
  499TMC3    H2 7423   0.509   1.748   9.995  1.5662 -0.4874 -1.0705
  499TMC3    C7 7424   0.258   1.776   9.905  0.1916 -0.0369 -0.1947
  499TMC3    C8 7425   0.682   1.560   9.968  0.1209 -0.4545  0.4957
  499TMC3    O1 7426   0.331   1.871   9.887  0.5636  0.4707  0.2072
  499TMC3    O2 7427   0.728   1.667   9.927 -0.1858 -0.4958  0.5343
  500MPD2     C 7428   1.608   2.401  10.580 -0.1614 -0.3274  0.0222
  500MPD2    C1 7429   1.597   2.461  10.449  0.1380  0.4729  0.3336
  500MPD2    C2 7430   1.470   2.472  10.394  0.2212  0.5999 -0.0050
  500MPD2    C3 7431   1.354   2.418  10.456  0.5487 -0.3539  0.2799
  500MPD2    C4 7432   1.371   2.360  10.581  0.4359 -0.1861 -0.1352
  500MPD2    C5 7433   1.491   2.351  10.641 -0.2046  0.7966  0.6650
  500MPD2     H 7434   1.459   2.530  10.303 -0.4180 -0.7246 -0.7874
  500MPD2    H1 7435   1.285   2.328  10.639 -0.8407  0.0907 -1.8458
  500MPD2    H2 7436   1.698   2.395  10.640 -0.2516 -1.8821  0.0198
  500MPD2    H3 7437   1.500   2.307  10.739  0.2020  2.8209  1.5403
  500MPD2     N 7438   1.221   2.428  10.404  0.2411 -0.4281  1.2884
  500MPD2    H5 7439   1.140   2.401  10.459  0.7101 -0.3709  1.9984
  500MPD2    N1 7440   1.699   2.522  10.374 -0.7976  0.1594  0.7228
  500MPD2    H7 7441   1.673   2.546  10.279  0.9974 -0.0501  0.1927
  501TMC3    C1 7442   1.908   2.593  10.313  0.2796  0.8642  0.0471
  501TMC3    C2 7443   1.865   2.698  10.241 -0.3990  0.5083 -0.0849
  501TMC3    C3 7444   1.956   2.769  10.172 -0.3338 -0.5737 -0.2934
  501TMC3    C4 7445   2.042   2.556  10.306  0.3225  0.3600 -0.1023
  501TMC3    C5 7446   2.131   2.644  10.242  0.3157 -0.4864 -0.2745
  501TMC3    C6 7447   2.089   2.745  10.162 -1.4497  0.0942 -0.0856
  501TMC3     C 7448   1.823   2.546  10.424 -0.5463  0.3844  0.1994
  501TMC3     O 7449   1.876   2.503  10.527  0.0090  0.7831  0.1992
  501TMC3     H 7450   1.760   2.724  10.241 -0.7058 -0.6969 -2.3530
  501TMC3    H1 7451   2.074   2.470  10.364 -1.7648  0.7755  1.6766
  501TMC3    H2 7452   2.165   2.802  10.110 -2.1216 -1.1570 -2.4149
  501TMC3    C7 7453   2.256   2.655  10.320 -0.0162 -0.0370 -0.2791
  501TMC3    C8 7454   1.944   2.907  10.201 -0.1594  0.7004  0.0024
  501TMC3    O1 7455   2.286   2.558  10.386 -0.2417 -0.0364 -0.2159
  501TMC3    O2 7456   1.887   2.928  10.308 -0.0366  0.2159  0.4129
  502TMC3    C1 7457   1.112   0.970  15.072 -0.1289 -0.0933  0.7381
  502TMC3    C2 7458   1.083   1.057  14.979  0.0625  0.9163 -0.0053
  502TMC3    C3 7459   0.959   1.111  14.981 -0.4326 -0.2687 -0.8020
  502TMC3    C4 7460   1.010   0.924  15.154  0.2911 -0.0990 -0.3261
  502TMC3    C5 7461   0.879   0.959  15.136 -0.0765 -0.7935  0.6023
  502TMC3    C6 7462   0.853   1.060  15.055 -0.9375 -0.4151 -0.2108
  502TMC3     C 7463   1.244   1.015  15.132 -0.1478 -0.2787 -0.2814
  502TMC3     O 7464   1.344   1.025  15.056  0.0861  0.2548  0.2391
  502TMC3     H 7465   1.145   1.075  14.893 -1.4119 -1.3004 -1.5125
  502TMC3    H1 7466   1.030   0.846  15.227 -0.5628  0.5642  0.5954
  502TMC3    H2 7467   0.759   1.108  15.031 -1.2029 -0.0056  1.6960
  502TMC3    C7 7468   0.800   0.961  15.256 -0.3012 -0.9782  0.4215
  502TMC3    C8 7469   0.970   1.258  14.984 -0.1667  0.7439  0.1427
  502TMC3    O1 7470   0.854   0.902  15.347  0.6969 -0.0445 -0.0168
  502TMC3    O2 7471   1.071   1.292  14.919 -0.1341 -0.2571  0.6920
  503MPD2     C 7472   3.136   1.646  16.993 -0.2153  0.7616 -0.4183
  503MPD2    C1 7473   3.160   1.671  17.126  0.8244 -0.1772 -0.3012
  503MPD2    C2 7474   3.211   1.571  17.204  0.5188 -0.0396  0.7099
  503MPD2    C3 7475   3.233   1.443  17.150 -0.2383  0.5871 -0.4750
  503MPD2    C4 7476   3.199   1.422  17.015 -0.5488 -0.0346  1.0906
  503MPD2    C5 7477   3.153   1.521  16.935  0.2986  0.7937  0.9104
  503MPD2     H 7478   3.239   1.600  17.305  0.9943  1.0931  0.2574
  503MPD2    H1 7479   3.221   1.331  16.961  0.6103  0.8698  0.0360
  503MPD2    H2 7480   3.107   1.726  16.925  0.1137 -1.3337 -3.0126
  503MPD2    H3 7481   3.120   1.496  16.834  1.3972 -2.6655  1.4023
  503MPD2     N 7482   3.295   1.344  17.238 -0.1081  0.5372  0.6168
  503MPD2    H5 7483   3.335   1.374  17.326  0.3721 -2.1918  1.3206
  503MPD2    N1 7484   3.151   1.804  17.184  0.2225  0.1724  0.2267
  503MPD2    H7 7485   3.172   1.808  17.284 -2.7309  1.3712  0.8117
  504TMC3    C1 7486   3.389   1.149  17.318 -0.6718  0.6213 -0.0827
  504TMC3    C2 7487   3.368   1.176  17.447  0.4074 -0.2486  0.5576
  504TMC3    C3 7488   3.435   1.110  17.541 -0.2783  0.1435 -0.1101
  504TMC3    C4 7489   3.484   1.061  17.277 -0.5008 -0.2990  0.3153
  504TMC3    C5 7490   3.562   0.995  17.371 -0.4814 -0.3851 -0.0550
  504TMC3    C6 7491   3.535   1.018  17.501 -0.6721  0.0090 -0.7165
  504TMC3     C 7492   3.315   1.213  17.207 -0.2561 -0.4813  0.6647
  504TMC3     O 7493   3.289   1.144  17.111 -0.5744  0.2762  0.1721
  504TMC3     H 7494   3.284   1.241  17.468 -0.3142 -1.6062  1.8854
  504TMC3    H1 7495   3.488   1.025  17.175  0.0531  1.6145 -0.3318
  504TMC3    H2 7496   3.589   0.965  17.579  0.2326  0.3957 -1.0842
  504TMC3    C7 7497   3.621   0.874  17.315 -0.5938 -0.2192 -0.4213
  504TMC3    C8 7498   3.449   1.197  17.650  0.2814  0.3842  0.2111
  504TMC3    O1 7499   3.590   0.770  17.365 -0.3783  0.1532 -0.3708
  504TMC3    O2 7500   3.459   1.317  17.628 -0.6583 -0.1194  0.7160
  505MPD2     C 7501   3.831   0.087  10.762  0.0154 -1.0280  0.1413
  505MPD2    C1 7502   3.955   0.070  10.710  0.1692  0.4510 -0.8471
  505MPD2    C2 7503   4.064   0.141  10.761 -0.2195 -0.4229 -0.3331
  505MPD2    C3 7504   4.055   0.216  10.875  0.1708 -0.1610  0.2903
  505MPD2    C4 7505   3.929   0.230  10.929  0.1294 -0.3225  0.1426
  505MPD2    C5 7506   3.820   0.170  10.871  0.1531 -0.0605 -0.0968
  505MPD2     H 7507   4.162   0.141  10.715  0.2616  0.7278  0.6813
  505MPD2    H1 7508   3.906   0.292  11.015 -0.9371  0.0033 -0.3665
  505MPD2    H2 7509   3.739   0.043  10.723 -0.2784  0.4939 -0.8919
  505MPD2    H3 7510   3.729   0.162  10.929  0.3852 -0.3383  0.2350
  505MPD2     N 7511   4.175   0.279  10.920  0.5665 -0.6754  0.4621
  505MPD2    H5 7512   4.256   0.255  10.864 -0.8686 -2.7655 -0.7567
  505MPD2    N1 7513   3.962   4.707  10.597 -0.4819 -0.0050  0.3850
  505MPD2    H7 7514   3.881   4.694  10.538  0.2614 -0.7772 -0.4508
  506TMC3    C1 7515   4.074   4.623  10.405 -0.3253  0.3991  0.2893
  506TMC3    C2 7516   3.978   4.679  10.321  0.0486 -0.3343  1.1385
  506TMC3    C3 7517   3.999   4.680  10.181  0.0706 -0.0751  0.8614
  506TMC3    C4 7518   4.193   4.570  10.350  0.7522 -0.3395 -0.3703
  506TMC3    C5 7519   4.206   4.593  10.212 -0.2619 -0.0186 -0.0546
  506TMC3    C6 7520   4.114   4.635  10.127 -0.5136  0.3615  0.2478
  506TMC3     C 7521   4.077   4.658  10.545  0.5123  0.5392  0.3567
  506TMC3     O 7522   4.191   4.679  10.586 -0.3385  0.1667 -0.0953
  506TMC3     H 7523   3.894   0.016  10.352 -1.2717 -2.0379  0.9441
  506TMC3    H1 7524   4.264   4.516  10.412 -0.0290 -0.8689  0.0556
  506TMC3    H2 7525   4.142   4.661  10.025 -0.1883 -1.4205 -0.1115
  506TMC3    C7 7526   4.334   4.659  10.182 -0.0599 -0.2588  0.6609
  506TMC3    C8 7527   3.923   0.039  10.093 -0.4427 -0.1121 -0.2593
  506TMC3    O1 7528   4.373   4.684  10.067  0.2254 -0.8412 -0.3824
  506TMC3    O2 7529   3.903   4.713   9.983 -0.3300  0.4904  0.5076
  507TMC3    C1 7530   4.632   1.591  14.675 -0.1123 -0.8950 -0.3555
  507TMC3    C2 7531   4.657   1.474  14.609  0.0729  0.0769 -0.2399
  507TMC3    C3 7532   4.672   1.471  14.471  0.0968  0.1117  0.2631
  507TMC3    C4 7533   4.642   1.708  14.609 -0.1444  0.0646  0.1313
  507TMC3    C5 7534   4.663   1.707  14.478  0.6281  0.5559  0.3169
  507TMC3    C6 7535   4.686   1.593  14.405  0.0994 -0.2789 -0.3026
  507TMC3     C 7536   4.516   1.575  14.759 -0.2917  0.1409 -0.0294
  507TMC3     O 7537   4.502   1.669  14.838 -0.7862  0.4846 -0.3138
  507TMC3     H 7538   4.659   1.383  14.668 -1.8340 -0.2612 -0.6999
  507TMC3    H1 7539   4.637   1.804  14.658 -0.9426  0.4725 -0.7400
  507TMC3    H2 7540   4.716   1.599  14.301  1.2084  1.2510  0.1071
  507TMC3    C7 7541   4.577   1.798  14.405 -0.7089 -0.4439 -0.1860
  507TMC3    C8 7542   4.550   1.403  14.419  0.4034 -0.3209  0.1221
  507TMC3    O1 7543   4.535   1.762  14.294  0.0600  0.0358  0.0839
  507TMC3    O2 7544   4.516   1.309  14.488 -0.5847 -0.7251 -0.4491
  508MPD2     C 7545   0.309   3.732  16.131  0.0872 -0.1813  0.6952
  508MPD2    C1 7546   0.396   3.836  16.137 -0.1314 -0.4324  0.1917
  508MPD2    C2 7547   0.393   3.932  16.033 -0.5849  0.9297  0.2361
  508MPD2    C3 7548   0.316   3.916  15.921  0.4561 -0.0936 -0.3887
  508MPD2    C4 7549   0.222   3.814  15.918  0.5571 -0.1001 -0.0953
  508MPD2    C5 7550   0.212   3.726  16.031 -0.2775  0.7976 -0.1371
  508MPD2     H 7551   0.473   4.004  16.025 -1.0864  1.3368 -1.0106
  508MPD2    H1 7552   0.150   3.797  15.839  0.9830 -1.2449 -0.2418
  508MPD2    H2 7553   0.302   3.655  16.207 -1.8826 -1.4119 -0.7243
  508MPD2    H3 7554   0.147   3.640  16.029  1.5254 -0.5970  0.6481
  508MPD2     N 7555   0.332   4.007  15.815  0.1298 -0.4843 -0.4489
  508MPD2    H5 7556   0.402   4.080  15.823  0.8355 -1.4748  2.5179
  508MPD2    N1 7557   0.480   3.858  16.249 -0.2777 -0.0499  0.1520
  508MPD2    H7 7558   0.487   3.791  16.325  0.6604 -0.2060 -0.0774
  509TMC3    C1 7559   0.246   4.383  15.677  0.1964 -0.2742 -0.5582
  509TMC3    C2 7560   0.376   4.404  15.641  0.1176 -0.4743  0.1478
  509TMC3    C3 7561   0.450   4.288  15.597 -0.4107 -0.3725 -0.8211
  509TMC3    C4 7562   0.192   4.258  15.657  0.1101 -0.8188  0.1776
  509TMC3    C5 7563   0.275   4.147  15.638 -0.2347 -0.0340  0.1225
  509TMC3    C6 7564   0.401   4.159  15.600  0.2117  0.6348  0.0204
  509TMC3     C 7565   0.152   4.493  15.690  0.2416 -0.6391  0.1883
  509TMC3     O 7566   0.049   4.477  15.750  0.5561  0.0570 -0.6036
  509TMC3     H 7567   0.432   4.496  15.654  0.6471 -0.6313 -0.9997
  509TMC3    H1 7568   0.089   4.255  15.691 -0.1398  1.9298 -0.2677
  509TMC3    H2 7569   0.472   4.078  15.587  1.3911  1.4774  1.0916
  509TMC3    C7 7570   0.242   4.032  15.720 -0.4418 -0.2976  0.0914
  509TMC3    C8 7571   0.595   4.287  15.596 -0.2314  0.0028  0.1838
  509TMC3    O1 7572   0.145   3.964  15.689 -0.2873 -0.1074  0.2721
  509TMC3    O2 7573   0.660   4.201  15.658 -0.3527 -0.6254 -0.1280
  510MPD2     C 7574   3.531   0.579  14.081  0.1347 -0.2029  0.3688
  510MPD2    C1 7575   3.563   0.604  14.213  0.7849 -0.0051  0.7288
  510MPD2    C2 7576   3.696   0.622  14.242 -0.1471 -0.2942 -0.3510
  510MPD2    C3 7577   3.793   0.629  14.142  0.2609  0.3782 -0.1801
  510MPD2    C4 7578   3.754   0.595  14.007 -0.0253 -0.5231  0.1976
  510MPD2    C5 7579   3.623   0.568  13.984  0.0790 -0.8529  0.1323
  510MPD2     H 7580   3.721   0.661  14.340 -0.2393 -2.9520  0.7243
  510MPD2    H1 7581   3.825   0.584  13.927 -0.1827 -0.2747  0.0255
  510MPD2    H2 7582   3.427   0.558  14.058  0.2260  0.0970 -0.3116
  510MPD2    H3 7583   3.596   0.526  13.888  2.1970 -0.5920 -0.5722
  510MPD2     N 7584   3.936   0.652  14.172 -0.1114  0.1014  0.7663
  510MPD2    H5 7585   3.971   0.634  14.266 -1.2118  0.0679  1.1694
  510MPD2    N1 7586   3.457   0.603  14.316  0.0384 -0.7166  0.4261
  510MPD2    H7 7587   3.361   0.603  14.284  0.1638  0.0861  0.0425
  511TMC3    C1 7588   3.353   0.594  14.526 -0.2767  0.7654  0.8068
  511TMC3    C2 7589   3.343   0.627  14.662  0.1134 -0.6092 -0.7546
  511TMC3    C3 7590   3.228   0.612  14.724 -0.6305 -0.0318  0.7068
  511TMC3    C4 7591   3.244   0.529  14.465 -0.9031 -0.0067  0.8178
  511TMC3    C5 7592   3.134   0.501  14.535 -0.5689  0.0965  0.4024
  511TMC3    C6 7593   3.119   0.553  14.667  0.6129  0.3695 -0.9773
  511TMC3     C 7594   3.479   0.616  14.452 -0.1673  0.1495 -0.1201
  511TMC3     O 7595   3.575   0.631  14.525  0.5455  0.3423 -0.8234
  511TMC3     H 7596   3.429   0.657  14.721  0.7580 -1.5192 -1.2339
  511TMC3    H1 7597   3.259   0.481  14.368 -1.2404  0.7403  0.3956
  511TMC3    H2 7598   3.022   0.547  14.716  2.0532 -1.0039  1.7255
  511TMC3    C7 7599   3.029   0.421  14.471 -0.2371 -0.2985  0.4075
  511TMC3    C8 7600   3.219   0.664  14.854  0.0998  0.0928  0.6161
  511TMC3    O1 7601   3.044   0.399  14.352 -1.0395  0.1910 -0.6397
  511TMC3    O2 7602   3.311   0.643  14.933  0.0671  0.0920  0.2835
  512TMC3    C1 7603   2.035   0.163  13.313  0.0853 -0.7436 -0.0570
  512TMC3    C2 7604   2.106   0.135  13.425  0.6132 -0.1644  0.0650
  512TMC3    C3 7605   2.098   0.011  13.483  0.2334  0.1127  0.2740
  512TMC3    C4 7606   1.942   0.073  13.267  0.0510  0.2944  0.1402
  512TMC3    C5 7607   1.924   4.680  13.334 -0.5489  0.3741 -0.0338
  512TMC3    C6 7608   1.999   4.643  13.447 -0.0009  0.2757  0.3900
  512TMC3     C 7609   2.046   0.291  13.241  0.7234  0.4272  0.0434
  512TMC3     O 7610   1.942   0.338  13.199 -0.4590  0.3112 -0.0828
  512TMC3     H 7611   2.147   0.220  13.478 -0.0424 -0.3164  0.8111
  512TMC3    H1 7612   1.875   0.116  13.194  1.1703  0.1074 -0.9886
  512TMC3    H2 7613   1.970   4.558  13.507 -1.1577  0.1651 -0.3092
  512TMC3    C7 7614   1.804   4.599  13.295  0.5461 -0.2219  0.2665
  512TMC3    C8 7615   2.179   4.711  13.605  0.5364  0.3136 -0.4150
  512TMC3    O1 7616   1.725   4.664  13.229  0.4512 -0.1946  0.2166
  512TMC3    O2 7617   2.181   4.592  13.641 -0.0172  0.3337  0.1688
  513MPD2     C 7618   3.378   4.718  12.648 -0.3236  0.1208 -0.0422
  513MPD2    C1 7619   3.506   4.670  12.636 -0.4609 -0.6686  0.0985
  513MPD2    C2 7620   3.605   0.019  12.699 -0.1468  0.3369 -0.2109
  513MPD2    C3 7621   3.582   0.126  12.780  0.5268  0.2915 -0.1473
  513MPD2    C4 7622   3.462   0.179  12.779 -0.5022  0.8711  0.8590
  513MPD2    C5 7623   3.359   0.111  12.718  0.3237  0.1906 -0.0028
  513MPD2     H 7624   3.708   4.709  12.691 -0.5570 -0.5482 -1.7747
  513MPD2    H1 7625   3.431   0.263  12.839  0.3945 -0.4973  3.2467
  513MPD2    H2 7626   3.297   4.664  12.600 -0.1031 -0.0844 -0.1859
  513MPD2    H3 7627   3.261   0.155  12.735  0.2546 -0.1698  0.5586
  513MPD2     N 7628   3.693   0.185  12.848 -0.1906 -0.7089 -1.0584
  513MPD2    H5 7629   3.780   0.133  12.840  0.8749  1.0251 -0.7310
  513MPD2    N1 7630   3.532   4.555  12.558  0.0141 -0.5691 -0.2440
  513MPD2    H7 7631   3.459   4.518  12.498  0.0696 -0.2980 -0.4808
  514TMC3    C1 7632   3.645   4.354  12.500  0.0662 -0.5105 -0.3640
  514TMC3    C2 7633   3.657   4.374  12.364  0.6741  0.3201  0.0565
  514TMC3    C3 7634   3.761   4.315  12.297  0.3844  0.0690 -0.2536
  514TMC3    C4 7635   3.737   4.275  12.572  0.0860  0.4162  0.4321
  514TMC3    C5 7636   3.851   4.230  12.502 -0.9843  0.8424 -0.2338
  514TMC3    C6 7637   3.862   4.248  12.364 -0.2545 -0.0767 -0.2203
  514TMC3     C 7638   3.639   4.467  12.583  0.3952  0.4120 -0.6394
  514TMC3     O 7639   3.725   4.479  12.672  0.4494 -0.3904 -0.1638
  514TMC3     H 7640   3.589   4.448  12.323  1.1979  1.1879  0.7409
  514TMC3    H1 7641   3.735   4.269  12.681 -0.4157 -0.2241  0.3855
  514TMC3    H2 7642   3.950   4.206  12.317 -0.3197  0.6802 -0.9999
  514TMC3    C7 7643   3.977   4.248  12.568  0.5152  0.7083 -0.1240
  514TMC3    C8 7644   3.742   4.291  12.154  0.2458 -0.3425 -0.4345
  514TMC3    O1 7645   4.076   4.189  12.528  0.5432 -0.3640 -0.1031
  514TMC3    O2 7646   3.626   4.286  12.111  0.2287  0.4954  0.4546
  515MPD2     C 7647   2.092   2.421  15.210 -0.3120  0.2640 -0.1728
  515MPD2    C1 7648   2.127   2.335  15.113  0.7068  0.1035  0.7756
  515MPD2    C2 7649   2.207   2.384  15.012 -0.3427 -0.7544  0.1842
  515MPD2    C3 7650   2.260   2.508  15.015  0.2023 -0.2566 -0.4399
  515MPD2    C4 7651   2.236   2.591  15.123 -0.8894 -0.0778  0.0407
  515MPD2    C5 7652   2.151   2.541  15.219 -0.3405 -0.2596 -0.0432
  515MPD2     H 7653   2.212   2.330  14.918  3.5444 -1.5134  0.8229
  515MPD2    H1 7654   2.271   2.693  15.127 -0.5741 -0.0686 -2.8557
  515MPD2    H2 7655   2.037   2.394  15.299 -0.4013  0.0101 -0.3035
  515MPD2    H3 7656   2.122   2.612  15.294  2.2626  1.5062 -0.6781
  515MPD2     N 7657   2.358   2.556  14.928  0.4849 -0.1149  0.5127
  515MPD2    H5 7658   2.405   2.641  14.960 -0.6507  0.8387 -0.3307
  515MPD2    N1 7659   2.060   2.215  15.093 -0.4178  0.1803  0.2125
  515MPD2    H7 7660   2.068   2.170  15.003 -0.9153  0.6030 -0.0430
  516TMC3    C1 7661   1.936   2.022  15.147  0.4333  0.2509  0.1468
  516TMC3    C2 7662   1.908   2.000  15.011  0.4219 -0.0604 -0.0489
  516TMC3    C3 7663   1.875   1.876  14.972 -0.4573 -0.0017 -0.0014
  516TMC3    C4 7664   1.925   1.924  15.242 -0.2996 -0.9061  0.1083
  516TMC3    C5 7665   1.885   1.799  15.197 -0.4702  0.4111  0.0969
  516TMC3    C6 7666   1.862   1.773  15.062 -0.2189 -0.3400 -0.1193
  516TMC3     C 7667   1.994   2.150  15.192  0.6665  0.2099 -0.4606
  516TMC3     O 7668   1.979   2.175  15.313  0.0780  0.0150  0.4789
  516TMC3     H 7669   1.907   2.076  14.934  0.7626  0.0286  0.0350
  516TMC3    H1 7670   1.947   1.946  15.346 -1.5598  0.3742  0.1118
  516TMC3    H2 7671   1.830   1.675  15.027  0.5903 -1.1466  1.4185
  516TMC3    C7 7672   1.908   1.683  15.274 -0.0598  0.7078 -0.2215
  516TMC3    C8 7673   1.888   1.842  14.831  0.2969  0.2109 -0.3783
  516TMC3    O1 7674   1.884   1.581  15.219  0.2163 -0.0249 -0.3253
  516TMC3    O2 7675   1.846   1.926  14.753 -0.1624  0.2282  0.0204
  517MPD2     C 7676   1.568   2.663  17.647 -0.4883  0.0519 -0.2064
  517MPD2    C1 7677   1.630   2.736  17.546 -0.3655  0.2822  0.1199
  517MPD2    C2 7678   1.619   2.878  17.550 -0.3646 -1.2423  0.3596
  517MPD2    C3 7679   1.568   2.938  17.667  0.3200 -0.3559 -0.1790
  517MPD2    C4 7680   1.521   2.855   0.075  0.6598  0.1584 -0.3393
  517MPD2    C5 7681   1.526   2.720   0.063  0.2263 -0.1981 -0.3687
  517MPD2     H 7682   1.655   2.940  17.468 -1.7206 -2.6127 -1.2755
  517MPD2    H1 7683   1.498   2.902   0.170 -4.1289 -1.3725 -0.7561
  517MPD2    H2 7684   1.568   2.555  17.643  0.1448  0.0316  0.2589
  517MPD2    H3 7685   1.492   2.663   0.149  2.0713  1.3828  1.4122
  517MPD2     N 7686   1.542   3.075  17.689  0.8899 -0.1036  0.0587
  517MPD2    H5 7687   1.496   3.101   0.079  2.2419 -0.4836  0.8803
  517MPD2    N1 7688   1.668   2.688  17.426  0.6987 -0.4984  0.5726
  517MPD2    H7 7689   1.712   2.760  17.369  0.5340 -0.0810  0.9752
  518TMC3    C1 7690   1.711   2.531  17.254 -0.5004 -0.3628  0.3263
  518TMC3    C2 7691   1.677   2.413  17.201  0.4547 -0.7538 -0.5781
  518TMC3    C3 7692   1.750   2.366  17.094 -0.8640  1.0032  0.1532
  518TMC3    C4 7693   1.819   2.602  17.204 -0.4366 -0.4660 -0.1896
  518TMC3    C5 7694   1.894   2.552  17.105 -0.6652  0.4046  0.2125
  518TMC3    C6 7695   1.864   2.435  17.049 -0.6110 -0.9326 -0.1679
  518TMC3     C 7696   1.640   2.560  17.378  0.3334  0.3076  0.3641
  518TMC3     O 7697   1.569   2.477  17.428 -0.4628 -0.2489  0.2193
  518TMC3     H 7698   1.593   2.355  17.236  0.7710 -0.6277  0.3906
  518TMC3    H1 7699   1.858   2.690  17.253  1.0741 -1.6330  0.6867
  518TMC3    H2 7700   1.920   2.408  16.961  0.9263 -1.1551  0.8808
  518TMC3    C7 7701   2.040   2.577  17.103 -0.1861 -0.1927 -0.0112
  518TMC3    C8 7702   1.719   2.238  17.048  0.2438 -0.3075 -0.1372
  518TMC3    O1 7703   2.087   2.690  17.115 -0.1987 -0.7018  0.2671
  518TMC3    O2 7704   1.677   2.166  17.139  1.0381 -0.7217 -0.5738
  519MPD2     C 7705   3.215   1.805  14.118 -0.6112  0.1966  0.0310
  519MPD2    C1 7706   3.225   1.778  13.990 -0.3650  0.6323  0.0188
  519MPD2    C2 7707   3.302   1.670  13.952 -0.1583 -0.5813  0.2354
  519MPD2    C3 7708   3.381   1.598  14.045  0.7063  0.0147 -0.0385
  519MPD2    C4 7709   3.394   1.648  14.173 -0.0638  0.1338 -0.1760
  519MPD2    C5 7710   3.306   1.749  14.208 -0.1195 -0.2336 -0.4388
  519MPD2     H 7711   3.317   1.651  13.846 -2.1169 -0.2910 -0.1115
  519MPD2    H1 7712   3.467   1.613  14.245 -1.3264 -2.6951 -0.2932
  519MPD2    H2 7713   3.152   1.886  14.155  0.1287  0.5407  0.5496
  519MPD2    H3 7714   3.313   1.786  14.310  2.9007 -1.5343 -0.1847
  519MPD2     N 7715   3.460   1.486  14.006 -0.5734 -0.6482 -0.4851
  519MPD2    H5 7716   3.527   1.449  14.073  0.1396  0.8375 -0.3924
  519MPD2    N1 7717   3.146   1.847  13.891  0.4501 -0.2524  0.7655
  519MPD2    H7 7718   3.083   1.919  13.924 -0.2438 -1.3956  1.9690
  520TMC3    C1 7719   3.514   1.296  13.873 -0.4661  0.7881  0.3026
  520TMC3    C2 7720   3.457   1.211  13.775 -0.0994 -0.2115 -0.3245
  520TMC3    C3 7721   3.535   1.152  13.682 -0.5883  0.0863 -0.3041
  520TMC3    C4 7722   3.653   1.305  13.879  0.0513 -0.0745  0.5737
  520TMC3    C5 7723   3.733   1.233  13.789 -0.2075  0.1718  0.7475
  520TMC3    C6 7724   3.673   1.154  13.690 -0.0916 -0.7074 -0.2027
  520TMC3     C 7725   3.440   1.417  13.895 -0.1971  0.3793  0.6185
  520TMC3     O 7726   3.341   1.425  13.821 -0.2428  0.1992 -0.0573
  520TMC3     H 7727   3.349   1.208  13.763  0.0331  0.6642 -1.8064
  520TMC3    H1 7728   3.697   1.356  13.964  1.6403 -0.6858  0.1120
  520TMC3    H2 7729   3.730   1.103  13.613 -2.5058 -0.0689 -2.3740
  520TMC3    C7 7730   3.876   1.211  13.821 -0.0550  0.9043 -0.0616
  520TMC3    C8 7731   3.483   1.167  13.545  0.1326 -0.0713 -0.2847
  520TMC3    O1 7732   3.919   1.255  13.925 -0.0924 -0.2762  0.4832
  520TMC3    O2 7733   3.574   1.177  13.463 -0.1350  0.1893  0.3563
  521MPD2     C 7734   4.154   0.263  17.281 -0.0440 -0.1083  0.7319
  521MPD2    C1 7735   4.125   0.187  17.177 -0.8215 -0.3694  0.4845
  521MPD2    C2 7736   4.205   0.190  17.058  0.3251 -0.4216 -0.1767
  521MPD2    C3 7737   4.317   0.265  17.062  0.1627  0.2827 -0.3492
  521MPD2    C4 7738   4.338   0.355  17.166  0.1365  0.0440 -0.1305
  521MPD2    C5 7739   4.259   0.344  17.278 -0.3716 -0.1443 -0.0275
  521MPD2     H 7740   4.182   0.129  16.972  0.5857 -1.4482  0.4826
  521MPD2    H1 7741   4.419   0.426  17.181 -1.7659  2.0941  0.4710
  521MPD2    H2 7742   4.090   0.253  17.368 -0.0373 -0.6111  0.6828
  521MPD2    H3 7743   4.268   0.410  17.364 -1.4719  1.1408 -0.9010
  521MPD2     N 7744   4.406   0.250  16.958  0.5409 -0.1443 -0.3031
  521MPD2    H5 7745   4.387   0.177  16.890  1.4292 -1.1205  0.4839
  521MPD2    N1 7746   4.005   0.113  17.181  0.1455  0.1063 -0.2631
  521MPD2    H7 7747   3.959   0.106  17.271 -1.9483 -2.5747 -1.5659
  522TMC3    C1 7748   4.621   0.232  16.869  0.6615  0.2228  0.0248
  522TMC3    C2 7749   0.015   0.185  16.913  0.2931 -1.0436  0.2562
  522TMC3    C3 7750   0.088   0.106  16.828  0.4076  0.1246 -0.0580
  522TMC3    C4 7751   4.575   0.212  16.743 -0.6475  0.5885 -1.1177
  522TMC3    C5 7752   4.656   0.144  16.659 -0.4354  0.3123 -0.8317
  522TMC3    C6 7753   0.057   0.090  16.697 -0.3711 -0.4637  0.0045
  522TMC3     C 7754   4.536   0.294  16.968 -0.2005 -0.8893 -0.0814
  522TMC3     O 7755   4.598   0.368  17.040  0.4203  0.0720  0.3100
  522TMC3     H 7756   0.050   0.215  17.010 -0.4224 -1.0626  0.5230
  522TMC3    H1 7757   4.478   0.258  16.728  0.4293  2.3669 -2.7158
  522TMC3    H2 7758   0.111   0.021  16.632 -1.4472 -1.7467  0.4890
  522TMC3    C7 7759   4.609   0.093  16.533 -0.2178 -1.4467 -0.1968
  522TMC3    C8 7760   0.186   0.027  16.896 -0.2454 -0.6897 -0.3562
  522TMC3    O1 7761   4.691   0.037  16.458 -0.0536 -0.0826 -0.4226
  522TMC3    O2 7762   0.176   0.030  17.020 -0.4619  0.1223 -0.0083
  523MPD2     C 7763   2.639   4.064  10.544  0.9479 -0.2143 -0.1056
  523MPD2    C1 7764   2.542   4.023  10.454 -0.2316 -0.2596  0.3007
  523MPD2    C2 7765   2.476   4.115  10.375  0.5471  0.7769 -0.0078
  523MPD2    C3 7766   2.504   4.255  10.389 -0.3896  0.0295  0.3874
  523MPD2    C4 7767   2.596   4.295  10.483  0.2599  0.0034  0.4640
  523MPD2    C5 7768   2.658   4.196  10.557  0.4105 -0.1180 -0.8629
  523MPD2     H 7769   2.394   4.085  10.311  1.3325 -1.8971  0.2397
  523MPD2    H1 7770   2.624   4.398  10.499  0.4728  0.1663 -0.9331
  523MPD2    H2 7771   2.703   4.002  10.605  0.3550 -0.1752  0.5616
  523MPD2    H3 7772   2.731   4.221  10.633 -1.9102 -0.4175  1.4441
  523MPD2     N 7773   2.445   4.349  10.314  0.0594 -0.3056 -0.1307
  523MPD2    H5 7774   2.467   4.444  10.341 -1.2437  0.3457 -1.3367
  523MPD2    N1 7775   2.510   3.884  10.442 -0.9152  0.2444  0.6838
  523MPD2    H7 7776   2.582   3.820  10.472  0.1236  0.8687 -0.4620
  524TMC3    C1 7777   2.289   4.455  10.187  0.7022 -0.5437 -0.4346
  524TMC3    C2 7778   2.381   4.561  10.190  0.4806 -0.1972 -0.2512
  524TMC3    C3 7779   2.334   4.686  10.171 -0.5733  0.5654  0.0321
  524TMC3    C4 7780   2.153   4.482  10.197 -0.1246 -0.5045 -0.1431
  524TMC3    C5 7781   2.113   4.610  10.189 -0.3506  0.3017 -0.3603
  524TMC3    C6 7782   2.199   4.714  10.167  0.0957  0.3249 -1.1681
  524TMC3     C 7783   2.327   4.330  10.236  0.1225 -0.6320 -0.2709
  524TMC3     O 7784   2.248   4.233  10.225  0.0014 -0.0382  0.0468
  524TMC3     H 7785   2.486   4.551  10.164  1.4209 -0.9745  3.9522
  524TMC3    H1 7786   2.077   4.408  10.219  0.0585 -0.3097  1.1390
  524TMC3    H2 7787   2.158   0.090  10.182  2.1354  0.7991  1.3303
  524TMC3    C7 7788   1.971   4.644  10.207  0.5711 -0.5645  1.1923
  524TMC3    C8 7789   2.435   0.066  10.163 -0.3483 -0.0613 -0.7243
  524TMC3    O1 7790   1.904   4.583  10.286  0.9825  0.0794  0.3528
  524TMC3    O2 7791   2.548   0.035  10.212 -0.1391  0.1513 -0.0989
  525MPD2     C 7792   0.049   1.169  14.338  0.5495  0.1795  0.0587
  525MPD2    C1 7793   0.168   1.184  14.396  0.1051 -0.2870 -0.2941
  525MPD2    C2 7794   0.264   1.266  14.337  0.2453  0.0102  0.1271
  525MPD2    C3 7795   0.241   1.342  14.226  0.0023  0.7214  0.2104
  525MPD2    C4 7796   0.122   1.322  14.160  0.4200 -0.3429  0.6093
  525MPD2    C5 7797   0.024   1.236  14.216  0.0850  0.3761  0.2480
  525MPD2     H 7798   0.363   1.265  14.382 -0.5250  0.1902  1.8143
  525MPD2    H1 7799   0.102   1.378  14.070 -1.9066  0.7534  1.7927
  525MPD2    H2 7800   4.689   1.109  14.373 -0.3636  0.6013 -1.4154
  525MPD2    H3 7801   4.649   1.229  14.170  1.8057  1.6181 -3.5992
  525MPD2     N 7802   0.322   1.456  14.196 -0.0541  0.3043  0.0541
  525MPD2    H5 7803   0.276   1.524  14.137 -0.6531  0.3286  0.5543
  525MPD2    N1 7804   0.198   1.115  14.512 -0.0058 -0.1468 -0.0253
  525MPD2    H7 7805   0.285   1.138  14.559  0.0985  0.7593 -0.6710
  526TMC3    C1 7806   0.165   0.981  14.706  0.3147 -0.6460  0.0696
  526TMC3    C2 7807   0.085   0.981  14.819  0.4690 -0.2459 -0.5060
  526TMC3    C3 7808   0.147   0.998  14.942  0.6311  0.3103  0.2129
  526TMC3    C4 7809   0.304   0.976  14.712 -0.2810 -0.5896 -0.8464
  526TMC3    C5 7810   0.356   0.975  14.835  0.3262  0.2277  0.1282
  526TMC3    C6 7811   0.287   0.995  14.953 -0.1967 -0.0731  0.2144
  526TMC3     C 7812   0.109   1.035  14.587 -0.4494  0.1513 -0.4269
  526TMC3     O 7813   4.709   1.022  14.574  0.0234  0.2283  0.1680
  526TMC3     H 7814   4.702   0.984  14.802  0.8121 -0.8163 -2.8079
  526TMC3    H1 7815   0.364   0.962  14.622  2.3625 -1.2506  1.0438
  526TMC3    H2 7816   0.341   1.007  15.047 -1.3578  0.3274  0.8275
  526TMC3    C7 7817   0.491   0.930  14.871 -0.2594 -0.3782 -0.1215
  526TMC3    C8 7818   0.077   0.983  15.066  0.0593  0.5345  0.3655
  526TMC3    O1 7819   0.530   0.927  14.987 -0.1836 -0.7429 -0.2987
  526TMC3    O2 7820   0.134   1.017  15.169 -0.4958  0.2719  0.5883
  527MPD2     C 7821   2.273   3.699   0.900 -0.0889  0.0948  0.9316
  527MPD2    C1 7822   2.269   3.562   0.896 -0.3378  0.6213  0.7564
  527MPD2    C2 7823   2.384   3.496   0.862 -0.5387 -0.6977 -0.3103
  527MPD2    C3 7824   2.498   3.574   0.831  0.3582  0.2365 -1.2573
  527MPD2    C4 7825   2.500   3.715   0.848 -0.2539 -0.4504  0.3480
  527MPD2    C5 7826   2.389   3.775   0.888 -0.4754  0.3559  0.0564
  527MPD2     H 7827   2.380   3.389   0.846 -0.6081 -0.6045 -0.9263
  527MPD2    H1 7828   2.585   3.772   0.814 -0.2846  1.0773  2.8109
  527MPD2    H2 7829   2.190   3.755   0.943 -1.8159 -1.5935 -0.2001
  527MPD2    H3 7830   2.389   3.884   0.887 -0.7871  0.3628  1.5510
  527MPD2     N 7831   2.616   3.504   0.805  0.2877 -0.0307 -0.7388
  527MPD2    H5 7832   2.597   3.405   0.791  0.2610 -0.3688  1.7033
  527MPD2    N1 7833   2.157   3.485   0.933  0.0373 -0.3667  0.3778
  527MPD2    H7 7834   2.156   3.387   0.959  2.7676 -0.8291 -1.2943
  528TMC3    C1 7835   1.914   3.473   0.984  0.1302 -0.3131 -0.6314
  528TMC3    C2 7836   1.927   3.396   1.095 -0.4828 -0.1008  0.3439
  528TMC3    C3 7837   1.819   3.378   1.178 -0.5589  0.2026  0.0356
  528TMC3    C4 7838   1.793   3.538   0.966  0.0393 -0.0644 -0.2948
  528TMC3    C5 7839   1.690   3.525   1.054  0.7004 -0.4487  0.4881
  528TMC3    C6 7840   1.703   3.440   1.158  0.4077 -0.4261  0.1708
  528TMC3     C 7841   2.030   3.542   0.932  0.3752  0.3697 -0.2962
  528TMC3     O 7842   1.999   3.651   0.895  0.7877  0.2074 -0.0085
  528TMC3     H 7843   2.029   3.371   1.122 -0.0782 -0.0170 -1.0750
  528TMC3    H1 7844   1.777   3.602   0.880 -1.3649 -0.6191 -0.4517
  528TMC3    H2 7845   1.622   3.436   1.230 -0.0412  3.9186 -0.0405
  528TMC3    C7 7846   1.571   3.601   1.052  0.1205 -0.2007  0.0735
  528TMC3    C8 7847   1.845   3.334   1.311 -0.4282 -0.3004  0.5284
  528TMC3    O1 7848   1.507   3.613   1.152 -0.8625  0.5479  0.6601
  528TMC3    O2 7849   1.764   3.367   1.395  0.0774  0.2598 -0.8831
  529MPD2     C 7850   4.268   2.848   0.454 -0.9028  0.1160 -0.0739
  529MPD2    C1 7851   4.406   2.847   0.443  0.4774  0.7186 -0.0259
  529MPD2    C2 7852   4.464   2.911   0.332 -0.6345  0.0350 -0.9600
  529MPD2    C3 7853   4.380   2.971   0.234 -0.4167  0.3066 -0.2120
  529MPD2    C4 7854   4.243   2.955   0.244  0.5778 -0.9865  0.0446
  529MPD2    C5 7855   4.192   2.901   0.353  0.5534  0.2078  0.0746
  529MPD2     H 7856   4.571   2.900   0.325 -0.5653 -0.6705  1.2587
  529MPD2    H1 7857   4.176   3.000   0.171  0.4038  1.2141  1.5448
  529MPD2    H2 7858   4.209   2.809   0.536  0.1215  0.9500  1.0493
  529MPD2    H3 7859   4.084   2.896   0.361  0.8235 -3.2986  1.7584
  529MPD2     N 7860   4.428   3.026   0.114 -0.2424  0.0944 -0.4896
  529MPD2    H5 7861   4.362   3.053   0.042  0.5122  0.2707 -1.1093
  529MPD2    N1 7862   4.488   2.783   0.543 -0.2087 -0.3546 -0.3550
  529MPD2    H7 7863   4.587   2.782   0.520  0.1911  0.5855  1.3210
  530TMC3    C1 7864   4.563   2.630   0.703 -0.2580 -0.7512 -0.1331
  530TMC3    C2 7865   4.549   2.575   0.822  0.3093  0.3401 -0.3605
  530TMC3    C3 7866   4.622   2.464   0.851  0.5309 -0.2656 -0.7000
  530TMC3    C4 7867   4.641   2.574   0.608 -0.6160 -0.0382  0.4201
  530TMC3    C5 7868   4.723   2.469   0.641  0.1826  0.7425  0.0532
  530TMC3    C6 7869   4.715   2.412   0.765  0.4250  1.0401 -0.2135
  530TMC3     C 7870   4.448   2.714   0.655  0.6876  0.3056  0.1086
  530TMC3     O 7871   4.339   2.707   0.710 -0.1690  0.9609 -0.0584
  530TMC3     H 7872   4.478   2.614   0.894 -0.3580 -1.4380 -0.0452
  530TMC3    H1 7873   4.643   2.606   0.505  0.9611  0.9886  0.7684
  530TMC3    H2 7874   0.056   2.331   0.794 -0.8356  0.1926  0.2158
  530TMC3    C7 7875   0.064   2.395   0.535 -0.2091 -0.5801  0.0233
  530TMC3    C8 7876   4.601   2.406   0.985 -0.3869 -0.3791 -0.4394
  530TMC3    O1 7877   0.096   2.459   0.433  0.2847 -0.1550 -0.1255
  530TMC3    O2 7878   4.511   2.452   1.057  0.3230  0.0961  0.0392
  531MPD2     C 7879   4.222   4.470  12.946 -0.0804 -0.2690 -0.8676
  531MPD2    C1 7880   4.132   4.565  12.898  0.0857  0.2323  0.2070
  531MPD2    C2 7881   4.051   4.521  12.797  0.0139  0.4122 -0.1432
  531MPD2    C3 7882   4.066   4.398  12.739  0.4573 -0.0746 -0.5294
  531MPD2    C4 7883   4.164   4.305  12.775 -0.5175  0.3952  1.1264
  531MPD2    C5 7884   4.241   4.352  12.878  0.2136 -0.3532  0.1733
  531MPD2     H 7885   3.974   4.583  12.753 -2.4646 -0.4151  3.0258
  531MPD2    H1 7886   4.181   4.212  12.722  1.0036  1.4471 -0.2117
  531MPD2    H2 7887   4.285   4.494  13.030 -2.2638  0.4002  0.5808
  531MPD2    H3 7888   4.301   4.271  12.918 -1.0669 -0.9262  0.9544
  531MPD2     N 7889   3.963   4.349  12.653  0.1535  0.4933  0.4326
  531MPD2    H5 7890   3.876   4.400  12.657 -0.4973 -0.5227 -0.5226
  531MPD2    N1 7891   4.113   4.686  12.964 -0.2175  0.6372 -0.0689
  531MPD2    H7 7892   4.177   4.717  13.037  1.0059  1.1934 -1.4013
  532TMC3    C1 7893   4.008   0.173  12.999  1.0129  0.2445  0.1034
  532TMC3    C2 7894   3.921   0.258  12.940 -0.0537  0.9776  0.8511
  532TMC3    C3 7895   3.815   0.295  13.010 -0.7189 -0.0105  0.2379
  532TMC3    C4 7896   4.005   0.150  13.133  0.2143  0.1730 -0.5608
  532TMC3    C5 7897   3.907   0.212  13.207  0.1655 -0.4764  0.4243
  532TMC3    C6 7898   3.814   0.290  13.144 -0.2604 -0.4474  0.6621
  532TMC3     C 7899   4.026   0.059  12.914 -0.8448 -0.2086  0.8011
  532TMC3     O 7900   3.950   0.054  12.818  0.1617  0.2873  0.4470
  532TMC3     H 7901   3.923   0.268  12.832 -1.0284  2.3555  0.9630
  532TMC3    H1 7902   4.083   0.088  13.175  1.7667  1.3164 -1.7768
  532TMC3    H2 7903   3.737   0.342  13.201  0.5349  0.9812  0.4225
  532TMC3    C7 7904   3.902   0.188  13.349 -0.6736 -0.4109  0.0738
  532TMC3    C8 7905   3.693   0.285  12.938  0.6458 -0.4452 -0.9746
  532TMC3    O1 7906   3.846   0.271  13.421 -0.8056  0.1661  0.2679
  532TMC3    O2 7907   3.604   0.362  12.962 -0.1906  0.5650 -0.1712
  533TMC3    C1 7908   0.467   1.628  14.242  0.3314  0.0666 -0.0569
  533TMC3    C2 7909   0.599   1.655  14.267  0.4162  0.4346  0.3811
  533TMC3    C3 7910   0.627   1.742  14.364 -0.3341 -0.8006 -0.4030
  533TMC3    C4 7911   0.372   1.693  14.317  0.4821  0.1566 -0.1396
  533TMC3    C5 7912   0.406   1.777  14.425 -0.6007 -0.3404  0.4436
  533TMC3    C6 7913   0.540   1.803  14.449 -0.0283 -0.4927  0.4042
  533TMC3     C 7914   0.444   1.485  14.248  0.2295  0.7190  0.4145
  533TMC3     O 7915   0.531   1.423  14.304  0.0620 -0.5193 -0.4116
  533TMC3     H 7916   0.675   1.603  14.210 -0.0246  1.5498 -1.2416
  533TMC3    H1 7917   0.265   1.683  14.309  0.6567 -0.9240 -1.0741
  533TMC3    H2 7918   0.565   1.870  14.530  0.0530 -0.5960  0.4643
  533TMC3    C7 7919   0.305   1.783  14.523  0.1094  0.1426  0.6165
  533TMC3    C8 7920   0.761   1.766  14.408 -1.0583  0.6105  0.5251
  533TMC3    O1 7921   0.230   1.685  14.533  0.2718 -0.2257 -0.5216
  533TMC3    O2 7922   0.772   1.787  14.529  0.2559  0.8292 -0.0501
  534MPD2     C 7923   2.008   2.664   1.716  0.2075 -0.4059  0.7456
  534MPD2    C1 7924   2.006   2.594   1.593  0.4141 -0.2671  0.3144
  534MPD2    C2 7925   1.887   2.540   1.558  0.5851 -0.1895 -0.4930
  534MPD2    C3 7926   1.779   2.536   1.636 -0.2985 -0.0859  0.0131
  534MPD2    C4 7927   1.774   2.608   1.752 -0.2739  0.5990  0.2147
  534MPD2    C5 7928   1.888   2.668   1.785  0.3611 -0.3318 -0.4440
  534MPD2     H 7929   1.887   2.492   1.461 -1.2844  1.1135 -1.1384
  534MPD2    H1 7930   1.693   2.604   1.823 -0.6130 -0.7411 -0.2545
  534MPD2    H2 7931   2.097   2.703   1.763 -0.6022  1.1741  0.9618
  534MPD2    H3 7932   1.907   2.716   1.880 -2.4220 -1.0471  0.4559
  534MPD2     N 7933   1.655   2.484   1.585  0.2721 -0.4185  0.7629
  534MPD2    H5 7934   1.658   2.420   1.506  0.6413 -0.3159  0.6927
  534MPD2    N1 7935   2.114   2.582   1.499  0.4848 -0.3920  0.4073
  534MPD2    H7 7936   2.099   2.534   1.411  0.6039 -0.6646  0.5328
  535TMC3    C1 7937   1.428   2.464   1.543  0.5994  0.2119 -0.0791
  535TMC3    C2 7938   1.300   2.524   1.546 -0.2845 -0.1879 -0.2290
  535TMC3    C3 7939   1.217   2.485   1.445  1.0058 -0.4496  0.2794
  535TMC3    C4 7940   1.459   2.359   1.459  0.1349  0.9033  0.1081
  535TMC3    C5 7941   1.369   2.316   1.371  1.3240  0.0048 -0.3485
  535TMC3    C6 7942   1.251   2.380   1.361  0.1574  0.0929  0.4195
  535TMC3     C 7943   1.530   2.518   1.629 -0.2489 -0.1558  0.1162
  535TMC3     O 7944   1.490   2.603   1.702 -0.0216  0.0058 -0.4120
  535TMC3     H 7945   1.280   2.591   1.628 -0.2827 -0.3220 -0.1179
  535TMC3    H1 7946   1.546   2.295   1.473 -2.2425 -2.2363  0.6150
  535TMC3    H2 7947   1.175   2.345   1.292  0.1005  1.5515 -0.2438
  535TMC3    C7 7948   1.413   2.225   1.260 -0.2716 -0.5874 -0.4219
  535TMC3    C8 7949   1.079   2.504   1.462  0.3090  0.0877 -0.3029
  535TMC3    O1 7950   1.503   2.144   1.274 -0.5957  0.3619  0.0005
  535TMC3    O2 7951   1.014   2.402   1.440 -0.6921 -0.0937 -0.2940
  536MPD2     C 7952   0.931   1.107  16.638  0.9409 -0.1458  0.5279
  536MPD2    C1 7953   1.041   1.036  16.596  0.3729  0.0030 -0.3143
  536MPD2    C2 7954   1.124   1.092  16.499  0.6816  0.2409 -0.2172
  536MPD2    C3 7955   1.083   1.213  16.438 -0.1698  0.2989  0.1248
  536MPD2    C4 7956   0.971   1.281  16.483  0.6615  0.1220 -0.4612
  536MPD2    C5 7957   0.893   1.230  16.583  0.1178 -0.1364  0.3951
  536MPD2     H 7958   1.212   1.040  16.462  1.1198  1.9854 -1.6454
  536MPD2    H1 7959   0.948   1.375  16.435 -1.7395 -1.2398 -1.9504
  536MPD2    H2 7960   0.864   1.083  16.719 -3.7627  1.8882 -2.8187
  536MPD2    H3 7961   0.804   1.279  16.621 -2.2275 -2.3681 -2.2687
  536MPD2     N 7962   1.154   1.264  16.328  0.3224  0.2294  0.2736
  536MPD2    H5 7963   1.110   1.346  16.287  1.2698  1.0206  0.8336
  536MPD2    N1 7964   1.068   0.906  16.645 -0.2860  0.0795 -0.1586
  536MPD2    H7 7965   1.155   0.864  16.613  0.1108  1.8025 -1.3558
  537TMC3    C1 7966   1.027   0.703  16.764  0.1744 -0.0854 -0.0648
  537TMC3    C2 7967   1.135   0.715  16.849 -0.8494  1.2721  0.2792
  537TMC3    C3 7968   1.172   0.600  16.916  0.8201  0.5945 -0.2726
  537TMC3    C4 7969   0.948   0.596  16.757 -0.2534 -0.3158 -0.6895
  537TMC3    C5 7970   0.987   0.485  16.830  0.1642  0.3326  0.5506
  537TMC3    C6 7971   1.103   0.485  16.910  0.4171  0.2244  0.5381
  537TMC3     C 7972   0.973   0.825  16.705 -0.2622 -0.2346  0.1241
  537TMC3     O 7973   0.854   0.850  16.722  0.9158 -0.5856  0.5730
  537TMC3     H 7974   1.186   0.810  16.858  0.1128  0.7483  0.3065
  537TMC3    H1 7975   0.855   0.604  16.702 -0.7532 -0.0081  0.2074
  537TMC3    H2 7976   1.138   0.395  16.960  1.1176 -0.7839 -1.7601
  537TMC3    C7 7977   0.918   0.360  16.793  0.4562 -0.7675  0.1576
  537TMC3    C8 7978   1.274   0.603  17.018  0.3026 -0.3298  0.9654
  537TMC3    O1 7979   0.847   0.369  16.695 -0.3117  0.2858  0.4159
  537TMC3    O2 7980   1.256   0.518  17.104 -0.1881  0.2329 -0.1770
  538TMC3    C1 7981   3.052   3.477  10.694  0.1129 -0.3633  0.7873
  538TMC3    C2 7982   3.082   3.457  10.566 -0.3620 -0.2000 -0.2615
  538TMC3    C3 7983   3.038   3.548  10.471 -0.3222 -0.6106 -0.4669
  538TMC3    C4 7984   2.987   3.595  10.728  0.4872  0.3356 -0.6536
  538TMC3    C5 7985   2.953   3.698  10.630 -0.4555  0.2797  0.0613
  538TMC3    C6 7986   2.978   3.665  10.499 -0.0756 -0.8991 -0.0734
  538TMC3     C 7987   3.088   3.383  10.785  0.0284 -0.5910 -0.0927
  538TMC3     O 7988   3.193   3.323  10.764 -0.5751  0.2958 -0.1735
  538TMC3     H 7989   3.151   3.379  10.538 -0.5900  0.2961 -2.2007
  538TMC3    H1 7990   2.969   3.615  10.833 -0.3624  0.2070 -0.7746
  538TMC3    H2 7991   2.940   3.719  10.412 -1.0525  0.2410  1.0596
  538TMC3    C7 7992   2.834   3.770  10.677 -0.1084  0.0409  0.2859
  538TMC3    C8 7993   3.097   3.543  10.341 -0.0942  0.7160  1.0422
  538TMC3    O1 7994   2.732   3.748  10.616 -0.1074 -0.3407 -0.4971
  538TMC3    O2 7995   3.124   3.431  10.307  0.0404  0.2205  0.0792
  539MPD2     C 7996   2.167   3.049  12.068  0.2015 -0.8335 -0.0074
  539MPD2    C1 7997   2.168   3.043  11.924  0.2143  0.9039  0.1887
  539MPD2    C2 7998   2.170   3.159  11.855 -0.2476  0.1787  0.0180
  539MPD2    C3 7999   2.136   3.274  11.916 -0.0692 -0.1664 -0.5109
  539MPD2    C4 8000   2.142   3.283  12.054 -0.9358  1.0612  0.0372
  539MPD2    C5 8001   2.150   3.171  12.129 -0.1172 -0.3734  0.0283
  539MPD2     H 8002   2.192   3.153  11.749 -0.1413 -0.4153  0.0759
  539MPD2    H1 8003   2.125   3.374  12.111 -1.3713  0.8626  0.2249
  539MPD2    H2 8004   2.190   2.960  12.124  1.0885 -1.5861 -1.5750
  539MPD2    H3 8005   2.155   3.188  12.236 -3.6118  0.6621  0.0479
  539MPD2     N 8006   2.117   3.403  11.847 -0.7278 -0.4015 -0.0995
  539MPD2    H5 8007   2.142   3.407  11.749  0.2733 -0.7772  0.1406
  539MPD2    N1 8008   2.181   2.929  11.846  0.0078  0.2567  0.2588
  539MPD2    H7 8009   2.190   2.936  11.745  3.0250 -0.1077  0.5149
  540TMC3    C1 8010   2.045   3.623  11.799  0.5164 -0.4580 -0.6009
  540TMC3    C2 8011   2.153   3.645  11.709 -0.5677  0.3000  0.6681
  540TMC3    C3 8012   2.199   3.772  11.696  0.7186 -0.3003  0.3548
  540TMC3    C4 8013   1.970   3.732  11.845  0.5700  0.3147  0.0724
  540TMC3    C5 8014   2.029   3.855  11.836 -0.1276 -0.4840  0.2980
  540TMC3    C6 8015   2.142   3.876  11.763 -0.1803  0.5343  0.0136
  540TMC3     C 8016   2.049   3.512  11.893 -0.1540 -0.2039 -0.5559
  540TMC3     O 8017   1.979   3.525  11.993  0.0209 -0.3530  0.0844
  540TMC3     H 8018   2.213   3.563  11.672  0.3089  1.3469 -0.2275
  540TMC3    H1 8019   1.894   3.701  11.916 -0.6590  0.3085 -1.2329
  540TMC3    H2 8020   2.169   3.977  11.736  2.2397 -0.3902 -1.0079
  540TMC3    C7 8021   2.000   3.956  11.932 -0.3312  0.0746 -0.4473
  540TMC3    C8 8022   2.283   3.803  11.576  0.0160 -0.0304  0.2844
  540TMC3    O1 8023   2.091   4.030  11.969  0.1229  0.5682  0.0879
  540TMC3    O2 8024   2.354   3.904  11.579 -0.0301  0.8347 -0.1533
  541MPD2     C 8025   0.822   0.099  13.244 -0.0613  0.2015 -0.0688
  541MPD2    C1 8026   0.728   0.185  13.197 -0.1617  0.1680  0.0917
  541MPD2    C2 8027   0.741   0.232  13.070  0.6477  0.3707 -0.9103
  541MPD2    C3 8028   0.854   0.197  12.993  0.5283 -0.4620  0.1641
  541MPD2    C4 8029   0.957   0.122  13.044 -0.5993  0.1196  0.0719
  541MPD2    C5 8030   0.942   0.081  13.177  0.3922  0.9529 -0.1136
  541MPD2     H 8031   0.668   0.298  13.025 -0.0086 -1.3314 -2.3573
  541MPD2    H1 8032   1.048   0.095  12.991 -2.2946 -2.9935 -1.3314
  541MPD2    H2 8033   0.817   0.049  13.340 -2.3895 -1.0931 -0.8603
  541MPD2    H3 8034   1.015   0.013  13.220 -0.4317  1.5215  2.1670
  541MPD2     N 8035   0.867   0.249  12.862  0.0063 -0.2192  0.5248
  541MPD2    H5 8036   0.808   0.325  12.829 -2.6409 -2.1223  0.8438
  541MPD2    N1 8037   0.611   0.184  13.272  0.1606 -0.0849  0.0533
  541MPD2    H7 8038   0.602   0.116  13.348  3.5269  1.8261  2.1383
  542TMC3    C1 8039   0.972   0.255  12.643 -0.1277  0.0685  0.1233
  542TMC3    C2 8040   0.955   0.189  12.524 -0.3567  0.2618  0.2025
  542TMC3    C3 8041   0.941   0.257  12.403 -0.1416  0.4523 -0.3947
  542TMC3    C4 8042   0.953   0.391  12.651  1.3152 -0.2672  0.9164
  542TMC3    C5 8043   0.945   0.456  12.522  0.9326  0.1374 -0.1435
  542TMC3    C6 8044   0.933   0.395  12.403  0.5993  0.7345  0.3120
  542TMC3     C 8045   0.944   0.180  12.764 -0.3155  0.4580 -0.4867
  542TMC3     O 8046   0.984   0.067  12.767  0.9608  0.6861 -0.1503
  542TMC3     H 8047   0.966   0.082  12.532 -0.5304  0.2480  0.2514
  542TMC3    H1 8048   0.971   0.453  12.738  0.5516  0.5770  0.4801
  542TMC3    H2 8049   0.939   0.449  12.309  0.8717  1.6520  0.8606
  542TMC3    C7 8050   0.915   0.600  12.524 -0.0476 -0.4410  0.4413
  542TMC3    C8 8051   0.973   0.194  12.282 -0.2573 -0.1079  0.1564
  542TMC3    O1 8052   0.958   0.662  12.427  0.0568 -0.5048 -0.2948
  542TMC3    O2 8053   0.912   0.224  12.183 -0.2209  0.1127 -0.1334
  543TMC3    C1 8054   0.015   1.796  17.250  0.5248 -0.2430  0.4514
  543TMC3    C2 8055   4.690   1.673  17.266  0.1962 -0.2776  0.3138
  543TMC3    C3 8056   4.627   1.642  17.384 -0.2079 -0.6902  0.0273
  543TMC3    C4 8057   0.015   1.885  17.362 -0.7342 -0.0805 -0.0012
  543TMC3    C5 8058   4.680   1.843  17.473  0.2487  0.3476 -0.1939
  543TMC3    C6 8059   4.624   1.726  17.486  0.2993  0.0865  0.9843
  543TMC3     C 8060   0.098   1.819  17.138  0.5532  0.3048 -0.5171
  543TMC3     O 8061   0.113   1.719  17.066  0.2441  0.0903 -0.2114
  543TMC3     H 8062   4.666   1.617  17.177  2.2386 -1.8513  0.7566
  543TMC3    H1 8063   0.072   1.977  17.368 -2.0330  0.6467  1.3639
  543TMC3    H2 8064   4.605   1.686  17.585  1.5024  1.1049  1.6234
  543TMC3    C7 8065   4.639   1.939  17.579  0.0846 -0.0624 -0.0098
  543TMC3    C8 8066   4.551   1.517  17.400  0.5609  0.3331 -0.1923
  543TMC3    O1 8067   4.536   1.892  17.627 -0.3345  0.8625  0.6940
  543TMC3    O2 8068   4.552   1.436  17.306  0.2065  0.4013 -0.1780
  544MPD2     C 8069   4.254   1.168  17.629  0.0010 -0.1817  0.3567
  544MPD2    C1 8070   4.351   1.152  17.527  0.9333  0.4044 -0.0851
  544MPD2    C2 8071   4.413   1.266  17.481 -0.2011 -0.6018  0.9184
  544MPD2    C3 8072   4.398   1.390  17.547  0.2147 -0.1225  0.1197
  544MPD2    C4 8073   4.314   1.397  17.657 -0.0379  1.2757  0.0221
  544MPD2    C5 8074   4.228   1.291  17.685  0.3206 -0.9424  0.7418
  544MPD2     H 8075   4.486   1.254  17.402 -2.2912  1.6865 -1.3632
  544MPD2    H1 8076   4.296   1.491   0.010 -1.2493  2.1999 -2.1527
  544MPD2    H2 8077   4.202   1.076  17.653  0.0952  0.0072  1.2970
  544MPD2    H3 8078   4.158   1.294   0.071  2.9958  2.2379  2.8602
  544MPD2     N 8079   4.467   1.507  17.506 -0.2731 -0.2953  0.2791
  544MPD2    H5 8080   4.456   1.582  17.573 -0.9522 -0.3890  0.2741
  544MPD2    N1 8081   4.352   1.023  17.462  0.0367  0.0351  0.1175
  544MPD2    H7 8082   4.286   0.955  17.499 -2.8622  2.8148  0.1019
  545TMC3    C1 8083   4.420   0.854  17.311  0.4230 -0.2731 -0.0479
  545TMC3    C2 8084   4.471   0.829  17.191  0.0619 -0.1110 -0.3921
  545TMC3    C3 8085   4.541   0.714  17.170 -0.6204  0.1004  0.7091
  545TMC3    C4 8086   4.434   0.765  17.413  0.3876 -0.0917 -0.2113
  545TMC3    C5 8087   4.498   0.647  17.387 -0.3740  0.1650  1.0503
  545TMC3    C6 8088   4.560   0.615  17.270  0.3258  0.3170 -0.3009
  545TMC3     C 8089   4.430   0.994  17.351  0.3952  0.2945 -0.1857
  545TMC3     O 8090   4.513   1.062  17.295 -0.1060 -0.3666  0.3497
  545TMC3     H 8091   4.462   0.908  17.117 -1.1400  1.9228  1.9159
  545TMC3    H1 8092   4.414   0.791  17.516  0.3519  0.4215 -0.3454
  545TMC3    H2 8093   4.621   0.527  17.255  0.6611  0.5333 -0.2081
  545TMC3    C7 8094   4.491   0.546  17.496  0.2430  0.3582  0.5102
  545TMC3    C8 8095   4.649   0.733  17.074  0.0363 -0.3005  0.2326
  545TMC3    O1 8096   4.405   0.557  17.587  0.3146  0.1088 -0.0712
  545TMC3    O2 8097   4.665   0.847  17.033  0.2470 -0.4911  0.3365
  546MPD2     C 8098   1.262   0.833  17.362 -0.4612  0.1634 -0.0046
  546MPD2    C1 8099   1.218   0.916  17.260 -0.3008 -0.4260 -0.2171
  546MPD2    C2 8100   1.299   1.029  17.224  1.0286  0.3112 -0.2424
  546MPD2    C3 8101   1.418   1.048  17.294  0.3657 -0.0814  0.0021
  546MPD2    C4 8102   1.447   0.979  17.411 -0.0775 -0.4943 -0.2504
  546MPD2    C5 8103   1.366   0.873  17.445 -0.1211 -0.0167 -0.3693
  546MPD2     H 8104   1.262   1.098  17.149  0.1232 -1.0685 -1.0617
  546MPD2    H1 8105   1.520   1.013  17.483 -0.4397  0.0714 -0.1498
  546MPD2    H2 8106   1.215   0.743  17.398 -0.1908  0.9301  2.2716
  546MPD2    H3 8107   1.398   0.816  17.531  2.1815  1.2477 -0.3735
  546MPD2     N 8108   1.505   1.157  17.269  0.2307 -0.1025 -0.3066
  546MPD2    H5 8109   1.575   1.176  17.340 -0.5529  0.3281  0.3433
  546MPD2    N1 8110   1.087   0.886  17.204 -0.0367 -0.2139 -0.2629
  546MPD2    H7 8111   1.028   0.812  17.239 -0.0530  0.0797  0.3431
  547TMC3    C1 8112   0.896   0.906  17.070  0.5227 -0.2153 -0.7671
  547TMC3    C2 8113   0.820   0.977  16.975  0.1518 -0.4429 -0.5479
  547TMC3    C3 8114   0.686   0.976  16.983  0.3448  0.3055  0.9160
  547TMC3    C4 8115   0.836   0.812  17.153  0.4120  0.5987  0.7543
  547TMC3    C5 8116   0.701   0.819  17.153 -0.0254  0.3401  0.2406
  547TMC3    C6 8117   0.623   0.894  17.067 -0.1399 -0.0990  0.5384
  547TMC3     C 8118   1.036   0.947  17.092 -0.0519  0.2628 -0.5345
  547TMC3     O 8119   1.092   1.011  17.003 -0.4949  0.5240 -0.0604
  547TMC3     H 8120   0.862   1.061  16.921 -1.3409 -0.3988 -1.6421
  547TMC3    H1 8121   0.889   0.760  17.233  2.5183  0.9271 -0.4141
  547TMC3    H2 8122   0.517   0.873  17.074 -0.1851 -0.7120 -2.3407
  547TMC3    C7 8123   0.638   0.803  17.285 -0.7054  0.0173 -0.2172
  547TMC3    C8 8124   0.608   1.079  16.913 -0.7357  0.8891 -0.5521
  547TMC3    O1 8125   0.527   0.857  17.296  0.1772 -0.1353 -0.0022
  547TMC3    O2 8126   0.654   1.140  16.815 -0.5998  0.1182  0.0172
  548MPD2     C 8127   1.549   2.131  12.219  0.3525  0.0791 -0.3241
  548MPD2    C1 8128   1.502   2.002  12.213  0.2961 -0.7117 -0.2508
  548MPD2    C2 8129   1.584   1.903  12.163 -0.6318 -0.7413  0.0735
  548MPD2    C3 8130   1.706   1.935  12.108 -0.0074 -0.0296 -0.3470
  548MPD2    C4 8131   1.742   2.067  12.107 -0.3805 -0.4688  0.5198
  548MPD2    C5 8132   1.663   2.166  12.162  0.3685  0.1911  0.6019
  548MPD2     H 8133   1.565   1.796  12.164  2.2036 -1.2358  1.5916
  548MPD2    H1 8134   1.842   2.088  12.072 -0.6282  1.7137  1.1442
  548MPD2    H2 8135   1.491   2.202  12.277  1.1828 -0.3904  1.0671
  548MPD2    H3 8136   1.697   2.269  12.161  1.5319 -0.2177 -1.2525
  548MPD2     N 8137   1.794   1.835  12.054  0.1066 -0.1363 -0.3515
  548MPD2    H5 8138   1.763   1.739  12.061  1.6196 -0.6284 -0.2927
  548MPD2    N1 8139   1.374   1.981  12.266  0.0117  0.8466 -0.2281
  548MPD2    H7 8140   1.331   2.065  12.302  0.8247  2.3401 -2.7469
  549TMC3    C1 8141   1.159   1.888  12.304  0.0296 -0.0477 -0.3824
  549TMC3    C2 8142   1.115   2.021  12.324 -0.0748 -0.7409  0.0503
  549TMC3    C3 8143   0.980   2.028  12.357 -0.5706  0.1725  0.0247
  549TMC3    C4 8144   1.087   1.773  12.320  0.3408 -1.0090  0.1212
  549TMC3    C5 8145   0.956   1.786  12.343 -0.8129  0.4898 -0.0530
  549TMC3    C6 8146   0.904   1.911  12.359 -0.0946  0.8999  0.9840
  549TMC3     C 8147   1.302   1.866  12.262  0.8982  0.2828 -0.2958
  549TMC3     O 8148   1.341   1.766  12.206 -0.4627 -0.3437 -0.1118
  549TMC3     H 8149   1.171   2.109  12.297  1.6193 -1.4438  1.3213
  549TMC3    H1 8150   1.135   1.678  12.301 -0.9886 -1.6968  0.1768
  549TMC3    H2 8151   0.797   1.923  12.374 -0.3060 -2.1959  1.9703
  549TMC3    C7 8152   0.861   1.677  12.314  0.4741 -0.7476 -0.0899
  549TMC3    C8 8153   0.927   2.149  12.398 -0.0628  0.4387 -0.3338
  549TMC3    O1 8154   0.742   1.702  12.297  0.6013 -0.4240  0.1037
  549TMC3    O2 8155   0.803   2.143  12.422 -0.1224  0.0933  0.3225
  550TMC3    C1 8156   4.714   4.186  12.262 -0.3563  0.7556  0.4913
  550TMC3    C2 8157   4.664   4.281  12.347  0.6571 -0.0650  0.1921
  550TMC3    C3 8158   0.013   4.394  12.364 -0.0468 -0.0687  0.2054
  550TMC3    C4 8159   0.110   4.205  12.198  0.4006 -0.3849 -0.1176
  550TMC3    C5 8160   0.172   4.330  12.200  0.6868  0.5292 -0.2312
  550TMC3    C6 8161   0.124   4.420  12.291 -0.6284  0.2322  0.1550
  550TMC3     C 8162   4.619   4.109  12.175 -0.5232 -0.1922 -0.1618
  550TMC3     O 8163   4.524   4.046  12.221 -0.6242 -0.7667 -0.4426
  550TMC3     H 8164   4.563   4.271  12.385 -0.0984  1.0390 -1.5081
  550TMC3    H1 8165   0.149   4.133  12.127  0.2665  0.7459 -1.3393
  550TMC3    H2 8166   0.178   4.513  12.304 -0.5908  0.3621 -0.8663
  550TMC3    C7 8167   0.168   4.379  12.067  0.3396  0.5514  0.1288
  550TMC3    C8 8168   4.661   4.514  12.405  0.2349 -0.2798  0.6582
  550TMC3    O1 8169   0.154   4.293  11.983  0.8770  0.3503 -0.4859
  550TMC3    O2 8170   4.712   4.620  12.371  1.1401 -0.3380 -0.0037
  551TMC3    C1 8171   2.338   2.075  13.347 -0.6612 -0.1834  0.0165
  551TMC3    C2 8172   2.467   2.035  13.318 -0.9759 -0.1146 -0.0472
  551TMC3    C3 8173   2.562   2.101  13.381 -0.3060 -0.4255  0.1304
  551TMC3    C4 8174   2.302   2.159  13.447  0.4344  0.1483 -0.3059
  551TMC3    C5 8175   2.405   2.213  13.517  0.3018  0.2377 -0.2733
  551TMC3    C6 8176   2.531   2.182  13.486  0.3680 -0.1869 -0.2339
  551TMC3     C 8177   2.238   2.042  13.246 -0.7781  0.3497  0.8091
  551TMC3     O 8178   2.271   1.997  13.137  0.5343  0.2129 -0.2138
  551TMC3     H 8179   2.494   1.966  13.239 -2.4756 -0.4348 -0.2909
  551TMC3    H1 8180   2.200   2.189  13.468  0.5460  1.5858 -1.8579
  551TMC3    H2 8181   2.611   2.233  13.540 -1.4475  2.7788 -0.3735
  551TMC3    C7 8182   2.374   2.297  13.633 -0.0831 -0.3627  0.1576
  551TMC3    C8 8183   2.657   2.156  13.283 -0.2743 -0.2412 -0.8109
  551TMC3    O1 8184   2.463   2.312  13.717 -0.0618  0.7273  0.3581
  551TMC3    O2 8185   2.705   2.077  13.198  0.0445  0.1985  0.1462
  552MPD2     C 8186   3.961   4.613  14.080  0.4366  0.4287 -0.1577
  552MPD2    C1 8187   4.020   4.503  14.025  0.4159 -0.9450  0.0570
  552MPD2    C2 8188   4.139   4.452  14.077 -0.2705 -0.1931 -0.0544
  552MPD2    C3 8189   4.206   4.534  14.167 -1.4895 -0.0514  0.0040
  552MPD2    C4 8190   4.154   4.643  14.224  0.3080  0.1976 -0.3488
  552MPD2    C5 8191   4.035   4.680  14.175  0.8313 -0.0423 -0.1884
  552MPD2     H 8192   4.185   4.369  14.024 -0.0347  1.0963 -1.8591
  552MPD2    H1 8193   4.201   4.706  14.299  2.2972  0.4893 -1.8301
  552MPD2    H2 8194   3.861   4.649  14.055  0.8237  0.2461 -1.9066
  552MPD2    H3 8195   3.999   0.050  14.217  2.1492 -0.5032  1.9455
  552MPD2     N 8196   4.341   4.516  14.204  0.6503 -0.0705 -0.6111
  552MPD2    H5 8197   4.385   4.590  14.257 -0.8796 -0.2323  0.8713
  552MPD2    N1 8198   3.956   4.425  13.920  0.3987  0.2216  0.1417
  552MPD2    H7 8199   4.007   4.342  13.889  0.7144  0.5108 -0.1092
  553TMC3    C1 8200   3.784   4.345  13.799 -0.2481 -0.1134  0.2266
  553TMC3    C2 8201   3.849   4.285  13.694  0.1214 -0.6906  0.0850
  553TMC3    C3 8202   3.836   4.151  13.687  0.1510  0.3792 -0.8930
  553TMC3    C4 8203   3.713   4.274  13.891  0.4102  0.0775 -0.2761
  553TMC3    C5 8204   3.727   4.135  13.889 -0.1654 -0.7195  1.1736
  553TMC3    C6 8205   3.778   4.069  13.782 -0.7828 -0.1700  0.2403
  553TMC3     C 8206   3.836   4.460  13.863 -0.2063 -0.9338  0.2782
  553TMC3     O 8207   3.765   4.556  13.877  0.2476  0.0048 -0.3455
  553TMC3     H 8208   3.886   4.353  13.619 -0.9756 -0.3125 -0.1181
  553TMC3    H1 8209   3.676   4.325  13.979  1.4167  1.2486 -0.5224
  553TMC3    H2 8210   3.795   3.962  13.785 -0.7038 -0.1893 -0.7148
  553TMC3    C7 8211   3.810   4.108  14.006  0.2503  0.7369 -0.1396
  553TMC3    C8 8212   3.909   4.096  13.572  0.3615 -0.1145 -0.3567
  553TMC3    O1 8213   3.766   4.169  14.106 -0.2748 -0.2439  0.7230
  553TMC3    O2 8214   3.970   4.178  13.506 -0.2989  0.2783 -0.2119
  554TMC3    C1 8215   1.197   3.191  11.514 -0.0218  0.1500  1.2618
  554TMC3    C2 8216   1.183   3.154  11.382 -0.2400 -0.4681  0.0317
  554TMC3    C3 8217   1.249   3.228  11.282  0.0663 -0.4159 -0.1452
  554TMC3    C4 8218   1.264   3.306  11.553  0.8168  0.2155 -0.0220
  554TMC3    C5 8219   1.316   3.385  11.453 -0.4489 -0.4674 -0.0995
  554TMC3    C6 8220   1.315   3.344  11.324 -0.9586 -0.0474  0.1916
  554TMC3     C 8221   1.167   3.099  11.620 -0.3627  0.0912 -0.4578
  554TMC3     O 8222   1.084   3.012  11.588  0.1596 -0.0965 -0.1212
  554TMC3     H 8223   1.136   3.059  11.357  2.2112 -1.5311 -0.5823
  554TMC3    H1 8224   1.262   3.345  11.655 -0.5351 -1.5720  0.6268
  554TMC3    H2 8225   1.355   3.411  11.249 -1.2023  1.9861  1.8946
  554TMC3    C7 8226   1.426   3.468  11.495  0.3006 -0.1005  0.1588
  554TMC3    C8 8227   1.240   3.210  11.136  0.3793  0.1560 -0.4640
  554TMC3    O1 8228   1.427   3.515  11.612 -0.8392 -0.3473  0.2145
  554TMC3    O2 8229   1.330   3.268  11.079  0.2453 -0.7762 -0.0128
  555TMC3    C1 8230   0.351   2.780  14.752  0.0810 -0.0397  0.1816
  555TMC3    C2 8231   0.310   2.892  14.821 -0.3169  0.0645  0.1442
  555TMC3    C3 8232   0.346   2.892  14.951  0.3024  0.0609  0.0694
  555TMC3    C4 8233   0.441   2.686  14.806 -0.8815  0.2379  0.1552
  555TMC3    C5 8234   0.478   2.703  14.935 -0.4049 -0.3506 -0.2067
  555TMC3    C6 8235   0.429   2.801  15.014  0.1628  0.3395  0.5802
  555TMC3     C 8236   0.376   2.804  14.606 -0.6904  0.8589  0.0210
  555TMC3     O 8237   0.483   2.770  14.559 -0.4761  0.4550  0.0164
  555TMC3     H 8238   0.241   2.965  14.781  2.8716  0.7442 -4.0009
  555TMC3    H1 8239   0.486   2.610  14.744  0.4345  0.3900  0.9316
  555TMC3    H2 8240   0.462   2.823  15.115  2.1057  1.9587 -0.4253
  555TMC3    C7 8241   0.470   2.577  15.006  0.0907 -0.4005 -0.8465
  555TMC3    C8 8242   0.306   3.012  15.022  0.4028  0.0287  0.4883
  555TMC3    O1 8243   0.422   2.582  15.117  0.3513  0.3618 -0.3759
  555TMC3    O2 8244   0.196   3.061  15.008 -0.8522  0.4664  0.1221
  556MPD2     C 8245   4.148   4.298  10.644 -0.0867  0.0600 -0.1756
  556MPD2    C1 8246   4.008   4.332  10.660  0.2017  0.5867 -0.4574
  556MPD2    C2 8247   3.920   4.309  10.551  0.1269 -0.3129 -0.1487
  556MPD2    C3 8248   3.968   4.274  10.433 -0.1029 -0.2826  0.6946
  556MPD2    C4 8249   4.101   4.247  10.411 -0.3699  0.0025 -0.0832
  556MPD2    C5 8250   4.187   4.256  10.516  0.5992  0.8265 -0.6294
  556MPD2     H 8251   3.816   4.337  10.555  0.2470 -0.0323  0.9790
  556MPD2    H1 8252   4.144   4.211  10.318  0.0834 -0.7219  0.4080
  556MPD2    H2 8253   4.212   4.291  10.731 -0.9309  0.1257  0.4557
  556MPD2    H3 8254   4.287   4.220  10.495  0.6607  2.2083 -2.6317
  556MPD2     N 8255   3.874   4.271  10.327  0.0327  0.4592 -0.1393
  556MPD2    H5 8256   3.776   4.269  10.356  0.7470  1.8430  2.3636
  556MPD2    N1 8257   3.949   4.378  10.781 -0.0266  0.1295 -0.5477
  556MPD2    H7 8258   3.855   4.416  10.776 -0.0738 -0.2702 -2.5139
  557TMC3    C1 8259   3.789   4.238  10.115 -0.4268 -0.0942 -0.2181
  557TMC3    C2 8260   3.799   4.264   9.977  0.0819  0.1949  0.6585
  557TMC3    C3 8261   3.722   4.195   9.889 -0.8215 -0.1107 -0.3429
  557TMC3    C4 8262   3.693   4.150  10.165  0.3282 -0.6112 -0.0413
  557TMC3    C5 8263   3.623   4.091  10.068  0.7406 -0.1699 -0.0088
  557TMC3    C6 8264   3.628   4.103   9.935 -0.0272  0.0309 -0.6304
  557TMC3     C 8265   3.911   4.261  10.193 -0.6052  0.6434 -0.5330
  557TMC3     O 8266   4.017   4.281  10.131 -0.2128 -0.1165 -0.1001
  557TMC3     H 8267   3.873   4.339   9.949 -0.6302  0.4979 -0.4109
  557TMC3    H1 8268   3.686   4.124  10.270 -0.8534  1.6827  0.4477
  557TMC3    H2 8269   3.560   4.051   9.867  0.7837  0.3485 -1.6881
  557TMC3    C7 8270   3.527   3.994  10.118 -0.6699 -0.3807  0.7258
  557TMC3    C8 8271   3.771   4.188   9.752  0.3827  0.1184  0.2295
  557TMC3    O1 8272   3.475   4.018  10.221 -0.1453  1.0138 -0.1579
  557TMC3    O2 8273   3.881   4.243   9.743 -0.1474 -0.2935 -0.5524
  558TMC3    C1 8274   1.042   2.463  10.251  0.3429 -0.1546  0.4909
  558TMC3    C2 8275   0.967   2.369  10.316 -0.2523 -0.6407  0.2201
  558TMC3    C3 8276   0.846   2.332  10.255  0.3941  0.7287  0.2147
  558TMC3    C4 8277   1.006   2.509  10.125 -0.6573  0.4217  0.3421
  558TMC3    C5 8278   0.879   2.471  10.080  0.2832 -0.2894  0.2749
  558TMC3    C6 8279   0.799   2.377  10.140 -0.2014 -0.1647  0.5490
  558TMC3     C 8280   1.182   2.481  10.277 -0.3396  0.1180 -0.1756
  558TMC3     O 8281   1.251   2.539  10.191  0.5498  0.1759  0.5991
  558TMC3     H 8282   0.988   2.333  10.416  0.6284 -1.7611 -0.3671
  558TMC3    H1 8283   1.066   2.586  10.078  0.2731 -0.7505 -0.3717
  558TMC3    H2 8284   0.701   2.338  10.113  0.1109 -1.0355  0.6675
  558TMC3    C7 8285   0.851   2.514   9.943 -0.8593 -0.1406  0.2586
  558TMC3    C8 8286   0.751   2.262  10.342 -0.1192 -0.3424  0.0651
  558TMC3    O1 8287   0.954   2.551   9.887 -0.4888 -0.0651  0.0199
  558TMC3    O2 8288   0.636   2.296  10.333 -0.5240 -0.1496  0.2879
  559MPD2     C 8289   1.225   2.788  10.435  0.7008 -0.5394  0.1778
  559MPD2    C1 8290   1.165   2.717  10.535  0.3710  0.3657  0.5123
  559MPD2    C2 8291   1.238   2.699  10.650 -0.2483 -0.3299  0.3404
  559MPD2    C3 8292   1.370   2.738  10.663 -0.2746 -0.3391 -0.7426
  559MPD2    C4 8293   1.433   2.801  10.565  0.3398 -0.8850  0.3042
  559MPD2    C5 8294   1.360   2.822  10.451 -0.1771  0.2004  0.1491
  559MPD2     H 8295   1.192   2.657  10.739  0.6083 -2.6558 -0.3206
  559MPD2    H1 8296   1.534   2.840  10.562  0.2488 -0.8432 -2.1081
  559MPD2    H2 8297   1.163   2.813  10.350  3.3547  1.3188 -1.2439
  559MPD2    H3 8298   1.411   2.881  10.375 -1.5285 -0.2619 -1.1228
  559MPD2     N 8299   1.424   2.709  10.786 -0.5918  0.5289  0.1578
  559MPD2    H5 8300   1.356   2.666  10.848 -1.1937  0.9157 -0.2330
  559MPD2    N1 8301   1.025   2.692  10.529 -0.5581  0.2573  0.1450
  559MPD2    H7 8302   0.978   2.752  10.462 -0.1144 -0.4317 -0.7807
  560TMC3    C1 8303   1.575   2.696  10.976 -0.5937  0.5130 -0.4717
  560TMC3    C2 8304   1.516   2.575  11.008  0.1154 -0.3136  0.8162
  560TMC3    C3 8305   1.537   2.524  11.134 -0.5033  0.4438 -0.0664
  560TMC3    C4 8306   1.639   2.772  11.067  0.5045  0.3364  0.2619
  560TMC3    C5 8307   1.634   2.732  11.200  0.3464 -0.1041  0.3820
  560TMC3    C6 8308   1.583   2.605  11.232  0.2038  0.3042  0.0012
  560TMC3     C 8309   1.541   2.759  10.836 -0.6527  0.6679  0.5805
  560TMC3     O 8310   1.620   2.838  10.787  0.5732 -0.3295 -0.0496
  560TMC3     H 8311   1.482   2.505  10.932 -0.5133  0.7059  0.1575
  560TMC3    H1 8312   1.663   2.875  11.045  1.9284 -0.2724 -0.9699
  560TMC3    H2 8313   1.603   2.552  11.325  2.2631 -1.9196 -1.7094
  560TMC3    C7 8314   1.694   2.807  11.312  0.4002  0.2513  0.0887
  560TMC3    C8 8315   1.489   2.381  11.163 -0.5672  0.2157 -0.2120
  560TMC3    O1 8316   1.682   2.753  11.424  0.1488 -0.5774 -0.0156
  560TMC3    O2 8317   1.443   2.333  11.059 -0.1069  0.5767  0.6943
  561TMC3    C1 8318   3.752   1.698  11.525  0.1372  0.6105 -0.0730
  561TMC3    C2 8319   3.682   1.653  11.628  0.3424 -0.2630  0.1700
  561TMC3    C3 8320   3.614   1.755  11.712  1.1288 -0.1898  0.0296
  561TMC3    C4 8321   3.766   1.834  11.493 -0.4186  0.3636 -1.2369
  561TMC3    C5 8322   3.699   1.921  11.572  0.2803  1.0361  1.0832
  561TMC3    C6 8323   3.616   1.880  11.676  0.6704 -0.1790 -0.4823
  561TMC3     C 8324   3.833   1.599  11.454 -0.2940  0.0791  0.4631
  561TMC3     O 8325   3.799   1.485  11.467  0.2433  0.4155 -0.2144
  561TMC3     H 8326   3.669   1.551  11.662 -0.3795 -0.1655  0.1860
  561TMC3    H1 8327   3.795   1.866  11.394  0.4809 -0.7113 -1.3208
  561TMC3    H2 8328   3.580   1.958  11.742 -1.2225 -1.7419  0.3281
  561TMC3    C7 8329   3.700   2.068  11.550  1.0492  0.4645  0.3332
  561TMC3    C8 8330   3.590   1.714  11.847 -0.0513 -0.1511 -0.4531
  561TMC3    O1 8331   3.606   2.128  11.598 -0.3074 -0.0396  0.2644
  561TMC3    O2 8332   3.618   1.600  11.879 -0.3888  0.1898  0.6639
  562TMC3    C1 8333   0.691   3.333  16.163 -0.1871  0.5056  0.0158
  562TMC3    C2 8334   0.680   3.463  16.121 -0.1252  0.2776  0.1284
  562TMC3    C3 8335   0.663   3.485  15.984 -0.1821  0.2536  0.3049
  562TMC3    C4 8336   0.699   3.226  16.079  0.8644  0.1425 -0.0601
  562TMC3    C5 8337   0.681   3.254  15.944  0.0190 -0.2291 -0.2580
  562TMC3    C6 8338   0.659   3.380  15.893  0.1505  0.7666 -0.0213
  562TMC3     C 8339   0.680   3.308  16.303 -0.3233  0.2836 -0.1880
  562TMC3     O 8340   0.657   3.403  16.381  0.3201  0.0983  0.4265
  562TMC3     H 8341   0.707   3.545  16.187  0.5305 -0.2491  0.5101
  562TMC3    H1 8342   0.727   3.124  16.101 -1.4100 -0.5837 -0.5551
  562TMC3    H2 8343   0.648   3.407  15.788  0.9011 -1.7815 -0.7597
  562TMC3    C7 8344   0.700   3.143  15.858 -0.2433 -0.1875  0.2409
  562TMC3    C8 8345   0.702   3.616  15.933  0.6466  0.2892 -0.2474
  562TMC3    O1 8346   0.782   3.056  15.890 -0.0985 -0.1515 -0.1249
  562TMC3    O2 8347   0.775   3.692  16.001  0.4008  0.0815  0.5021
  563MPD2     C 8348   2.305   4.333  15.369  0.3003 -0.1624 -0.1020
  563MPD2    C1 8349   2.322   4.467  15.378 -0.0323  0.4464 -0.0268
  563MPD2    C2 8350   2.438   4.506  15.439  0.3530 -0.5005 -0.4355
  563MPD2    C3 8351   2.535   4.421  15.491 -0.0539  0.5412 -0.6522
  563MPD2    C4 8352   2.516   4.284  15.470  0.4866 -0.2920 -0.8876
  563MPD2    C5 8353   2.397   4.246  15.412 -0.5268 -0.4614  0.8637
  563MPD2     H 8354   2.449   4.611  15.465  0.6862 -0.5156 -0.5141
  563MPD2    H1 8355   2.579   4.213  15.523 -0.5515 -1.6700 -1.4892
  563MPD2    H2 8356   2.212   4.296  15.327  0.1562  0.2377 -0.1319
  563MPD2    H3 8357   2.384   4.139  15.400 -0.1584 -0.3422 -0.5921
  563MPD2     N 8358   2.653   4.473  15.548 -0.2526 -0.3685 -0.0100
  563MPD2    H5 8359   2.646   4.573  15.563  1.1892 -0.3498  0.5442
  563MPD2    N1 8360   2.209   4.557  15.366 -0.1598 -0.1020  0.4482
  563MPD2    H7 8361   2.116   4.519  15.349 -0.4488  0.3754  0.9568
  564TMC3    C1 8362   2.124   0.011  15.500 -0.1903  0.8492 -0.0401
  564TMC3    C2 8363   2.014   4.660  15.517 -0.1147  0.0108 -0.1750
  564TMC3    C3 8364   1.952   4.656  15.640  0.0527 -1.0915 -0.0464
  564TMC3    C4 8365   2.186   0.073  15.602 -0.5775  0.2364 -0.4259
  564TMC3    C5 8366   2.125   0.073  15.724  0.4071  0.1065 -0.2806
  564TMC3    C6 8367   2.000   0.010  15.741 -0.2596 -0.5405  0.1869
  564TMC3     C 8368   2.221   4.690  15.402 -0.0610 -0.9097  0.1503
  564TMC3     O 8369   2.316   0.041  15.384 -0.2620  0.6581  0.5637
  564TMC3     H 8370   1.978   4.607  15.430  0.8629  0.8288 -1.0727
  564TMC3    H1 8371   2.284   0.118  15.587  0.5670 -1.6793  1.1602
  564TMC3    H2 8372   1.964   4.715  15.842  2.7822 -1.3101  1.1307
  564TMC3    C7 8373   2.216   0.057  15.835 -0.1100 -0.1064 -0.0737
  564TMC3    C8 8374   1.910   4.531  15.681  0.9806 -0.0049  0.7905
  564TMC3    O1 8375   2.336   0.059  15.814  0.7809  0.3465  0.2131
  564TMC3    O2 8376   1.892   4.507  15.800  0.6375 -0.1218 -0.5546
  565TMC3    C1 8377   3.172   1.330  10.062 -0.2555  0.2850 -0.1854
  565TMC3    C2 8378   3.210   1.234  10.156  0.4773  0.8230 -0.6202
  565TMC3    C3 8379   3.150   1.113  10.135 -0.4592  0.9232 -0.5785
  565TMC3    C4 8380   3.087   1.308   9.956 -0.0533 -0.2856  0.1270
  565TMC3    C5 8381   3.028   1.188   9.948 -0.6431  0.5064 -0.6214
  565TMC3    C6 8382   3.060   1.086  10.030 -0.0959  0.1852 -0.4309
  565TMC3     C 8383   3.262   1.436  10.043 -0.0981  0.5558  0.1457
  565TMC3     O 8384   3.273   1.491   9.934  0.5246  0.6577  0.2839
  565TMC3     H 8385   3.275   1.251  10.241 -1.3768  0.4513  0.8937
  565TMC3    H1 8386   3.071   1.387   9.883 -1.3314 -0.6444  0.0234
  565TMC3    H2 8387   2.985   1.012  10.052 -1.7192  1.3725 -1.9629
  565TMC3    C7 8388   2.918   1.176   9.851  0.0786 -0.3784 -0.7380
  565TMC3    C8 8389   3.208   1.005  10.210  0.4054 -0.4169  0.1126
  565TMC3    O1 8390   2.862   1.274   9.805  0.0505  0.1277  0.3082
  565TMC3    O2 8391   3.293   1.038  10.294 -0.2145 -0.3457 -0.4974
  566MPD2     C 8392   4.458   2.145  13.824  1.0011  0.2208  0.0085
  566MPD2    C1 8393   4.442   2.277  13.831  0.8377  0.2426 -0.4150
  566MPD2    C2 8394   4.322   2.337  13.819 -0.3621  0.0734  0.2345
  566MPD2    C3 8395   4.213   2.262  13.781  0.2909 -0.0513 -0.0032
  566MPD2    C4 8396   4.220   2.128  13.791  0.0838  0.6571  0.6599
  566MPD2    C5 8397   4.340   2.073  13.814 -0.1353 -0.0465  0.1447
  566MPD2     H 8398   4.320   2.443  13.839 -2.8014  0.2528 -0.9921
  566MPD2    H1 8399   4.134   2.062  13.784  0.8503 -0.5654  2.5967
  566MPD2    H2 8400   4.548   2.085  13.833  1.5660  1.2996  1.5314
  566MPD2    H3 8401   4.339   1.964  13.812  0.6395 -0.0600  0.3860
  566MPD2     N 8402   4.085   2.317  13.764 -0.4163 -0.1745  0.5976
  566MPD2    H5 8403   4.010   2.261  13.803 -1.5378  0.4777 -0.6651
  566MPD2    N1 8404   4.561   2.344  13.853 -0.2668  0.3151  0.1161
  566MPD2    H7 8405   4.639   2.286  13.882 -0.4811 -0.1716 -0.3010
  567TMC3    C1 8406   4.706   2.535  13.869  0.7554 -0.1224  0.3363
  567TMC3    C2 8407   0.033   2.626  13.781 -0.3538  0.0813 -0.5368
  567TMC3    C3 8408   0.167   2.660  13.798 -0.1527  0.6490  0.2067
  567TMC3    C4 8409   0.056   2.488  13.976  0.1279  0.1058 -0.4815
  567TMC3    C5 8410   0.184   2.530  13.991  0.2144 -0.3935  0.0216
  567TMC3    C6 8411   0.243   2.620  13.905  0.0969  0.0191 -0.7720
  567TMC3     C 8412   4.573   2.482  13.837  0.3868 -0.1051  0.8862
  567TMC3     O 8413   4.496   2.566  13.791  0.2210 -0.3548 -0.2746
  567TMC3     H 8414   4.697   2.645  13.693  0.3332 -1.5122 -1.3595
  567TMC3    H1 8415   0.016   2.405  14.033  0.9223  1.0534  1.4366
  567TMC3    H2 8416   0.336   2.668  13.933  0.4223 -0.7951 -0.4623
  567TMC3    C7 8417   0.250   2.519  14.121 -0.1227  0.3700  0.0064
  567TMC3    C8 8418   0.211   2.781  13.716  0.4310  0.5263  0.3131
  567TMC3    O1 8419   0.373   2.522  14.125 -0.6833  0.0298  0.0039
  567TMC3    O2 8420   0.121   2.835  13.655 -0.2846 -0.2782  0.2415
  568MPD2     C 8421   2.770   3.331  16.324 -0.3270 -0.3376  0.4249
  568MPD2    C1 8422   2.684   3.356  16.428  0.0073  0.2187 -0.2520
  568MPD2    C2 8423   2.591   3.457  16.407  0.3308 -0.3181  0.7705
  568MPD2    C3 8424   2.581   3.525  16.289  0.5818  0.4178  0.3231
  568MPD2    C4 8425   2.669   3.496  16.187  0.4364  0.2577 -0.5913
  568MPD2    C5 8426   2.763   3.405  16.206 -0.8238 -0.7823 -0.0527
  568MPD2     H 8427   2.515   3.479  16.481 -0.5279  1.3416 -0.6166
  568MPD2    H1 8428   2.667   3.555  16.096 -1.8001 -1.0894 -1.4159
  568MPD2    H2 8429   2.829   3.240  16.328 -2.3032 -1.7075 -1.1841
  568MPD2    H3 8430   2.827   3.377  16.122 -0.2288  1.3128 -0.3101
  568MPD2     N 8431   2.472   3.618  16.260 -0.0587 -0.2848  0.1409
  568MPD2    H5 8432   2.418   3.654  16.338 -0.3922  0.6478 -0.5094
  568MPD2    N1 8433   2.686   3.269  16.539 -0.1691 -0.2748  0.0843
  568MPD2    H7 8434   2.745   3.188  16.521  0.3455  0.0719  0.2058
  569TMC3    C1 8435   2.361   3.796  16.143  0.8165  0.1206 -0.3480
  569TMC3    C2 8436   2.392   3.893  16.237 -0.7872 -0.2183  0.8315
  569TMC3    C3 8437   2.347   4.023  16.208 -0.0902  0.1806  0.1799
  569TMC3    C4 8438   2.303   3.832  16.026  0.1237 -0.2699 -0.0644
  569TMC3    C5 8439   2.263   3.960  16.004 -0.2611 -0.2542  0.2840
  569TMC3    C6 8440   2.288   4.062  16.091  0.1797  0.1971 -0.1076
  569TMC3     C 8441   2.437   3.672  16.138 -0.0820 -0.4417  0.4930
  569TMC3     O 8442   2.466   3.629  16.025 -0.1189 -0.7321 -0.5693
  569TMC3     H 8443   2.450   3.860  16.322 -3.2221 -0.1318  2.5171
  569TMC3    H1 8444   2.290   3.754  15.952 -1.1524 -0.8940  0.8281
  569TMC3    H2 8445   2.276   4.166  16.064 -0.3760  0.0231 -0.5239
  569TMC3    C7 8446   2.233   3.987  15.867 -0.0424 -0.4251 -0.5882
  569TMC3    C8 8447   2.385   4.139  16.291 -1.3062  0.3355  0.0358
  569TMC3    O1 8448   2.288   3.922  15.782  0.2959 -0.8938  0.3929
  569TMC3    O2 8449   2.343   4.251  16.265 -1.0993  0.2730 -0.1339
  570TMC3    C1 8450   1.622   2.185  16.099 -0.1593 -0.0256 -0.4684
  570TMC3    C2 8451   1.701   2.226  15.991 -0.5817 -0.3653 -0.5284
  570TMC3    C3 8452   1.729   2.364  15.982 -0.5796  1.4923 -0.0867
  570TMC3    C4 8453   1.549   2.266  16.183 -0.7423  0.4654  0.0177
  570TMC3    C5 8454   1.572   2.403  16.162  0.0440 -0.0855  0.0404
  570TMC3    C6 8455   1.663   2.455  16.068 -0.5822 -0.3673 -0.1467
  570TMC3     C 8456   1.586   2.046  16.104 -0.0320  0.7966 -0.2754
  570TMC3     O 8457   1.580   1.984  15.997  0.0810  0.0780  0.5046
  570TMC3     H 8458   1.753   2.150  15.934 -1.2210 -0.6389 -0.7416
  570TMC3    H1 8459   1.473   2.240  16.256 -0.4085  1.9722  0.8979
  570TMC3    H2 8460   1.685   2.561  16.065  0.5381 -0.6503 -1.6355
  570TMC3    C7 8461   1.491   2.491  16.241 -0.2267 -0.2981 -0.0731
  570TMC3    C8 8462   1.830   2.424  15.893 -0.0062 -0.0864  0.1220
  570TMC3    O1 8463   1.445   2.458  16.347  0.4744 -0.0757 -0.0327
  570TMC3    O2 8464   1.847   2.544  15.919  0.3453  0.0890  0.3528
  571MPD2     C 8465   4.103   4.383  16.980 -0.0130 -0.0655  0.9225
  571MPD2    C1 8466   4.057   4.275  17.053  0.0843  0.0678 -0.0323
  571MPD2    C2 8467   4.052   4.291  17.196  0.3136 -0.3785 -0.9808
  571MPD2    C3 8468   4.089   4.410  17.261  0.1544 -0.5133 -0.3179
  571MPD2    C4 8469   4.142   4.509  17.176  0.9337  1.0195 -0.2253
  571MPD2    C5 8470   4.144   4.494  17.048  0.4700 -0.4941 -0.2536
  571MPD2     H 8471   4.019   4.210  17.260  0.5382 -1.1281 -1.8380
  571MPD2    H1 8472   4.167   4.609  17.208 -0.3346  1.6374 -1.1715
  571MPD2    H2 8473   4.102   4.391  16.872  0.5889 -0.0824  0.9167
  571MPD2    H3 8474   4.179   4.578  16.988  0.2959 -0.7953 -0.7765
  571MPD2     N 8475   4.090   4.431  17.401  0.4996  0.4896 -1.1246
  571MPD2    H5 8476   4.136   4.511  17.443 -0.2616 -0.5392  1.6453
  571MPD2    N1 8477   4.037   4.154  16.974 -0.0011  0.1415 -0.5199
  571MPD2    H7 8478   4.039   4.164  16.873  0.4790 -1.6253 -0.6820
  572TMC3    C1 8479   4.050   4.397  17.628 -0.0150 -0.5349  0.4811
  572TMC3    C2 8480   4.050   4.310   0.033  0.2615  0.0047 -0.7113
  572TMC3    C3 8481   4.008   4.351   0.153  0.4313  0.4811 -0.9381
  572TMC3    C4 8482   4.031   4.534  17.642 -0.6994  0.1171  0.1992
  572TMC3    C5 8483   3.995   4.568   0.069  0.2313 -1.2300  0.1265
  572TMC3    C6 8484   3.978   4.484   0.179  0.1003  0.2038  0.1118
  572TMC3     C 8485   4.047   4.338  17.491 -0.6236 -0.1312  0.8153
  572TMC3     O 8486   3.983   4.237  17.478  0.1941  0.0429  0.2831
  572TMC3     H 8487   4.022   4.208   0.010 -0.8724  0.0006  0.6710
  572TMC3    H1 8488   4.013   4.603  17.560  0.9725 -0.3317 -0.5454
  572TMC3    H2 8489   3.929   4.517   0.270  1.5157 -1.0970  1.3490
  572TMC3    C7 8490   3.948   4.707   0.090 -0.0846 -0.1369  0.0175
  572TMC3    C8 8491   3.995   4.249   0.258  0.0876  0.2495  0.2003
  572TMC3    O1 8492   3.852   4.717   0.165  0.0852  0.2508  0.4469
  572TMC3    O2 8493   4.034   4.140   0.229 -0.1054 -0.3713  0.0396
  573MPD2     C 8494   0.799   4.424   0.557 -0.0290  0.0757 -0.3474
  573MPD2    C1 8495   0.714   4.537   0.554 -0.2633  0.3798  0.1644
  573MPD2    C2 8496   0.636   4.559   0.435 -0.1319  0.1205 -0.1093
  573MPD2    C3 8497   0.640   4.473   0.330  0.0241  0.1076 -0.2171
  573MPD2    C4 8498   0.714   4.352   0.341 -0.1226  0.9239 -0.4104
  573MPD2    C5 8499   0.798   4.338   0.449  0.2174  0.4176 -0.2268
  573MPD2     H 8500   0.578   4.649   0.419 -0.6942 -0.1694  0.3176
  573MPD2    H1 8501   0.726   4.279   0.261 -1.2127 -2.5135  2.5629
  573MPD2    H2 8502   0.885   4.405   0.620 -0.8440 -1.5919  0.2700
  573MPD2    H3 8503   0.868   4.256   0.448  1.2170  1.2777 -0.6178
  573MPD2     N 8504   0.555   4.506   0.219 -0.2016 -0.7535  0.5533
  573MPD2    H5 8505   0.508   4.596   0.217  1.0709 -0.1280 -1.0179
  573MPD2    N1 8506   0.718   4.620   0.667 -0.0525  0.2165  0.0810
  573MPD2    H7 8507   0.793   4.594   0.730  0.8388 -1.0166 -1.4823
  574TMC3    C1 8508   0.449   4.479   0.007  0.2584  0.0969  0.2508
  574TMC3    C2 8509   0.324   4.523   0.047 -0.4686 -0.6757 -0.1433
  574TMC3    C3 8510   0.251   4.604  17.659  0.5894 -0.4124  0.0307
  574TMC3    C4 8511   0.496   4.498  17.576 -0.2212  0.0353 -0.5101
  574TMC3    C5 8512   0.415   4.574  17.494 -0.5163 -0.7042  0.4551
  574TMC3    C6 8513   0.296   4.633  17.533 -0.3594  0.2312 -0.0691
  574TMC3     C 8514   0.550   4.428   0.103  0.0929  0.7926 -0.6925
  574TMC3     O 8515   0.628   4.341   0.060  0.2586 -0.1233 -0.1432
  574TMC3     H 8516   0.295   4.505   0.150  0.3983  4.7107  1.0033
  574TMC3    H1 8517   0.598   4.476  17.547 -0.8283  1.0474 -3.4794
  574TMC3    H2 8518   0.236   4.699  17.471 -0.3069 -0.2203 -0.6008
  574TMC3    C7 8519   0.487   4.621  17.376  0.6298 -0.1794  0.1203
  574TMC3    C8 8520   0.142   4.680   0.025  0.0736  0.7245 -0.3505
  574TMC3    O1 8521   0.561   4.553  17.314 -0.2397 -0.3853 -0.0019
  574TMC3    O2 8522   0.086   4.637   0.122 -0.0678  0.2066 -0.4421
  575TMC3    C1 8523   3.719   0.742  10.827 -0.6787 -0.2045 -0.0009
  575TMC3    C2 8524   3.701   0.620  10.887 -0.0664 -0.3495 -0.2739
  575TMC3    C3 8525   3.621   0.527  10.829 -0.0862 -0.4752  0.7368
  575TMC3    C4 8526   3.665   0.767  10.705  0.0391  0.0820  0.3301
  575TMC3    C5 8527   3.583   0.664  10.647 -0.3009  0.1336 -0.0512
  575TMC3    C6 8528   3.562   0.542  10.706  0.6810  0.2585 -0.1589
  575TMC3     C 8529   3.740   0.849  10.920 -0.4230  0.3607 -0.2437
  575TMC3     O 8530   3.700   0.816  11.032  0.0512 -0.0976 -0.1709
  575TMC3     H 8531   3.761   0.602  10.975  0.0134  1.0674 -0.0377
  575TMC3    H1 8532   3.688   0.858  10.653 -0.5490  0.0023 -0.0707
  575TMC3    H2 8533   3.502   0.464  10.662 -1.1330  2.3028 -1.2960
  575TMC3    C7 8534   3.490   0.711  10.546  0.4813 -0.3280 -0.2686
  575TMC3    C8 8535   3.589   0.401  10.897  0.8314  0.0964  0.2735
  575TMC3    O1 8536   3.498   0.831  10.529 -0.0248 -0.0925 -0.3728
  575TMC3    O2 8537   3.538   0.311  10.829 -0.3682  0.4087  0.1227
  576MPD2     C 8538   2.588   2.080  12.807  0.4880 -0.1906 -0.0130
  576MPD2    C1 8539   2.619   2.196  12.734  0.2756 -0.6997  0.3626
  576MPD2    C2 8540   2.571   2.320  12.774 -0.6321  0.4515 -0.1753
  576MPD2    C3 8541   2.484   2.340  12.876  0.0850 -0.0623  0.5883
  576MPD2    C4 8542   2.450   2.227  12.957 -0.1458 -0.8373  1.5260
  576MPD2    C5 8543   2.505   2.102  12.919 -0.5800  0.1329  0.1059
  576MPD2     H 8544   2.622   2.404  12.729  0.7402  1.0504  2.5133
  576MPD2    H1 8545   2.403   2.235  13.055 -0.1721 -0.1741  1.4599
  576MPD2    H2 8546   2.611   1.981  12.770  0.4467 -0.6076  1.0806
  576MPD2    H3 8547   2.468   2.016  12.973  0.8599 -0.3275  0.3676
  576MPD2     N 8548   2.441   2.476  12.911  0.2119  0.1207  0.7503
  576MPD2    H5 8549   2.475   2.547  12.847  0.1490  0.3525  0.9714
  576MPD2    N1 8550   2.715   2.195  12.633 -0.3886 -0.0212  0.3778
  576MPD2    H7 8551   2.732   2.281  12.583 -1.2388  0.1968  0.4720
  577TMC3    C1 8552   2.899   2.110  12.495  0.3004  0.8919 -0.6317
  577TMC3    C2 8553   3.018   2.053  12.510 -0.6680 -0.6152 -0.0498
  577TMC3    C3 8554   3.112   2.070  12.417 -0.3164  0.6482 -0.2932
  577TMC3    C4 8555   2.862   2.177  12.382  0.6175  0.3954  0.4238
  577TMC3    C5 8556   2.955   2.183  12.282 -0.3108  0.2393 -0.3826
  577TMC3    C6 8557   3.079   2.139  12.303 -0.0359  0.5705  0.2067
  577TMC3     C 8558   2.800   2.090  12.602  0.1079 -0.3900  0.9942
  577TMC3     O 8559   2.820   1.980  12.656  0.2579  0.7460 -0.2334
  577TMC3     H 8560   3.040   2.000  12.601  2.0271 -1.6078 -1.2823
  577TMC3    H1 8561   2.758   2.203  12.364 -0.0572 -1.7850  1.1731
  577TMC3    H2 8562   3.156   2.143  12.226  0.9835  3.5913  1.3754
  577TMC3    C7 8563   2.917   2.140  12.146  0.4655 -0.1032  0.7954
  577TMC3    C8 8564   3.215   1.961  12.406  0.1576 -0.4232  0.4321
  577TMC3    O1 8565   2.993   2.059  12.093  0.7381 -0.0980 -0.7691
  577TMC3    O2 8566   3.211   1.887  12.505  0.2621 -0.6389  0.0339
  578MPD2     C 8567   4.656   3.041   1.609 -0.5539 -0.0872 -0.0838
  578MPD2    C1 8568   4.718   2.996   1.487 -0.6822 -0.4313 -0.1713
  578MPD2    C2 8569   0.027   2.861   1.469  0.4670 -0.4742 -0.2171
  578MPD2    C3 8570   4.722   2.771   1.575  0.7148 -0.7228 -0.1207
  578MPD2    C4 8571   4.662   2.816   1.693  0.5466  0.1061  0.4763
  578MPD2    C5 8572   4.635   2.946   1.706 -0.3961  0.8834 -0.4565
  578MPD2     H 8573   0.063   2.829   1.372  0.7088 -0.3952 -0.1531
  578MPD2    H1 8574   4.627   2.744   1.766  0.2844  0.5306  0.7646
  578MPD2    H2 8575   4.629   3.144   1.629  2.8793  0.1795  3.2201
  578MPD2    H3 8576   4.575   2.982   1.789  1.5288  1.5252  0.6559
  578MPD2     N 8577   0.036   2.635   1.555  0.0858 -0.6791  0.5578
  578MPD2    H5 8578   0.063   2.617   1.459 -1.2001 -0.2781  0.1252
  578MPD2    N1 8579   0.036   3.092   1.397  0.0358 -0.2183  0.1397
  578MPD2    H7 8580   0.025   3.192   1.416 -0.2114 -0.5932  1.9685
  579TMC3    C1 8581   0.119   2.424   1.585 -0.5897  0.0787  0.1827
  579TMC3    C2 8582   0.244   2.426   1.633 -0.3322  1.2388  0.4300
  579TMC3    C3 8583   0.348   2.441   1.552 -0.9290  0.3228 -0.0809
  579TMC3    C4 8584   0.104   2.428   1.446  0.6054  0.2870  0.5604
  579TMC3    C5 8585   0.218   2.436   1.366 -0.1267 -0.2509  0.5776
  579TMC3    C6 8586   0.342   2.451   1.413  0.7333  0.9198  0.4010
  579TMC3     C 8587   0.046   2.531   1.648  0.4551  0.6582  0.3222
  579TMC3     O 8588   0.032   2.534   1.770 -0.8505 -0.1491  0.2773
  579TMC3     H 8589   0.266   2.437   1.739 -1.5211 -0.9996  0.9071
  579TMC3    H1 8590   0.005   2.418   1.404  0.3739 -0.1943  1.2271
  579TMC3    H2 8591   0.425   2.488   1.353  2.1483  1.0469  2.4252
  579TMC3    C7 8592   0.189   2.520   1.249  0.3415  0.2138 -0.0528
  579TMC3    C8 8593   0.438   2.543   1.608 -0.5470  1.0103  0.0094
  579TMC3    O1 8594   0.091   2.596   1.253  0.2496 -0.7224  0.1428
  579TMC3    O2 8595   0.383   2.637   1.663 -0.1661 -0.0058 -0.8069
  580TMC3    C1 8596   0.778   1.078  11.399  0.2830 -0.0043 -0.1168
  580TMC3    C2 8597   0.863   1.037  11.298 -0.5625 -0.2612 -0.4492
  580TMC3    C3 8598   0.875   0.905  11.269  0.8902  0.0003 -0.3393
  580TMC3    C4 8599   0.714   0.987  11.472  0.4033  0.3028 -0.1417
  580TMC3    C5 8600   0.743   0.857  11.450 -0.3267 -0.6992 -0.7678
  580TMC3    C6 8601   0.825   0.812  11.346  0.1273 -0.3573  0.0295
  580TMC3     C 8602   0.822   1.190  11.483  0.2870 -0.0319  0.2347
  580TMC3     O 8603   0.864   1.288  11.423 -0.3719  0.3688 -0.2976
  580TMC3     H 8604   0.912   1.108  11.232  1.5343 -2.8736 -1.6789
  580TMC3    H1 8605   0.625   1.014  11.526  2.0047  1.0991  2.0634
  580TMC3    H2 8606   0.839   0.706  11.327  1.5452 -0.0457 -0.6366
  580TMC3    C7 8607   0.776   0.793  11.579 -0.5970  0.1818  0.0828
  580TMC3    C8 8608   0.960   0.859  11.163  0.1148  0.2337 -0.1832
  580TMC3    O1 8609   0.762   0.863  11.676 -0.4998  0.0415  0.4487
  580TMC3    O2 8610   0.935   0.749  11.119 -0.6508 -0.2669  0.4344
  581MPD2     C 8611   3.878   0.929  14.605  0.2761 -0.4055 -0.0712
  581MPD2    C1 8612   3.825   1.027  14.691 -0.3517 -0.3098  0.2886
  581MPD2    C2 8613   3.733   1.110  14.635 -0.9058 -0.5517 -0.1301
  581MPD2    C3 8614   3.684   1.097  14.502  0.6769  0.2014  0.1230
  581MPD2    C4 8615   3.732   0.997  14.423 -0.6296 -0.1948  0.1036
  581MPD2    C5 8616   3.827   0.914  14.478  0.0830 -0.4856  0.8703
  581MPD2     H 8617   3.693   1.184  14.705 -0.6508  0.2782 -0.8602
  581MPD2    H1 8618   3.691   0.973  14.326 -0.8661  2.0041 -0.3402
  581MPD2    H2 8619   3.952   0.855  14.634  2.4658  1.9201  0.2525
  581MPD2    H3 8620   3.865   0.845  14.404  0.7016 -2.4615  3.0038
  581MPD2     N 8621   3.573   1.173  14.462  0.2501  0.2138  0.0063
  581MPD2    H5 8622   3.517   1.221  14.533 -0.2533  0.1279 -0.3308
  581MPD2    N1 8623   3.870   1.012  14.826 -0.7646 -0.4298  0.5585
  581MPD2    H7 8624   3.927   0.931  14.846 -1.6337 -1.1050  0.3037
  582TMC3    C1 8625   3.849   1.015  15.059 -0.4278 -0.0277  0.0659
  582TMC3    C2 8626   3.863   1.100  15.163 -0.0812 -0.4757  0.6840
  582TMC3    C3 8627   3.792   1.072  15.277 -0.2779  0.5149 -0.6348
  582TMC3    C4 8628   3.771   0.903  15.057  0.3886  0.6391 -0.2434
  582TMC3    C5 8629   3.712   0.868  15.171  0.8714 -0.3040 -0.3668
  582TMC3    C6 8630   3.724   0.955  15.279 -0.6591 -1.0185  0.6451
  582TMC3     C 8631   3.838   1.089  14.935 -0.3092 -0.8861  0.3494
  582TMC3     O 8632   3.776   1.194  14.937 -0.5493 -0.7529  0.0696
  582TMC3     H 8633   3.899   1.202  15.149 -0.3176 -0.6470 -1.1210
  582TMC3    H1 8634   3.786   0.839  14.971  0.9980  1.6823 -0.9131
  582TMC3    H2 8635   3.670   0.930  15.369 -0.9419 -1.6875  0.2929
  582TMC3    C7 8636   3.569   0.853  15.142 -0.3225  0.8574 -0.1684
  582TMC3    C8 8637   3.851   1.118  15.396  0.3698 -0.2627 -0.3946
  582TMC3    O1 8638   3.492   0.897  15.224 -0.3378  0.6075 -0.6460
  582TMC3    O2 8639   3.958   1.168  15.379  0.8936 -0.4161 -0.9134
  583MPD2     C 8640   3.363   2.894  16.662  0.3037 -0.2148 -0.2962
  583MPD2    C1 8641   3.409   3.009  16.594 -0.2580 -0.5110  0.5281
  583MPD2    C2 8642   3.446   3.114  16.672 -0.0824  0.2367  0.6542
  583MPD2    C3 8643   3.447   3.109  16.810  0.1011  0.0858 -0.7587
  583MPD2    C4 8644   3.405   2.997  16.874 -0.2117  0.1947  0.1332
  583MPD2    C5 8645   3.355   2.898  16.798 -0.1400 -0.1424  0.2819
  583MPD2     H 8646   3.483   3.210  16.638 -0.4976  0.4602  0.8286
  583MPD2    H1 8647   3.398   2.990  16.982 -1.3882  1.2819  0.1400
  583MPD2    H2 8648   3.329   2.808  16.605 -0.4979  0.0258 -0.1734
  583MPD2    H3 8649   3.304   2.821  16.855 -1.2397  0.0310 -0.4641
  583MPD2     N 8650   3.513   3.216  16.878 -0.2312 -0.5229  0.8810
  583MPD2    H5 8651   3.523   3.299  16.820 -0.2630 -0.8187  0.4536
  583MPD2    N1 8652   3.424   3.021  16.458 -0.6218 -0.2996 -0.3750
  583MPD2    H7 8653   3.448   3.115  16.427 -2.1147  0.1280 -0.2446
  584TMC3    C1 8654   3.603   3.340  17.048 -0.4025  0.5864  0.4495
  584TMC3    C2 8655   3.587   3.451  16.967  0.0638 -0.3888  0.2384
  584TMC3    C3 8656   3.580   3.572  17.026  0.1422 -0.2213  0.3873
  584TMC3    C4 8657   3.638   3.360  17.175 -1.2232  0.3674 -0.2238
  584TMC3    C5 8658   3.649   3.486  17.236  0.4110 -0.5698 -0.2971
  584TMC3    C6 8659   3.605   3.594  17.161  0.7512 -0.1240  0.1207
  584TMC3     C 8660   3.560   3.208  17.004  0.3501 -0.2589  0.1564
  584TMC3     O 8661   3.556   3.118  17.089  0.1336 -0.1300 -0.5852
  584TMC3     H 8662   3.580   3.439  16.860  1.3894 -0.4566  0.1601
  584TMC3    H1 8663   3.659   3.275  17.239 -4.1768 -0.3881 -0.2940
  584TMC3    H2 8664   3.598   3.690  17.212  0.3736  0.1673 -0.4781
  584TMC3    C7 8665   3.609   3.479  17.378  0.1111  0.3059  0.1048
  584TMC3    C8 8666   3.568   3.686  16.942 -0.0810 -0.5340 -0.0870
  584TMC3    O1 8667   3.568   3.373  17.419  0.4451  0.3065  0.2124
  584TMC3    O2 8668   3.540   3.657  16.826 -0.1842  0.0301 -0.1877
  585MPD2     C 8669   1.643   1.563   0.158 -0.1424 -0.2699  0.3104
  585MPD2    C1 8670   1.765   1.552   0.232 -0.1880  0.0661 -0.5535
  585MPD2    C2 8671   1.875   1.481   0.170 -0.0484 -0.5183  0.1138
  585MPD2    C3 8672   1.870   1.450   0.040 -0.2022  0.0848 -0.0428
  585MPD2    C4 8673   1.757   1.480  17.661 -0.6427  0.1927  0.6505
  585MPD2    C5 8674   1.646   1.529   0.026  0.3972 -0.0477  0.1753
  585MPD2     H 8675   1.956   1.449   0.234  0.0584 -1.6049 -0.5708
  585MPD2    H1 8676   1.736   1.456  17.557  3.4447  0.8278 -0.3355
  585MPD2    H2 8677   1.550   1.587   0.210 -0.1485  0.5210 -0.0691
  585MPD2    H3 8678   1.558   1.536  17.659  0.2720  1.8106  0.5544
  585MPD2     N 8679   1.980   1.393  17.673 -0.2156  0.2165  0.4033
  585MPD2    H5 8680   1.976   1.365  17.575  0.7315 -1.4315  0.8351
  585MPD2    N1 8681   1.763   1.590   0.369 -0.3890 -1.0254  0.3152
  585MPD2    H7 8682   1.676   1.621   0.411  2.3090  1.8163  3.8507
  586TMC3    C1 8683   2.200   1.296  17.636 -0.4973  0.1043  0.2467
  586TMC3    C2 8684   2.326   1.309  17.679 -0.2031  0.3039  0.0968
  586TMC3    C3 8685   2.427   1.248  17.606  0.0184  0.2448  0.6039
  586TMC3    C4 8686   2.167   1.206  17.543  0.3069 -0.5036  0.4399
  586TMC3    C5 8687   2.263   1.140  17.470  0.5336  1.1711 -0.2297
  586TMC3    C6 8688   2.399   1.160  17.504 -1.0602  0.5634  0.3565
  586TMC3     C 8689   2.107   1.366   0.027 -0.4654  0.1242 -0.0812
  586TMC3     O 8690   2.153   1.410   0.134  0.3171 -0.3711  0.6928
  586TMC3     H 8691   2.356   1.360   0.073  3.1712 -2.1917  0.3880
  586TMC3    H1 8692   2.063   1.175  17.534 -0.2910  1.2184  1.5041
  586TMC3    H2 8693   2.473   1.110  17.443 -0.7663  2.2851 -0.6967
  586TMC3    C7 8694   2.226   0.996  17.439 -0.7085 -0.2627 -0.3543
  586TMC3    C8 8695   2.558   1.210  17.676  0.2191  0.2849  0.0925
  586TMC3    O1 8696   2.119   0.974  17.382  0.3690 -0.2445  0.4025
  586TMC3    O2 8697   2.615   1.117  17.620  0.4841  0.3288 -0.0270
  587TMC3    C1 8698   0.215   0.566  15.963  0.1160 -0.1896 -0.1096
  587TMC3    C2 8699   0.191   0.653  16.069 -0.3104  0.0607 -0.3730
  587TMC3    C3 8700   0.291   0.661  16.161  0.0271  0.5573 -0.2438
  587TMC3    C4 8701   0.333   0.495  15.950  0.4567  0.3989  0.1954
  587TMC3    C5 8702   0.432   0.514  16.047  0.0432  0.4512 -0.1540
  587TMC3    C6 8703   0.412   0.601  16.148  0.4556 -0.1783 -0.3238
  587TMC3     C 8704   0.122   0.559  15.856 -0.7119  0.4407 -0.0262
  587TMC3     O 8705   0.158   0.472  15.780  0.2858  0.2864 -0.2205
  587TMC3     H 8706   0.110   0.724  16.069 -0.4207 -0.0642 -0.8499
  587TMC3    H1 8707   0.356   0.434  15.863  2.2777 -1.6351  2.0863
  587TMC3    H2 8708   0.482   0.594  16.230 -1.1737  3.7028  1.4118
  587TMC3    C7 8709   0.553   0.432  16.040  0.0422  0.8820 -0.3890
  587TMC3    C8 8710   0.276   0.745  16.278  0.3940 -0.7536  0.2691
  587TMC3    O1 8711   0.656   0.481  16.077  0.1834  0.3328 -0.3273
  587TMC3    O2 8712   0.379   0.771  16.333  0.0843  0.3345  0.1431
  588TMC3    C1 8713   2.664   3.463   9.573  0.0220 -0.0678  0.5184
  588TMC3    C2 8714   2.649   3.329   9.580 -0.7539 -0.1987 -0.9193
  588TMC3    C3 8715   2.734   3.260   9.668 -0.1277 -0.3222 -0.2657
  588TMC3    C4 8716   2.745   3.521   9.665  0.0342 -1.0474 -0.3785
  588TMC3    C5 8717   2.821   3.453   9.753  0.7083 -0.2074  0.1744
  588TMC3    C6 8718   2.820   3.318   9.757 -0.4884 -0.1312  0.0109
  588TMC3     C 8719   2.563   3.551   9.513 -0.4887  0.2862  0.0211
  588TMC3     O 8720   2.452   3.501   9.499  0.4953  0.5122 -0.9471
  588TMC3     H 8721   2.583   3.283   9.507 -0.7252  0.3582 -1.2894
  588TMC3    H1 8722   2.769   3.626   9.658 -0.4376 -0.8264  1.3534
  588TMC3    H2 8723   2.872   3.276   9.843 -1.6370  2.4758  1.9725
  588TMC3    C7 8724   2.850   3.522   9.883 -0.1191  0.5896  0.0023
  588TMC3    C8 8725   2.706   3.113   9.670  0.0529  0.7330  0.1976
  588TMC3    O1 8726   2.949   3.491   9.949 -0.1282 -0.0540  0.0597
  588TMC3    O2 8727   2.616   3.080   9.593  0.5240 -0.1029 -0.1155
  589TMC3    C1 8728   0.959   1.227   1.435 -0.2394 -0.5544  0.1733
  589TMC3    C2 8729   1.007   1.182   1.554 -1.0654 -0.2469  0.8971
  589TMC3    C3 8730   1.126   1.110   1.546  0.0655 -0.1419  0.3112
  589TMC3    C4 8731   1.028   1.206   1.316 -0.3390  0.0824  0.0242
  589TMC3    C5 8732   1.148   1.140   1.304 -0.1556  0.8452 -0.8567
  589TMC3    C6 8733   1.193   1.087   1.421  0.6433  0.0615 -0.5126
  589TMC3     C 8734   0.841   1.312   1.424  0.2647 -0.3055  0.1329
  589TMC3     O 8735   0.771   1.311   1.328 -0.3109  0.0143 -0.2347
  589TMC3     H 8736   0.956   1.210   1.645 -1.6076 -0.1780  0.5715
  589TMC3    H1 8737   0.989   1.244   1.222  0.6417 -0.8590 -0.7620
  589TMC3    H2 8738   1.280   1.023   1.419  0.5582 -0.0290 -1.4876
  589TMC3    C7 8739   1.202   1.081   1.181  0.4435 -0.6841  0.0274
  589TMC3    C8 8740   1.186   1.059   1.670  0.8811 -0.4579 -0.1074
  589TMC3    O1 8741   1.302   1.016   1.206 -0.0714 -0.0923  0.2396
  589TMC3    O2 8742   1.104   1.068   1.764 -0.3332 -0.3237 -0.3584
  590MPD2     C 8743   1.225   3.916  16.707  0.0493 -0.2327  0.3934
  590MPD2    C1 8744   1.142   3.983  16.620  0.5656  0.2901  0.6562
  590MPD2    C2 8745   1.194   4.087  16.544  0.1765  0.6535 -0.3863
  590MPD2    C3 8746   1.327   4.115  16.550 -0.1953 -0.0407  0.1580
  590MPD2    C4 8747   1.413   4.037  16.631 -0.6397  0.3789  0.1465
  590MPD2    C5 8748   1.362   3.934  16.700  0.0889  1.1041  0.2076
  590MPD2     H 8749   1.138   4.151  16.477  0.5235 -0.0042 -1.2957
  590MPD2    H1 8750   1.516   4.066  16.640 -0.2216 -0.9678 -0.2508
  590MPD2    H2 8751   1.183   3.836  16.767 -1.2133 -0.1693 -0.3989
  590MPD2    H3 8752   1.427   3.874  16.764 -0.4983  0.0782 -0.1523
  590MPD2     N 8753   1.378   4.219  16.470 -0.2241 -0.0394 -0.5302
  590MPD2    H5 8754   1.311   4.274  16.418  1.2192  1.8402 -0.4161
  590MPD2    N1 8755   1.010   3.934  16.607 -0.1897 -0.6355  0.1791
  590MPD2    H7 8756   0.977   3.865  16.673  0.5290 -1.0028  0.1524
  591TMC3    C1 8757   1.538   4.341  16.344 -0.3097  0.2759  1.0238
  591TMC3    C2 8758   1.611   4.311  16.239 -0.0508 -0.4163  0.2172
  591TMC3    C3 8759   1.607   4.393  16.131 -1.2405  1.2233  0.7649
  591TMC3    C4 8760   1.459   4.453  16.346  0.5868  0.6386  0.0554
  591TMC3    C5 8761   1.459   4.538  16.239  0.3004 -1.1110 -0.0552
  591TMC3    C6 8762   1.523   4.501  16.119 -0.6163 -0.3100  0.0068
  591TMC3     C 8763   1.512   4.236  16.438 -0.0098  0.3972  0.3181
  591TMC3     O 8764   1.597   4.152  16.450 -0.0602  0.4569  0.1119
  591TMC3     H 8765   1.657   4.212  16.234  1.4295  0.2677  0.1729
  591TMC3    H1 8766   1.385   4.468  16.424 -0.6750  0.9081 -1.1871
  591TMC3    H2 8767   1.508   4.568  16.035  2.3997  2.0714  1.3430
  591TMC3    C7 8768   1.343   4.630  16.223  0.1710 -0.0250  0.6551
  591TMC3    C8 8769   1.642   4.325  16.009 -0.8619 -0.7165  0.3772
  591TMC3    O1 8770   1.255   4.614  16.301 -0.4961  0.2034 -0.2441
  591TMC3    O2 8771   1.743   4.261  16.007 -1.0335  0.7458 -0.2488
  592MPD2     C 8772   2.213   1.146  11.133  0.2507  0.9456  0.1650
  592MPD2    C1 8773   2.236   1.173  11.263  0.2071 -0.4416  0.0260
  592MPD2    C2 8774   2.213   1.076  11.362  0.0046  0.3161  0.1108
  592MPD2    C3 8775   2.161   0.955  11.320  0.3707 -0.5168  0.8867
  592MPD2    C4 8776   2.139   0.930  11.191 -0.0096  0.3770 -0.0703
  592MPD2    C5 8777   2.171   1.022  11.096  0.2481 -0.2521 -0.6492
  592MPD2     H 8778   2.237   1.092  11.466 -2.2912 -1.9896  0.9823
  592MPD2    H1 8779   2.113   0.834  11.149 -0.4153 -0.1546  1.3960
  592MPD2    H2 8780   2.235   1.224  11.061  2.3683 -0.8756 -1.1660
  592MPD2    H3 8781   2.163   1.001  10.990 -2.2030  0.1141 -0.5374
  592MPD2     N 8782   2.106   0.868  11.414 -0.7983  0.2122  0.3268
  592MPD2    H5 8783   2.119   0.896  11.510  1.3526  1.5129 -0.3514
  592MPD2    N1 8784   2.258   1.308  11.295 -0.2634 -0.1250  0.5922
  592MPD2    H7 8785   2.269   1.373  11.218  0.5526 -1.8464 -0.7510
  593TMC3    C1 8786   2.290   1.497  11.450  0.6549  0.6768  0.3973
  593TMC3    C2 8787   2.273   1.551  11.575 -0.7003  0.0376 -0.6005
  593TMC3    C3 8788   2.301   1.685  11.593 -0.1382  0.5329 -0.4158
  593TMC3    C4 8789   2.315   1.579  11.346  0.3211 -1.1513 -0.5421
  593TMC3    C5 8790   2.340   1.713  11.368  0.6167 -0.4334 -0.6605
  593TMC3    C6 8791   2.328   1.774  11.494 -0.0613 -0.2650 -0.2081
  593TMC3     C 8792   2.254   1.358  11.424  0.4485  0.5606  0.2137
  593TMC3     O 8793   2.205   1.308  11.523 -0.6093  0.1378 -0.3388
  593TMC3     H 8794   2.251   1.485  11.659  2.0598 -0.0901  0.0135
  593TMC3    H1 8795   2.336   1.539  11.247  0.2296 -0.6666 -0.7577
  593TMC3    H2 8796   2.368   1.873  11.511  2.6273 -1.5888  1.1715
  593TMC3    C7 8797   2.387   1.793  11.255  0.8209 -0.5412  0.6745
  593TMC3    C8 8798   2.363   1.708  11.723 -0.2941  0.7196 -0.0145
  593TMC3    O1 8799   2.420   1.907  11.290  0.1355  0.3017 -0.4477
  593TMC3    O2 8800   2.421   1.616  11.781 -0.0153  0.7297 -0.1973
  594MPD2     C 8801   0.263   0.067  13.868  0.2179  0.3788 -0.4331
  594MPD2    C1 8802   0.274   0.062  14.007 -0.0011 -1.2729 -0.6476
  594MPD2    C2 8803   0.383   0.117  14.067  0.6778  0.3729  0.5141
  594MPD2    C3 8804   0.478   0.187  13.992  0.2352 -0.2443 -0.3850
  594MPD2    C4 8805   0.455   0.212  13.862  0.2689 -0.4803 -0.3776
  594MPD2    C5 8806   0.351   0.142  13.799 -0.9001  0.3664 -0.1725
  594MPD2     H 8807   0.410   0.096  14.169 -2.9036 -1.5840  1.0621
  594MPD2    H1 8808   0.505   0.287  13.801 -0.1194  0.0536 -0.0387
  594MPD2    H2 8809   0.195   0.001  13.815 -0.7359  1.5120 -0.6271
  594MPD2    H3 8810   0.347   0.148  13.690 -1.1259  3.5779  0.0118
  594MPD2     N 8811   0.583   0.243  14.066  0.1014 -0.2810  0.7879
  594MPD2    H5 8812   0.591   0.211  14.162  1.1136 -0.1535  0.7454
  594MPD2    N1 8813   0.201   4.698  14.087 -0.1434  0.2684 -0.2085
  594MPD2    H7 8814   0.228   4.686  14.184  0.1812 -1.3722 -0.4972
  595TMC3    C1 8815   0.961   0.484  14.149  0.4946 -0.3320 -0.7278
  595TMC3    C2 8816   0.865   0.441  14.070 -0.0182  0.1859  0.3353
  595TMC3    C3 8817   0.744   0.404  14.124  0.3297 -0.0341 -0.9085
  595TMC3    C4 8818   0.942   0.488  14.283  0.1899 -0.3407 -0.6994
  595TMC3    C5 8819   0.819   0.465  14.339 -0.4582 -0.1223 -0.2765
  595TMC3    C6 8820   0.718   0.404  14.258  0.3205 -0.3471  0.0685
  595TMC3     C 8821   1.098   0.498  14.102  0.4536 -0.4226  0.3096
  595TMC3     O 8822   1.159   0.586  14.156  0.3917  0.2567  0.0610
  595TMC3     H 8823   0.890   0.436  13.965 -0.5165 -0.3129  0.2413
  595TMC3    H1 8824   1.028   0.511  14.345  1.3369  1.9577 -3.1587
  595TMC3    H2 8825   0.615   0.394  14.290  0.1594 -0.6686 -0.5673
  595TMC3    C7 8826   0.784   0.516  14.466 -0.0672 -0.7248  0.0581
  595TMC3    C8 8827   0.656   0.348  14.024 -0.1558 -0.2412  0.0568
  595TMC3    O1 8828   0.666   0.498  14.495 -0.1254 -0.0322  0.0948
  595TMC3    O2 8829   0.642   0.410  13.917 -0.0196 -0.3765 -0.1195
  596MPD2     C 8830   4.029   2.463  16.377  0.3101  0.1043 -0.1008
  596MPD2    C1 8831   4.063   2.598  16.338 -0.0414 -0.2394  0.3368
  596MPD2    C2 8832   4.091   2.621  16.206 -0.0426  0.0916 -0.3139
  596MPD2    C3 8833   4.086   2.523  16.109  0.1654  0.3402 -0.2054
  596MPD2    C4 8834   4.080   2.394  16.154  0.6777  0.7116  0.0957
  596MPD2    C5 8835   4.047   2.361  16.284  0.3142 -0.0274  0.0179
  596MPD2     H 8836   4.108   2.726  16.181  2.4030 -0.3396 -0.4343
  596MPD2    H1 8837   4.081   2.316  16.078  0.8474 -0.8982  1.7296
  596MPD2    H2 8838   4.000   2.437  16.478 -1.4318 -0.6566 -0.8026
  596MPD2    H3 8839   4.026   2.257  16.303  0.4307 -0.2785 -1.2545
  596MPD2     N 8840   4.111   2.558  15.979  0.4160 -0.3359 -0.2978
  596MPD2    H5 8841   4.121   2.479  15.916 -0.4594 -0.7142  0.0362
  596MPD2    N1 8842   4.065   2.705  16.430 -0.0796  0.0251 -0.6283
  596MPD2    H7 8843   4.089   2.800  16.404 -0.0149  0.0033 -0.6482
  597TMC3    C1 8844   4.132   2.811  16.634  0.1506  0.0763  0.5627
  597TMC3    C2 8845   4.241   2.869  16.564 -0.6257 -0.8827 -0.3699
  597TMC3    C3 8846   4.315   2.967  16.625 -1.3220 -0.1990  0.0549
  597TMC3    C4 8847   4.098   2.847  16.761  0.4931  0.4673 -0.4086
  597TMC3    C5 8848   4.165   2.955  16.812  0.3020  0.1286 -0.1486
  597TMC3    C6 8849   4.267   3.013  16.743 -0.2328 -0.1293 -0.6953
  597TMC3     C 8850   4.057   2.699  16.568 -0.6302  0.0090 -0.2133
  597TMC3     O 8851   4.004   2.616  16.642 -0.6793 -0.2739  0.3831
  597TMC3     H 8852   4.268   2.834  16.465  0.2821  1.0949 -0.8301
  597TMC3    H1 8853   4.014   2.800  16.811  1.8072 -2.4381 -0.9549
  597TMC3    H2 8854   4.315   3.105  16.776 -0.4666 -1.0870  2.3511
  597TMC3    C7 8855   4.105   3.017  16.932 -0.3836 -0.0808 -0.6067
  597TMC3    C8 8856   4.394   3.053  16.543  0.0889  0.1608  0.1727
  597TMC3    O1 8857   3.990   2.984  16.948  0.0162  0.4987 -0.6163
  597TMC3    O2 8858   4.377   3.172  16.557  0.2947  0.8842 -0.0244
  598TMC3    C1 8859   2.607   4.555  15.047 -0.4068 -0.3478  0.7978
  598TMC3    C2 8860   2.500   4.476  15.081 -0.4621  0.4529  0.1382
  598TMC3    C3 8861   2.388   4.488  14.991 -0.0668 -0.8810  0.6118
  598TMC3    C4 8862   2.603   4.641  14.942 -0.1766 -0.3136 -0.4917
  598TMC3    C5 8863   2.496   4.647  14.860  0.2246 -0.0281  1.1376
  598TMC3    C6 8864   2.388   4.567  14.882 -0.2126 -0.3510  0.0788
  598TMC3     C 8865   2.730   4.562  15.119  0.1168  0.0904  0.1375
  598TMC3     O 8866   2.810   4.655  15.107 -0.0840  0.2517  0.2006
  598TMC3     H 8867   2.498   4.422  15.174  0.5177 -0.8768 -0.6076
  598TMC3    H1 8868   2.703   4.676  14.919 -0.2310 -0.4990 -1.0237
  598TMC3    H2 8869   2.302   4.580  14.818 -0.5900 -0.0788  0.6383
  598TMC3    C7 8870   2.494   0.001  14.736  0.5276  0.1041 -0.4643
  598TMC3    C8 8871   2.284   4.383  14.989 -0.3222  0.4071 -0.6410
  598TMC3    O1 8872   2.422   4.684  14.648 -0.3433 -0.1473  0.2762
  598TMC3    O2 8873   2.183   4.418  14.930  0.2359  0.1437 -0.2565
  599MPD2     C 8874   2.720   2.465  15.820 -0.4890  0.4847 -0.3984
  599MPD2    C1 8875   2.680   2.336  15.795 -0.5582 -0.2551  0.5096
  599MPD2    C2 8876   2.554   2.301  15.834 -0.4214 -0.0166 -0.1318
  599MPD2    C3 8877   2.468   2.392  15.898  0.5795  0.3754  0.6933
  599MPD2    C4 8878   2.511   2.521  15.917  0.3881 -0.5271 -0.3356
  599MPD2    C5 8879   2.632   2.557  15.879  0.2297  0.2269 -0.2938
  599MPD2     H 8880   2.531   2.195  15.828 -1.0172  0.0173  1.5387
  599MPD2    H1 8881   2.450   2.600  15.959 -0.4232 -1.1878 -0.2685
  599MPD2    H2 8882   2.820   2.491  15.786  0.3565  0.6081  2.1759
  599MPD2    H3 8883   2.657   2.662  15.890  0.8966  0.0087  0.2994
  599MPD2     N 8884   2.342   2.357  15.956 -0.1524  0.1108  0.8352
  599MPD2    H5 8885   2.285   2.432  15.995  1.5107  0.3044  2.8776
  599MPD2    N1 8886   2.774   2.246  15.744  0.5821  0.3799  0.4574
  599MPD2    H7 8887   2.863   2.292  15.733  1.3009 -0.6046  2.1329
  600TMC3    C1 8888   2.163   2.249  16.048  0.4025 -0.5652 -0.2647
  600TMC3    C2 8889   2.103   2.127  16.062  0.1772  0.1801  0.1500
  600TMC3    C3 8890   2.006   2.112  16.155 -0.4381 -0.4121 -0.2287
  600TMC3    C4 8891   2.114   2.355  16.128  0.4419  0.4754 -0.2348
  600TMC3    C5 8892   2.015   2.334  16.215 -0.1124  0.0840 -0.8869
  600TMC3    C6 8893   1.963   2.210  16.232 -0.5207  0.2454 -0.5689
  600TMC3     C 8894   2.283   2.237  15.969  0.5564 -0.0815  0.0919
  600TMC3     O 8895   2.322   2.128  15.936  0.6714 -0.4416  0.5563
  600TMC3     H 8896   2.136   2.036  16.013  2.2171 -0.0591  1.9163
  600TMC3    H1 8897   2.155   2.453  16.104 -0.3416  0.7471 -0.4848
  600TMC3    H2 8898   1.886   2.188  16.305 -2.6434  1.5353 -2.4223
  600TMC3    C7 8899   1.950   2.441  16.286  0.1806  0.1087 -0.3688
  600TMC3    C8 8900   1.961   1.981  16.186  0.1199  0.5006 -0.2126
  600TMC3    O1 8901   1.838   2.420  16.323  0.2339  0.3376 -0.3291
  600TMC3    O2 8902   1.939   1.950  16.303 -0.2171 -0.0825  0.4285
  601MPD2     C 8903   3.976   0.491   0.003 -0.5042 -0.7137 -0.0874
  601MPD2    C1 8904   3.866   0.405   0.012 -0.6629 -0.1392  0.4967
  601MPD2    C2 8905   3.894   0.268   0.035  0.0805  0.0103  0.0769
  601MPD2    C3 8906   4.018   0.218   0.041 -0.1800  0.1990 -0.6943
  601MPD2    C4 8907   4.121   0.304   0.024  0.4656  0.4991 -0.3614
  601MPD2    C5 8908   4.104   0.436   0.007  0.1018  0.3053  0.5843
  601MPD2     H 8909   3.809   0.200   0.035  0.2266 -0.1688  4.8831
  601MPD2    H1 8910   4.219   0.259   0.011 -0.8570 -1.8107 -2.2601
  601MPD2    H2 8911   3.964   0.598  17.686 -0.6774 -0.6678  0.4248
  601MPD2    H3 8912   4.184   0.504  17.677  0.1473  0.8001  2.0037
  601MPD2     N 8913   4.043   0.079   0.046 -0.3171  0.3036  0.0357
  601MPD2    H5 8914   4.132   0.040   0.017 -0.4113 -0.2685  0.5106
  601MPD2    N1 8915   3.727   0.439   0.017  0.1856 -0.2149 -0.8592
  601MPD2    H7 8916   3.661   0.364   0.003 -1.2827  0.6475  1.3960
  602TMC3    C1 8917   3.531   0.563  17.680  0.1175 -0.4832  0.0286
  602TMC3    C2 8918   3.454   0.664   0.029 -0.3504  0.1279  0.6486
  602TMC3    C3 8919   3.327   0.663  17.671  0.2252  0.5151  0.3912
  602TMC3    C4 8920   3.483   0.461  17.600  0.4817  0.1211 -0.7833
  602TMC3    C5 8921   3.352   0.460  17.571  0.7004  0.4631 -0.2981
  602TMC3    C6 8922   3.269   0.567  17.588 -0.3324 -0.2109 -0.0101
  602TMC3     C 8923   3.675   0.565   0.004 -0.1182 -0.6130  0.2997
  602TMC3     O 8924   3.722   0.680   0.018  0.2382  0.4061 -0.5823
  602TMC3     H 8925   3.503   0.747   0.079 -0.6339  0.6338  0.0934
  602TMC3    H1 8926   3.553   0.403  17.541  1.7864  1.1411 -0.2393
  602TMC3    H2 8927   3.166   0.565  17.554 -0.5376  0.9792  0.5524
  602TMC3    C7 8928   3.318   0.383  17.442 -0.8800  0.2244 -0.2765
  602TMC3    C8 8929   3.252   0.784  17.690 -0.0661 -0.1435 -0.1966
  602TMC3    O1 8930   3.383   0.286  17.416  0.3097  0.1347 -0.1480
  602TMC3    O2 8931   3.266   0.867   0.083 -0.0859 -0.4743 -0.9067
  603TMC3    C1 8932   3.195   0.491  10.758 -0.4886 -0.3310  0.3407
  603TMC3    C2 8933   3.259   0.490  10.879 -0.1447  0.6934  0.8998
  603TMC3    C3 8934   3.297   0.602  10.940 -0.6596 -0.0986  0.4052
  603TMC3    C4 8935   3.163   0.606  10.694 -0.0139 -0.2135  0.2340
  603TMC3    C5 8936   3.209   0.725  10.755  0.2259  0.0110 -1.2343
  603TMC3    C6 8937   3.285   0.722  10.877  0.6760  0.7100  0.1350
  603TMC3     C 8938   3.161   0.367  10.686  0.4132  0.7150  0.2539
  603TMC3     O 8939   3.228   0.267  10.713 -0.3452 -0.5108 -0.6513
  603TMC3     H 8940   3.278   0.391  10.919  1.0689 -0.0319 -1.4872
  603TMC3    H1 8941   3.127   0.607  10.591 -1.0432  2.0680  0.6230
  603TMC3    H2 8942   3.293   0.810  10.940  0.2811  0.0014  1.1730
  603TMC3    C7 8943   3.160   0.855  10.712 -0.2655  0.1244 -0.2046
  603TMC3    C8 8944   3.292   0.590  11.087  0.7800 -1.0361 -0.3363
  603TMC3    O1 8945   3.240   0.948  10.727  0.3664  0.3410  0.5500
  603TMC3    O2 8946   3.233   0.491  11.117  0.0413  0.2857  0.1959
  604MPD2     C 8947   3.239   4.444  15.839 -0.2772  0.2669  0.6101
  604MPD2    C1 8948   3.137   4.381  15.915 -0.7045 -0.5932  0.1850
  604MPD2    C2 8949   3.098   4.256  15.890  0.3571 -0.0647  0.5320
  604MPD2    C3 8950   3.158   4.186  15.784 -0.7467 -0.2252 -0.2099
  604MPD2    C4 8951   3.254   4.249  15.705  0.9503  0.2541 -0.6527
  604MPD2    C5 8952   3.296   4.376  15.735  0.0786  0.5229  0.4058
  604MPD2     H 8953   3.012   4.216  15.942 -0.9352  1.6240 -0.3183
  604MPD2    H1 8954   3.308   4.194  15.628  0.4465 -0.6499 -0.3535
  604MPD2    H2 8955   3.273   4.545  15.857  0.7165  0.0042  0.2371
  604MPD2    H3 8956   3.379   4.416  15.677 -0.0255  0.9507  0.5497
  604MPD2     N 8957   3.136   4.043  15.778  0.6107 -0.2637 -0.5039
  604MPD2    H5 8958   3.109   3.994  15.862 -1.4010  2.0808  0.2128
  604MPD2    N1 8959   3.085   4.463  16.018 -0.1050  0.8875 -0.3474
  604MPD2    H7 8960   3.135   4.549  16.038  2.1847 -0.1233 -1.6442
  605TMC3    C1 8961   2.940   4.543  16.183  0.7587 -0.5252  1.0625
  605TMC3    C2 8962   3.033   4.619  16.234  0.6684 -0.0846 -0.1476
  605TMC3    C3 8963   3.000   4.710  16.322  0.3587  0.6772 -0.0011
  605TMC3    C4 8964   2.805   4.575  16.208  0.2660 -0.0372  0.1718
  605TMC3    C5 8965   2.777   4.677  16.291 -0.1738 -0.0326  0.2971
  605TMC3    C6 8966   2.873   0.025  16.350 -0.1283  0.3818  0.1704
  605TMC3     C 8967   2.965   4.440  16.086  0.2798 -0.1751  0.1716
  605TMC3     O 8968   2.875   4.363  16.061  0.7263  0.3550 -0.6648
  605TMC3     H 8969   3.136   4.587  16.223  0.2359 -1.6160  0.1646
  605TMC3    H1 8970   2.726   4.511  16.171 -0.0010 -0.1081  0.8505
  605TMC3    H2 8971   2.847   0.107  16.416  1.8531 -0.1998  1.6552
  605TMC3    C7 8972   2.638   4.710  16.317  0.0739  0.4335  0.2265
  605TMC3    C8 8973   3.099   0.092  16.341  0.4509  0.5156  0.1592
  605TMC3    O1 8974   2.607   0.032  16.427 -0.3975 -0.0755  0.2938
  605TMC3    O2 8975   3.167   0.113  16.243  0.0498 -0.1833  0.1159
  606TMC3    C1 8976   4.341   2.506  16.572 -0.4885 -0.5845 -0.5911
  606TMC3    C2 8977   4.352   2.588  16.681 -0.0649 -0.2899  0.1044
  606TMC3    C3 8978   4.303   2.546  16.797  0.3120  0.3925 -0.5944
  606TMC3    C4 8979   4.280   2.382  16.579 -0.1892 -1.0185  0.1920
  606TMC3    C5 8980   4.237   2.338  16.699  0.3199  0.1465 -0.8208
  606TMC3    C6 8981   4.255   2.421  16.809  0.5235 -0.0277  0.9862
  606TMC3     C 8982   4.409   2.546  16.445 -0.9540 -0.4451 -0.5922
  606TMC3     O 8983   4.431   2.667  16.425 -0.3970 -0.4684 -0.0943
  606TMC3     H 8984   4.408   2.680  16.670  0.7828 -0.7698  0.4172
  606TMC3    H1 8985   4.257   2.320  16.493 -0.4183 -3.1893  1.8110
  606TMC3    H2 8986   4.230   2.391  16.910 -2.2703 -0.9057  0.0350
  606TMC3    C7 8987   4.213   2.197  16.716  0.2596 -0.3929 -0.0149
  606TMC3    C8 8988   4.317   2.628  16.917  0.2818 -0.0596 -0.5301
  606TMC3    O1 8989   4.275   2.128  16.634  0.2444  1.0244  0.2638
  606TMC3    O2 8990   4.408   2.709  16.916  0.1037 -0.0060 -0.6564
  607MPD2     C 8991   2.363   0.605  11.534 -0.5771 -0.9084 -0.5358
  607MPD2    C1 8992   2.392   0.673  11.648 -0.1679 -0.2768 -0.5521
  607MPD2    C2 8993   2.353   0.619  11.770 -0.5616 -0.5589 -0.4258
  607MPD2    C3 8994   2.300   0.494  11.783 -0.2750 -1.0180  0.2031
  607MPD2    C4 8995   2.279   0.419  11.670  1.1903  0.5730 -0.0307
  607MPD2    C5 8996   2.308   0.480  11.548 -0.0953 -0.5629  0.6538
  607MPD2     H 8997   2.373   0.672  11.862  1.3527  2.1075 -2.3715
  607MPD2    H1 8998   2.219   0.329  11.673 -1.3156  2.2192 -0.2300
  607MPD2    H2 8999   2.363   0.651  11.436  0.2068  0.6539  0.2087
  607MPD2    H3 9000   2.275   0.432  11.457  0.7709  0.5741 -0.2604
  607MPD2     N 9001   2.264   0.460  11.917 -0.6116  0.4261 -0.4163
  607MPD2    H5 9002   2.288   0.529  11.988  0.0813  0.3633 -0.5909
  607MPD2    N1 9003   2.444   0.800  11.653  0.8438  0.1355  0.2927
  607MPD2    H7 9004   2.462   0.835  11.747 -0.7182 -0.5155  0.8230
  608TMC3    C1 9005   2.473   1.021  11.597 -0.2743 -0.2396  0.9302
  608TMC3    C2 9006   2.426   1.054  11.719  0.5580 -0.5864 -0.3341
  608TMC3    C3 9007   2.454   1.181  11.766  0.2746  0.8238 -0.0641
  608TMC3    C4 9008   2.545   1.116  11.529 -1.0254 -0.0404 -0.1202
  608TMC3    C5 9009   2.567   1.238  11.581  0.1976 -0.0386 -0.1947
  608TMC3    C6 9010   2.519   1.281  11.696  0.0576  0.0085  0.9652
  608TMC3     C 9011   2.475   0.889  11.546  0.1432  0.2775 -0.6049
  608TMC3     O 9012   2.488   0.863  11.428 -0.3276 -0.3720 -0.1914
  608TMC3     H 9013   2.349   0.997  11.769 -0.8080  0.3281 -1.4239
  608TMC3    H1 9014   2.578   1.094  11.428 -0.6110 -2.9268  0.6394
  608TMC3    H2 9015   2.521   1.384  11.730 -0.6639  0.6210 -0.8223
  608TMC3    C7 9016   2.614   1.340  11.482 -0.0364  0.3821 -0.5809
  608TMC3    C8 9017   2.411   1.207  11.903  0.3036 -0.0568 -0.4728
  608TMC3    O1 9018   2.620   1.312  11.364 -0.5597 -0.2561 -0.2482
  608TMC3    O2 9019   2.377   1.324  11.931  0.0364  0.4510  0.5150
  609TMC3    C1 9020   1.361   0.219   9.293 -0.5707 -0.3087  0.3298
  609TMC3    C2 9021   1.433   0.342   9.303  0.1368  0.2995  0.4515
  609TMC3    C3 9022   1.566   0.342   9.298  0.2259  0.1335 -0.0443
  609TMC3    C4 9023   1.424   0.097   9.279  0.2485 -0.3295  0.4726
  609TMC3    C5 9024   1.562   0.102   9.294 -0.3888 -0.0017 -0.4827
  609TMC3    C6 9025   1.629   0.217   9.308  0.1466 -0.1001 -0.8343
  609TMC3     C 9026   1.220   0.215   9.326 -1.1311  0.7874  0.3612
  609TMC3     O 9027   1.147   0.126   9.278  0.0199 -0.1265 -0.9591
  609TMC3     H 9028   1.373   0.431   9.289  0.4613  0.2852 -1.0392
  609TMC3    H1 9029   1.356   0.014   9.265 -3.4060  2.4165  1.8895
  609TMC3    H2 9030   1.736   0.224   9.325 -0.1340 -0.1276  0.8850
  609TMC3    C7 9031   1.646   4.709   9.280  0.7176  0.5081  0.1102
  609TMC3    C8 9032   1.648   0.461   9.311 -0.1024 -0.0034  1.0796
  609TMC3    O1 9033   1.760   0.007   9.237  0.1300  0.1399  0.3801
  609TMC3    O2 9034   1.756   0.445   9.365  0.0437  0.1439 -0.1609
  610TMC3    C1 9035   2.132   0.382  12.662  0.6653 -0.0057 -0.0618
  610TMC3    C2 9036   2.203   0.484  12.610  0.6384 -0.0563  0.3018
  610TMC3    C3 9037   2.332   0.489  12.651 -0.6940  0.2858 -0.1489
  610TMC3    C4 9038   2.165   0.301  12.761 -0.4556  0.9118  0.1414
  610TMC3    C5 9039   2.291   0.318  12.812  0.4438 -0.1528 -0.0165
  610TMC3    C6 9040   2.375   0.403  12.749  0.4541 -1.0804 -0.2522
  610TMC3     C 9041   1.995   0.350  12.609  0.3321 -0.3156 -0.2203
  610TMC3     O 9042   1.934   0.248  12.649 -0.0149 -0.4115 -0.7344
  610TMC3     H 9043   2.166   0.550  12.533 -0.5387 -0.1699  0.7701
  610TMC3    H1 9044   2.103   0.222  12.802 -0.4641  0.0345 -1.5353
  610TMC3    H2 9045   2.480   0.415  12.775  0.2295 -0.0689  0.1976
  610TMC3    C7 9046   2.356   0.205  12.873 -0.0296 -0.2053 -0.1368
  610TMC3    C8 9047   2.405   0.604  12.609  0.0044 -0.3583 -0.5492
  610TMC3    O1 9048   2.296   0.099  12.862 -0.6832 -0.5617 -0.3341
  610TMC3    O2 9049   2.331   0.693  12.573  0.4365 -1.1189 -0.2822
  611MPD2     C 9050   2.284   0.268  10.440  0.3094  0.1950  0.0537
  611MPD2    C1 9051   2.191   0.316  10.351  1.5761 -0.1147 -0.5683
  611MPD2    C2 9052   2.230   0.428  10.281  0.1024 -0.6332 -0.8475
  611MPD2    C3 9053   2.356   0.487  10.299 -0.3865  0.5077  0.3502
  611MPD2    C4 9054   2.445   0.436  10.390  0.1382 -0.3768  0.0623
  611MPD2    C5 9055   2.398   0.330  10.462  0.1326  0.0157  0.4395
  611MPD2     H 9056   2.168   0.469  10.203 -1.2272 -2.5066 -0.7816
  611MPD2    H1 9057   2.548   0.470  10.388  0.0278 -0.2689 -3.2408
  611MPD2    H2 9058   2.269   0.172  10.488 -0.2710 -1.4280 -3.3791
  611MPD2    H3 9059   2.471   0.291  10.531  2.5242 -0.1022 -2.1660
  611MPD2     N 9060   2.410   0.601  10.226  0.7880 -0.3024  0.1729
  611MPD2    H5 9061   2.502   0.633  10.254  0.3375  0.5440  0.6595
  611MPD2    N1 9062   2.059   0.261  10.362 -0.3513 -0.2910 -0.0015
  611MPD2    H7 9063   2.040   0.205  10.444  1.7260  0.3895  0.9533
  612TMC3    C1 9064   2.419   0.798  10.095 -0.5521 -0.5316 -0.0794
  612TMC3    C2 9065   2.538   0.828  10.155  0.4381  0.1885  0.5827
  612TMC3    C3 9066   2.602   0.940  10.104  0.3078  0.3755  0.2848
  612TMC3    C4 9067   2.353   0.865   9.993 -0.0105  0.3825 -0.0981
  612TMC3    C5 9068   2.424   0.974   9.946  0.6448  0.0828 -0.5575
  612TMC3    C6 9069   2.549   1.011   9.994 -0.3494 -0.6702 -0.6339
  612TMC3     C 9070   2.344   0.681  10.138 -0.2708  0.1800  0.4359
  612TMC3     O 9071   2.246   0.642  10.081  0.0960 -0.0172 -0.5343
  612TMC3     H 9072   2.568   0.779  10.247  2.5538  0.5418  0.0753
  612TMC3    H1 9073   2.259   0.839   9.946  0.9806 -1.4500 -1.0531
  612TMC3    H2 9074   2.599   1.096   9.949 -1.6071 -0.3966 -1.5102
  612TMC3    C7 9075   2.362   1.077   9.869  0.2970 -0.1428  0.6940
  612TMC3    C8 9076   2.707   1.001  10.179 -0.4518 -0.1515  0.0984
  612TMC3    O1 9077   2.432   1.165   9.824  0.0051 -0.6194  0.1177
  612TMC3    O2 9078   2.751   1.100  10.129 -0.2075  0.4347  0.3790
  613MPD2     C 9079   1.305   3.279  15.817 -0.1030  0.1701  0.6109
  613MPD2    C1 9080   1.198   3.235  15.742 -0.4538 -0.7837  1.0234
  613MPD2    C2 9081   1.188   3.102  15.716 -0.3297 -0.2605 -0.1276
  613MPD2    C3 9082   1.286   3.008  15.760  0.0615 -0.0169 -0.4314
  613MPD2    C4 9083   1.396   3.055  15.834  0.5334  0.0778 -0.0656
  613MPD2    C5 9084   1.402   3.187  15.856 -0.2666 -0.1563  0.4256
  613MPD2     H 9085   1.107   3.069  15.652 -0.9535 -0.5139  0.7957
  613MPD2    H1 9086   1.472   2.990  15.875 -0.0484  1.0030  2.4563
  613MPD2    H2 9087   1.316   3.378  15.859 -0.0491 -0.3502  1.8183
  613MPD2    H3 9088   1.495   3.221  15.899  0.0010  0.5004 -0.6596
  613MPD2     N 9089   1.274   2.869  15.729 -0.1892  0.8748  0.2120
  613MPD2    H5 9090   1.354   2.806  15.738  0.3587  1.5164 -0.2264
  613MPD2    N1 9091   1.104   3.327  15.691  0.1021  0.3415 -0.1981
  613MPD2    H7 9092   1.025   3.282  15.647  1.0580  1.4524 -3.0134
  614TMC3    C1 9093   1.049   3.508  15.582 -0.8392  0.0193 -0.7447
  614TMC3    C2 9094   1.116   3.515  15.462 -0.1805  0.5452 -0.2150
  614TMC3    C3 9095   1.057   3.481  15.345  0.0679 -0.1226 -0.4505
  614TMC3    C4 9096   0.915   3.482  15.585 -0.1548 -0.3362 -0.4530
  614TMC3    C5 9097   0.857   3.462  15.459 -0.6875 -0.0074  0.0187
  614TMC3    C6 9098   0.919   3.468  15.338  0.9561  0.0822  0.5179
  614TMC3     C 9099   1.132   3.463  15.682 -0.5991  1.1825 -0.6589
  614TMC3     O 9100   1.230   3.528  15.708  0.1400 -0.1990  0.0360
  614TMC3     H 9101   1.223   3.532  15.462  0.1495 -1.4551  2.3079
  614TMC3    H1 9102   0.874   3.474  15.685 -1.0321 -0.8631 -0.8520
  614TMC3    H2 9103   0.873   3.450  15.241 -0.8556 -1.1921  1.6151
  614TMC3    C7 9104   0.710   3.429  15.467  0.2987 -0.4705 -0.7864
  614TMC3    C8 9105   1.126   3.374  15.282  0.2310 -0.0281 -0.0804
  614TMC3    O1 9106   0.638   3.470  15.561 -0.5850  0.5086  0.1439
  614TMC3    O2 9107   1.219   3.325  15.345 -0.2816 -0.1130  0.6151
  615MPD2     C 9108   0.038   4.220  16.183  0.4495 -0.2460 -0.4265
  615MPD2    C1 9109   0.023   4.272  16.055  0.6968  0.2399 -0.1781
  615MPD2    C2 9110   4.693   4.196  15.952  0.2262  0.5936 -0.3786
  615MPD2    C3 9111   4.661   4.064  15.974 -0.1538  0.0397  0.0866
  615MPD2    C4 9112   4.677   4.011  16.100 -0.2429 -0.0380  0.2333
  615MPD2    C5 9113   0.011   4.088  16.199  0.2332 -0.1802  0.0758
  615MPD2     H 9114   4.680   4.243  15.855  0.3886 -0.4827 -0.9240
  615MPD2    H1 9115   4.647   3.911  16.129 -1.1828 -0.0346 -0.7537
  615MPD2    H2 9116   0.072   4.283  16.264  2.1132 -2.0482  0.2769
  615MPD2    H3 9117   0.031   4.045  16.297  0.4447  0.3138  0.2497
  615MPD2     N 9118   4.608   3.984  15.871 -0.2877  0.1594  0.2704
  615MPD2    H5 9119   4.591   4.023  15.779 -0.0895 -1.0404 -0.2768
  615MPD2    N1 9120   0.058   4.407  16.028  0.7025 -0.2229 -0.3833
  615MPD2    H7 9121   0.034   4.445  15.937  0.7209 -1.0668 -0.7369
  616TMC3    C1 9122   0.102   4.635  16.086  0.5469 -0.4649  0.2358
  616TMC3    C2 9123   0.177   4.719  16.170 -0.2015  0.0776  0.3978
  616TMC3    C3 9124   0.149   0.131  16.158 -0.7906 -0.0738  0.8446
  616TMC3    C4 9125   0.007   4.678  15.998 -0.1590 -0.2253  0.1376
  616TMC3    C5 9126   4.699   0.087  16.008  0.0964  0.4087 -0.1083
  616TMC3    C6 9127   0.047   0.178  16.083 -0.0756  1.0263 -0.5644
  616TMC3     C 9128   0.119   4.495  16.114  0.1643  0.3696 -0.9832
  616TMC3     O 9129   0.182   4.465  16.214 -0.1910  0.2728  0.0582
  616TMC3     H 9130   0.256   4.679  16.233 -0.0215  0.9851  0.7561
  616TMC3    H1 9131   4.680   4.606  15.935 -0.3519  0.4017 -0.4247
  616TMC3    H2 9132   0.031   0.284  16.070 -0.1615  0.7599 -2.5394
  616TMC3    C7 9133   4.565   0.126  15.955  0.5509  0.4509  0.5768
  616TMC3    C8 9134   0.202   0.234  16.244 -0.4910  0.0196  0.4862
  616TMC3    O1 9135   4.504   0.044  15.891 -0.0146 -0.2129 -0.6913
  616TMC3    O2 9136   0.138   0.335  16.268  0.2380  0.2935 -0.5500
  617MPD2     C 9137   2.909   2.447  13.525  0.9536 -0.1417  0.5469
  617MPD2    C1 9138   2.984   2.402  13.633  0.0950 -0.4132 -0.1739
  617MPD2    C2 9139   2.917   2.372  13.755  0.2718  0.3403  0.2215
  617MPD2    C3 9140   2.781   2.387  13.773  0.4515 -0.2230 -0.1372
  617MPD2    C4 9141   2.721   2.461  13.670 -0.0264  0.0072 -0.7967
  617MPD2    C5 9142   2.783   2.483  13.551  0.4864  0.9583  1.0379
  617MPD2     H 9143   2.977   2.336  13.838 -0.8745 -1.7048  0.1841
  617MPD2    H1 9144   2.618   2.494  13.680  0.0914  0.1340 -0.0544
  617MPD2    H2 9145   2.938   2.454  13.421 -0.5257 -0.0162  0.1346
  617MPD2    H3 9146   2.726   2.534  13.474 -0.1473 -1.4335 -0.0835
  617MPD2     N 9147   2.710   2.357  13.883 -1.3577 -0.7005  0.0774
  617MPD2    H5 9148   2.611   2.376  13.865 -1.0708  1.1170  0.3917
  617MPD2    N1 9149   3.119   2.370  13.616 -0.1080  0.3593  0.2624
  617MPD2    H7 9150   3.153   2.410  13.528 -1.3212 -2.4771 -1.4952
  618TMC3    C1 9151   3.338   2.311  13.656 -0.4139 -1.2143 -0.4176
  618TMC3    C2 9152   3.421   2.225  13.711 -0.4439 -0.3199  0.3835
  618TMC3    C3 9153   3.553   2.262  13.722 -0.2615  0.4683  0.1800
  618TMC3    C4 9154   3.378   2.431  13.610 -0.8198 -0.0366  0.6183
  618TMC3    C5 9155   3.511   2.462  13.617  0.2144  0.9248  1.0447
  618TMC3    C6 9156   3.600   2.376  13.679 -0.1848  0.2432  0.2135
  618TMC3     C 9157   3.197   2.284  13.685 -0.1125 -0.3678 -0.2962
  618TMC3     O 9158   3.164   2.207  13.773 -0.0773 -0.7104 -0.5447
  618TMC3     H 9159   3.387   2.132  13.754  2.1117 -2.0230 -1.2613
  618TMC3    H1 9160   3.315   2.508  13.567  1.7522  1.4853 -0.3810
  618TMC3    H2 9161   3.708   2.393  13.679 -0.2369  0.5785  0.5294
  618TMC3    C7 9162   3.564   2.522  13.494  0.6819  0.6263 -0.3770
  618TMC3    C8 9163   3.639   2.151  13.739 -0.0982  0.6621  0.0517
  618TMC3    O1 9164   3.491   2.519  13.393 -0.5172  0.6485  0.6216
  618TMC3    O2 9165   3.599   2.053  13.805 -0.4641 -0.2577 -0.5036
  619MPD2     C 9166   4.371   3.595  13.638 -0.9623  0.1754  0.4292
  619MPD2    C1 9167   4.295   3.706  13.639  0.8809  0.1866  0.4609
  619MPD2    C2 9168   4.160   3.686  13.654 -0.1354  0.0126 -0.0109
  619MPD2    C3 9169   4.107   3.556  13.685  0.4525  0.6286 -0.4737
  619MPD2    C4 9170   4.198   3.454  13.697 -0.8682  0.7747  0.3364
  619MPD2    C5 9171   4.330   3.464  13.677 -0.1277  0.3581  0.5596
  619MPD2     H 9172   4.097   3.774  13.653  0.6139  0.5753  1.7451
  619MPD2    H1 9173   4.164   3.361  13.740  0.3748 -0.5485 -1.5877
  619MPD2    H2 9174   4.478   3.601  13.622 -0.7258  0.2945  2.0862
  619MPD2    H3 9175   4.409   3.392  13.694  1.9401  2.3597 -0.5910
  619MPD2     N 9176   3.977   3.542  13.739  0.2438  0.2629 -0.5346
  619MPD2    H5 9177   3.957   3.443  13.748 -1.9176  0.8200  0.7058
  619MPD2    N1 9178   4.348   3.824  13.597  0.0723  0.4471  0.5036
  619MPD2    H7 9179   4.447   3.827  13.575  0.6793  0.3564  3.3401
  620TMC3    C1 9180   4.315   4.042  13.516  0.4122 -0.0951  0.9458
  620TMC3    C2 9181   4.338   3.986  13.396  0.3231 -0.0544 -0.3918
  620TMC3    C3 9182   4.322   4.074  13.287  0.1046  0.0513 -0.0671
  620TMC3    C4 9183   4.290   4.174  13.545 -0.1963  0.0844  0.1204
  620TMC3    C5 9184   4.284   4.253  13.434  0.1770 -0.3332 -0.5522
  620TMC3    C6 9185   4.297   4.204  13.306 -0.4070  0.7750  0.2433
  620TMC3     C 9186   4.288   3.943  13.622  0.3493 -0.3289  0.9156
  620TMC3     O 9187   4.228   3.982  13.719  0.2337  0.0761 -0.0431
  620TMC3     H 9188   4.345   3.880  13.371 -0.2027  0.3578 -2.2811
  620TMC3    H1 9189   4.282   4.200  13.649 -0.4713 -0.6903  0.2955
  620TMC3    H2 9190   4.269   4.269  13.225 -1.5496 -1.9101 -1.5256
  620TMC3    C7 9191   4.244   4.390  13.448 -0.5559  0.3346  0.3167
  620TMC3    C8 9192   4.281   4.024  13.153  0.1257 -0.2395  0.1352
  620TMC3    O1 9193   4.274   4.459  13.352  0.1155 -0.4038 -0.7850
  620TMC3    O2 9194   4.342   4.074  13.061 -0.2684  0.1892 -0.1957
  621MPD2     C 9195   0.219   3.703  10.077  0.4274 -0.3764  0.5298
  621MPD2    C1 9196   0.312   3.600  10.058  0.3142 -0.3598 -0.0263
  621MPD2    C2 9197   0.440   3.632  10.040  0.2682  0.1545 -1.2803
  621MPD2    C3 9198   0.487   3.761  10.024 -0.2730 -0.1628 -0.2183
  621MPD2    C4 9199   0.389   3.860  10.040  0.3323 -0.0105  0.5425
  621MPD2    C5 9200   0.255   3.831  10.065  0.0841  0.3006 -0.0531
  621MPD2     H 9201   0.513   3.554  10.055  1.6729  1.6031 -0.6741
  621MPD2    H1 9202   0.406   3.965  10.020 -1.7260  0.2349 -0.0158
  621MPD2    H2 9203   0.116   3.686  10.104  0.0474  0.7885 -0.1895
  621MPD2    H3 9204   0.180   3.909  10.058 -0.4234 -0.2591 -0.8838
  621MPD2     N 9205   0.616   3.785   9.985 -0.8815  0.6483 -0.3355
  621MPD2    H5 9206   0.681   3.707   9.993 -0.3378  1.2479  1.0000
  621MPD2    N1 9207   0.280   3.464  10.073  0.7068  0.5464 -0.1005
  621MPD2    H7 9208   0.345   3.392  10.044 -0.3209  0.5903 -2.5348
  622TMC3    C1 9209   0.126   3.283  10.045  0.2701 -0.7719  0.9729
  622TMC3    C2 9210   0.020   3.303   9.963  0.1454 -0.6753 -0.6825
  622TMC3    C3 9211   4.645   3.206   9.972  0.2461  0.2767  0.4969
  622TMC3    C4 9212   0.142   3.171  10.123 -0.2851 -0.1622  0.1416
  622TMC3    C5 9213   0.042   3.078  10.119 -0.4080  0.0376  0.5285
  622TMC3    C6 9214   4.655   3.097  10.052 -0.4952 -0.0058  0.1385
  622TMC3     C 9215   0.155   3.414  10.108 -0.1812 -0.2167 -0.7261
  622TMC3     O 9216   0.051   3.476  10.127  0.0413 -0.1550 -0.6181
  622TMC3     H 9217   0.010   3.399   9.913 -0.1846  0.4334  1.5285
  622TMC3    H1 9218   0.215   3.161  10.203 -0.8129 -1.6645  0.4400
  622TMC3    H2 9219   4.573   3.026  10.050 -1.8350  1.5750 -1.3553
  622TMC3    C7 9220   0.074   2.950  10.175  0.5416  0.1242 -0.7531
  622TMC3    C8 9221   4.513   3.233   9.906  1.0805 -0.6880 -0.1007
  622TMC3    O1 9222   0.185   2.933  10.221  0.4129  0.1624 -0.0765
  622TMC3    O2 9223   4.422   3.151   9.910  0.3236 -0.2492 -0.0206
  623MPD2     C 9224   3.408   0.102  15.557 -0.6368 -0.5589  0.6008
  623MPD2    C1 9225   3.345   0.115  15.679 -0.3650 -0.4046 -0.8721
  623MPD2    C2 9226   3.418   0.169  15.785  0.5755  0.3648  0.2044
  623MPD2    C3 9227   3.544   0.219  15.768 -0.1238 -0.1773  0.0021
  623MPD2    C4 9228   3.608   0.203  15.649 -0.0518 -0.0740 -0.4638
  623MPD2    C5 9229   3.536   0.152  15.542 -0.0406  0.0150 -0.5361
  623MPD2     H 9230   3.365   0.182  15.879  1.1642  2.4514  0.2461
  623MPD2    H1 9231   3.711   0.224  15.625 -0.1091 -0.0058 -0.6556
  623MPD2    H2 9232   3.371   0.050  15.470  1.1373 -1.2922  0.3046
  623MPD2    H3 9233   3.584   0.133  15.447  2.5845  1.8172  0.4510
  623MPD2     N 9234   3.609   0.272  15.879  0.7774  0.0083  0.0004
  623MPD2    H5 9235   3.555   0.279  15.965 -0.0721  3.2217 -0.7884
  623MPD2    N1 9236   3.217   0.056  15.708 -0.0748  0.1036  0.0041
  623MPD2    H7 9237   3.187   0.055  15.806  2.0817  3.8584  0.6888
  624TMC3    C1 9238   3.907   0.319  16.205 -0.4943 -0.6202  0.0342
  624TMC3    C2 9239   3.795   0.331  16.285 -0.0545  0.0495 -0.6173
  624TMC3    C3 9240   3.674   0.366  16.230  0.3002 -0.0238 -0.3831
  624TMC3    C4 9241   3.886   0.314  16.065 -0.1722 -0.1940 -0.0275
  624TMC3    C5 9242   3.768   0.356  16.014  0.3767  0.1506  0.1447
  624TMC3    C6 9243   3.664   0.392  16.095 -0.3645  0.1610  0.3730
  624TMC3     C 9244   4.024   0.284  16.279  0.0186 -0.5786  0.2866
  624TMC3     O 9245   4.039   0.313  16.398  0.2004 -0.4635 -0.0201
  624TMC3     H 9246   3.797   0.309  16.391  0.2540 -0.8383 -0.7998
  624TMC3    H1 9247   3.968   0.293  15.998  0.1776  0.6212  0.1409
  624TMC3    H2 9248   3.575   0.435  16.052 -1.6808 -2.1414  0.7557
  624TMC3    C7 9249   3.737   0.315  15.881  0.1906 -0.0131  0.1754
  624TMC3    C8 9250   3.555   0.334  16.296  0.2003  0.5578  0.3439
  624TMC3    O1 9251   3.834   0.301  15.805  0.0463  0.2141 -0.3990
  624TMC3    O2 9252   3.461   0.321  16.217 -0.0076 -0.4453  0.3366
  625MPD2     C 9253   3.639   0.340   0.740  0.2056 -0.0018  0.3100
  625MPD2    C1 9254   3.728   0.439   0.764  0.3609  0.2850 -0.8296
  625MPD2    C2 9255   3.857   0.400   0.798 -0.3180 -0.2936  0.9983
  625MPD2    C3 9256   3.899   0.266   0.810 -0.3958 -0.1301 -0.0914
  625MPD2    C4 9257   3.804   0.171   0.777  0.0646 -0.2485 -0.8301
  625MPD2    C5 9258   3.677   0.209   0.748 -0.1092  0.4271 -0.1115
  625MPD2     H 9259   3.917   0.481   0.839  0.4147  0.4486 -1.5680
  625MPD2    H1 9260   3.823   0.064   0.780 -0.2023 -0.1965  4.0264
  625MPD2    H2 9261   3.540   0.367   0.704 -0.4894 -0.8638  1.5934
  625MPD2    H3 9262   3.604   0.133   0.721  0.0161 -0.0925  1.0163
  625MPD2     N 9263   4.034   0.247   0.834 -0.5465  0.0742  0.6911
  625MPD2    H5 9264   4.094   0.326   0.854  0.1128 -1.0757  3.3027
  625MPD2    N1 9265   3.692   0.577   0.757  0.1301 -0.1689  0.1865
  625MPD2    H7 9266   3.762   0.639   0.797 -0.2830  1.4147 -1.5428
  626TMC3    C1 9267   3.558   0.767   0.772 -0.0331  0.0985  0.1564
  626TMC3    C2 9268   3.490   0.857   0.695 -0.3681  0.6491 -0.1967
  626TMC3    C3 9269   3.427   0.965   0.754  0.4351  0.5218 -0.2586
  626TMC3    C4 9270   3.579   0.786   0.906  0.1944  0.2835 -0.6759
  626TMC3    C5 9271   3.517   0.896   0.965  0.2962  0.9072 -0.0489
  626TMC3    C6 9272   3.446   0.986   0.889  0.2773  0.2720 -0.0731
  626TMC3     C 9273   3.579   0.637   0.706 -0.1690 -0.3445 -0.3302
  626TMC3     O 9274   3.498   0.590   0.630  0.2777  0.3493  0.1080
  626TMC3     H 9275   3.473   0.829   0.592 -1.0094  0.7412 -0.1198
  626TMC3    H1 9276   3.635   0.706   0.952  1.6140  1.6691  0.0076
  626TMC3    H2 9277   3.392   1.064   0.940 -0.3513 -1.0152  1.2201
  626TMC3    C7 9278   3.512   0.899   1.110  0.3282 -0.5021  0.4277
  626TMC3    C8 9279   3.378   1.071   0.671 -0.1982 -0.2817  0.6059
  626TMC3    O1 9280   3.564   0.798   1.156 -0.1164 -0.2823 -0.0993
  626TMC3    O2 9281   3.360   1.180   0.728 -0.6104 -0.0476 -0.2071
  627MPD2     C 9282   2.828   1.136  14.095  0.3579  0.1362  0.8695
  627MPD2    C1 9283   2.849   1.147  14.229 -0.8112 -0.4460  0.1799
  627MPD2    C2 9284   2.756   1.101  14.322 -1.1562 -0.4265 -0.0929
  627MPD2    C3 9285   2.641   1.040  14.276 -0.6820  1.2147  0.3957
  627MPD2    C4 9286   2.618   1.021  14.141  0.8094  0.3584  0.5812
  627MPD2    C5 9287   2.710   1.074  14.052  1.1961 -0.0792  0.2321
  627MPD2     H 9288   2.779   1.125  14.426  2.3588  1.2150 -1.2287
  627MPD2    H1 9289   2.528   0.980  14.097 -0.0969  3.4587 -0.5316
  627MPD2    H2 9290   2.897   1.171  14.020 -0.8651 -0.4563 -0.5543
  627MPD2    H3 9291   2.692   1.067  13.945 -0.7069 -2.1026  0.6888
  627MPD2     N 9292   2.547   0.995  14.374  0.3567 -0.0201 -0.6886
  627MPD2    H5 9293   2.581   0.986  14.469 -1.2486 -1.3760 -0.2255
  627MPD2    N1 9294   2.970   1.202  14.286 -0.1199 -0.1081  0.1976
  627MPD2    H7 9295   2.977   1.206  14.387 -2.4745 -0.6047  0.3783
  628TMC3    C1 9296   3.191   1.285  14.284  0.2619  0.5173  0.0648
  628TMC3    C2 9297   3.317   1.244  14.252 -0.0156 -0.4641 -0.3788
  628TMC3    C3 9298   3.412   1.285  14.340 -0.9741  0.3563  0.5788
  628TMC3    C4 9299   3.153   1.367  14.386  0.6658  0.2537  0.0439
  628TMC3    C5 9300   3.257   1.403  14.475  0.3032  0.2311  0.3372
  628TMC3    C6 9301   3.383   1.357  14.461  0.5826  0.2055 -0.6729
  628TMC3     C 9302   3.079   1.237  14.207  0.0831 -0.8247 -0.0283
  628TMC3     O 9303   3.109   1.190  14.102 -0.1395  0.0989  0.0603
  628TMC3     H 9304   3.338   1.191  14.159 -3.4839 -0.1114 -1.3629
  628TMC3    H1 9305   3.049   1.397  14.397  1.0001  1.1540  0.7700
  628TMC3    H2 9306   3.459   1.414  14.513  1.7603 -0.3991 -1.7497
  628TMC3    C7 9307   3.239   1.536  14.532 -0.6651 -0.4646  0.4148
  628TMC3    C8 9308   3.528   1.203  14.336  0.7597 -0.1501  0.1522
  628TMC3    O1 9309   3.321   1.568  14.616 -0.7481 -0.3663  0.1629
  628TMC3    O2 9310   3.569   1.143  14.229  0.0781 -0.0718 -0.1293
  629MPD2     C 9311   0.586   0.433  16.519 -0.1413  0.1375  0.6628
  629MPD2    C1 9312   0.628   0.326  16.441 -0.2646 -0.9044 -0.0340
  629MPD2    C2 9313   0.545   0.260  16.357  0.4381 -0.5296  0.2931
  629MPD2    C3 9314   0.411   0.292  16.354  0.0366 -0.1586 -1.2507
  629MPD2    C4 9315   0.369   0.391  16.436  0.0410  0.2869 -0.3412
  629MPD2    C5 9316   0.454   0.462  16.515  0.1558  0.5775 -0.6223
  629MPD2     H 9317   0.592   0.196  16.284  1.8831 -0.0859  0.8391
  629MPD2    H1 9318   0.264   0.415  16.445  0.2523  0.5575  1.4908
  629MPD2    H2 9319   0.638   0.491  16.595  0.4997  0.6931 -0.2031
  629MPD2    H3 9320   0.411   0.534  16.583  1.1641  0.9135 -0.3330
  629MPD2     N 9321   0.330   0.219  16.268  0.5548  0.3220 -0.1561
  629MPD2    H5 9322   0.378   0.139  16.227  2.6287  1.1627  0.6615
  629MPD2    N1 9323   0.770   0.292  16.441 -0.0929 -0.5701 -0.2787
  629MPD2    H7 9324   0.824   0.358  16.496  0.5234 -2.1256  0.9861
  630TMC3    C1 9325   0.960   0.163  16.451  0.4900  0.6347 -0.5771
  630TMC3    C2 9326   1.048   0.266  16.477 -0.2436 -0.0183 -0.6657
  630TMC3    C3 9327   1.168   0.231  16.541  1.0150 -0.4562  0.1720
  630TMC3    C4 9328   0.991   0.033  16.480 -0.0031 -0.4262  0.9084
  630TMC3    C5 9329   1.103   0.006  16.548 -0.1186 -0.9674 -0.0593
  630TMC3    C6 9330   1.199   0.103  16.580 -0.4738  0.4678  0.0929
  630TMC3     C 9331   0.839   0.194  16.375 -0.3126 -0.2079  0.0253
  630TMC3     O 9332   0.796   0.112  16.290 -0.5756  0.6736 -0.4020
  630TMC3     H 9333   1.019   0.369  16.460 -2.1820 -0.0205  2.6917
  630TMC3    H1 9334   0.922   4.677  16.459  0.6546 -0.8561  0.3666
  630TMC3    H2 9335   1.289   0.087  16.638 -1.5838 -3.0390  0.8150
  630TMC3    C7 9336   1.121   4.593  16.603  0.4430  0.6052 -0.1410
  630TMC3    C8 9337   1.237   0.337  16.609  0.6023 -0.2250  0.0023
  630TMC3    O1 9338   1.029   4.515  16.579 -0.0810 -0.2638 -0.3091
  630TMC3    O2 9339   1.294   0.305  16.714  0.5783  0.4367  0.4428
  631MPD2     C 9340   3.956   4.380  15.612  0.3609 -0.6020  0.3799
  631MPD2    C1 9341   4.048   4.385  15.510  0.3416  1.0811 -0.0400
  631MPD2    C2 9342   4.138   4.277  15.487  0.6449  0.5010 -0.2157
  631MPD2    C3 9343   4.127   4.159  15.560 -0.0477  0.4659  0.0459
  631MPD2    C4 9344   4.026   4.151  15.655  0.0510  0.0791 -0.5430
  631MPD2    C5 9345   3.950   4.263  15.681 -0.0136  0.1117 -0.2401
  631MPD2     H 9346   4.225   4.276  15.422 -0.5988  1.2394 -1.8578
  631MPD2    H1 9347   4.000   4.059  15.707 -0.7416  1.0032  0.7194
  631MPD2    H2 9348   3.901   4.470  15.638  0.4948 -0.0396 -1.2731
  631MPD2    H3 9349   3.877   4.247  15.760  0.5371  2.0163  0.6576
  631MPD2     N 9350   4.212   4.054  15.526 -0.3194 -0.0594 -0.4721
  631MPD2    H5 9351   4.277   4.087  15.455  1.3467 -1.5228  0.3716
  631MPD2    N1 9352   4.054   4.498  15.418 -0.3393  0.0343  0.3030
  631MPD2    H7 9353   3.977   4.563  15.427  0.5290  1.5142 -2.8398
  632TMC3    C1 9354   4.131   4.646  15.259  0.6529 -0.1822 -0.2661
  632TMC3    C2 9355   4.004   4.704  15.246 -0.1805  0.2805 -0.0998
  632TMC3    C3 9356   3.989   0.065  15.144 -0.5938 -0.9900 -0.2369
  632TMC3    C4 9357   4.234   4.694  15.189 -0.3624 -0.0145  0.4697
  632TMC3    C5 9358   4.220   0.085  15.111 -0.2590  0.4188  0.0704
  632TMC3    C6 9359   4.088   0.126  15.078  1.5303  0.3146  0.0256
  632TMC3     C 9360   4.161   4.532  15.340  0.0743  0.2094  0.1263
  632TMC3     O 9361   4.268   4.476  15.331  0.6257 -0.1462 -0.0812
  632TMC3     H 9362   3.916   4.672  15.301 -0.3773  0.4862 -0.2995
  632TMC3    H1 9363   4.333   4.649  15.197  0.7490  2.4789  0.6868
  632TMC3    H2 9364   4.070   0.197  14.997  2.5730  3.9685  3.0141
  632TMC3    C7 9365   4.326   0.123  15.022 -0.6207  0.3761  0.2402
  632TMC3    C8 9366   3.849   0.120  15.129  0.6439  0.0458 -0.2728
  632TMC3    O1 9367   4.289   0.170  14.918 -0.3100  0.3295 -0.3877
  632TMC3    O2 9368   3.830   0.235  15.088  0.2388 -0.2008 -0.5961
  633MPD2     C 9369   3.711   2.561  17.269 -0.0274 -0.2976  0.4998
  633MPD2    C1 9370   3.642   2.511  17.161 -0.2542 -0.0966  0.4911
  633MPD2    C2 9371   3.608   2.376  17.160  0.3826  0.2812  0.2112
  633MPD2    C3 9372   3.650   2.290  17.259  0.1432  0.0714  0.2157
  633MPD2    C4 9373   3.717   2.342  17.368 -0.3531  0.3576 -0.1937
  633MPD2    C5 9374   3.752   2.477  17.369 -0.5353 -0.2485 -0.7474
  633MPD2     H 9375   3.544   2.342  17.079  3.0475 -0.3923 -1.6056
  633MPD2    H1 9376   3.747   2.289  17.458 -2.5610 -1.6482 -0.6302
  633MPD2    H2 9377   3.735   2.666  17.280  0.2253 -0.2589 -0.4475
  633MPD2    H3 9378   3.815   2.512  17.450  0.2740 -2.5869 -0.3398
  633MPD2     N 9379   3.620   2.151  17.255  0.2094 -0.2659  0.0339
  633MPD2    H5 9380   3.652   2.099  17.337 -2.6525 -0.5869  0.9461
  633MPD2    N1 9381   3.631   2.585  17.041  0.1029  0.0272  0.0679
  633MPD2    H7 9382   3.581   2.541  16.964 -1.9999  1.9380  0.3453
  634TMC3    C1 9383   3.665   2.750  16.882  0.2701  0.0466 -0.0409
  634TMC3    C2 9384   3.633   2.659  16.786 -0.6064 -0.9207 -0.5607
  634TMC3    C3 9385   3.647   2.690  16.651 -0.9750  0.0188  0.3282
  634TMC3    C4 9386   3.704   2.877  16.848 -0.1230  0.3587 -0.6794
  634TMC3    C5 9387   3.726   2.900  16.720  0.0993  0.0660 -0.2123
  634TMC3    C6 9388   3.689   2.814  16.618 -0.6359 -0.3127 -0.3172
  634TMC3     C 9389   3.678   2.712  17.018  0.1299 -0.1604  0.1360
  634TMC3     O 9390   3.715   2.798  17.100 -0.0519  0.1159  0.0809
  634TMC3     H 9391   3.586   2.563  16.807  0.5164 -1.1086  1.0943
  634TMC3    H1 9392   3.736   2.947  16.924 -2.8079  0.4270  0.3858
  634TMC3    H2 9393   3.711   2.833  16.513  1.5506  0.7578  0.3449
  634TMC3    C7 9394   3.752   3.037  16.677  0.2223  0.0998 -0.4159
  634TMC3    C8 9395   3.655   2.580  16.550 -0.1677  0.1666 -0.9375
  634TMC3    O1 9396   3.738   3.053  16.559 -0.0125 -0.3072  0.0214
  634TMC3    O2 9397   3.662   2.466  16.592  0.6160 -0.4458  0.5176
  635TMC3    C1 9398   4.028   3.942  16.922  0.6099 -0.9520 -0.1050
  635TMC3    C2 9399   3.945   3.960  16.806  0.1742  0.5721 -0.4827
  635TMC3    C3 9400   3.964   3.875  16.701 -0.0171 -0.4492 -0.0359
  635TMC3    C4 9401   4.131   3.841  16.924 -0.1568  0.5420 -0.3993
  635TMC3    C5 9402   4.145   3.765  16.807  0.2273  0.4316 -0.3429
  635TMC3    C6 9403   4.069   3.791  16.696  0.4042 -0.1378 -0.1114
  635TMC3     C 9404   4.029   4.033  17.029 -0.2771 -0.4013  0.1159
  635TMC3     O 9405   4.025   3.999  17.148  0.3797  0.2735  0.0109
  635TMC3     H 9406   3.865   4.033  16.809  0.3430  0.7324  0.1230
  635TMC3    H1 9407   4.192   3.827  17.013  0.6837 -0.1620 -1.0900
  635TMC3    H2 9408   4.081   3.728  16.609  1.9170 -2.3344  1.6943
  635TMC3    C7 9409   4.278   3.716  16.768 -0.4933  0.1115 -0.0647
  635TMC3    C8 9410   3.878   3.890  16.585 -0.5061  0.3548  0.0325
  635TMC3    O1 9411   4.302   3.693  16.647 -0.0801  0.5887 -0.7306
  635TMC3    O2 9412   3.880   3.791  16.511  0.4027 -0.7467 -0.5089
  636MPD2     C 9413   0.510   3.017  15.566  0.3065  0.1643  0.1622
  636MPD2    C1 9414   0.624   3.037  15.655  0.0229  0.6379 -0.3240
  636MPD2    C2 9415   0.726   2.954  15.635 -0.4643 -0.7281 -0.2887
  636MPD2    C3 9416   0.726   2.857  15.535 -0.5003  0.0269  0.2527
  636MPD2    C4 9417   0.626   2.854  15.439  0.2492  0.5035  0.2095
  636MPD2    C5 9418   0.524   2.932  15.462 -0.4967  0.5523 -0.0304
  636MPD2     H 9419   0.805   2.955  15.708  0.8941 -0.7465 -1.7547
  636MPD2    H1 9420   0.622   2.778  15.362 -0.7670  1.1033 -0.3270
  636MPD2    H2 9421   0.417   3.070  15.583 -0.2287 -0.8969  0.5184
  636MPD2    H3 9422   0.440   2.923  15.394  0.2125 -2.4629 -0.5527
  636MPD2     N 9423   0.842   2.776  15.529  0.0745  0.3161  0.4172
  636MPD2    H5 9424   0.912   2.801  15.599 -0.0829 -1.7324  1.3217
  636MPD2    N1 9425   0.615   3.139  15.749 -0.1434  0.4971  0.0945
  636MPD2    H7 9426   0.537   3.204  15.756 -1.6745 -1.4433  1.2064
  637TMC3    C1 9427   1.001   2.629  15.451 -0.2574 -0.3725 -0.1692
  637TMC3    C2 9428   1.051   2.635  15.579 -0.4106  0.2140  0.1452
  637TMC3    C3 9429   1.175   2.694  15.604  0.0573  0.2170 -0.2002
  637TMC3    C4 9430   1.079   2.670  15.347 -0.0909  0.3598 -0.2651
  637TMC3    C5 9431   1.200   2.726  15.369 -0.9378  0.2078 -0.2105
  637TMC3    C6 9432   1.256   2.724  15.497 -0.5998 -0.0175  0.0199
  637TMC3     C 9433   0.871   2.685  15.431 -0.0255  0.5959  0.6720
  637TMC3     O 9434   0.807   2.647  15.333  0.5640 -0.3866 -0.0217
  637TMC3     H 9435   0.990   2.592  15.658  2.6293  0.3239  2.5733
  637TMC3    H1 9436   1.029   2.679  15.251 -0.7504  0.5545  0.0986
  637TMC3    H2 9437   1.352   2.771  15.518 -0.4298 -0.3035 -0.1264
  637TMC3    C7 9438   1.225   2.859  15.298  0.2730 -0.2618  0.2801
  637TMC3    C8 9439   1.154   2.808  15.685  0.1840  0.2150  0.2878
  637TMC3    O1 9440   1.286   2.947  15.358 -0.2193 -0.0833 -0.8057
  637TMC3    O2 9441   1.037   2.842  15.703  0.0613 -0.3142  0.0084
  638MPD2     C 9442   0.290   2.023  14.799  0.1814 -0.4157 -0.1715
  638MPD2    C1 9443   0.271   1.903  14.739 -0.7667  1.7354 -0.7569
  638MPD2    C2 9444   0.214   1.796  14.808 -0.0055 -0.0189 -0.1727
  638MPD2    C3 9445   0.163   1.822  14.936  0.2017 -0.3431  0.3580
  638MPD2    C4 9446   0.170   1.947  14.986  0.3499  0.5108 -0.2008
  638MPD2    C5 9447   0.232   2.048  14.920 -0.1513  0.4737 -0.0022
  638MPD2     H 9448   0.211   1.696  14.767  2.4561 -0.4858  0.7535
  638MPD2    H1 9449   0.144   1.971  15.088 -0.2315  2.0405 -0.7094
  638MPD2    H2 9450   0.346   2.106  14.758  0.3279 -0.4696 -0.0792
  638MPD2    H3 9451   0.241   2.149  14.959  0.5846 -0.3246  1.8983
  638MPD2     N 9452   0.098   1.723  15.004 -0.0597 -0.3143 -0.5230
  638MPD2    H5 9453   0.083   1.635  14.955 -1.3969 -1.2061  1.4721
  638MPD2    N1 9454   0.329   1.885  14.610 -0.0335 -0.1814  0.2905
  638MPD2    H7 9455   0.390   1.958  14.574  0.2271 -0.4812  0.1290
  639TMC3    C1 9456   0.014   1.585  15.181  0.4102 -0.2879 -0.1783
  639TMC3    C2 9457   4.676   1.511  15.086 -0.7957  0.2450 -0.2718
  639TMC3    C3 9458   4.665   1.378  15.118 -0.6875  0.0123 -0.8842
  639TMC3    C4 9459   0.083   1.527  15.291 -0.3311  0.3964 -0.4460
  639TMC3    C5 9460   0.085   1.396  15.303  0.7653 -0.2915 -0.2019
  639TMC3    C6 9461   0.011   1.317  15.218  0.2992  0.3162  0.4034
  639TMC3     C 9462   0.060   1.716  15.143 -0.4663  0.1819 -0.1049
  639TMC3     O 9463   0.091   1.791  15.235  0.4548  0.5269  0.1235
  639TMC3     H 9464   4.609   1.547  15.009 -1.3961 -2.3918 -1.0110
  639TMC3    H1 9465   0.151   1.590  15.347  0.2103 -0.1270 -0.5218
  639TMC3    H2 9466   0.004   1.210  15.233 -0.6348  0.1237 -1.4275
  639TMC3    C7 9467   0.192   1.349  15.396 -0.3058 -0.0495  0.1770
  639TMC3    C8 9468   4.622   1.294  15.011 -0.4522  0.1694  0.6416
  639TMC3    O1 9469   0.219   1.410  15.494  0.5710 -0.1246  0.0108
  639TMC3    O2 9470   4.681   1.301  14.903 -0.0310 -0.2259  0.1573
  640MPD2     C 9471   0.657   0.039   9.875  0.2300 -0.0963 -1.1342
  640MPD2    C1 9472   0.761   0.127   9.853 -0.4667 -0.2010  0.4793
  640MPD2    C2 9473   0.736   0.256   9.901 -0.3253 -0.2034  0.2875
  640MPD2    C3 9474   0.615   0.303   9.959  0.0144 -0.9130  0.0567
  640MPD2    C4 9475   0.515   0.213   9.979 -0.3062 -0.2915  0.6999
  640MPD2    C5 9476   0.536   0.081   9.932 -0.2839  0.1632  0.6079
  640MPD2     H 9477   0.816   0.327   9.882 -2.1399  2.0375  1.0029
  640MPD2    H1 9478   0.424   0.245  10.029  0.4492  2.5380  0.2835
  640MPD2    H2 9479   0.666   4.660   9.842  1.0193 -0.5935  0.6213
  640MPD2    H3 9480   0.451   0.015   9.949  0.5393 -1.4609 -1.6049
  640MPD2     N 9481   0.579   0.440   9.998 -0.3140 -0.0922  0.0788
  640MPD2    H5 9482   0.488   0.451  10.041 -0.5315  2.6962 -1.0744
  640MPD2    N1 9483   0.880   0.079   9.791  0.1296 -0.1695  0.1869
  640MPD2    H7 9484   0.867   4.709   9.754 -1.7172  0.3033 -0.3918
  641TMC3    C1 9485   1.092   0.095   9.678 -0.6987 -0.0830 -0.6034
  641TMC3    C2 9486   1.077   4.694   9.627  0.0331  0.0940 -0.4361
  641TMC3    C3 9487   1.182   4.629   9.568  0.2962  0.3389 -1.0697
  641TMC3    C4 9488   1.224   0.149   9.682  0.1325  1.3234 -0.2751
  641TMC3    C5 9489   1.326   0.075   9.645 -0.5720  0.4550  0.3790
  641TMC3    C6 9490   1.305   4.678   9.583 -0.2101  0.2318  0.1686
  641TMC3     C 9491   0.999   0.156   9.778 -0.1766 -0.2130  0.2376
  641TMC3     O 9492   1.031   0.261   9.836  0.0286  0.2533 -0.8364
  641TMC3     H 9493   0.977   4.659   9.602 -0.6180  0.4459  1.6773
  641TMC3    H1 9494   1.243   0.254   9.702  0.7289  0.7624  2.1105
  641TMC3    H2 9495   1.390   4.613   9.564 -0.2716 -0.3608  1.9462
  641TMC3    C7 9496   1.455   0.145   9.660 -0.3639 -0.8345 -0.6558
  641TMC3    C8 9497   1.165   4.496   9.521 -0.0143 -0.0735 -0.1280
  641TMC3    O1 9498   1.465   0.266   9.637  0.6291 -0.1992  0.7564
  641TMC3    O2 9499   1.267   4.455   9.463  0.2866 -0.6068 -1.0031
  642TMC3    C1 9500   1.983   1.736  11.973  0.2120 -0.1492  0.0805
  642TMC3    C2 9501   2.113   1.745  12.014  0.2920  0.3815 -0.3160
  642TMC3    C3 9502   2.192   1.636  12.019 -0.3967  0.2700  0.2484
  642TMC3    C4 9503   1.927   1.625  11.923 -0.1087 -0.3881 -0.8411
  642TMC3    C5 9504   2.011   1.515  11.921  0.1200  0.1907  0.7910
  642TMC3    C6 9505   2.136   1.513  11.986 -0.7069  0.3506  0.3162
  642TMC3     C 9506   1.910   1.865  11.983  0.2352  0.5363 -0.1250
  642TMC3     O 9507   1.967   1.967  11.940  0.3194  0.1081  0.6055
  642TMC3     H 9508   2.143   1.835  12.067  1.4271  0.5980 -1.3210
  642TMC3    H1 9509   1.839   1.623  11.860 -0.4751  0.3460 -0.3560
  642TMC3    H2 9510   2.179   1.417  12.012  1.9056  1.1030 -1.1507
  642TMC3    C7 9511   1.932   1.392  11.919  0.7596 -0.4171  0.1413
  642TMC3    C8 9512   2.288   1.642  12.126  0.5243  0.2352  0.2754
  642TMC3    O1 9513   1.868   1.360  11.821 -0.1754 -0.2414 -0.7635
  642TMC3    O2 9514   2.249   1.715  12.222 -0.2292 -0.0937  0.1871
  643TMC3    C1 9515   0.395   1.260   0.173  0.0430 -0.0848 -0.2147
  643TMC3    C2 9516   0.283   1.316   0.116  0.4217 -0.7751  0.1918
  643TMC3    C3 9517   0.191   1.239   0.053 -0.0539  0.3913 -0.1062
  643TMC3    C4 9518   0.420   1.125   0.157  0.6700 -0.4952 -0.0797
  643TMC3    C5 9519   0.330   1.056   0.084 -0.2737 -0.0912 -0.5482
  643TMC3    C6 9520   0.217   1.105   0.033  0.0314  0.1644 -0.4120
  643TMC3     C 9521   0.504   1.354   0.154 -1.6791  0.1203  0.0138
  643TMC3     O 9522   0.485   1.437   0.068 -0.0780  0.3045 -0.7385
  643TMC3     H 9523   0.273   1.424   0.115  0.3828 -0.7804 -0.4272
  643TMC3    H1 9524   0.518   1.087   0.185  2.0391  2.5142 -0.7328
  643TMC3    H2 9525   0.164   1.043  17.658 -0.3803 -0.7876  0.6976
  643TMC3    C7 9526   0.383   0.955  17.693  0.0957  0.0805 -0.2385
  643TMC3    C8 9527   0.142   1.301  17.630  0.1218 -0.5478  0.2424
  643TMC3    O1 9528   0.349   0.958  17.579 -0.1888  0.1132  0.0136
  643TMC3    O2 9529   0.046   1.238  17.575 -0.3334  0.0912 -0.8235
  644MPD2     C 9530   1.526   1.163   9.481  0.5417 -0.3102  0.2015
  644MPD2    C1 9531   1.455   1.056   9.543 -0.2001 -0.4361 -0.0291
  644MPD2    C2 9532   1.317   1.066   9.536  0.1156 -0.4716  0.0538
  644MPD2    C3 9533   1.245   1.164   9.469 -0.0810 -0.9472 -0.3745
  644MPD2    C4 9534   1.320   1.260   9.401  0.2724  0.6469 -0.3699
  644MPD2    C5 9535   1.459   1.261   9.403 -0.6805 -0.5720  0.1873
  644MPD2     H 9536   1.253   0.993   9.586  0.5798 -1.4395 -0.7904
  644MPD2    H1 9537   1.276   1.331   9.331  0.5437  0.3087 -0.8892
  644MPD2    H2 9538   1.634   1.154   9.477  0.7504  2.1818 -0.1854
  644MPD2    H3 9539   1.526   1.319   9.340 -0.6995  0.5931  1.2359
  644MPD2     N 9540   1.103   1.166   9.478 -0.4722  0.0843 -0.5196
  644MPD2    H5 9541   1.053   1.105   9.542 -0.7668  2.0117  1.1100
  644MPD2    N1 9542   1.531   0.957   9.614  0.2626  0.1753  0.1328
  644MPD2    H7 9543   1.630   0.974   9.623 -0.4767  2.8847  3.6796
  645TMC3    C1 9544   0.882   1.240   9.447 -0.4874  0.3588  0.6769
  645TMC3    C2 9545   0.799   1.355   9.437 -0.4909  0.0885 -0.6648
  645TMC3    C3 9546   0.672   1.348   9.486  0.2178 -0.3676  0.1604
  645TMC3    C4 9547   0.834   1.118   9.485 -0.2411  0.2587  0.1384
  645TMC3    C5 9548   0.704   1.111   9.526 -0.3318  0.7030 -0.7060
  645TMC3    C6 9549   0.623   1.223   9.525 -0.7145  0.1085  0.4259
  645TMC3     C 9550   1.021   1.247   9.405 -0.0543 -0.4594 -0.2131
  645TMC3     O 9551   1.054   1.341   9.332 -0.0663 -0.6205 -0.9322
  645TMC3     H 9552   0.834   1.447   9.393  0.9518  0.1429  0.5917
  645TMC3    H1 9553   0.896   1.030   9.469 -0.3585 -0.3445  3.0266
  645TMC3    H2 9554   0.520   1.220   9.557 -0.3377 -1.7468  1.4260
  645TMC3    C7 9555   0.651   0.981   9.570 -0.2119  0.5024 -0.3767
  645TMC3    C8 9556   0.594   1.466   9.499 -0.0349  0.0205 -0.7534
  645TMC3    O1 9557   0.732   0.890   9.559  0.0007 -0.5085 -0.4554
  645TMC3    O2 9558   0.655   1.571   9.491 -0.2958 -0.6524 -0.3675
  646MPD2     C 9559   0.400   0.544  14.624  0.1866  0.6310  0.4276
  646MPD2    C1 9560   0.292   0.535  14.699 -0.2603 -0.1601 -0.1507
  646MPD2    C2 9561   0.173   0.599  14.661  0.1675 -0.3353 -0.6532
  646MPD2    C3 9562   0.164   0.667  14.541 -0.2979 -0.3989 -0.1095
  646MPD2    C4 9563   0.284   0.683  14.470  0.0109 -0.6835  0.6107
  646MPD2    C5 9564   0.396   0.616  14.507  0.3959  0.1860  0.5668
  646MPD2     H 9565   0.084   0.582  14.721 -0.4172  2.3577 -0.7156
  646MPD2    H1 9566   0.287   0.745  14.381 -0.1843 -0.4050  0.7990
  646MPD2    H2 9567   0.494   0.503  14.660  0.5686  0.3499 -0.8891
  646MPD2    H3 9568   0.483   0.641  14.448 -0.4047  0.5800 -0.4663
  646MPD2     N 9569   0.037   0.717  14.498 -0.2061  0.3884  0.2654
  646MPD2    H5 9570   4.692   0.734  14.570 -0.7067 -0.5501  0.0148
  646MPD2    N1 9571   0.307   0.466  14.821  0.6298 -0.1714 -0.3156
  646MPD2    H7 9572   0.398   0.425  14.837 -0.1365 -1.1972  1.5657
  647TMC3    C1 9573   0.276   0.380  15.025 -0.5558 -0.4610  0.8936
  647TMC3    C2 9574   0.235   0.397  15.153 -0.4097  0.0340  0.2007
  647TMC3    C3 9575   0.308   0.349  15.255  0.1564 -0.0806  0.4634
  647TMC3    C4 9576   0.386   0.300  14.994 -0.6445 -0.1513 -0.4668
  647TMC3    C5 9577   0.458   0.247  15.102 -0.5762  0.0615 -0.1755
  647TMC3    C6 9578   0.420   0.277  15.231  0.1914  0.8525 -1.2537
  647TMC3     C 9579   0.212   0.455  14.927 -0.0126 -0.2743  0.0820
  647TMC3     O 9580   0.103   0.508  14.948  0.1568 -0.4976 -0.1351
  647TMC3     H 9581   0.151   0.460  15.182  1.7172  3.8399 -1.9602
  647TMC3    H1 9582   0.400   0.256  14.896 -2.4208  0.1157 -0.8309
  647TMC3    H2 9583   0.480   0.246  15.315 -0.6944  3.5921  0.4129
  647TMC3    C7 9584   0.483   0.106  15.092  0.0466  0.1657 -0.8422
  647TMC3    C8 9585   0.261   0.330  15.388 -1.1801  0.1268  1.0708
  647TMC3    O1 9586   0.543   0.064  14.993 -0.1379 -0.1864  0.3096
  647TMC3    O2 9587   0.344   0.302  15.477 -0.0973 -0.6317  0.3876
  648TMC3    C1 9588   4.143   2.703  15.787  0.2522  0.3983 -0.6716
  648TMC3    C2 9589   4.184   2.584  15.727  0.7701 -0.1600 -0.0297
  648TMC3    C3 9590   4.146   2.566  15.597  0.0235  0.7421 -0.2711
  648TMC3    C4 9591   4.077   2.802  15.720  0.2385 -0.4442 -0.4267
  648TMC3    C5 9592   4.030   2.770  15.595 -0.1154  0.3173 -0.3109
  648TMC3    C6 9593   4.071   2.654  15.525 -0.8314  1.1590 -0.1654
  648TMC3     C 9594   4.109   2.690  15.925 -0.7337  0.0137 -0.1126
  648TMC3     O 9595   4.080   2.796  15.985  0.1003  0.4548 -0.8738
  648TMC3     H 9596   4.241   2.504  15.773  0.7631 -0.4308 -0.4875
  648TMC3    H1 9597   4.046   2.890  15.775 -0.2194 -2.4721  2.5518
  648TMC3    H2 9598   4.030   2.632  15.427  0.6218  2.8476 -1.1409
  648TMC3    C7 9599   3.938   2.871  15.548 -0.9770  0.1198  0.5100
  648TMC3    C8 9600   4.148   2.440  15.540  0.0487 -0.0914 -0.1461
  648TMC3    O1 9601   3.865   2.831  15.460 -0.3458  0.6576  0.0839
  648TMC3    O2 9602   4.050   2.390  15.484  0.2329  0.0576 -0.1783
  649TMC3    C1 9603   3.145   3.919  13.004  0.6819  0.8727  0.3474
  649TMC3    C2 9604   3.277   3.947  13.014  1.0547  0.3907  0.2795
  649TMC3    C3 9605   3.330   3.925  13.141  0.1304 -0.2659 -0.2806
  649TMC3    C4 9606   3.077   3.855  13.100  0.0469  0.3902  0.5623
  649TMC3    C5 9607   3.147   3.804  13.207  0.1157 -0.5858 -0.5462
  649TMC3    C6 9608   3.276   3.853  13.238  0.7628 -0.6920  0.0950
  649TMC3     C 9609   3.080   3.950  12.883 -0.3708  0.7397 -0.0245
  649TMC3     O 9610   2.965   3.981  12.902  0.2929  0.4866  0.0998
  649TMC3     H 9611   3.335   4.007  12.946  2.7268  1.4273  2.6212
  649TMC3    H1 9612   2.973   3.830  13.084  0.1455  1.0340 -1.0978
  649TMC3    H2 9613   3.331   3.825  13.327  0.4453 -0.3531  0.3970
  649TMC3    C7 9614   3.060   3.770  13.317 -0.0255  0.6614 -0.2580
  649TMC3    C8 9615   3.474   3.939  13.151 -0.4024  0.0199  0.2553
  649TMC3    O1 9616   2.943   3.805  13.301  0.4172  0.7730 -0.0353
  649TMC3    O2 9617   3.539   3.838  13.184 -0.5275  0.5930  0.8563
  650TMC3    C1 9618   1.271   0.755  12.399 -0.6317 -0.7028 -0.3684
  650TMC3    C2 9619   1.243   0.888  12.398 -0.1069  0.0232  0.1306
  650TMC3    C3 9620   1.151   0.933  12.310 -0.0692 -0.5386  0.5837
  650TMC3    C4 9621   1.225   0.673  12.297 -0.4859 -0.6181  1.0330
  650TMC3    C5 9622   1.141   0.720  12.206  0.3931  1.2165 -0.2364
  650TMC3    C6 9623   1.090   0.853  12.216  0.8790  0.4958 -0.5929
  650TMC3     C 9624   1.366   0.713  12.504  0.4263 -0.2358  0.4068
  650TMC3     O 9625   1.435   0.791  12.567 -0.3050 -0.1861 -0.0464
  650TMC3     H 9626   1.274   0.954  12.478  0.1439  0.7714 -0.5961
  650TMC3    H1 9627   1.262   0.572  12.290  1.1907 -0.1157  2.6062
  650TMC3    H2 9628   1.033   0.901  12.138 -1.0341  0.3340  0.7184
  650TMC3    C7 9629   1.081   0.624  12.123  0.6679 -0.5799  0.0801
  650TMC3    C8 9630   1.097   1.062  12.328  0.2568  0.0831  0.0951
  650TMC3    O1 9631   1.101   0.506  12.153  0.1232  0.5111 -0.3601
  650TMC3    O2 9632   1.181   1.147  12.361  0.4898 -0.0122 -0.4541
  651MPD2     C 9633   0.141   2.154  10.898 -0.3623  0.6348  1.0995
  651MPD2    C1 9634   0.100   2.288  10.875  0.9525  0.4837 -0.7041
  651MPD2    C2 9635   0.194   2.369  10.820 -0.3860  0.1203  0.5016
  651MPD2    C3 9636   0.324   2.326  10.790 -0.2688 -0.5949 -0.1432
  651MPD2    C4 9637   0.358   2.195  10.800  0.4162 -0.9124 -0.1542
  651MPD2    C5 9638   0.266   2.108  10.862 -0.0345  0.4509 -0.1530
  651MPD2     H 9639   0.177   2.476  10.818  3.3373  0.6836 -0.9925
  651MPD2    H1 9640   0.438   2.154  10.739 -0.0832  0.2371 -1.5832
  651MPD2    H2 9641   0.076   2.076  10.933  0.7112 -0.3373  0.9156
  651MPD2    H3 9642   0.287   2.003  10.882 -0.6471  0.8353  2.5388
  651MPD2     N 9643   0.409   2.432  10.748  0.0943  0.1625  0.1820
  651MPD2    H5 9644   0.367   2.519  10.716  0.4016 -0.4489 -1.8858
  651MPD2    N1 9645   4.703   2.348  10.915  0.2794 -0.8679 -0.2816
  651MPD2    H7 9646   4.692   2.448  10.902 -1.2257 -0.6116  2.9079
  652TMC3    C1 9647   0.813   2.622  10.597  1.2322 -0.0900 -0.1021
  652TMC3    C2 9648   0.736   2.512  10.630 -0.0101  0.1436 -0.0409
  652TMC3    C3 9649   0.612   2.540  10.683  0.3958  0.0095 -0.0128
  652TMC3    C4 9650   0.772   2.754  10.613 -0.2466  0.3983  0.4918
  652TMC3    C5 9651   0.644   2.773  10.663 -0.0023 -0.3259  0.7131
  652TMC3    C6 9652   0.562   2.665  10.705 -0.5686  1.6702 -0.4902
  652TMC3     C 9653   0.954   2.611  10.613  0.9057  0.1595  0.1115
  652TMC3     O 9654   0.985   2.514  10.684 -0.2533 -0.4397  0.2895
  652TMC3     H 9655   0.770   2.410  10.616  0.8489  0.1086  2.3123
  652TMC3    H1 9656   0.841   2.836  10.595 -0.7154  0.2264 -2.0662
  652TMC3    H2 9657   0.464   2.678  10.750 -0.0412 -0.2255  1.1491
  652TMC3    C7 9658   0.613   2.896  10.735 -0.3328  0.6232 -0.2170
  652TMC3    C8 9659   0.547   2.420  10.737 -0.4613 -0.7846 -0.2936
  652TMC3    O1 9660   0.550   2.880  10.839  0.0322  0.1484 -0.1417
  652TMC3    O2 9661   0.620   2.324  10.760  0.1415  0.3071  0.0887
  653MPD2     C 9662   3.622   2.534  17.683 -0.0779 -0.6373  0.0042
  653MPD2    C1 9663   3.542   2.611  17.601 -0.4119  0.3672 -0.2532
  653MPD2    C2 9664   3.437   2.552  17.524 -0.1024  0.3991  0.2029
  653MPD2    C3 9665   3.428   2.410  17.530 -0.1529 -0.0688  0.2370
  653MPD2    C4 9666   3.504   2.337  17.621  0.4089 -0.5310  0.1720
  653MPD2    C5 9667   3.599   2.402   0.001 -0.0417  0.1799  0.0242
  653MPD2     H 9668   3.371   2.611  17.461 -0.4198  0.0517  0.2057
  653MPD2    H1 9669   3.495   2.229  17.628  0.0451 -0.3745  2.1703
  653MPD2    H2 9670   3.695   2.570   0.058  0.2686 -2.2189  0.4449
  653MPD2    H3 9671   3.663   2.345   0.068 -2.8752 -2.3184  0.5837
  653MPD2     N 9672   3.322   2.355  17.453  0.0762  0.0910 -0.2407
  653MPD2    H5 9673   3.294   2.423  17.383  0.2327  0.0040 -0.3884
  653MPD2    N1 9674   3.548   2.751  17.594  0.0592  0.6647  0.0850
  653MPD2    H7 9675   3.480   2.803  17.540  0.8641  0.2738 -1.2895
  654TMC3    C1 9676   3.209   2.198  17.312  0.4367 -0.0899 -0.1585
  654TMC3    C2 9677   3.145   2.299  17.249 -0.7964 -0.4506  0.2039
  654TMC3    C3 9678   3.052   2.264  17.153  0.2870  0.0526  0.4583
  654TMC3    C4 9679   3.175   2.066  17.290  0.4093 -0.3972  0.0525
  654TMC3    C5 9680   3.081   2.036  17.196 -0.1065 -0.3471  0.6946
  654TMC3    C6 9681   3.013   2.135  17.134  0.2928  0.2001  0.1052
  654TMC3     C 9682   3.291   2.225  17.430  0.5063 -0.2988 -1.0223
  654TMC3     O 9683   3.329   2.136  17.507  0.0925  0.5927  0.3364
  654TMC3     H 9684   3.177   2.402  17.254  3.0252 -1.6179 -0.7335
  654TMC3    H1 9685   3.239   1.994  17.339  0.1867  0.6726  1.8824
  654TMC3    H2 9686   2.930   2.110  17.069 -0.6583  1.3321  0.8780
  654TMC3    C7 9687   3.087   1.911  17.117 -0.1430 -1.5194 -1.0168
  654TMC3    C8 9688   3.013   2.374  17.061 -0.3954  0.0235 -0.5538
  654TMC3    O1 9689   3.059   1.924  16.999 -0.0916 -1.3386  0.1954
  654TMC3    O2 9690   3.031   2.489  17.091 -0.2746  0.1450  0.1632
  655MPD2     C 9691   0.008   3.083  15.579 -0.7984 -0.7789 -0.0312
  655MPD2    C1 9692   4.612   3.108  15.522  0.0996  0.3056  0.2358
  655MPD2    C2 9693   4.579   3.054  15.396  0.2138 -0.1614  0.0153
  655MPD2    C3 9694   4.667   2.967  15.329  0.5709 -0.0760 -0.3342
  655MPD2    C4 9695   0.064   2.936  15.389  0.6282 -0.3016  0.5366
  655MPD2    C5 9696   0.090   3.002  15.510 -0.7238 -0.4193 -1.1109
  655MPD2     H 9697   4.487   3.089  15.351  0.5652  0.3117 -0.3343
  655MPD2    H1 9698   0.139   2.872  15.344  1.8835  0.3347  1.7543
  655MPD2    H2 9699   0.042   3.118  15.676  0.2337  2.4850 -1.5766
  655MPD2    H3 9700   0.184   2.972  15.555 -1.0169 -1.5149 -1.2323
  655MPD2     N 9701   4.629   2.909  15.204  0.1711  0.0080  0.0108
  655MPD2    H5 9702   4.688   2.836  15.165  1.4697  0.9671  0.1880
  655MPD2    N1 9703   4.515   3.199  15.571  0.3100 -0.2566 -0.5965
  655MPD2    H7 9704   4.436   3.219  15.510  2.0344  2.0309 -2.1035
  656TMC3    C1 9705   4.419   3.351  15.713  0.8016  0.3670 -0.0190
  656TMC3    C2 9706   4.361   3.358  15.836  0.7130  0.3667  0.1738
  656TMC3    C3 9707   4.266   3.453  15.855 -0.8982  0.9449 -0.4681
  656TMC3    C4 9708   4.369   3.424  15.604 -0.1798 -0.4135 -0.0259
  656TMC3    C5 9709   4.262   3.507  15.621 -0.3942 -0.4218  0.2034
  656TMC3    C6 9710   4.212   3.522  15.750 -0.2954  0.4662 -0.0628
  656TMC3     C 9711   4.523   3.254  15.699 -0.1600  0.0254 -0.0028
  656TMC3     O 9712   4.580   3.206  15.798  0.3706 -0.3006  0.1283
  656TMC3     H 9713   4.389   3.300  15.923 -0.7089  0.2569  0.5607
  656TMC3    H1 9714   4.419   3.429  15.508  1.3096 -0.0155  0.7776
  656TMC3    H2 9715   4.152   3.609  15.773  1.3249  1.5422  0.1392
  656TMC3    C7 9716   4.177   3.511  15.509  0.0488  0.2067 -0.4990
  656TMC3    C8 9717   4.152   3.429  15.942  0.6393 -0.9395 -0.4222
  656TMC3    O1 9718   4.218   3.532  15.393  0.3411  0.2497  0.3044
  656TMC3    O2 9719   4.044   3.419  15.891  0.2892  0.4087 -0.3563
  657TMC3    C1 9720   3.761   2.217  14.500 -1.0618  0.6590  0.8418
  657TMC3    C2 9721   3.709   2.235  14.630 -0.4532 -0.3025 -0.0674
  657TMC3    C3 9722   3.596   2.311  14.659 -0.0600 -0.4313 -0.4647
  657TMC3    C4 9723   3.707   2.272  14.399  0.3751  0.1281 -0.1199
  657TMC3    C5 9724   3.593   2.350  14.427 -0.5694  0.7843 -0.2491
  657TMC3    C6 9725   3.538   2.379  14.555  0.2240  0.0622  0.5605
  657TMC3     C 9726   3.828   2.090  14.486  0.2910  0.1037 -0.2034
  657TMC3     O 9727   3.790   2.015  14.400  0.1861  0.5802 -0.0009
  657TMC3     H 9728   3.751   2.177  14.712 -0.9430  1.6543  1.5642
  657TMC3    H1 9729   3.751   2.267  14.300 -1.2093  1.0916 -0.8557
  657TMC3    H2 9730   3.448   2.438  14.566  1.7980  2.1443  2.2894
  657TMC3    C7 9731   3.559   2.462  14.336 -0.1960 -0.4278 -0.5425
  657TMC3    C8 9732   3.569   2.347  14.797 -0.7080 -0.2023  0.9128
  657TMC3    O1 9733   3.572   2.573  14.390  0.3947  0.0304  0.3640
  657TMC3    O2 9734   3.650   2.309  14.883  0.6002  0.1517  0.2187
  658MPD2     C 9735   0.203   2.498  14.634  0.2365  0.1279  0.3226
  658MPD2    C1 9736   0.087   2.539  14.588 -0.5932 -0.2929 -0.0076
  658MPD2    C2 9737   0.076   2.547  14.448 -0.6801 -0.6791 -0.3550
  658MPD2    C3 9738   0.171   2.496  14.358  0.0230  0.4663 -0.4210
  658MPD2    C4 9739   0.284   2.445  14.417 -0.1755 -0.3226 -0.2739
  658MPD2    C5 9740   0.300   2.451  14.555 -1.0984 -0.4574 -0.8007
  658MPD2     H 9741   4.717   2.606  14.410  0.4455  1.3443  0.3228
  658MPD2    H1 9742   0.360   2.402  14.354 -0.1231 -1.1220  0.3364
  658MPD2    H2 9743   0.233   2.498  14.738 -0.2732  2.2373  0.4761
  658MPD2    H3 9744   0.394   2.426  14.603 -1.0931 -0.0147 -0.5765
  658MPD2     N 9745   0.150   2.504  14.216  0.0985 -0.1531  0.3998
  658MPD2    H5 9746   0.053   2.523  14.192  0.3330  0.2242 -0.2524
  658MPD2    N1 9747   4.715   2.604  14.670 -0.5845  0.0631  0.3739
  658MPD2    H7 9748   4.637   2.642  14.618  1.6370  3.3109 -0.5385
  659TMC3    C1 9749   4.606   2.681  14.861  0.1273  0.1558  0.1085
  659TMC3    C2 9750   4.627   2.772  14.966  0.8886  0.3964 -0.9245
  659TMC3    C3 9751   4.517   2.835  15.017  1.1711 -0.2238  0.1198
  659TMC3    C4 9752   4.488   2.678  14.798  0.0121 -0.0824  0.7640
  659TMC3    C5 9753   4.383   2.749  14.848 -1.0360 -0.8185  0.3914
  659TMC3    C6 9754   4.392   2.826  14.963  0.0196  0.1814 -0.5991
  659TMC3     C 9755   4.720   2.621  14.805  0.3052  0.4624 -0.0530
  659TMC3     O 9756   0.096   2.604  14.878 -0.0075  0.0292  0.5673
  659TMC3     H 9757   0.008   2.788  14.989  0.5222  0.9996  0.3189
  659TMC3    H1 9758   4.490   2.616  14.709 -0.0228  0.9717  0.0261
  659TMC3    H2 9759   4.304   2.875  15.003 -0.3175  0.5223 -1.7683
  659TMC3    C7 9760   4.255   2.753  14.780 -0.0107  0.8801 -0.4501
  659TMC3    C8 9761   4.524   2.940  15.120  0.0935 -0.3825 -0.0186
  659TMC3    O1 9762   4.165   2.817  14.832  0.1450  0.6678 -0.1824
  659TMC3    O2 9763   4.425   3.011  15.131  0.1390 -0.4259  0.1651
  660MPD2     C 9764   3.246   1.420  12.670  0.0098 -0.2732 -0.0942
  660MPD2    C1 9765   3.123   1.470  12.661 -0.4589  0.4155 -0.3089
  660MPD2    C2 9766   3.021   1.401  12.726  0.4254 -0.1000  0.3051
  660MPD2    C3 9767   3.053   1.300  12.814 -0.0817  0.4326 -0.0424
  660MPD2    C4 9768   3.184   1.270  12.837  0.8954  0.1134 -0.2206
  660MPD2    C5 9769   3.283   1.335  12.764 -0.4729 -0.4568 -0.1971
  660MPD2     H 9770   2.918   1.427  12.706  1.0481  2.8189  0.8132
  660MPD2    H1 9771   3.212   1.198  12.913 -1.4382  0.0191  0.5360
  660MPD2    H2 9772   3.327   1.453  12.607  1.7157  0.7292  2.6470
  660MPD2    H3 9773   3.383   1.295  12.777 -0.2559 -0.8849 -3.2023
  660MPD2     N 9774   2.955   1.232  12.892  0.1171 -0.1340 -0.2565
  660MPD2    H5 9775   2.993   1.177  12.968  1.2876  2.8177  1.3007
  660MPD2    N1 9776   3.102   1.559  12.554 -0.4711 -0.4339  0.1031
  660MPD2    H7 9777   3.185   1.577  12.499 -1.1975  0.6323 -0.6481
  661TMC3    C1 9778   2.976   1.685  12.406  0.1547  0.6897  0.0854
  661TMC3    C2 9779   3.056   1.667  12.300  0.2610  0.5959 -0.4186
  661TMC3    C3 9780   3.023   1.722  12.179  0.2168 -0.2992 -0.1270
  661TMC3    C4 9781   2.868   1.773  12.395 -0.3357 -0.3289  0.2480
  661TMC3    C5 9782   2.829   1.812  12.271  0.3111  0.6642  0.6026
  661TMC3    C6 9783   2.909   1.796  12.161 -0.6359  0.4204 -0.0291
  661TMC3     C 9784   2.988   1.624  12.535  0.2024  0.2119  0.5196
  661TMC3     O 9785   2.893   1.636  12.609 -0.4533 -0.4207  0.0762
  661TMC3     H 9786   3.147   1.608  12.300  0.7531  1.3526  0.5916
  661TMC3    H1 9787   2.808   1.790  12.484  0.2617 -0.2858  0.6440
  661TMC3    H2 9788   2.871   1.824  12.064 -2.0542 -1.1230  0.0754
  661TMC3    C7 9789   2.705   1.893  12.240 -0.5581  0.0098  0.3900
  661TMC3    C8 9790   3.120   1.721  12.067 -0.2785 -0.3091 -0.5156
  661TMC3    O1 9791   2.658   1.967  12.325 -0.6047 -0.8558  0.6668
  661TMC3    O2 9792   3.158   1.609  12.035 -0.0520 -0.1753 -0.3266
  662MPD2     C 9793   2.901   1.255   0.358  0.4053 -0.2318 -0.3097
  662MPD2    C1 9794   2.876   1.146   0.269  0.1339  0.4773 -1.0218
  662MPD2    C2 9795   2.771   1.152   0.178 -0.8543 -0.4883 -0.3838
  662MPD2    C3 9796   2.690   1.269   0.174  0.0084  0.1166 -0.1531
  662MPD2    C4 9797   2.722   1.372   0.261 -0.2282  0.0200 -0.5974
  662MPD2    C5 9798   2.824   1.363   0.348 -0.4089 -0.2401 -0.0517
  662MPD2     H 9799   2.741   1.066   0.119  1.0273 -1.0089 -0.5781
  662MPD2    H1 9800   2.646   1.449   0.271 -2.9314 -2.9549  2.0860
  662MPD2    H2 9801   2.987   1.253   0.424 -0.1691 -1.3393  0.4189
  662MPD2    H3 9802   2.837   1.448   0.414  1.1853 -0.0215 -0.6455
  662MPD2     N 9803   2.578   1.290   0.084 -0.0145 -0.3871 -0.0616
  662MPD2    H5 9804   2.521   1.372   0.101 -0.4761 -0.5756 -0.7215
  662MPD2    N1 9805   2.929   1.020   0.297 -0.0895  0.2389 -0.0519
  662MPD2    H7 9806   2.904   0.949   0.229 -2.1271 -1.1013  2.1084
  663TMC3    C1 9807   3.004   0.843   0.414 -0.3979  0.9860 -0.3739
  663TMC3    C2 9808   2.897   0.789   0.476 -0.3896  0.1671  0.3723
  663TMC3    C3 9809   2.858   0.658   0.447  0.1410  1.2290 -0.3967
  663TMC3    C4 9810   3.081   0.762   0.336 -0.8748 -0.2349  0.1259
  663TMC3    C5 9811   3.048   0.632   0.315 -0.2949 -0.1852  0.1705
  663TMC3    C6 9812   2.944   0.571   0.384  0.4375 -0.1737 -0.6980
  663TMC3     C 9813   3.007   0.985   0.407  0.2850  0.3896  0.0876
  663TMC3     O 9814   3.030   1.042   0.509  0.1595 -0.6415 -0.0266
  663TMC3     H 9815   2.830   0.863   0.518 -1.8562 -0.0902 -1.4799
  663TMC3    H1 9816   3.166   0.805   0.284  0.1891 -1.4538  0.8632
  663TMC3    H2 9817   2.914   0.468   0.370 -0.6533  0.0904 -0.3257
  663TMC3    C7 9818   3.155   0.549   0.263  0.7029  0.3311  0.2555
  663TMC3    C8 9819   2.795   0.593   0.562  0.0700 -0.5684  0.6083
  663TMC3    O1 9820   3.271   0.586   0.264  0.5635 -0.1621 -0.0851
  663TMC3    O2 9821   2.827   0.477   0.590  0.4221 -0.1464 -0.1774
  664MPD2     C 9822   1.293   4.152  17.632  0.2204  0.1065  0.5285
  664MPD2    C1 9823   1.173   4.215  17.637 -0.4475  0.0012 -0.2155
  664MPD2    C2 9824   1.140   4.293   0.053 -0.1936  0.2051  0.1237
  664MPD2    C3 9825   1.214   4.276   0.166  0.4789 -0.5437  0.3311
  664MPD2    C4 9826   1.336   4.207   0.165  0.1460 -0.4419 -0.0041
  664MPD2    C5 9827   1.374   4.152   0.047 -0.1495  0.5458  0.2595
  664MPD2     H 9828   1.043   4.341   0.052 -0.7737 -0.9928 -2.2715
  664MPD2    H1 9829   1.410   4.219   0.244  0.9468 -0.5973 -0.7270
  664MPD2    H2 9830   1.335   4.092  17.552  1.9191  1.7425  0.1851
  664MPD2    H3 9831   1.476   4.116   0.047  0.0086  0.9893  0.3978
  664MPD2     N 9832   1.186   4.370   0.269  0.2665  0.6848  0.5759
  664MPD2    H5 9833   1.109   4.432   0.248  1.7991  2.1104 -0.8829
  664MPD2    N1 9834   1.104   4.235  17.520 -0.0910 -0.4489 -0.0696
  664MPD2    H7 9835   1.019   4.288  17.535 -0.7441 -1.0769 -1.5396
  665TMC3    C1 9836   1.160   4.450   0.492 -0.4660 -0.1448 -0.7573
  665TMC3    C2 9837   1.183   4.410   0.614 -1.1472 -0.2264 -0.1000
  665TMC3    C3 9838   1.183   4.507   0.714 -0.0451  0.9588  0.0478
  665TMC3    C4 9839   1.146   4.587   0.459 -0.3005 -0.0340  0.2366
  665TMC3    C5 9840   1.150   4.682   0.561  0.2563  0.4770 -0.2088
  665TMC3    C6 9841   1.173   4.642   0.691  0.8609  0.3008 -0.1114
  665TMC3     C 9842   1.224   4.354   0.399 -0.9766  0.2776 -0.2739
  665TMC3     O 9843   1.318   4.287   0.440 -0.4231 -0.7317  0.1408
  665TMC3     H 9844   1.202   4.304   0.629  0.5133  0.2591  1.1774
  665TMC3    H1 9845   1.141   4.625   0.358  0.1430 -1.5855 -0.3587
  665TMC3    H2 9846   1.173   4.715   0.771  0.5998 -1.3025  1.3368
  665TMC3    C7 9847   1.049   0.063   0.544 -0.0634 -0.8155 -0.2410
  665TMC3    C8 9848   1.095   4.474   0.825 -0.0001 -0.6927  0.1270
  665TMC3    O1 9849   0.973   0.045   0.450 -0.1979  0.0407 -0.1006
  665TMC3    O2 9850   1.012   4.560   0.856 -0.1308 -0.3758 -0.6271
  666TMC3    C1 9851   0.800   3.909   9.906  0.2686  0.0252  0.0139
  666TMC3    C2 9852   0.886   3.861   9.995  0.3880 -0.7942 -0.5719
  666TMC3    C3 9853   1.006   3.932  10.013 -0.2083  0.1321 -0.1338
  666TMC3    C4 9854   0.832   4.028   9.838  0.0352 -0.3310  0.3660
  666TMC3    C5 9855   0.948   4.094   9.850 -0.8556  0.1153 -0.8176
  666TMC3    C6 9856   1.040   4.041   9.939  0.2852 -0.2776  0.2704
  666TMC3     C 9857   0.656   3.906   9.934  0.4700  0.5841  0.2441
  666TMC3     O 9858   0.589   3.995   9.889 -0.4285  0.6334  0.1577
  666TMC3     H 9859   0.855   3.780  10.060  1.8019 -0.3639  0.6189
  666TMC3    H1 9860   0.760   4.080   9.776 -1.7432 -1.7499  1.2202
  666TMC3    H2 9861   1.133   4.096   9.951  0.2363  0.1567 -1.3176
  666TMC3    C7 9862   0.928   4.238   9.858  0.5312 -0.1417  0.6727
  666TMC3    C8 9863   1.092   3.889  10.114 -0.1070  0.2963 -0.3380
  666TMC3    O1 9864   0.815   4.286   9.855 -0.1549 -0.9009  0.4370
  666TMC3    O2 9865   1.069   3.786  10.171 -0.4170 -0.4092 -0.3517
  667MPD2     C 9866   1.480   4.192  15.103 -0.8588 -0.0629  0.3248
  667MPD2    C1 9867   1.435   4.295  15.021 -0.5636  0.7690  0.6228
  667MPD2    C2 9868   1.302   4.282  14.975 -0.3319  0.0777  0.0577
  667MPD2    C3 9869   1.239   4.158  14.980  0.5344 -0.2080 -0.1824
  667MPD2    C4 9870   1.297   4.058  15.049  0.2073 -0.2715 -0.1687
  667MPD2    C5 9871   1.412   4.072  15.120  0.2082 -0.0434 -1.1131
  667MPD2     H 9872   1.260   4.370  14.927  1.8102  1.4025  0.6114
  667MPD2    H1 9873   1.242   3.965  15.044  1.6775 -0.9828 -2.9809
  667MPD2    H2 9874   1.572   4.202  15.159 -1.2081  2.3765  0.4359
  667MPD2    H3 9875   1.456   3.992  15.179 -2.6624 -1.3764 -0.7519
  667MPD2     N 9876   1.111   4.133  14.928 -0.2233  0.1853  0.2599
  667MPD2    H5 9877   1.094   4.033  14.919  0.9556 -0.2560  2.8356
  667MPD2    N1 9878   1.513   4.414  14.993  0.0040  0.2628 -0.2735
  667MPD2    H7 9879   1.467   4.491  14.945  1.9656  0.9627 -1.0597
  668TMC3    C1 9880   1.685   4.567  14.996  0.1371 -0.0733 -0.4272
  668TMC3    C2 9881   1.818   4.590  14.990  0.0780  0.9512  0.1801
  668TMC3    C3 9882   1.857   4.722  14.985  0.0883  0.0368  0.4263
  668TMC3    C4 9883   1.594   4.663  15.032  0.0527 -0.0137  0.1474
  668TMC3    C5 9884   1.639   0.066  15.050  0.2705 -0.1482 -0.4547
  668TMC3    C6 9885   1.772   0.103  15.024  0.1080 -1.1785 -0.2139
  668TMC3     C 9886   1.646   4.429  15.019 -0.4771 -0.6287 -0.2565
  668TMC3     O 9887   1.726   4.349  15.073  0.5016 -0.2543  0.6802
  668TMC3     H 9888   1.890   4.514  14.962  0.7284  1.1421  1.3341
  668TMC3    H1 9889   1.494   4.641  15.070  0.5743 -2.0343  0.3690
  668TMC3    H2 9890   1.805   0.206  15.034  1.0925 -1.5674  0.4963
  668TMC3    C7 9891   1.605   0.131  15.177 -0.9402  0.0666 -0.0558
  668TMC3    C8 9892   1.990   0.017  15.021  0.6297 -1.1128 -0.5378
  668TMC3    O1 9893   1.614   0.253  15.185  0.0352  0.3179  0.6350
  668TMC3    O2 9894   2.031   4.682  15.122 -0.1294 -0.3479 -0.2365
  669TMC3    C1 9895   0.028   4.396  14.321  0.2930 -0.1335  0.1797
  669TMC3    C2 9896   4.621   4.374  14.303  0.1467  0.4579  0.3637
  669TMC3    C3 9897   4.552   4.458  14.222 -0.0742 -0.0533  0.1654
  669TMC3    C4 9898   0.090   4.496  14.251 -0.2261  0.0027 -0.3251
  669TMC3    C5 9899   0.017   4.574  14.164  0.3953  0.0130 -0.2001
  669TMC3    C6 9900   4.612   4.556  14.151  0.0332 -0.7877 -0.0966
  669TMC3     C 9901   0.099   4.315  14.417  0.1475  0.0267 -0.5673
  669TMC3     O 9902   0.049   4.220  14.464  0.0629  0.4351 -0.6307
  669TMC3     H 9903   4.574   4.296  14.362  0.3413  0.1818  0.1566
  669TMC3    H1 9904   0.198   4.495  14.240 -0.2893 -0.2259 -0.9012
  669TMC3    H2 9905   4.552   4.617  14.084  0.4125  1.0052  1.1984
  669TMC3    C7 9906   0.083   4.630  14.050 -0.6594 -0.3280  0.7114
  669TMC3    C8 9907   4.424   4.419  14.169  0.0003 -0.4936 -0.1693
  669TMC3    O1 9908   0.013   4.648  13.949  0.3929 -0.4536 -0.4320
  669TMC3    O2 9909   4.424   4.333  14.084 -0.9810  0.6479 -0.2562
  670MPD2     C 9910   3.401   1.744  12.939  0.3228 -0.2008 -0.3595
  670MPD2    C1 9911   3.447   1.838  13.027  0.1906 -0.0430  0.0757
  670MPD2    C2 9912   3.377   1.860  13.146 -0.3747  0.8870 -0.2176
  670MPD2    C3 9913   3.260   1.793  13.183 -0.1527  0.1446  0.7355
  670MPD2    C4 9914   3.221   1.695  13.100  0.7745  0.0837  0.8654
  670MPD2    C5 9915   3.284   1.676  12.980 -0.0619 -0.5220  0.4178
  670MPD2     H 9916   3.408   1.947  13.203 -0.6030  1.1478 -0.4885
  670MPD2    H1 9917   3.138   1.625  13.099  0.9520 -0.1230  0.5338
  670MPD2    H2 9918   3.440   1.726  12.840  3.0642 -0.0469  0.7079
  670MPD2    H3 9919   3.246   1.602  12.910 -2.6167 -0.5813  1.9130
  670MPD2     N 9920   3.180   1.851  13.288  0.6808  0.2109  0.5378
  670MPD2    H5 9921   3.213   1.933  13.337 -1.0858  0.6600  0.9697
  670MPD2    N1 9922   3.558   1.923  12.996  0.1724  0.3488  0.6447
  670MPD2    H7 9923   3.576   1.990  13.069 -0.9291 -0.0228  1.2641
  671TMC3    C1 9924   2.996   1.874  13.449  0.2569  0.1367  0.1906
  671TMC3    C2 9925   3.083   1.905  13.542  0.3787 -0.4505 -0.0724
  671TMC3    C3 9926   3.054   1.899  13.675  0.0343  0.8034  0.0061
  671TMC3    C4 9927   2.880   1.818  13.481 -0.3243  0.5449  0.0252
  671TMC3    C5 9928   2.847   1.798  13.612 -0.2737  1.0895 -0.7686
  671TMC3    C6 9929   2.932   1.848  13.714 -0.2873  0.1750 -0.5031
  671TMC3     C 9930   3.052   1.814  13.325  0.0665 -0.5459  0.0103
  671TMC3     O 9931   2.971   1.743  13.269 -0.2209  0.1681 -0.3429
  671TMC3     H 9932   3.178   1.943  13.508 -0.4756 -0.3308 -2.3293
  671TMC3    H1 9933   2.810   1.787  13.405  1.5785  0.4072 -1.6779
  671TMC3    H2 9934   2.898   1.854  13.817  1.0655  3.6425 -0.2772
  671TMC3    C7 9935   2.799   1.668  13.632  0.1489 -0.5161  0.7053
  671TMC3    C8 9936   3.165   1.842  13.754 -0.1053  0.1163 -0.0901
  671TMC3    O1 9937   2.734   1.619  13.541 -0.4005 -0.2321 -0.6660
  671TMC3    O2 9938   3.251   1.778  13.690 -0.1857 -0.6365  0.2714
  672MPD2     C 9939   2.682   2.157   0.641 -0.1206 -0.4189  0.6139
  672MPD2    C1 9940   2.821   2.158   0.622 -0.3965  0.5465  0.3725
  672MPD2    C2 9941   2.908   2.162   0.733 -0.2414  0.1324 -0.3770
  672MPD2    C3 9942   2.847   2.175   0.861 -0.7046  0.8343  0.2681
  672MPD2    C4 9943   2.709   2.168   0.875  0.4676 -0.3343  0.3873
  672MPD2    C5 9944   2.627   2.160   0.765 -0.0067 -0.8168  0.3987
  672MPD2     H 9945   3.011   2.186   0.712 -0.6603  2.1896 -0.1138
  672MPD2    H1 9946   2.665   2.172   0.974 -0.0848  2.6824  0.0099
  672MPD2    H2 9947   2.614   2.143   0.558  0.1408 -1.0508  0.5054
  672MPD2    H3 9948   2.521   2.150   0.782 -0.2319  0.0255 -0.4854
  672MPD2     N 9949   2.918   2.174   0.979  0.0746  0.4895 -0.3158
  672MPD2    H5 9950   2.871   2.187   1.068 -0.7584 -1.2391 -0.5235
  672MPD2    N1 9951   2.880   2.163   0.495 -0.1058  1.1315  0.4778
  672MPD2    H7 9952   2.982   2.164   0.490 -0.2079  3.8875 -1.2320
  673TMC3    C1 9953   2.894   2.150   0.268 -0.2712  0.4050  0.5587
  673TMC3    C2 9954   3.000   2.066   0.264 -0.2347  0.6838  0.2598
  673TMC3    C3 9955   3.058   2.046   0.142 -0.4925 -0.4957  0.2610
  673TMC3    C4 9956   2.857   2.236   0.164 -0.3847  0.1661  0.1370
  673TMC3    C5 9957   2.918   2.218   0.041  0.6381 -0.7524 -0.2955
  673TMC3    C6 9958   3.021   2.124   0.031 -0.5212  0.0622  0.9473
  673TMC3     C 9959   2.810   2.156   0.377  0.1295 -0.1107 -0.2025
  673TMC3     O 9960   2.692   2.136   0.352 -0.0133  0.2671  0.4412
  673TMC3     H 9961   3.012   1.993   0.343  3.2267  1.1633  0.1977
  673TMC3    H1 9962   2.775   2.306   0.170 -0.1198  0.3752  1.3456
  673TMC3    H2 9963   3.064   2.115  17.629  0.4782 -0.1405  1.4038
  673TMC3    C7 9964   2.922   2.320  17.637 -0.8550  0.0226  0.3272
  673TMC3    C8 9965   3.154   1.939   0.118 -0.4197  0.4319 -0.0330
  673TMC3    O1 9966   2.913   2.284  17.518 -0.1257  0.0998  0.2326
  673TMC3    O2 9967   3.178   1.915   0.001 -0.4666  0.4478 -0.3938
  674MPD2     C 9968   2.568   1.836   0.956 -0.5663 -0.0795 -0.1902
  674MPD2    C1 9969   2.543   1.795   0.827 -0.2068 -0.4353  0.0505
  674MPD2    C2 9970   2.415   1.783   0.781 -0.0524  0.0297  0.2835
  674MPD2    C3 9971   2.305   1.817   0.856 -0.1536  0.1326 -0.2773
  674MPD2    C4 9972   2.326   1.860   0.985  0.3135  0.0906 -0.1434
  674MPD2    C5 9973   2.456   1.871   1.029 -0.1785  0.1736  0.4543
  674MPD2     H 9974   2.389   1.759   0.679  1.7377  2.5849 -0.7918
  674MPD2    H1 9975   2.246   1.894   1.050 -0.6591 -0.6216 -0.9564
  674MPD2    H2 9976   2.669   1.837   0.995 -1.4832  0.7851  2.1194
  674MPD2    H3 9977   2.472   1.923   1.122 -0.3634  1.6402 -0.3312
  674MPD2     N 9978   2.180   1.805   0.788  0.4984  0.3248  0.1014
  674MPD2    H5 9979   2.176   1.797   0.687 -0.2053 -1.1947  0.2517
  674MPD2    N1 9980   2.662   1.781   0.754 -0.1695  0.8586  0.5023
  674MPD2    H7 9981   2.751   1.785   0.801  0.0829  2.7722 -0.1337
  675TMC3    C1 9982   2.811   1.784   0.578 -0.8924 -0.2983  0.6731
  675TMC3    C2 9983   2.913   1.820   0.661 -0.0418  0.3482  0.1292
  675TMC3    C3 9984   3.038   1.817   0.616  0.4124  0.7587 -0.0651
  675TMC3    C4 9985   2.838   1.725   0.455  0.1628 -0.4080  0.6953
  675TMC3    C5 9986   2.968   1.717   0.420  0.2969 -0.3969 -1.1549
  675TMC3    C6 9987   3.072   1.771   0.496  0.3683  0.1596 -0.4079
  675TMC3     C 9988   2.668   1.774   0.618  1.0866 -0.3078  0.7362
  675TMC3     O 9989   2.579   1.768   0.529  0.3525 -0.1321 -0.5383
  675TMC3     H 9990   2.900   1.875   0.754 -1.2282  0.9545 -0.3837
  675TMC3    H1 9991   2.766   1.675   0.392 -0.3961 -0.2951  1.2338
  675TMC3    H2 9992   3.173   1.762   0.457  0.1155  1.2400 -1.3320
  675TMC3    C7 9993   3.014   1.627   0.312 -0.5156 -0.7839  0.3377
  675TMC3    C8 9994   3.150   1.861   0.702 -0.4695  0.0788  0.3979
  675TMC3    O1 9995   3.127   1.581   0.323 -0.4452 -0.3417  0.2983
  675TMC3    O2 9996   3.251   1.901   0.648 -0.3250  0.2050  0.2975
  676MPD2     C 9997   1.045   0.424  11.248 -0.1382  0.9024  0.1304
  676MPD2    C1 9998   1.117   0.328  11.323  1.0644 -0.2578 -0.6389
  676MPD2    C2 9999   1.126   0.199  11.272 -0.6595  0.3707 -0.1279
  676MPD2    C310000   1.081   0.175  11.143 -0.3353 -0.3197 -0.5714
  676MPD2    C410001   1.023   0.280  11.071  0.5745 -0.4018 -0.1598
  676MPD2    C510002   1.005   0.406  11.118  0.0410  0.3267 -0.1438
  676MPD2     H10003   1.182   0.124  11.326  1.6482  1.6985 -0.6368
  676MPD2    H110004   0.988   0.263  10.970  0.3732 -0.4855 -0.0762
  676MPD2    H210005   1.025   0.523  11.288 -1.3007  0.3722  0.8646
  676MPD2    H310006   0.953   0.479  11.057 -2.8618  0.0266  1.9637
  676MPD2     N10007   1.086   0.054  11.075 -0.3004  0.6099 -0.1408
  676MPD2    H510008   1.048   0.055  10.981  0.2710 -2.6599 -0.4415
  676MPD2    N110009   1.180   0.346  11.449 -0.2152  0.3787  1.0655
  676MPD2    H710010   1.233   0.270  11.490  0.4420  0.6346  0.6912
  677TMC3    C110011   1.242   0.460  11.647  0.6026  0.3836  0.1255
  677TMC3    C210012   1.222   0.348  11.723 -0.4202  0.3871 -0.0357
  677TMC3    C310013   1.256   0.361  11.858 -0.0839  0.3839  0.6485
  677TMC3    C410014   1.277   0.583  11.695  0.1627  1.0378  0.4522
  677TMC3    C510015   1.309   0.590  11.826  0.1133 -0.5372  0.0106
  677TMC3    C610016   1.289   0.485  11.909  0.5717  0.0296  0.5019
  677TMC3     C10017   1.187   0.467  11.511 -0.1080  0.7985 -0.2327
  677TMC3     O10018   1.137   0.576  11.481  0.3211 -0.3210  0.2134
  677TMC3     H10019   1.202   0.253  11.674 -2.6147 -0.3028  2.1990
  677TMC3    H110020   1.275   0.665  11.624 -0.4761  0.1087 -0.5806
  677TMC3    H210021   1.331   0.496  12.008 -0.6489  0.7891  0.9288
  677TMC3    C710022   1.398   0.696  11.867 -0.0823  1.2557 -0.1818
  677TMC3    C810023   1.338   0.253  11.920 -0.4570 -0.7156 -0.3930
  677TMC3    O110024   1.404   0.737  11.983  0.3272 -0.2615 -0.5886
  677TMC3    O210025   1.346   0.259  12.045 -0.0788  0.4807  0.3162
  678MPD2     C10026   1.555   0.832   1.964  0.2719  0.1877 -0.0800
  678MPD2    C110027   1.611   0.880   1.847 -0.1846 -0.2819 -0.6921
  678MPD2    C210028   1.530   0.947   1.759 -0.0213 -0.2998 -0.1655
  678MPD2    C310029   1.396   0.976   1.778 -0.5857 -0.2295  0.4158
  678MPD2    C410030   1.345   0.938   1.901  0.6863 -0.3312 -0.9058
  678MPD2    C510031   1.427   0.870   1.991 -0.2923 -0.4617  0.1156
  678MPD2     H10032   1.569   0.972   1.661 -0.1393 -0.5407 -0.2736
  678MPD2    H110033   1.241   0.960   1.919  0.7043  0.6169 -1.9144
  678MPD2    H210034   1.615   0.780   2.037 -2.5775 -1.3997  1.1292
  678MPD2    H310035   1.383   0.839   2.086  1.3562 -3.2494 -0.0528
  678MPD2     N10036   1.322   1.032   1.669  0.3417  0.0236  0.4904
  678MPD2    H510037   1.377   1.057   1.587 -1.4529  1.5111 -0.2644
  678MPD2    N110038   1.745   0.857   1.806 -0.0545 -0.4062 -0.3046
  678MPD2    H710039   1.781   0.895   1.719 -1.0022  0.4855 -0.2967
  679TMC3    C110040   2.164   0.660   1.769  0.3166 -0.0290 -0.6335
  679TMC3    C210041   2.033   0.649   1.800  0.5116 -0.5862  0.5791
  679TMC3    C310042   1.962   0.766   1.805 -0.4481 -0.3725  0.0684
  679TMC3    C410043   2.230   0.784   1.747  0.5947 -0.1315 -0.8589
  679TMC3    C510044   2.162   0.898   1.772  0.3347 -0.1603  0.1809
  679TMC3    C610045   2.029   0.886   1.810 -0.8154 -0.0489  0.8842
  679TMC3     C10046   2.232   0.535   1.726  0.1435 -0.1415  0.7171
  679TMC3     O10047   2.181   0.426   1.758 -0.2538  0.4206  0.0216
  679TMC3     H10048   1.987   0.554   1.825  2.2174 -1.1508  1.5983
  679TMC3    H110049   2.335   0.791   1.722  0.8534 -4.1338 -0.9840
  679TMC3    H210050   1.972   0.976   1.832  0.2361  0.5244  1.2472
  679TMC3    C710051   2.209   1.018   1.687  0.2920  0.4610 -0.8902
  679TMC3    C810052   1.825   0.759   1.857 -0.2843  0.2340  0.2620
  679TMC3    O110053   2.290   0.999   1.599  0.6603  0.4392 -0.3027
  679TMC3    O210054   1.789   0.663   1.929  0.0129 -0.2273  0.3293
  680MPD2     C10055   2.424   4.282  13.638  0.4932  0.0573  0.6125
  680MPD2    C110056   2.529   4.218  13.702  0.3573 -0.0561  0.2083
  680MPD2    C210057   2.648   4.288  13.708 -0.2845 -1.1099  0.1834
  680MPD2    C310058   2.680   4.406  13.644  0.2090  0.2759  0.3803
  680MPD2    C410059   2.572   4.462  13.571  0.1184 -0.1549  0.7518
  680MPD2    C510060   2.447   4.398  13.574  0.2361  0.3605 -0.4262
  680MPD2     H10061   2.719   4.231  13.768  0.8983  0.7035  0.5012
  680MPD2    H110062   2.592   4.554  13.517 -1.1721 -0.9902 -1.1393
  680MPD2    H210063   2.328   4.233  13.630 -0.9477  2.6876  1.6539
  680MPD2    H310064   2.371   4.446  13.514 -1.6473  1.5825  2.9156
  680MPD2     N10065   2.817   4.457  13.641 -0.8647 -0.0803 -0.8452
  680MPD2    H510066   2.846   4.533  13.580 -1.2008  0.2190 -0.6343
  680MPD2    N110067   2.515   4.096  13.774  0.1084  0.4410 -0.7835
  680MPD2    H710068   2.600   4.069  13.822  0.8961 -0.0182 -2.4360
  681TMC3    C110069   2.415   3.886  13.832  0.0753 -0.2184  0.1158
  681TMC3    C210070   2.320   3.832  13.903  0.0424 -0.1095 -0.9643
  681TMC3    C310071   2.355   3.723  13.977  0.4487 -0.1963  0.0702
  681TMC3    C410072   2.538   3.824  13.811 -0.0648  0.0047  0.0061
  681TMC3    C510073   2.557   3.702  13.863 -0.1832 -0.2322 -0.2446
  681TMC3    C610074   2.473   3.655  13.956 -0.0956 -0.4598  0.4106
  681TMC3     C10075   2.400   4.016  13.783 -0.4144 -0.8784 -0.6536
  681TMC3     O10076   2.281   4.048  13.761 -0.3995 -0.3020  0.6654
  681TMC3     H10077   2.229   3.889  13.922  0.6000  0.6598 -0.5977
  681TMC3    H110078   2.620   3.870  13.757  1.1607 -1.6502  0.4534
  681TMC3    H210079   2.496   3.556  13.995 -0.1987 -1.4171 -1.9611
  681TMC3    C710080   2.681   3.621  13.838  0.8040  0.0760  0.1413
  681TMC3    C810081   2.334   3.754  14.120 -0.0697 -1.0420 -0.0512
  681TMC3    O110082   2.689   3.520  13.904 -0.1209  0.2651 -0.0596
  681TMC3    O210083   2.230   3.819  14.148  0.7256  0.0927  0.4866
  682MPD2     C10084   0.490   0.647  10.488 -0.4251 -0.0550  0.0360
  682MPD2    C110085   0.490   0.536  10.566  0.3430  1.2911 -0.4753
  682MPD2    C210086   0.432   0.540  10.692  0.4439  0.6007 -0.2202
  682MPD2    C310087   0.374   0.664  10.739 -0.2785  0.3396 -0.0561
  682MPD2    C410088   0.367   0.768  10.654  0.6974  0.7853  0.8019
  682MPD2    C510089   0.429   0.766  10.532  0.3722  0.5108 -0.0627
  682MPD2     H10090   0.427   0.448  10.750 -0.7312  1.0441  0.3692
  682MPD2    H110091   0.333   0.869  10.676  0.0781  0.5582  0.8850
  682MPD2    H210092   0.511   0.644  10.382 -0.3453 -2.0795  0.1100
  682MPD2    H310093   0.430   0.854  10.470 -1.7187  0.2140 -0.5049
  682MPD2     N10094   0.314   0.669  10.866 -0.4289  0.5251 -0.1616
  682MPD2    H510095   0.278   0.763  10.880  0.1941  0.7009  0.2538
  682MPD2    N110096   0.533   0.413  10.512  0.0880 -0.1498  0.3882
  682MPD2    H710097   0.521   0.329  10.567  0.2373 -0.5567 -0.1993
  683TMC3    C110098   0.248   0.775  11.264  0.4102  0.9043 -0.2490
  683TMC3    C210099   0.179   0.687  11.341  0.0714 -0.0399  0.1259
  683TMC3    C310100   0.171   0.560  11.304 -0.3888  0.0647  0.3434
  683TMC3    C410101   0.284   0.753  11.133 -0.3784  0.5101  0.1629
  683TMC3    C510102   0.262   0.623  11.092 -0.6394 -0.0364 -0.3778
  683TMC3    C610103   0.218   0.525  11.179 -0.0187 -0.0240  0.4097
  683TMC3     C10104   0.321   0.884  11.328 -0.1353  0.3239 -0.3110
  683TMC3     O10105   0.301   0.881  11.449 -0.1760 -0.8122  0.0896
  683TMC3     H10106   0.143   0.720  11.438  1.6516  2.4196 -0.1277
  683TMC3    H110107   0.336   0.824  11.070  1.8055 -0.8147  0.4955
  683TMC3    H210108   0.239   0.423  11.148  1.3866  0.5863 -0.6710
  683TMC3    C710109   0.304   0.569  10.958 -1.1242  0.7076 -0.5974
  683TMC3    C810110   0.152   0.467  11.407 -0.3726  0.4635  0.7145
  683TMC3    O110111   0.317   0.446  10.943  0.0886 -0.2147  0.3649
  683TMC3    O210112   0.150   0.501  11.522  0.4451 -0.5653  0.9246
  684MPD2     C10113   2.576   0.261  15.965 -0.2042  0.4996  0.2003
  684MPD2    C110114   2.694   0.277  15.888  0.0579  0.6223 -0.5674
  684MPD2    C210115   2.727   0.401  15.836 -0.4810 -0.5231 -0.2118
  684MPD2    C310116   2.659   0.514  15.872 -0.2499 -0.4720  0.0515
  684MPD2    C410117   2.555   0.498  15.960  0.1410 -0.6251 -0.3389
  684MPD2    C510118   2.504   0.375  15.989  0.6172  0.0456 -0.4025
  684MPD2     H10119   2.816   0.405  15.774 -0.6190 -1.9647 -0.5170
  684MPD2    H110120   2.502   0.589  15.986  1.3175 -0.4486  1.4009
  684MPD2    H210121   2.528   0.170  15.999  1.1824 -0.5462 -0.6628
  684MPD2    H310122   2.404   0.365  16.031  0.0571  0.9657 -1.5419
  684MPD2     N10123   2.713   0.641  15.847 -0.0111  0.2273 -0.2515
  684MPD2    H510124   2.698   0.719  15.911 -3.4006 -1.1874  0.6377
  684MPD2    N110125   2.780   0.174  15.871  0.1548  0.3129  0.0402
  684MPD2    H710126   2.863   0.197  15.816 -0.1971 -0.9550 -1.0356
  685TMC3    C110127   2.838   4.671  15.836 -0.2854 -0.2855  0.5401
  685TMC3    C210128   2.785   4.555  15.793 -1.1142 -0.1197  0.1544
  685TMC3    C310129   2.842   4.495  15.686 -0.4261 -0.4044 -0.4128
  685TMC3    C410130   2.961   4.718  15.794  0.6561 -0.0986 -0.1310
  685TMC3    C510131   3.019   4.650  15.685 -0.0689  0.3035  0.4669
  685TMC3    C610132   2.951   4.548  15.627 -0.2849 -0.2757 -0.0159
  685TMC3     C10133   2.754   0.040  15.897  0.2072 -0.2473 -0.1929
  685TMC3     O10134   2.660   4.718  15.966  0.1547  0.8160 -0.1495
  685TMC3     H10135   2.696   4.515  15.839 -2.2432  1.3185 -0.7922
  685TMC3    H110136   3.014   0.069  15.853 -0.0315  0.8079 -0.6702
  685TMC3    H210137   2.988   4.498  15.538  2.4217 -1.2617  1.6555
  685TMC3    C710138   3.134   4.716  15.622 -0.3872 -0.4008 -0.3651
  685TMC3    C810139   2.757   4.409  15.611  0.1882 -0.8265  0.3495
  685TMC3    O110140   3.156   4.711  15.502 -0.3789  0.2790 -0.8380
  685TMC3    O210141   2.770   4.289  15.627 -0.1767  0.0663 -0.4594
  686MPD2     C10142   4.494   4.255  15.220  0.7873  0.8980  0.0798
  686MPD2    C110143   4.529   4.216  15.347 -0.2384 -0.0264 -0.0442
  686MPD2    C210144   4.586   4.094  15.370 -0.2540 -0.9479 -0.3002
  686MPD2    C310145   4.600   3.996  15.273 -0.3151  0.8472 -0.5139
  686MPD2    C410146   4.575   4.037  15.144 -0.1252  0.1708 -0.3162
  686MPD2    C510147   4.537   4.166  15.126 -0.1351  0.1038 -0.4514
  686MPD2     H10148   4.613   4.061  15.469 -1.4553  0.3160  0.4460
  686MPD2    H110149   4.603   3.973  15.061  0.7349 -1.6737  1.3920
  686MPD2    H210150   4.450   4.351  15.195  1.2755  1.1746  0.2850
  686MPD2    H310151   4.525   4.194  15.023  0.5602  0.0083 -0.5611
  686MPD2     N10152   4.632   3.861  15.310 -0.2092  0.0758  0.7611
  686MPD2    H510153   4.660   3.797  15.236 -1.2321  2.7130 -1.9241
  686MPD2    N110154   4.490   4.300  15.448  0.5393 -0.0387 -0.3571
  686MPD2    H710155   4.446   4.389  15.424  0.2594 -1.1940 -4.1272
  687TMC3    C110156   4.541   3.831  15.530  0.8321  0.1287  0.2387
  687TMC3    C210157   4.411   3.851  15.487  0.0035 -0.1549  0.0744
  687TMC3    C310158   4.320   3.864  15.593  0.2413 -0.1520  0.1449
  687TMC3    C410159   4.577   3.813  15.654 -0.1683 -0.2530 -0.4163
  687TMC3    C510160   4.479   3.824  15.751 -0.0668 -0.5306  0.3810
  687TMC3    C610161   4.342   3.845  15.726 -0.2015 -0.1716 -0.3574
  687TMC3     C10162   4.636   3.800  15.427 -0.3839  0.6878 -0.4153
  687TMC3     O10163   4.696   3.695  15.458  0.4655 -0.2035  0.1296
  687TMC3     H10164   4.378   3.882  15.388  0.1077  0.0208  0.0951
  687TMC3    H110165   4.684   3.797  15.663 -0.3307 -1.5593 -0.7408
  687TMC3    H210166   4.271   3.860  15.806  1.2744  0.6139  0.8137
  687TMC3    C710167   4.530   3.867  15.883  0.3933 -1.0623  0.2188
  687TMC3    C810168   4.195   3.922  15.565 -0.0147 -0.0332 -0.5558
  687TMC3    O110169   4.478   3.824  15.985  0.2329  0.3525  0.3096
  687TMC3    O210170   4.104   3.877  15.638 -0.1843  0.1539 -0.0404
  688MPD2     C10171   4.086   3.323  17.340 -0.4896  0.5515  0.0663
  688MPD2    C110172   3.997   3.226  17.303  0.2383 -0.7402 -0.1644
  688MPD2    C210173   4.021   3.155  17.181  0.5182 -0.5283 -0.0228
  688MPD2    C310174   4.136   3.188  17.105 -0.0380 -0.3344 -0.6136
  688MPD2    C410175   4.221   3.282  17.156 -0.4337 -0.5376 -0.2285
  688MPD2    C510176   4.193   3.357  17.266  0.0121  0.2866 -0.4374
  688MPD2     H10177   3.959   3.070  17.157 -1.0653  0.3153  1.1331
  688MPD2    H110178   4.309   3.308  17.099  0.5914 -0.6789  1.3082
  688MPD2    H210179   4.068   3.375  17.434 -2.9595 -0.3361  0.0895
  688MPD2    H310180   4.255   3.443  17.291 -2.0739  2.1658 -1.7027
  688MPD2     N10181   4.174   3.121  16.989 -0.6777  1.2135 -0.4749
  688MPD2    H510182   4.270   3.131  16.960 -0.1112 -1.4720  0.4702
  688MPD2    N110183   3.893   3.182  17.391 -0.3262  0.2318 -0.4208
  688MPD2    H710184   3.830   3.111  17.356 -2.3073  2.4165 -1.3634
  689TMC3    C110185   3.765   3.157  17.584  0.1144 -0.8417 -1.0004
  689TMC3    C210186   3.677   3.224  17.666 -0.0457  0.1554 -0.4750
  689TMC3    C310187   3.560   3.155   0.011  0.6232  0.1959  0.1453
  689TMC3    C410188   3.756   3.024  17.569  0.1644 -0.0827  0.1443
  689TMC3    C510189   3.642   2.963  17.604 -0.2945  0.1096 -1.2530
  689TMC3    C610190   3.538   3.025  17.675  0.9447  0.1416 -0.1908
  689TMC3     C10191   3.867   3.227  17.517 -0.0763  0.3811 -0.3621
  689TMC3     O10192   3.911   3.329  17.569  0.1046  0.3012  0.6196
  689TMC3     H10193   3.693   3.331  17.675  3.0851 -0.3370 -0.0996
  689TMC3    H110194   3.828   2.971  17.508  0.0693  2.0373 -1.8332
  689TMC3    H210195   3.458   2.970   0.028  2.2911 -0.6560  1.0935
  689TMC3    C710196   3.664   2.817  17.617 -0.3120 -0.5249  0.3819
  689TMC3    C810197   3.493   3.206   0.132  0.1710 -0.3383  0.0730
  689TMC3    O110198   3.779   2.775  17.632  0.2622  0.1114  0.6319
  689TMC3    O210199   3.407   3.136   0.174  0.3819 -0.3401 -0.3183
  690MPD2     C10200   1.093   0.663  15.796 -0.1614 -0.2940  0.5146
  690MPD2    C110201   1.137   0.672  15.667 -0.4196  0.0527 -0.5860
  690MPD2    C210202   1.248   0.749  15.634 -0.4950  0.4383 -0.4681
  690MPD2    C310203   1.314   0.816  15.728 -0.1011  0.2550  1.3252
  690MPD2    C410204   1.269   0.818  15.856 -0.2480  0.1718 -0.4349
  690MPD2    C510205   1.157   0.743  15.892 -0.3417 -0.5625 -0.2956
  690MPD2     H10206   1.282   0.757  15.531 -1.6144  1.7707 -0.7374
  690MPD2    H110207   1.314   0.873  15.937 -0.1922 -0.1027 -0.2792
  690MPD2    H210208   1.018   0.593  15.832  0.9575 -1.2482  0.9890
  690MPD2    H310209   1.130   0.742  15.997  2.1415 -0.2247  0.3400
  690MPD2     N10210   1.445   0.863  15.693 -0.2424  0.0540 -0.5301
  690MPD2    H510211   1.483   0.832  15.604 -0.7873  0.9372 -1.0690
  690MPD2    N110212   1.076   0.601  15.564  0.0203  0.2234  0.1067
  690MPD2    H710213   1.097   0.630  15.469 -0.5094 -0.8647 -0.3477
  691TMC3    C110214   0.943   0.443  15.476  0.4901  0.2476  0.2226
  691TMC3    C210215   0.888   0.527  15.387  1.1687 -0.3537 -0.7703
  691TMC3    C310216   0.834   0.467  15.275  0.7134  0.1878 -0.3137
  691TMC3    C410217   0.942   0.305  15.458 -0.5292 -0.6659 -0.1270
  691TMC3    C510218   0.885   0.250  15.344 -0.1364  0.1808 -0.4149
  691TMC3    C610219   0.833   0.334  15.253  0.2511  0.3706 -0.7198
  691TMC3     C10220   1.007   0.489  15.590 -0.2409  0.5179  0.2550
  691TMC3     O10221   1.024   0.410  15.685  0.9235  0.1603 -0.2555
  691TMC3     H10222   0.888   0.635  15.398  2.0495 -0.4318  0.0313
  691TMC3    H110223   0.988   0.241  15.533 -0.3910  1.0441  1.2558
  691TMC3    H210224   0.795   0.291  15.161 -1.1145 -4.6584  2.1385
  691TMC3    C710225   0.851   0.106  15.335  0.1356  0.0219  0.1240
  691TMC3    C810226   0.721   0.540  15.231  0.1310  0.7593 -0.2735
  691TMC3    O110227   0.754   0.061  15.274 -0.4311 -0.8325 -0.4129
  691TMC3    O210228   0.681   0.507  15.121 -0.3413  0.5463 -0.4821
  692TMC3    C110229   2.872   2.049  15.657  0.0906  0.2019 -0.0350
  692TMC3    C210230   2.991   2.066  15.717  0.2895 -0.4558 -0.1770
  692TMC3    C310231   3.074   1.958  15.723 -0.1405  0.7644 -0.1992
  692TMC3    C410232   2.839   1.939  15.582 -0.4630 -0.1432 -0.0249
  692TMC3    C510233   2.926   1.837  15.577 -0.0046  0.4464 -0.7992
  692TMC3    C610234   3.034   1.836  15.665 -0.0102 -0.2497  0.2523
  692TMC3     C10235   2.749   2.119  15.698  0.2191  0.1899  0.5026
  692TMC3     O10236   2.643   2.066  15.669 -0.0793  0.3401  0.0863
  692TMC3     H10237   3.000   2.139  15.796  0.1607 -2.0770  1.3513
  692TMC3    H110238   2.748   1.935  15.522 -0.5007 -2.9885  0.2603
  692TMC3    H210239   3.115   1.765  15.650  1.7323  1.9878 -0.7966
  692TMC3    C710240   2.902   1.733  15.482 -0.6589 -0.0553 -0.5101
  692TMC3    C810241   3.117   1.935  15.854 -0.0291 -0.1798  0.5663
  692TMC3    O110242   2.842   1.772  15.384  0.0429 -0.1155  0.6746
  692TMC3    O210243   3.196   2.017  15.900 -0.1998 -0.1969  0.6772
  693MPD2     C10244   2.574   4.036  11.009  0.4284  0.1672 -0.0893
  693MPD2    C110245   2.533   3.956  10.907  0.5103 -0.6412 -0.1296
  693MPD2    C210246   2.630   3.893  10.834 -0.1605 -0.7665 -0.3563
  693MPD2    C310247   2.765   3.917  10.857 -0.4973 -1.6097 -0.3057
  693MPD2    C410248   2.797   3.997  10.965  0.1490 -0.1683 -0.1713
  693MPD2    C510249   2.701   4.062  11.041  0.2393 -0.3897  0.0484
  693MPD2     H10250   2.586   3.843  10.749  1.3563 -1.1650 -0.9040
  693MPD2    H110251   2.903   4.017  10.976 -0.0959 -0.4698  2.6708
  693MPD2    H210252   2.497   4.101  11.051  0.2320  1.9072 -3.1097
  693MPD2    H310253   2.730   4.134  11.117 -2.3789  1.6905 -0.9278
  693MPD2     N10254   2.864   3.847  10.787  0.2038  0.2078  0.1577
  693MPD2    H510255   2.958   3.848  10.825  0.3977 -1.1867 -0.2823
  693MPD2    N110256   2.391   3.938  10.897  0.1899  0.4020 -0.0924
  693MPD2    H710257   2.333   3.985  10.966  1.7503 -0.0551  1.5379
  694TMC3    C110258   2.187   3.820  10.834  0.2225 -1.1379 -0.3030
  694TMC3    C210259   2.114   3.771  10.729  0.1945 -0.3906  0.1799
  694TMC3    C310260   1.994   3.708  10.759  0.0040 -0.3494 -0.0942
  694TMC3    C410261   2.145   3.819  10.963 -0.1079 -0.1873 -0.0414
  694TMC3    C510262   2.020   3.767  10.985 -0.0310 -0.0033 -0.5925
  694TMC3    C610263   1.946   3.706  10.890  0.0862  0.6568 -0.3535
  694TMC3     C10264   2.332   3.841  10.811 -0.4185  0.0482  0.4743
  694TMC3     O10265   2.382   3.767  10.728  0.3360 -0.0160 -0.4383
  694TMC3     H10266   2.156   3.767  10.629 -0.6296  1.8633 -0.2713
  694TMC3    H110267   2.204   3.841  11.051  1.3665  1.2633 -1.4026
  694TMC3    H210268   1.854   3.653  10.913 -1.2657  3.3949  0.4970
  694TMC3    C710269   1.981   3.761  11.126  0.4352 -0.0687  0.1703
  694TMC3    C810270   1.904   3.680  10.653 -0.4879  0.2090  0.2183
  694TMC3    O110271   2.022   3.848  11.197 -0.1482 -0.3735 -0.3397
  694TMC3    O210272   1.826   3.590  10.672  0.2693 -0.3788 -0.5368
  695MPD2     C10273   3.349   1.249  13.296 -0.7666 -0.0150  0.5796
  695MPD2    C110274   3.286   1.229  13.423 -0.0258 -0.1153 -0.1003
  695MPD2    C210275   3.151   1.258  13.443  0.0726  0.2148 -0.7615
  695MPD2    C310276   3.078   1.337  13.350  0.1219 -0.3966  0.6441
  695MPD2    C410277   3.140   1.363  13.228  0.2200 -0.2344  0.3631
  695MPD2    C510278   3.265   1.310  13.207 -0.9515 -0.5075 -0.3465
  695MPD2     H10279   3.101   1.239  13.538 -1.0647 -1.8967 -1.7546
  695MPD2    H110280   3.090   1.414  13.147  1.7228 -1.9494 -1.6509
  695MPD2    H210281   3.450   1.218  13.274 -1.2688  1.0570 -3.1346
  695MPD2    H310282   3.310   1.333  13.111 -1.2739 -2.0243 -0.8576
  695MPD2     N10283   2.937   1.376  13.371 -0.8468  0.5734  0.0213
  695MPD2    H510284   2.911   1.350  13.466 -0.8956  1.1011  0.1495
  695MPD2    N110285   3.350   1.183  13.535  0.1944  0.1677  0.1349
  695MPD2    H710286   3.291   1.152  13.612  1.2034  0.5083  1.0372
  696TMC3    C110287   2.716   1.402  13.341 -0.2740 -0.5378  0.3099
  696TMC3    C210288   2.698   1.295  13.423  0.4753 -0.2231  0.1199
  696TMC3    C310289   2.575   1.285  13.483 -0.0321 -0.6850  0.4182
  696TMC3    C410290   2.615   1.484  13.310 -0.3590  0.1096 -0.1100
  696TMC3    C510291   2.489   1.453  13.353 -0.6946  0.3415 -0.3565
  696TMC3    C610292   2.472   1.362  13.452 -0.6558  0.6045  0.7274
  696TMC3     C10293   2.848   1.428  13.284  0.4527 -0.1883 -0.1245
  696TMC3     O10294   2.864   1.454  13.168 -0.3010 -0.4636 -0.3297
  696TMC3     H10295   2.774   1.220  13.440  1.0981  0.6230  1.0441
  696TMC3    H110296   2.645   1.567  13.247  0.2203  0.6742  0.9210
  696TMC3    H210297   2.370   1.347  13.488  0.4632  0.1556  3.6865
  696TMC3    C710298   2.399   1.563  13.359 -0.1530 -0.0218 -0.5851
  696TMC3    C810299   2.556   1.200  13.597 -0.4802  0.8567  0.3993
  696TMC3    O110300   2.288   1.552  13.312 -0.1473 -0.2135 -0.2519
  696TMC3    O210301   2.448   1.141  13.593 -0.4715 -0.6729 -0.3106
  697MPD2     C10302   2.283   3.492  15.719 -0.3983 -0.1877  0.1305
  697MPD2    C110303   2.352   3.419  15.624 -0.2397 -0.1363 -0.8228
  697MPD2    C210304   2.411   3.487  15.522  0.1543  0.0603 -0.5511
  697MPD2    C310305   2.397   3.619  15.499  0.1757  0.0730 -0.3734
  697MPD2    C410306   2.311   3.684  15.582 -0.0095 -0.4609  0.3066
  697MPD2    C510307   2.263   3.629  15.695  0.1322 -0.4606  0.2292
  697MPD2     H10308   2.486   3.430  15.468  0.4210 -0.6109  0.5231
  697MPD2    H110309   2.296   3.792  15.579 -1.0839 -0.6069  0.4592
  697MPD2    H210310   2.227   3.447  15.800  0.2945  0.0754  0.7578
  697MPD2    H310311   2.205   3.685  15.767  0.6416  0.1648  0.1569
  697MPD2     N10312   2.476   3.670  15.395 -0.1849 -0.4290  0.1629
  697MPD2    H510313   2.533   3.606  15.341  0.1625 -0.0679  0.0946
  697MPD2    N110314   2.396   3.284  15.637  0.4839  0.1420  0.0290
  697MPD2    H710315   2.453   3.242  15.565  0.4263  0.1055  0.0051
  698TMC3    C110316   2.570   3.829  15.244  0.2064  0.0911  0.1000
  698TMC3    C210317   2.641   3.952  15.239  0.2214  0.0932 -0.4061
  698TMC3    C310318   2.705   3.974  15.123 -0.1185 -0.2246 -0.1903
  698TMC3    C410319   2.589   3.727  15.160  0.0153 -0.1695 -0.1358
  698TMC3    C510320   2.670   3.760  15.056 -0.2553 -0.4143 -0.1413
  698TMC3    C610321   2.730   3.884  15.032  0.1978 -0.2799  0.5051
  698TMC3     C10322   2.489   3.803  15.363 -0.3846  0.6402 -0.3201
  698TMC3     O10323   2.432   3.898  15.413  0.2996 -0.0597  0.3560
  698TMC3     H10324   2.616   4.043  15.293  0.3817 -1.1079  1.6776
  698TMC3    H110325   2.529   3.637  15.158  0.3809 -0.4175 -0.1391
  698TMC3    H210326   2.766   3.904  14.932 -1.7567 -1.3927 -0.4053
  698TMC3    C710327   2.640   3.694  14.926 -0.2468 -0.2446  0.7299
  698TMC3    C810328   2.705   4.110  15.072  0.2178 -0.7169 -0.1504
  698TMC3    O110329   2.524   3.641  14.920 -1.0339  0.1017  0.2963
  698TMC3    O210330   2.614   4.190  15.100  0.0511 -0.5187  0.9968
  699TMC3    C110331   2.752   1.191  13.003  0.6446  0.1524 -0.3323
  699TMC3    C210332   2.824   1.128  13.095  0.3898 -0.7697  0.0434
  699TMC3    C310333   2.754   1.046  13.182  0.3395 -0.1204 -0.0332
  699TMC3    C410334   2.614   1.192  13.000  0.4669 -0.5589 -0.5052
  699TMC3    C510335   2.549   1.109  13.081 -0.0775 -0.0370  0.5581
  699TMC3    C610336   2.619   1.035  13.171  0.6963  0.1942  0.1302
  699TMC3     C10337   2.819   1.250  12.888  0.1546 -0.2240  0.1149
  699TMC3     O10338   2.749   1.302  12.800 -0.0670  0.2476  0.3460
  699TMC3     H10339   2.917   1.172  13.130 -0.3278  0.3298  0.5850
  699TMC3    H110340   2.557   1.242  12.922  1.6137  0.9673 -0.3502
  699TMC3    H210341   2.553   0.990  13.245  0.4673 -2.5459 -1.7484
  699TMC3    C710342   2.406   1.091  13.064  0.5949  0.3322 -0.5047
  699TMC3    C810343   2.810   0.986  13.297 -0.1549 -0.0051 -0.3548
  699TMC3    O110344   2.366   0.979  13.086  0.4365 -0.2231 -0.3864
  699TMC3    O210345   2.723   0.941  13.373 -0.1260 -0.0999  0.8389
  700TMC3    C110346   2.049   3.700  17.389 -0.1965  0.1471 -0.3357
  700TMC3    C210347   2.119   3.581  17.401  0.1886 -0.7268  0.8249
  700TMC3    C310348   2.241   3.586  17.455  0.0334  0.0282 -0.4372
  700TMC3    C410349   2.104   3.818  17.430  0.4452 -0.4596  0.1199
  700TMC3    C510350   2.234   3.814  17.472 -0.6009  0.3458  0.9496
  700TMC3    C610351   2.305   3.702  17.478 -0.4677  0.0834 -0.1927
  700TMC3     C10352   1.973   3.704  17.263 -0.0048  0.3132  0.1130
  700TMC3     O10353   1.895   3.610  17.241  0.3867 -0.7252  0.2480
  700TMC3     H10354   2.064   3.489  17.386 -1.8049  0.5858  0.0159
  700TMC3    H110355   2.043   3.907  17.415 -0.2609 -0.9887 -0.1348
  700TMC3    H210356   2.404   3.690  17.522 -0.7423  0.5223  0.5413
  700TMC3    C710357   2.277   3.940  17.529 -0.9760 -0.7342 -0.0868
  700TMC3    C810358   2.314   3.461  17.451  0.5285  0.3141  0.0672
  700TMC3    O110359   2.190   4.020  17.559  0.4001 -0.3062  0.3760
  700TMC3    O210360   2.433   3.478  17.430  1.0206  0.1598 -0.0958
  701TMC3    C110361   1.694   2.707  15.614 -0.3573  0.2594 -0.2705
  701TMC3    C210362   1.730   2.647  15.494  0.7520  0.1048 -0.4741
  701TMC3    C310363   1.828   2.712  15.435  0.1015 -0.1425 -0.7085
  701TMC3    C410364   1.754   2.821  15.668 -0.5697  0.2115 -0.1609
  701TMC3    C510365   1.865   2.877  15.602 -0.3469 -0.2665  0.1704
  701TMC3    C610366   1.888   2.822  15.485 -0.5924  0.2852 -0.1198
  701TMC3     C10367   1.584   2.644  15.688  0.7810 -0.0179 -0.1750
  701TMC3     O10368   1.524   2.712  15.771  0.1347  0.1583 -0.7193
  701TMC3     H10369   1.666   2.569  15.455  0.8688  1.2692 -2.9985
  701TMC3    H110370   1.706   2.864  15.755 -1.3338 -1.0508  0.0428
  701TMC3    H210371   1.954   2.870  15.413  0.3537 -0.4415  0.2735
  701TMC3    C710372   1.936   2.997  15.639  0.3297 -1.3604  0.0391
  701TMC3    C810373   1.852   2.685  15.295 -0.4915 -0.9864 -0.5538
  701TMC3    O110374   1.999   3.058  15.554 -0.2795 -0.4451  0.5824
  701TMC3    O210375   1.928   2.761  15.237  0.4940  0.8147 -0.5590
  702MPD2     C10376   1.557   4.287  10.650 -0.4074  0.3960  0.2327
  702MPD2    C110377   1.515   4.399  10.712 -0.4293  0.7963  0.1748
  702MPD2    C210378   1.566   4.522  10.683 -0.5632  0.8867 -0.2430
  702MPD2    C310379   1.649   4.539  10.579  0.7441 -1.1560 -0.2084
  702MPD2    C410380   1.679   4.430  10.504  0.1434 -0.0434  0.7606
  702MPD2    C510381   1.637   4.307  10.541  0.4270  0.3176  0.0366
  702MPD2     H10382   1.520   4.606  10.733  0.2200  0.4250  1.2532
  702MPD2    H110383   1.749   4.434  10.422 -0.1195 -0.8800  0.4949
  702MPD2    H210384   1.508   4.192  10.670 -0.6848  0.7912  1.4623
  702MPD2    H310385   1.672   4.229  10.475 -1.2705 -0.0159 -0.4741
  702MPD2     N10386   1.686   4.663  10.525 -0.3053  0.1487 -0.4997
  702MPD2    H510387   1.755   4.659  10.450  0.6578  3.0767  0.1972
  702MPD2    N110388   1.409   4.407  10.809  0.5471  0.1200 -0.5966
  702MPD2    H710389   1.399   4.497  10.855 -0.3742 -2.1317  3.6556
  703TMC3    C110390   1.688   0.167  10.494 -0.0436  0.5666 -0.5764
  703TMC3    C210391   1.584   0.260  10.478  0.2575  0.3582  0.6396
  703TMC3    C310392   1.607   0.360  10.382 -0.2824  0.3886 -0.4764
  703TMC3    C410393   1.804   0.170  10.417  0.3573  0.5781  0.0016
  703TMC3    C510394   1.819   0.276  10.331 -0.4294  0.0273 -0.4752
  703TMC3    C610395   1.726   0.379  10.317  0.2836 -0.2610 -0.1556
  703TMC3     C10396   1.663   0.062  10.588  1.0459 -0.4511  0.3920
  703TMC3     O10397   1.593   0.090  10.685 -0.0249  0.5544  0.5042
  703TMC3     H10398   1.488   0.248  10.526  0.3110 -1.2550  0.3287
  703TMC3    H110399   1.878   0.091  10.420 -1.2637 -0.8629  1.8301
  703TMC3    H210400   1.746   0.464  10.253  0.6610  0.8447  1.4284
  703TMC3    C710401   1.952   0.319  10.293  0.5593  0.3195 -0.2767
  703TMC3    C810402   1.524   0.477  10.375 -0.0833  0.6244 -0.5691
  703TMC3    O110403   1.959   0.397  10.198  0.4210 -0.5089  0.3598
  703TMC3    O210404   1.565   0.565  10.302 -0.0368 -0.4137  0.6511
  704TMC3    C110405   3.592   3.019  12.819  0.3452  0.0573 -1.3168
  704TMC3    C210406   3.689   3.063  12.727  0.4911  0.0398 -0.2094
  704TMC3    C310407   3.813   3.015  12.749  0.1022  0.8517 -0.2910
  704TMC3    C410408   3.610   2.917  12.911 -0.4396  0.4973  0.6076
  704TMC3    C510409   3.731   2.855  12.911 -0.6309  0.0863 -0.7184
  704TMC3    C610410   3.834   2.914  12.841 -0.4684  0.1484 -0.3713
  704TMC3     C10411   3.454   3.045  12.767 -0.1767  0.4607  0.1229
  704TMC3     O10412   3.362   3.021  12.839 -0.5018 -0.0028 -0.2559
  704TMC3     H10413   3.676   3.150  12.664 -3.3582 -0.9974 -0.8583
  704TMC3    H110414   3.527   2.869  12.961 -1.3492  2.1443  0.6994
  704TMC3    H210415   3.925   2.855  12.836  1.2144  2.7979 -1.5847
  704TMC3    C710416   3.732   2.716  12.878  0.5227 -0.4656  0.9443
  704TMC3    C810417   3.905   3.015  12.628  0.1881 -0.2190 -0.4176
  704TMC3    O110418   3.786   2.685  12.774 -0.4126  0.2010 -0.0258
  704TMC3    O210419   3.863   3.059  12.526  0.2759 -0.1118  0.3319
  705MPD2     C10420   2.908   1.231  16.049  0.5340 -0.1417 -0.0498
  705MPD2    C110421   2.968   1.241  16.175  0.8585 -0.1005 -0.4786
  705MPD2    C210422   2.908   1.172  16.277 -0.4169 -0.3277  0.2237
  705MPD2    C310423   2.793   1.097  16.268 -0.0065  0.4472  0.4231
  705MPD2    C410424   2.747   1.076  16.137 -0.1739  0.4914  0.1601
  705MPD2    C510425   2.809   1.136  16.029  0.5109  0.2959  0.6706
  705MPD2     H10426   2.955   1.188  16.374 -1.6979 -0.9501  0.9470
  705MPD2    H110427   2.661   1.011  16.123  0.6834 -0.5996 -0.0681
  705MPD2    H210428   2.948   1.290  15.967 -0.9139  2.3858  1.0337
  705MPD2    H310429   2.758   1.138  15.933 -1.0953  2.4047  1.5593
  705MPD2     N10430   2.726   1.033  16.378 -0.0998  0.1056  1.0919
  705MPD2    H510431   2.637   0.986  16.364  0.3301 -0.9498  1.8195
  705MPD2    N110432   3.088   1.306  16.195 -0.0371 -0.6002  0.3133
  705MPD2    H710433   3.110   1.323  16.292  1.4099 -2.4510  0.3142
  706TMC3    C110434   3.535   1.323  16.134  0.7191  0.3538 -0.2633
  706TMC3    C210435   3.553   1.436  16.208  0.7624 -0.1414  0.2955
  706TMC3    C310436   3.452   1.506  16.260 -0.3825  0.3916  0.0557
  706TMC3    C410437   3.409   1.284  16.098  0.2895  0.8596 -0.2718
  706TMC3    C510438   3.305   1.359  16.157 -0.4875  0.1787 -0.0354
  706TMC3    C610439   3.323   1.472  16.238 -0.3812 -0.1222 -0.4466
  706TMC3     C10440   3.659   1.252  16.089  0.2054 -0.5577 -0.0454
  706TMC3     O10441   3.759   1.254  16.160  0.0047  0.0483  0.0486
  706TMC3     H10442   3.656   1.467  16.219  1.2205 -1.9611  1.0734
  706TMC3    H110443   3.396   1.190  16.045 -0.5298 -0.3417  2.0712
  706TMC3    H210444   3.249   1.545  16.266 -0.7899 -0.3552 -0.9164
  706TMC3    C710445   3.178   1.339  16.089 -0.0357  0.0098  0.8929
  706TMC3    C810446   3.484   1.641  16.259  0.3966  0.4568 -0.1483
  706TMC3    O110447   3.175   1.294  15.976 -0.5990 -0.2729 -0.6930
  706TMC3    O210448   3.571   1.685  16.184 -0.2461 -0.0879  0.0054
  707TMC3    C110449   0.263   0.860   1.237 -0.0907 -0.5537 -0.9204
  707TMC3    C210450   0.332   0.815   1.345  0.2709  0.5244  0.2730
  707TMC3    C310451   0.280   0.845   1.465  0.0267 -0.6374 -0.2687
  707TMC3    C410452   0.141   0.923   1.247 -0.6619 -0.8814 -0.6854
  707TMC3    C510453   0.098   0.951   1.370  0.3146  0.3442 -0.2583
  707TMC3    C610454   0.159   0.904   1.477  0.2398  1.1151  0.7585
  707TMC3     C10455   0.295   0.785   1.119  0.3541  0.2599 -0.7181
  707TMC3     O10456   0.412   0.760   1.089 -0.3296 -0.3252 -0.4414
  707TMC3     H10457   0.432   0.775   1.338 -0.4710 -1.2074 -0.4622
  707TMC3    H110458   0.096   0.960   1.156 -1.6078  0.1644  0.2111
  707TMC3    H210459   0.117   0.933   1.572 -2.0579 -0.1724  0.1294
  707TMC3    C710460   4.705   1.037   1.380  0.1653 -0.1447  0.2235
  707TMC3    C810461   0.332   0.789   1.583  0.2293  0.2514  0.3958
  707TMC3    O110462   4.695   1.122   1.296 -0.2109 -0.0552 -0.5108
  707TMC3    O210463   0.319   0.853   1.686  0.1335  0.5294 -0.4284
  708MPD2     C10464   1.375   4.090  13.854  0.1608 -0.4867 -0.3278
  708MPD2    C110465   1.300   4.197  13.899 -0.0992 -0.0747 -0.1702
  708MPD2    C210466   1.274   4.205  14.037 -0.3709  0.0189  0.2743
  708MPD2    C310467   1.342   4.118  14.127 -0.1125 -1.0243  0.0328
  708MPD2    C410468   1.420   4.018  14.075  0.2065  0.6869  0.2810
  708MPD2    C510469   1.436   4.008  13.940  0.3277  0.1738 -0.4698
  708MPD2     H10470   1.224   4.289  14.084  0.1616 -0.1520  1.1448
  708MPD2    H110471   1.470   3.942  14.134 -1.4500 -3.4617 -3.6841
  708MPD2    H210472   1.402   4.087  13.749  1.2902 -0.8963 -0.0261
  708MPD2    H310473   1.501   3.935  13.893 -0.0075 -0.8396  0.6359
  708MPD2     N10474   1.318   4.141  14.266 -0.5625  0.0861  0.0762
  708MPD2    H510475   1.256   4.219  14.285 -1.8775 -0.8806 -0.2587
  708MPD2    N110476   1.258   4.296  13.812 -0.2881  0.9393 -0.0058
  708MPD2    H710477   1.286   4.283  13.715  1.0421  1.6075  0.2873
  709TMC3    C110478   1.149   4.503  13.749 -0.4004 -0.9324  1.2808
  709TMC3    C210479   1.043   4.443  13.676  0.3054 -0.2705  0.6092
  709TMC3    C310480   0.928   4.517  13.657  0.2163 -0.0679 -0.7313
  709TMC3    C410481   1.136   4.632  13.790 -0.0722  0.4836 -0.1956
  709TMC3    C510482   1.019   4.693  13.788 -0.0523 -0.0312  0.0474
  709TMC3    C610483   0.913   4.637  13.726  0.2368 -0.0644  0.4124
  709TMC3     C10484   1.202   4.416  13.851  0.4121 -0.0334  0.1035
  709TMC3     O10485   1.178   4.462  13.962  0.2641 -0.3844 -0.0616
  709TMC3     H10486   1.034   4.336  13.661  1.7327 -0.4166  0.7554
  709TMC3    H110487   1.212   4.663  13.861 -0.2749  0.7376 -0.0913
  709TMC3    H210488   0.816   4.687  13.724 -0.8775 -2.1404  2.5513
  709TMC3    C710489   0.983   0.044  13.909 -0.3304  0.2328  0.7274
  709TMC3    C810490   0.853   4.493  13.540  0.0277 -0.2037  0.3270
  709TMC3    O110491   0.971   0.167  13.903  0.5498  0.0278 -0.1918
  709TMC3    O210492   0.740   4.537  13.533  0.1065  0.3031  0.2611
  710TMC3    C110493   2.115   1.263   0.855 -0.3269  0.0110  0.1331
  710TMC3    C210494   2.189   1.159   0.798  1.0846 -0.2618  0.4069
  710TMC3    C310495   2.267   1.085   0.873 -0.4257 -0.2748  0.0302
  710TMC3    C410496   2.122   1.280   0.992 -0.0350  1.1039 -0.4845
  710TMC3    C510497   2.208   1.209   1.070 -0.0913  0.3388 -0.2675
  710TMC3    C610498   2.277   1.106   1.009  0.9873 -0.1420 -0.3727
  710TMC3     C10499   1.986   1.301   0.786 -0.1948 -0.3596  0.4645
  710TMC3     O10500   1.968   1.255   0.672  0.1790 -0.0161 -0.3186
  710TMC3     H10501   2.158   1.127   0.699  1.7620  1.9529 -0.5079
  710TMC3    H110502   2.052   1.345   1.043 -3.2540 -0.6120 -2.7507
  710TMC3    H210503   2.349   1.052   1.070  1.5201  2.1714  1.0465
  710TMC3    C710504   2.228   1.235   1.213 -0.4559  0.5935 -0.1741
  710TMC3    C810505   2.353   0.982   0.811  0.2666 -0.8361 -0.4226
  710TMC3    O110506   2.325   1.174   1.258  0.4806  0.0476  0.1943
  710TMC3    O210507   2.385   1.000   0.696 -0.3120  0.6529 -0.0789
  711TMC3    C110508   2.553   2.494  14.818  0.9004 -0.0855  0.6329
  711TMC3    C210509   2.606   2.556  14.935  0.8540 -0.5177  0.1345
  711TMC3    C310510   2.677   2.481  15.023  0.2380  0.1902  0.0489
  711TMC3    C410511   2.606   2.369  14.780  0.0298 -0.0524  0.0583
  711TMC3    C510512   2.699   2.304  14.867  0.4136  0.3247  0.7320
  711TMC3    C610513   2.726   2.355  14.995  0.2445  0.2935  0.2127
  711TMC3     C10514   2.406   2.489  14.819  0.5835  0.1207  1.0804
  711TMC3     O10515   2.358   2.391  14.759  0.2722 -0.1485 -0.0264
  711TMC3     H10516   2.590   2.660  14.961 -2.9163 -0.9910 -0.2601
  711TMC3    H110517   2.567   2.325  14.688 -0.5928 -0.9903  0.7707
  711TMC3    H210518   2.765   2.299  15.079  1.7323  0.5896 -0.2835
  711TMC3    C710519   2.715   2.162  14.872  0.1714 -0.3010 -0.6586
  711TMC3    C810520   2.718   2.554  15.140  0.1435 -0.6555 -0.5635
  711TMC3    O110521   2.789   2.119  14.954  0.0102  0.4503 -0.7734
  711TMC3    O210522   2.632   2.621  15.191 -0.4510  0.0029  0.1631
  712MPD2     C10523   3.467   2.880  13.621  0.7007  0.0061 -0.2165
  712MPD2    C110524   3.363   2.981  13.624  0.3873  0.3460  0.0756
  712MPD2    C210525   3.403   3.110  13.646  0.2680  1.1103  0.3989
  712MPD2    C310526   3.535   3.141  13.657 -0.0250 -0.7682 -0.1253
  712MPD2    C410527   3.629   3.046  13.637 -0.3543 -0.0927  0.7044
  712MPD2    C510528   3.598   2.916  13.630 -0.9729  0.3885 -0.6712
  712MPD2     H10529   3.326   3.184  13.664 -1.1386 -0.2195 -0.1594
  712MPD2    H110530   3.736   3.067  13.640  0.0294 -2.1432  1.7307
  712MPD2    H210531   3.440   2.777  13.602  2.2095 -0.6461  1.1417
  712MPD2    H310532   3.684   2.851  13.621 -0.7928  0.5991 -0.4765
  712MPD2     N10533   3.573   3.276  13.672  0.4974  0.2360 -0.3659
  712MPD2    H510534   3.673   3.290  13.662  0.2974  2.7451  1.3417
  712MPD2    N110535   3.226   2.954  13.601  0.2526  0.0914 -0.6205
  712MPD2    H710536   3.165   3.036  13.606  0.2934  0.1920 -1.6914
  713TMC3    C110537   3.572   3.494  13.738  0.3774 -0.2682  0.1585
  713TMC3    C210538   3.703   3.491  13.760  0.8436  0.3847  0.6444
  713TMC3    C310539   3.757   3.602  13.822  0.0240 -0.8568  0.3112
  713TMC3    C410540   3.491   3.606  13.762 -0.1096 -0.5521  0.2097
  713TMC3    C510541   3.542   3.718  13.811 -0.1465 -0.6742  0.2273
  713TMC3    C610542   3.674   3.707  13.843 -0.7936 -0.0983 -0.1746
  713TMC3     C10543   3.489   3.378  13.706  0.2849  0.4093  0.3067
  713TMC3     O10544   3.368   3.378  13.733  0.1488 -0.6323 -0.3483
  713TMC3     H10545   3.753   3.394  13.762 -0.6161 -0.3728  0.2907
  713TMC3    H110546   3.385   3.592  13.744 -0.0527 -0.5298 -0.1459
  713TMC3    H210547   3.706   3.802  13.885 -0.1599  1.0799 -3.3380
  713TMC3    C710548   3.532   3.827  13.725  0.7574 -0.1483 -0.5926
  713TMC3    C810549   3.900   3.641  13.790 -0.4680  1.0669  0.2022
  713TMC3    O110550   3.626   3.836  13.652 -0.1204 -0.2612 -0.3525
  713TMC3    O210551   3.917   3.764  13.799 -0.1113 -0.0134  0.3523
  714MPD2     C10552   4.706   2.063   1.348 -0.1639 -0.5206  1.2142
  714MPD2    C110553   0.082   2.057   1.253 -0.2241  0.0699 -0.1486
  714MPD2    C210554   0.077   2.134   1.142  0.1057  0.7172 -0.4714
  714MPD2    C310555   4.688   2.215   1.118 -0.0309 -0.5373 -0.3935
  714MPD2    C410556   4.591   2.223   1.219 -0.3697 -0.1194  0.2774
  714MPD2    C510557   4.593   2.140   1.329  0.1759  0.3788 -0.3271
  714MPD2     H10558   0.159   2.132   1.071 -0.6800 -1.9953 -1.3124
  714MPD2    H110559   4.512   2.297   1.210  0.0357  0.4240  1.1336
  714MPD2    H210560   4.716   2.003   1.437 -1.6382 -0.1452  1.6308
  714MPD2    H310561   4.525   2.158   1.411 -1.8925 -1.3598 -1.6490
  714MPD2     N10562   4.681   2.293   1.004  0.9069 -0.1876  0.8295
  714MPD2    H510563   0.034   2.272   0.941 -0.0349  0.4829 -0.5350
  714MPD2    N110564   0.195   1.981   1.284  0.0791  0.6942  0.4582
  714MPD2    H710565   0.198   1.929   1.371  0.9226 -3.2512 -1.9267
  715TMC3    C110566   0.408   1.894   1.294  0.5796 -0.1540  0.0644
  715TMC3    C210567   0.503   1.812   1.243  0.7376 -0.1169 -0.3150
  715TMC3    C310568   0.609   1.783   1.320 -0.1050  0.8004 -0.5485
  715TMC3    C410569   0.406   1.933   1.431  0.0592  0.6589 -0.2046
  715TMC3    C510570   0.518   1.892   1.502  1.2518 -0.2189  0.5025
  715TMC3    C610571   0.620   1.825   1.450  0.2751 -0.7352  0.3366
  715TMC3     C10572   0.301   1.950   1.206 -0.5344 -0.0005 -0.3567
  715TMC3     O10573   0.321   1.959   1.085  0.0208 -0.6433  0.1581
  715TMC3     H10574   0.504   1.798   1.135 -2.4654 -0.3128 -0.3024
  715TMC3    H110575   0.347   2.016   1.469 -0.2244  0.0566  0.6553
  715TMC3    H210576   0.696   1.788   1.518  0.1609 -0.9255  0.3593
  715TMC3    C710577   0.564   1.992   1.597 -1.0244  0.2488 -0.3126
  715TMC3    C810578   0.721   1.705   1.252 -0.6915 -0.2128 -0.3465
  715TMC3    O110579   0.673   2.029   1.571  0.3044 -0.0325  0.2209
  715TMC3    O210580   0.702   1.658   1.139 -0.4085  0.4938 -0.2252
  716MPD2     C10581   0.879   4.261   9.508  0.0788 -0.3719  0.3471
  716MPD2    C110582   1.008   4.304   9.499 -0.1202 -0.4123  0.1425
  716MPD2    C210583   1.097   4.213   9.443  0.1257 -0.1653 -0.4021
  716MPD2    C310584   1.064   4.078   9.421 -0.4504 -0.0343 -0.3920
  716MPD2    C410585   0.936   4.031   9.450  0.2795 -0.0360  0.1667
  716MPD2    C510586   0.848   4.126   9.491  0.8678 -0.4397 -0.5751
  716MPD2     H10587   1.203   4.235   9.438 -0.1663  1.2235 -0.6945
  716MPD2    H110588   0.908   3.927   9.445 -0.6669  0.2376 -0.0868
  716MPD2    H210589   0.792   4.311   9.549 -1.4395 -3.2631  0.6047
  716MPD2    H310590   0.753   4.094   9.535  1.4684  0.7715  1.6268
  716MPD2     N10591   1.170   3.991   9.374 -0.5339  0.6765 -0.6031
  716MPD2    H510592   1.258   4.036   9.353  0.2181 -0.9217 -0.8265
  716MPD2    N110593   1.044   4.437   9.539  0.3336  0.1452  0.1015
  716MPD2    H710594   0.970   4.484   9.590 -0.3260 -1.5721  0.7242
  717TMC3    C110595   1.304   3.805   9.342 -0.4225  0.5578 -0.6456
  717TMC3    C210596   1.385   3.892   9.282  0.7228 -0.1705 -0.1790
  717TMC3    C310597   1.506   3.925   9.335  0.1954  0.6256 -0.1316
  717TMC3    C410598   1.349   3.727   9.447 -0.1094  0.6973  0.1667
  717TMC3    C510599   1.463   3.767   9.504 -0.1215 -0.3088 -0.1307
  717TMC3    C610600   1.549   3.861   9.449  0.3912 -0.0844 -0.3640
  717TMC3     C10601   1.170   3.852   9.359 -0.1804 -0.1917 -0.2767
  717TMC3     O10602   1.087   3.766   9.390  0.4733  0.0890  0.3260
  717TMC3     H10603   1.345   3.940   9.193  1.1260 -0.7129 -0.6576
  717TMC3    H110604   1.273   3.680   9.507  1.1049 -0.4996  0.7462
  717TMC3    H210605   1.639   3.888   9.503 -0.2783  0.5022  0.4556
  717TMC3    C710606   1.514   3.704   9.621 -0.2461  0.2125 -0.0422
  717TMC3    C810607   1.516   4.067   9.330  0.2741  0.2918 -0.0084
  717TMC3    O110608   1.615   3.740   9.685  0.7862 -0.1748  0.4458
  717TMC3    O210609   1.419   4.129   9.289 -0.2906  0.0091  0.3861
  718MPD2     C10610   0.306   3.495  13.161 -0.9123  0.1243 -0.2313
  718MPD2    C110611   0.198   3.568  13.098 -0.4966 -0.0832  0.2638
  718MPD2    C210612   0.079   3.497  13.079 -0.0050  0.7508  0.0338
  718MPD2    C310613   0.064   3.364  13.112  0.0938  0.9602 -0.4638
  718MPD2    C410614   0.172   3.291  13.165  1.5433  0.4012  0.1993
  718MPD2    C510615   0.290   3.361  13.189 -0.0837  0.6559 -0.0447
  718MPD2     H10616   4.710   3.536  13.040  0.8106  3.4663  0.8116
  718MPD2    H110617   0.169   3.184  13.181  1.1456  0.5245  0.9374
  718MPD2    H210618   0.397   3.547  13.189 -1.1516 -0.4991  1.7629
  718MPD2    H310619   0.371   3.307  13.237 -0.1701  2.2166  1.8534
  718MPD2     N10620   4.658   3.315  13.081  0.4949 -0.3522  0.2252
  718MPD2    H510621   4.593   3.376  13.033 -2.0856 -2.3836  1.0809
  718MPD2    N110622   0.213   3.702  13.057  0.2492 -0.4802  0.0153
  718MPD2    H710623   0.302   3.747  13.075 -0.0621  0.7498 -1.5269
  719TMC3    C110624   0.169   3.898  12.925 -0.1892 -0.5040 -0.0268
  719TMC3    C210625   0.062   3.933  12.840  0.1675  0.2551  0.5957
  719TMC3    C310626   0.095   3.966  12.709 -0.4716 -0.0536  0.1054
  719TMC3    C410627   0.296   3.894  12.879 -0.3050 -0.1063  0.1591
  719TMC3    C510628   0.313   3.940  12.754  0.1729  0.1108 -0.5185
  719TMC3    C610629   0.219   3.983  12.662  0.3621  0.2463  0.0172
  719TMC3     C10630   0.116   3.780  12.998 -0.2217 -0.8340  0.2542
  719TMC3     O10631   4.719   3.759  12.987 -0.1282  0.2804  0.6436
  719TMC3     H10632   4.682   3.942  12.870  0.6364 -0.6874  2.4854
  719TMC3    H110633   0.378   3.849  12.934 -0.2994  0.2747  0.4651
  719TMC3    H210634   0.237   4.034  12.568 -0.7278  0.5637 -0.0112
  719TMC3    C710635   0.455   3.943  12.702  0.6239 -0.5277 -0.6408
  719TMC3    C810636   0.008   3.896  12.612 -0.2753  0.5248 -0.0567
  719TMC3    O110637   0.474   3.947  12.582 -0.2897 -0.3364 -0.5931
  719TMC3    O210638   0.018   3.941  12.497 -0.0103  0.2528  0.2546
  720MPD2     C10639   4.082   0.342  13.962  0.2004  0.3059  0.6974
  720MPD2    C110640   4.193   0.322  13.875 -0.1817 -0.8901  0.2626
  720MPD2    C210641   4.308   0.271  13.929  0.0162  0.4511 -0.5649
  720MPD2    C310642   4.322   0.225  14.059  0.4800 -0.1453 -0.1058
  720MPD2    C410643   4.211   0.238  14.139 -0.0746  0.0100  0.3458
  720MPD2    C510644   4.092   0.298  14.090 -0.2423 -0.1825 -0.1086
  720MPD2     H10645   4.389   0.256  13.858  0.3741 -0.1121 -0.0369
  720MPD2    H110646   4.221   0.218  14.245 -1.0308  2.8487  0.9899
  720MPD2    H210647   3.986   0.381  13.931  0.3919  2.2992  2.5926
  720MPD2    H310648   4.008   0.308  14.158  1.3120  0.3298  1.7353
  720MPD2     N10649   4.455   0.191  14.099  0.1791 -0.3841 -0.0141
  720MPD2    H510650   4.530   0.209  14.033  1.3267 -1.3648  1.0236
  720MPD2    N110651   4.195   0.357  13.739 -0.8176  0.1969 -0.3869
  720MPD2    H710652   4.281   0.335  13.689 -0.2638 -1.6770  1.4162
  721TMC3    C110653   4.627   0.174  14.252  0.3927 -0.8417  0.1912
  721TMC3    C210654   4.664   0.146  14.375  0.1321  0.1393  0.6639
  721TMC3    C310655   0.043   0.223  14.426 -0.5075  0.3066 -0.1565
  721TMC3    C410656   4.694   0.276  14.179  0.4666 -0.2031  0.2621
  721TMC3    C510657   0.085   0.340  14.226  0.3717  0.3723  0.2383
  721TMC3    C610658   0.122   0.319  14.357  0.6686 -0.5226 -0.4557
  721TMC3     C10659   4.486   0.146  14.222  0.1252  0.2450 -0.5175
  721TMC3     O10660   4.421   0.095  14.313 -0.4575 -0.0650 -0.3415
  721TMC3     H10661   4.619   0.064  14.430 -1.7917  1.1794  0.6710
  721TMC3    H110662   4.677   0.306  14.076 -0.7966  0.8255  0.7816
  721TMC3    H210663   0.200   0.379  14.403  0.9834  0.1667 -1.8857
  721TMC3    C710664   0.176   0.417  14.149 -0.5589  0.2820  0.5250
  721TMC3    C810665   0.074   0.211  14.574  0.4109  0.4673  0.1781
  721TMC3    O110666   0.288   0.436  14.201  0.7755  0.8557 -0.0553
  721TMC3    O210667   0.194   0.221  14.595  0.2585 -0.5523  0.4202
  722MPD2     C10668   2.449   3.686  13.533  0.2615 -0.1966  0.5166
  722MPD2    C110669   2.404   3.798  13.464 -0.0675 -0.2133 -0.6445
  722MPD2    C210670   2.278   3.794  13.415 -0.5531  0.3055 -0.4359
  722MPD2    C310671   2.195   3.681  13.419  0.0642  0.2862  0.2510
  722MPD2    C410672   2.244   3.566  13.480 -0.0997 -0.3368  0.3427
  722MPD2    C510673   2.374   3.572  13.533 -0.4006  0.1825  0.0505
  722MPD2     H10674   2.250   3.883  13.361 -1.8559 -0.8707 -1.7072
  722MPD2    H110675   2.177   3.482  13.494 -2.7218  1.3202 -2.2635
  722MPD2    H210676   2.551   3.676  13.569  0.2800 -1.9206 -0.0379
  722MPD2    H310677   2.411   3.487  13.589 -0.5715 -0.0164 -0.1318
  722MPD2     N10678   2.065   3.686  13.359 -0.6500  0.1660 -0.5095
  722MPD2    H510679   2.036   3.781  13.339  0.6583  0.4663 -0.9646
  722MPD2    N110680   2.475   3.922  13.439 -0.0089  0.5566  0.0610
  722MPD2    H710681   2.423   3.986  13.381  0.1068  1.4511  0.9569
  723TMC3    C110682   1.882   3.628  13.230  0.0444 -0.5892  0.2009
  723TMC3    C210683   1.835   3.531  13.145  0.2886  0.2596 -0.3955
  723TMC3    C310684   1.749   3.566  13.041 -0.4582 -0.1476  0.2047
  723TMC3    C410685   1.838   3.759  13.220 -0.5086 -0.1280  0.7164
  723TMC3    C510686   1.759   3.792  13.110  0.2304 -0.5515 -0.1476
  723TMC3    C610687   1.713   3.699  13.017  0.2666  0.5491  0.2914
  723TMC3     C10688   1.985   3.584  13.325  0.4947  0.1520 -0.8931
  723TMC3     O10689   1.998   3.462  13.334 -0.0888  0.6093 -0.8394
  723TMC3     H10690   1.870   3.429  13.160 -1.3391 -0.4012 -1.0873
  723TMC3    H110691   1.852   3.812  13.314  0.4402  2.0256 -0.6459
  723TMC3    H210692   1.675   3.730  12.921 -1.0580  0.6785  0.8617
  723TMC3    C710693   1.687   3.916  13.110 -0.3236 -0.6830 -0.7121
  723TMC3    C810694   1.667   3.464  12.975  0.2643 -0.6151  0.3599
  723TMC3    O110695   1.594   3.915  13.028  0.1293 -0.1430  0.1335
  723TMC3    O210696   1.566   3.506  12.918 -0.7437  0.4761  0.3100
  724TMC3    C110697   3.349   1.945  10.846  0.1206  0.1446 -0.1883
  724TMC3    C210698   3.293   1.880  10.734 -0.1484 -0.4743  0.2067
  724TMC3    C310699   3.336   1.931  10.611  0.4806 -0.2062  0.6646
  724TMC3    C410700   3.443   2.034  10.825 -0.4163  0.0708  0.1687
  724TMC3    C510701   3.477   2.079  10.699  0.3377 -0.3702  0.0620
  724TMC3    C610702   3.423   2.035  10.586 -0.6822  0.3413  0.6766
  724TMC3     C10703   3.321   1.911  10.979  0.3755 -0.5751 -0.4379
  724TMC3     O10704   3.350   1.985  11.072 -0.2276  0.0937  0.2771
  724TMC3     H10705   3.204   1.818  10.743  0.4870 -1.2858  0.8570
  724TMC3    H110706   3.498   2.076  10.909  0.4708  0.6458 -0.6936
  724TMC3    H210707   3.450   2.078  10.490  0.7847  0.6245  1.2220
  724TMC3    C710708   3.559   2.194  10.682 -0.5403 -0.0413 -0.7500
  724TMC3    C810709   3.242   1.887  10.509 -0.1867 -0.0104  0.1604
  724TMC3    O110710   3.628   2.209  10.582  0.8953 -0.1581  0.0317
  724TMC3    O210711   3.158   1.799  10.535  0.4463  0.3580  0.2832
  725TMC3    C110712   4.551   0.640  12.369  0.1617 -0.6369  0.2205
  725TMC3    C210713   4.446   0.695  12.305  0.1636  0.6605  0.3348
  725TMC3    C310714   4.359   0.608  12.244 -0.6373  0.7371 -0.4727
  725TMC3    C410715   4.570   0.508  12.390 -0.2525 -0.0513  0.0984
  725TMC3    C510716   4.470   0.428  12.356 -0.8726 -0.3689  0.2592
  725TMC3    C610717   4.372   0.472  12.275  0.4143 -0.2689  0.2792
  725TMC3     C10718   4.654   0.734  12.408 -0.1097 -0.4516 -0.2620
  725TMC3     O10719   4.627   0.850  12.435  0.7886  0.4682 -0.6422
  725TMC3     H10720   4.440   0.803  12.297  1.0405  0.8621  2.5061
  725TMC3    H110721   4.649   0.475  12.458  0.3898 -0.9783 -1.0808
  725TMC3    H210722   4.304   0.400  12.231  1.4622 -2.4155  2.2096
  725TMC3    C710723   4.477   0.289  12.391  0.2716 -0.5824  0.6827
  725TMC3    C810724   4.232   0.665  12.207  0.2168 -0.0528 -0.4936
  725TMC3    O110725   4.590   0.258  12.425  0.3170  0.0304  0.6606
  725TMC3    O210726   4.141   0.584  12.220  0.9128  0.4447 -0.8067
  726MPD2     C10727   2.509   2.114  10.346 -0.0826  0.3592  0.0178
  726MPD2    C110728   2.453   2.241  10.382  0.0171 -0.1890  0.3225
  726MPD2    C210729   2.324   2.238  10.436 -0.1064 -0.5053  0.5267
  726MPD2    C310730   2.257   2.117  10.465  0.0546 -0.6125  0.0121
  726MPD2    C410731   2.318   2.001  10.429 -0.2597 -0.8200  0.4952
  726MPD2    C510732   2.443   1.997  10.372  0.4691 -0.4276  0.3720
  726MPD2     H10733   2.271   2.331  10.451  2.0464  1.0458 -1.5080
  726MPD2    H110734   2.267   1.905  10.433 -1.3539 -0.3351 -1.8381
  726MPD2    H210735   2.604   2.106  10.296  0.5544  0.1518  1.2662
  726MPD2    H310736   2.471   1.900  10.334 -1.9389 -0.2395 -1.8181
  726MPD2     N10737   2.134   2.110  10.525  0.1825 -0.0663 -0.4352
  726MPD2    H510738   2.089   2.020  10.518  2.3079 -1.2576  1.0835
  726MPD2    N110739   2.518   2.364  10.360 -0.1129  0.1078 -0.0866
  726MPD2    H710740   2.457   2.444  10.369  0.4848  0.5067  0.4269
  727TMC3    C110741   2.689   2.509  10.289  0.4843  0.1185 -0.5297
  727TMC3    C210742   2.803   2.565  10.337  0.9265  0.4768 -0.7347
  727TMC3    C310743   2.828   2.696  10.303 -0.0803 -0.4819  0.3582
  727TMC3    C410744   2.600   2.586  10.221 -0.1010 -0.0167 -0.2992
  727TMC3    C510745   2.626   2.711  10.185  0.2444 -0.2354  0.8821
  727TMC3    C610746   2.740   2.769  10.235  0.2264  0.5250 -0.4034
  727TMC3     C10747   2.652   2.374  10.317  0.2567  0.4817  0.6557
  727TMC3     O10748   2.745   2.294  10.323 -0.1592  0.2223  0.2488
  727TMC3     H10749   2.882   2.499  10.370  1.2656  2.0952  1.6455
  727TMC3    H110750   2.503   2.544  10.195 -1.4279 -0.3179  4.9676
  727TMC3    H210751   2.779   2.868  10.211  1.2853  0.2829  0.3215
  727TMC3    C710752   2.545   2.770  10.080  0.6032  0.4072  0.3424
  727TMC3    C810753   2.920   2.769  10.383  0.0414  0.6936  0.1776
  727TMC3    O110754   2.459   2.693  10.035  0.1004  0.0524 -0.2909
  727TMC3    O210755   2.959   2.876  10.338  0.3500 -0.8314  0.2375
  728TMC3    C110756   1.649   0.942  15.715  0.1576  1.0326  0.2938
  728TMC3    C210757   1.692   0.828  15.649 -0.0066  0.5471  0.8553
  728TMC3    C310758   1.776   0.838  15.541  0.2184  0.4169  0.3161
  728TMC3    C410759   1.704   1.066  15.680 -0.8063 -0.5326 -0.2792
  728TMC3    C510760   1.791   1.070  15.577  0.2932 -0.0900 -0.2953
  728TMC3    C610761   1.828   0.960  15.502 -0.1926 -0.1625 -0.9656
  728TMC3     C10762   1.524   0.943  15.766 -0.3160 -0.6256  0.0039
  728TMC3     O10763   1.492   1.015  15.860  0.3154  0.5701  0.3932
  728TMC3     H10764   1.671   0.733  15.699 -0.2882  0.8614  1.3361
  728TMC3    H110765   1.663   1.156  15.724 -1.3952 -0.9004 -0.0781
  728TMC3    H210766   1.897   0.978  15.420 -0.0271  2.3126 -0.2751
  728TMC3    C710767   1.835   1.196  15.522 -0.0341  0.0235  0.4297
  728TMC3    C810768   1.826   0.713  15.495 -0.3783 -0.1731 -0.4110
  728TMC3    O110769   1.858   1.210  15.400  0.9127 -0.0450  0.1528
  728TMC3    O210770   1.787   0.611  15.557 -0.5805 -0.6439  0.4314
  729MPD2     C10771   3.762   1.459  16.504 -0.6457 -0.2508 -0.5303
  729MPD2    C110772   3.744   1.596  16.525 -0.4871  0.3989  0.0808
  729MPD2    C210773   3.683   1.634  16.640  0.3683 -0.6905 -0.3451
  729MPD2    C310774   3.634   1.539  16.732 -0.1814 -0.1818  0.3958
  729MPD2    C410775   3.651   1.405  16.713 -0.6708  0.5311 -0.6813
  729MPD2    C510776   3.712   1.370  16.595  0.6682 -0.0561 -0.2195
  729MPD2     H10777   3.673   1.737  16.671  0.5693 -0.4853 -0.9766
  729MPD2    H110778   3.607   1.336  16.783 -0.0883 -0.0246 -0.8575
  729MPD2    H210779   3.816   1.416  16.420 -0.3654  0.6353 -0.8048
  729MPD2    H310780   3.721   1.264  16.576  3.3824  0.7020 -3.1251
  729MPD2     N10781   3.586   1.578  16.855 -0.1359 -0.7793 -0.4840
  729MPD2    H510782   3.589   1.498  16.918 -2.0511  0.1420  0.7541
  729MPD2    N110783   3.810   1.686  16.436 -0.7007  0.5278  0.1733
  729MPD2    H710784   3.865   1.640  16.364 -2.2814 -0.4846 -0.3826
  730TMC3    C110785   3.538   1.741  17.026  0.2066 -0.3157 -0.2253
  730TMC3    C210786   3.647   1.686  17.089 -0.3050 -0.1153  0.1424
  730TMC3    C310787   3.725   1.762  17.170 -0.2031 -0.2323  0.0968
  730TMC3    C410788   3.492   1.866  17.062  0.1179  0.6489  0.3167
  730TMC3    C510789   3.567   1.937  17.157  0.1288  0.1090  0.4455
  730TMC3    C610790   3.686   1.893  17.203 -0.6597 -0.3304  0.2967
  730TMC3     C10791   3.538   1.705  16.882  0.5200  0.7301 -0.2203
  730TMC3     O10792   3.484   1.783  16.808 -0.2139  0.4722  0.2800
  730TMC3     H10793   3.680   1.584  17.074  0.8104  0.1413  0.8937
  730TMC3    H110794   3.407   1.917  17.019  0.9075 -0.2080 -2.2744
  730TMC3    H210795   3.754   1.936  17.276  1.0732 -0.8200 -1.0318
  730TMC3    C710796   3.555   2.083  17.155 -0.2460 -0.4119  0.2186
  730TMC3    C810797   3.866   1.737  17.149  0.1544  0.2301  0.1849
  730TMC3    O110798   3.481   2.125  17.065 -0.1281  0.7524  0.2891
  730TMC3    O210799   3.911   1.625  17.133  0.0699  0.2630 -0.2576
  731MPD2     C10800   3.928   4.127  11.699  0.3903  0.4745  0.6147
  731MPD2    C110801   4.022   4.197  11.760  1.0485  0.4648 -0.6486
  731MPD2    C210802   3.992   4.246  11.890 -0.4202  0.5890  0.2471
  731MPD2    C310803   3.874   4.224  11.955  0.0453  0.1757  0.4804
  731MPD2    C410804   3.775   4.158  11.890 -0.0867  0.2296  0.2985
  731MPD2    C510805   3.804   4.108  11.759  0.4856  0.6798  0.6254
  731MPD2     H10806   4.066   4.311  11.938 -1.7347  2.5322 -0.3520
  731MPD2    H110807   3.683   4.136  11.942  1.0567 -1.3022  1.6499
  731MPD2    H210808   3.944   4.073  11.606 -0.9481  2.6250 -0.8509
  731MPD2    H310809   3.749   4.029  11.710  0.8343  0.8653 -0.0574
  731MPD2     N10810   3.863   4.278  12.082  0.4428  0.3214  0.2709
  731MPD2    H510811   3.948   4.303  12.130  0.5882 -0.8906  0.6369
  731MPD2    N110812   4.142   4.204  11.688  0.5522 -0.1544  0.1407
  731MPD2    H710813   4.159   4.141  11.610  1.3192  1.0185 -0.6418
  732TMC3    C110814   4.345   4.299  11.603 -0.5564 -0.0776 -0.5271
  732TMC3    C210815   4.282   4.281  11.478  0.2164  0.6625  0.6727
  732TMC3    C310816   4.307   4.370  11.382 -0.4059 -0.4155 -0.0066
  732TMC3    C410817   4.442   4.393  11.615 -0.4572  0.1243  0.2285
  732TMC3    C510818   4.471   4.478  11.512 -0.6471 -0.0821 -0.0883
  732TMC3    C610819   4.397   4.473  11.395 -0.2027  0.5159  0.1778
  732TMC3     C10820   4.259   4.275  11.715  0.7048  0.7031 -0.7361
  732TMC3     O10821   4.283   4.348  11.813 -0.3722  0.2835  0.4543
  732TMC3     H10822   4.216   4.197  11.461 -0.7799  1.4682  0.5638
  732TMC3    H110823   4.478   4.411  11.716 -0.8432 -0.3072  0.4426
  732TMC3    H210824   4.399   4.541  11.310  1.4145 -0.9410 -0.9552
  732TMC3    C710825   4.563   4.586  11.534  0.1675  0.1807  0.0819
  732TMC3    C810826   4.203   4.353  11.282  0.5087 -0.0706  0.8188
  732TMC3    O110827   4.530   4.698  11.502  0.4203  0.5957  0.3471
  732TMC3    O210828   4.222   4.284  11.182 -0.3264 -0.4255 -0.0526
  733TMC3    C110829   4.289   3.065  12.974  0.1125  0.4730 -0.6527
  733TMC3    C210830   4.393   3.093  13.065 -0.1782  0.0800 -0.0420
  733TMC3    C310831   4.510   3.154  13.016  0.5162  0.2043  0.0126
  733TMC3    C410832   4.317   3.099  12.846  0.6779 -0.4903  0.0072
  733TMC3    C510833   4.438   3.151  12.804 -0.3540 -0.5049  0.4793
  733TMC3    C610834   4.540   3.173  12.887 -0.1919  0.5680 -0.6703
  733TMC3     C10835   4.153   3.099  13.018  0.1443  0.0240 -0.1886
  733TMC3     O10836   4.101   3.193  12.959  0.1062  0.4505  0.1244
  733TMC3     H10837   4.389   3.093  13.173 -1.5769 -2.1656 -0.0867
  733TMC3    H110838   4.239   3.068  12.777  0.0501  1.0712  0.0171
  733TMC3    H210839   4.639   3.212  12.868 -0.1249 -0.6620 -2.7904
  733TMC3    C710840   4.434   3.238  12.684  0.1416 -0.5270  0.0118
  733TMC3    C810841   4.612   3.192  13.107 -0.4877  0.6442 -0.1420
  733TMC3    O110842   4.382   3.200  12.581 -1.1245  0.2078  0.0610
  733TMC3    O210843   4.666   3.103  13.171 -0.0438  0.2145 -0.2256
  734MPD2     C10844   2.250   1.009  12.328 -0.1776 -0.7508 -0.2590
  734MPD2    C110845   2.302   0.907  12.251 -0.1461  0.1201  0.1451
  734MPD2    C210846   2.367   0.934  12.135  0.3896  0.8330  0.1669
  734MPD2    C310847   2.370   1.068  12.098 -0.1204 -1.0938  0.4701
  734MPD2    C410848   2.307   1.167  12.174 -0.7122  0.0585  0.0086
  734MPD2    C510849   2.244   1.138  12.287 -0.3557 -0.9564 -0.5370
  734MPD2     H10850   2.438   0.870  12.086 -1.0732 -0.3853 -0.3729
  734MPD2    H110851   2.302   1.273  12.149  1.6341  0.0202 -0.6148
  734MPD2    H210852   2.194   0.972  12.412  0.8273 -2.4659 -0.3528
  734MPD2    H310853   2.195   1.210  12.352  0.1589 -0.5521 -0.5866
  734MPD2     N10854   2.433   1.094  11.977 -0.0737  0.8348 -0.3563
  734MPD2    H510855   2.485   1.019  11.932 -0.9961  0.5418 -0.9392
  734MPD2    N110856   2.289   0.773  12.294  0.4868 -0.1832  0.4883
  734MPD2    H710857   2.244   0.757  12.383  0.4707  1.2632  0.7345
  735TMC3    C110858   2.263   0.539  12.266 -0.2828  0.3534 -0.2270
  735TMC3    C210859   2.187   0.494  12.159 -0.1344 -0.1631 -0.4827
  735TMC3    C310860   2.188   0.368  12.116 -0.1739  0.1044 -0.7634
  735TMC3    C410861   2.360   0.448  12.313  0.1361  0.4712  0.3337
  735TMC3    C510862   2.357   0.322  12.266 -0.1163  0.6232  0.6905
  735TMC3    C610863   2.270   0.274  12.176  0.3012  0.1869 -0.2490
  735TMC3     C10864   2.321   0.660  12.221 -0.1686 -0.1653 -0.0183
  735TMC3     O10865   2.378   0.651  12.116  0.4422 -0.4922  0.5527
  735TMC3     H10866   2.121   0.564  12.109 -0.6911  0.6239  1.3491
  735TMC3    H110867   2.443   0.476  12.378  1.5192 -0.4131 -1.0434
  735TMC3    H210868   2.269   0.173  12.136  0.4958  0.6709 -1.4842
  735TMC3    C710869   2.484   0.253  12.283 -0.0930  0.5156 -0.1160
  735TMC3    C810870   2.190   0.356  11.970  0.0075  0.8389 -0.0321
  735TMC3    O110871   2.584   0.320  12.295 -0.6074  0.0695 -0.4424
  735TMC3    O210872   2.126   0.267  11.912 -0.1083 -0.0879 -0.6474
  736MPD2     C10873   2.559   4.633  12.177 -0.1206  0.1331 -0.0497
  736MPD2    C110874   2.580   0.040  12.204 -0.3291 -0.3771  0.0789
  736MPD2    C210875   2.703   0.094  12.171  0.1760 -0.4222 -0.2216
  736MPD2    C310876   2.797   0.019  12.109 -0.4773  0.4926  0.2523
  736MPD2    C410877   2.776   4.609  12.098 -0.0713 -0.2924 -0.0448
  736MPD2    C510878   2.661   4.551  12.136 -0.1066 -0.1026 -0.3667
  736MPD2     H10879   2.728   0.199  12.182  0.2787 -0.4729  0.0361
  736MPD2    H110880   2.861   4.546  12.074  0.4668  0.4468 -0.0782
  736MPD2    H210881   2.466   4.583  12.198 -0.7752  1.6966  0.7991
  736MPD2    H310882   2.652   4.444  12.145 -1.9513 -0.0035 -1.1130
  736MPD2     N10883   2.919   0.057  12.064  0.2018 -0.1447 -0.4004
  736MPD2    H510884   2.996   4.715  12.062  1.2957  1.1235  0.2618
  736MPD2    N110885   2.475   0.117  12.259  0.5939 -0.3528  0.2250
  736MPD2    H710886   2.385   0.071  12.249  1.0650 -0.5370 -3.1025
  737TMC3    C110887   3.075   0.195  11.940 -0.3579 -0.2640  0.4679
  737TMC3    C210888   3.123   0.315  11.897  0.2896 -0.2164  0.1010
  737TMC3    C310889   3.184   0.318  11.774  0.8440  0.0329  0.1773
  737TMC3    C410890   3.113   0.081  11.871  0.4611  0.4215 -0.1515
  737TMC3    C510891   3.183   0.091  11.753 -0.0330 -0.0355  0.4543
  737TMC3    C610892   3.203   0.209  11.690 -0.4266 -0.0691  0.0308
  737TMC3     C10893   2.953   0.185  12.023 -0.0943 -0.9553 -0.1761
  737TMC3     O10894   2.884   0.280  12.047 -0.1489 -0.1958 -0.0768
  737TMC3     H10895   3.107   0.405  11.955  1.0684 -0.7855  1.1864
  737TMC3    H110896   3.114   4.702  11.904 -0.0130  1.0519  1.8346
  737TMC3    H210897   3.247   0.220  11.591 -0.1386 -1.3578  0.0192
  737TMC3    C710898   3.179   4.691  11.683 -0.1617  0.1567 -0.5452
  737TMC3    C810899   3.214   0.455  11.726  0.0906 -0.2808 -0.4447
  737TMC3    O110900   3.080   4.625  11.706  0.1946 -0.2197  0.0271
  737TMC3    O210901   3.189   0.549  11.805  0.2973 -0.4813 -0.3663
  738MPD2     C10902   2.758   4.335  14.881  0.3974  0.3787 -0.0940
  738MPD2    C110903   2.850   4.246  14.932  0.3924  0.5559 -0.2518
  738MPD2    C210904   2.982   4.272  14.899  0.1417 -0.1189 -0.8294
  738MPD2    C310905   3.020   4.382  14.819 -0.3758  0.1706  0.0701
  738MPD2    C410906   2.920   4.461  14.772  0.2630 -0.8527  0.1469
  738MPD2    C510907   2.793   4.432  14.801  0.2568  0.0749  0.2817
  738MPD2     H10908   3.061   4.208  14.935  0.2885  1.8390  2.3110
  738MPD2    H110909   2.942   4.539  14.700 -1.9291 -0.0487  0.3779
  738MPD2    H210910   2.651   4.317  14.881  0.5971 -0.8111 -0.3713
  738MPD2    H310911   2.714   4.487  14.750 -0.7945 -3.6429 -2.0544
  738MPD2     N10912   3.150   4.420  14.785 -0.0841  0.1703 -0.7922
  738MPD2    H510913   3.158   4.499  14.723  2.3479  1.1748  0.7917
  738MPD2    N110914   2.823   4.131  15.004  0.7275  0.7196  0.4709
  738MPD2    H710915   2.901   4.074  15.035  0.0448 -0.2034  0.4956
  739TMC3    C110916   3.386   4.433  14.777  0.1085  0.0736  0.2706
  739TMC3    C210917   3.377   4.478  14.648 -0.3103 -0.8698 -0.4288
  739TMC3    C310918   3.495   4.515  14.583 -0.4457  0.5870  0.4705
  739TMC3    C410919   3.510   4.414  14.838 -0.3381 -0.0573 -0.6692
  739TMC3    C510920   3.623   4.446  14.767  0.9974  0.6260  1.4755
  739TMC3    C610921   3.617   4.498  14.635 -0.5103 -0.8399  0.5754
  739TMC3     C10922   3.267   4.363  14.832  0.5850  1.0411  0.0210
  739TMC3     O10923   3.276   4.299  14.936  0.2704  0.3203 -0.8991
  739TMC3     H10924   3.279   4.485  14.602 -0.4785  1.0070  0.1992
  739TMC3    H110925   3.514   4.380  14.940 -0.9861  1.1503 -0.2402
  739TMC3    H210926   3.702   4.524  14.573 -0.7322 -1.5414 -0.0186
  739TMC3    C710927   3.749   4.421  14.824  0.3402 -0.4091  0.1128
  739TMC3    C810928   3.475   4.558  14.444 -0.1065  0.8731  0.2857
  739TMC3    O110929   3.747   4.361  14.931 -0.4321 -0.2431  0.2979
  739TMC3    O210930   3.363   4.534  14.399 -0.4186 -0.0386 -0.2785
  740TMC3    C110931   4.168   0.677  14.123 -0.0786  0.0120  0.8651
  740TMC3    C210932   4.196   0.651  14.257  0.3553 -0.5286 -0.3628
  740TMC3    C310933   4.310   0.582  14.278  0.2662 -0.1601  0.4200
  740TMC3    C410934   4.251   0.652  14.021 -0.4013  0.4260 -0.6916
  740TMC3    C510935   4.366   0.582  14.052  0.3935  1.0569 -0.1948
  740TMC3    C610936   4.398   0.545  14.177  0.4749  0.8054  0.1761
  740TMC3     C10937   4.025   0.695  14.078  0.7479  0.8913 -0.8238
  740TMC3     O10938   4.003   0.740  13.968 -0.1800  0.1126  0.8817
  740TMC3     H10939   4.123   0.670  14.336 -0.1461 -0.9305 -0.7334
  740TMC3    H110940   4.209   0.657  13.921  1.9616  3.3665 -1.5240
  740TMC3    H210941   4.485   0.484  14.198 -0.1222 -0.7382 -1.7847
  740TMC3    C710942   4.453   0.546  13.947  0.0276 -0.4223  0.3959
  740TMC3    C810943   4.345   0.524  14.407  0.1467  0.5583 -0.1457
  740TMC3    O110944   4.556   0.481  13.979 -0.1394  0.0588 -0.3318
  740TMC3    O210945   4.452   0.467  14.405  0.2029  0.3764 -0.0910
  741TMC3    C110946   3.094   0.073  14.076 -0.6609 -0.9114  0.4683
  741TMC3    C210947   3.003   4.694  14.083  0.5395 -0.2739  0.0177
  741TMC3    C310948   2.975   4.645  14.204  0.9137  0.1266 -0.5540
  741TMC3    C410949   3.155   0.114  14.189 -0.7443 -0.2805  0.0891
  741TMC3    C510950   3.148   0.035  14.299  0.6746  0.6705  0.3351
  741TMC3    C610951   3.046   4.667  14.315  0.5695 -0.6378 -0.5942
  741TMC3     C10952   3.107   0.154  13.955  0.3652  0.1359  0.0712
  741TMC3     O10953   3.208   0.219  13.953  0.1917  0.0615 -0.0914
  741TMC3     H10954   2.969   4.647  13.991 -0.0041 -1.3938  0.7906
  741TMC3    H110955   3.226   0.195  14.182 -0.2632 -0.7556 -0.4421
  741TMC3    H210956   3.001   4.643  14.411  1.8057  0.1386  0.1714
  741TMC3    C710957   3.207   0.083  14.417 -0.4106 -0.9906  0.1167
  741TMC3    C810958   2.861   4.557  14.207  0.1795  0.1785 -0.3372
  741TMC3    O110959   3.153   0.053  14.520  0.6903 -0.1685  0.2528
  741TMC3    O210960   2.789   4.549  14.107  0.1942  0.1479 -0.2113
  742TMC3    C110961   2.849   3.351  15.181  0.0117 -0.6784 -0.6989
  742TMC3    C210962   2.776   3.376  15.069 -0.2852  0.0380  0.8446
  742TMC3    C310963   2.828   3.333  14.947 -0.2901  0.1466  0.6837
  742TMC3    C410964   2.989   3.330  15.177 -0.1546  0.1263 -0.1588
  742TMC3    C510965   3.044   3.293  15.052  0.4446  0.8363  0.0760
  742TMC3    C610966   2.962   3.294  14.940 -0.9670 -0.1479 -0.4026
  742TMC3     C10967   2.794   3.405  15.306  0.5804  0.0936  0.1666
  742TMC3     O10968   2.720   3.504  15.300  0.0550  0.9490 -0.1936
  742TMC3     H10969   2.669   3.382  15.085 -0.5405  1.3877 -1.3758
  742TMC3    H110970   3.038   3.316  15.272  2.5291 -0.6976 -1.6489
  742TMC3    H210971   3.006   3.273  14.843  1.2882  0.0793  0.5675
  742TMC3    C710972   3.180   3.247  15.036 -0.1554  0.2328 -0.5021
  742TMC3    C810973   2.735   3.277  14.854 -0.4386  0.5356  0.1222
  742TMC3    O110974   3.222   3.194  14.939 -0.5691 -0.3013 -0.6531
  742TMC3    O210975   2.795   3.198  14.782  0.5660  0.2659  0.0504
  743MPD2     C10976   1.176   0.115   2.034 -0.2470  0.5650 -0.3290
  743MPD2    C110977   1.210   0.100   1.901 -0.7820 -0.0351 -0.0760
  743MPD2    C210978   1.343   0.100   1.858 -1.0231  1.1519 -0.6791
  743MPD2    C310979   1.437   0.131   1.955 -0.0347  0.0739 -0.0830
  743MPD2    C410980   1.402   0.144   2.089 -0.2194 -0.3883  0.1050
  743MPD2    C510981   1.271   0.135   2.119  0.5176  0.0061 -0.6710
  743MPD2     H10982   1.375   0.086   1.755 -1.0671  1.3050 -0.7146
  743MPD2    H110983   1.470   0.149   2.174 -0.0679  0.5388 -0.0733
  743MPD2    H210984   1.075   0.100   2.072  0.1508 -0.8134  0.1880
  743MPD2    H310985   1.254   0.145   2.226 -0.5701  1.0411 -0.9415
  743MPD2     N10986   1.571   0.134   1.913 -0.3068  0.3171 -0.1961
  743MPD2    H510987   1.588   0.131   1.813 -3.1858  1.2575 -0.7155
  743MPD2    N110988   1.107   0.089   1.806 -0.3619  0.2894 -0.1100
  743MPD2    H710989   1.014   0.086   1.847 -0.2280 -1.4603  0.0536
  744TMC3    C110990   1.001   0.040   1.609 -0.4094 -0.1030 -0.0452
  744TMC3    C210991   0.907   0.143   1.613  0.1991 -0.4637 -0.0827
  744TMC3    C310992   0.808   0.141   1.520  0.8016 -0.2184  0.0557
  744TMC3    C410993   0.990   4.655   1.523 -0.1454  0.1508 -0.1321
  744TMC3    C510994   0.887   4.657   1.429  0.4062 -0.3637  0.0915
  744TMC3    C610995   0.798   0.038   1.435  0.5790  0.1930 -0.2272
  744TMC3     C10996   1.123   0.064   1.673  0.0547  0.4425  0.6474
  744TMC3     O10997   1.219   0.017   1.614  0.2934  0.8964 -0.1858
  744TMC3     H10998   0.927   0.227   1.679  1.8452  0.3038 -1.5239
  744TMC3    H110999   1.056   4.569   1.537 -0.7125  0.3868  4.0157
  744TMC3    H211000   0.714   0.027   1.367 -1.2307 -0.2385  2.0714
  744TMC3    C711001   0.887   4.564   1.315 -0.5970 -0.0692  0.1727
  744TMC3    C811002   0.685   0.228   1.537 -0.4950  0.2598 -0.2104
  744TMC3    O111003   0.828   4.595   1.209 -0.1410  0.3006 -0.2545
  744TMC3    O211004   0.609   0.239   1.445  0.2401  0.2253  0.9122
  745TMC3    C111005   3.022   2.842  13.587  0.1377  1.0052 -0.2416
  745TMC3    C211006   2.943   2.764  13.665 -0.2856 -0.0511  0.3020
  745TMC3    C311007   2.807   2.780  13.669  0.0272  0.6421 -0.7140
  745TMC3    C411008   2.972   2.943  13.504 -0.2967  0.5952 -0.1466
  745TMC3    C511009   2.834   2.947  13.497  0.8353  0.3176  0.1630
  745TMC3    C611010   2.747   2.876  13.587  0.0362  0.0509 -0.2319
  745TMC3     C11011   3.167   2.833  13.607  1.3911  0.1315  0.0586
  745TMC3     O11012   3.214   2.716  13.630  0.4850 -0.1175  0.5476
  745TMC3     H11013   2.993   2.690  13.726  1.3703  1.1007  0.3422
  745TMC3    H111014   3.040   2.983  13.430 -1.0608  2.0920 -0.0464
  745TMC3    H211015   2.640   2.894  13.586  0.3455  1.8111 -2.2960
  745TMC3    C711016   2.781   3.071  13.440  0.6821 -0.5968 -0.3955
  745TMC3    C811017   2.774   2.787  13.813  0.0042 -0.3836  0.3275
  745TMC3    O111018   2.672   3.108  13.483 -0.1601  0.3950  0.4371
  745TMC3    O211019   2.847   2.741  13.897  0.3275 -0.6185 -0.1833
  746TMC3    C111020   1.142   4.551  11.039  0.0634 -0.1262 -0.2378
  746TMC3    C211021   1.248   4.474  11.014  0.0252  0.6302 -0.3949
  746TMC3    C311022   1.231   4.356  10.942  1.1244  0.2503  0.1490
  746TMC3    C411023   1.016   4.517  10.997  0.4830 -0.2279 -0.2585
  746TMC3    C511024   1.003   4.395  10.950 -0.1251 -0.8105  0.1426
  746TMC3    C611025   1.101   4.305  10.929  0.6908  0.6048  0.1669
  746TMC3     C11026   1.169   4.673  11.112 -0.1411  0.2605 -0.0829
  746TMC3     O11027   1.264   4.669  11.191 -0.4227  0.0673  0.0512
  746TMC3     H11028   1.347   4.517  11.023 -0.0297  0.6512  0.1068
  746TMC3    H111029   0.928   4.577  11.017  0.7199 -0.2158  0.7811
  746TMC3    H211030   1.077   4.220  10.866 -0.3137 -0.2547  1.6923
  746TMC3    C711031   0.874   4.334  10.977 -0.6186  0.7722  0.3041
  746TMC3    C811032   1.321   4.314  10.846 -0.0773 -0.0822  0.8728
  746TMC3    O111033   0.781   4.414  10.980  0.1840 -0.1964  0.2761
  746TMC3    O211034   1.291   4.203  10.806 -0.8606  0.4000 -0.0890
  747TMC3    C111035   3.958   4.465  11.006 -0.2781  0.0496 -0.6521
  747TMC3    C211036   3.825   4.446  11.029 -0.5046  1.0523  0.3727
  747TMC3    C311037   3.759   4.517  11.118  0.2311 -0.0545 -0.1028
  747TMC3    C411038   4.025   4.563  11.076  0.8225 -0.2138 -0.6430
  747TMC3    C511039   3.956   4.630  11.172 -0.1505 -0.3360  0.6030
  747TMC3    C611040   3.822   4.615  11.197  0.2075 -0.1643  0.2093
  747TMC3     C11041   4.024   4.401  10.891 -0.2360 -0.2381 -0.0184
  747TMC3     O11042   4.141   4.382  10.911  0.4390  0.5937 -0.0408
  747TMC3     H11043   3.780   4.360  10.979 -2.7373  2.0159  0.7109
  747TMC3    H111044   4.128   4.583  11.050  1.0982  0.6177  1.0530
  747TMC3    H211045   3.764   4.685  11.256 -1.1775 -1.9029  0.9031
  747TMC3    C711046   4.020   0.020  11.245  0.0398  0.1154 -0.3399
  747TMC3    C811047   3.629   4.474  11.146 -0.2039 -0.8035 -0.4479
  747TMC3    O111048   3.955   0.073  11.334  0.1313 -0.3850 -0.3145
  747TMC3    O211049   3.567   4.404  11.062 -0.2858  0.1200  0.2338
  748MPD2     C11050   4.259   1.683   1.573  0.2292  0.3016  1.0412
  748MPD2    C111051   4.351   1.603   1.639 -0.1060  0.1188 -0.4676
  748MPD2    C211052   4.476   1.593   1.584  0.7644  0.0982 -0.9440
  748MPD2    C311053   4.511   1.638   1.464  0.4843 -0.5302  0.1865
  748MPD2    C411054   4.417   1.714   1.398 -0.2457  0.8401  0.8031
  748MPD2    C511055   4.295   1.726   1.456 -0.2007  0.3488  0.6638
  748MPD2     H11056   4.554   1.532   1.629  0.6212 -0.1826 -1.0734
  748MPD2    H111057   4.431   1.753   1.298 -2.3168  0.8237  0.4967
  748MPD2    H211058   4.156   1.699   1.600 -0.1745  1.1882 -1.0131
  748MPD2    H311059   4.222   1.781   1.398  0.9919  1.0729 -0.1501
  748MPD2     N11060   4.641   1.614   1.411  0.5906 -0.3230 -0.4466
  748MPD2    H511061   4.697   1.553   1.470 -0.7770 -0.2440  0.9485
  748MPD2    N111062   4.298   1.510   1.739  0.3575 -1.0441  0.3201
  748MPD2    H711063   4.200   1.523   1.763  0.3900 -2.0665  1.0341
  749TMC3    C111064   0.094   1.572   1.260  0.4705  0.4003 -0.6965
  749TMC3    C211065   0.125   1.451   1.315  1.1520  0.5785  0.3924
  749TMC3    C311066   0.231   1.381   1.264 -0.9880  0.2865 -0.4802
  749TMC3    C411067   0.173   1.621   1.160 -0.1673  0.2833 -0.2376
  749TMC3    C511068   0.278   1.549   1.111 -0.3454 -0.4425  0.1426
  749TMC3    C611069   0.313   1.426   1.164  0.4221  0.3063 -0.7222
  749TMC3     C11070   4.691   1.644   1.289 -0.4540  0.0918 -0.3524
  749TMC3     O11071   4.647   1.709   1.196 -0.0123  0.1848  0.3479
  749TMC3     H11072   0.078   1.414   1.405 -1.8666 -0.3018 -1.5393
  749TMC3    H111073   0.150   1.717   1.116  1.8433  1.3968  1.1783
  749TMC3    H211074   0.408   1.384   1.135  1.4942  1.2403  1.4182
  749TMC3    C711075   0.331   1.595   0.985 -0.5202 -0.5222 -0.3454
  749TMC3    C811076   0.297   1.289   1.361  0.1957 -0.2850  0.6574
  749TMC3    O111077   0.272   1.685   0.929  0.0869 -0.4908  0.7684
  749TMC3    O211078   0.246   1.283   1.473 -0.2032  0.6051  0.1881
  750MPD2     C11079   1.599   1.933  11.317  0.0017 -0.2636  0.1380
  750MPD2    C111080   1.560   1.809  11.366 -0.4240  0.0100  0.6401
  750MPD2    C211081   1.556   1.703  11.280 -0.0062  0.0507 -0.2805
  750MPD2    C311082   1.590   1.715  11.153 -1.1495 -0.1598 -0.3472
  750MPD2    C411083   1.635   1.836  11.101 -0.0519 -0.2124  0.5982
  750MPD2    C511084   1.640   1.941  11.183  0.1580 -0.7409  0.8340
  750MPD2     H11085   1.533   1.601  11.310 -0.7192  0.2668 -0.0784
  750MPD2    H111086   1.671   1.852  11.000  0.7169 -0.6021  0.8154
  750MPD2    H211087   1.613   2.028  11.367 -2.3140  0.3181 -0.3060
  750MPD2    H311088   1.677   2.035  11.145  0.2049 -0.9935  0.2567
  750MPD2     N11089   1.583   1.607  11.058  0.1486  0.0689 -0.5452
  750MPD2    H511090   1.616   1.625  10.964  1.6827 -1.3950 -0.2762
  750MPD2    N111091   1.522   1.805  11.504 -0.0604  0.0291 -0.0947
  750MPD2    H711092   1.541   1.895  11.547 -2.4160  1.2707 -1.6036
  751TMC3    C111093   1.516   1.396  10.968  0.2681  0.0593 -0.5300
  751TMC3    C211094   1.416   1.303  10.978  0.4143  0.0461 -0.3146
  751TMC3    C311095   1.383   1.226  10.869 -0.1107 -0.7517 -0.6267
  751TMC3    C411096   1.596   1.407  10.860 -0.5738 -0.1166 -0.7367
  751TMC3    C511097   1.552   1.332  10.752 -0.0281 -0.1060 -0.9004
  751TMC3    C611098   1.450   1.249  10.751  0.0904 -0.0179 -0.7889
  751TMC3     C11099   1.535   1.479  11.085 -0.0268 -0.1089 -0.3539
  751TMC3     O11100   1.472   1.452  11.183  0.3581  0.6527  0.2321
  751TMC3     H11101   1.359   1.277  11.067  0.8627  1.1665  0.2919
  751TMC3    H111102   1.684   1.470  10.856 -0.2885 -0.4242  0.5767
  751TMC3    H211103   1.428   1.191  10.662  0.3479 -1.8828  0.3755
  751TMC3    C711104   1.656   1.308  10.657  0.1512  0.8276 -0.6841
  751TMC3    C811105   1.244   1.189  10.854 -0.4570  0.4523  0.0622
  751TMC3    O111106   1.717   1.402  10.611 -0.2774 -0.5678 -0.1969
  751TMC3    O211107   1.218   1.118  10.761  0.4533 -0.2247  0.1179
  752TMC3    C111108   4.674   2.324  16.610  0.6033 -0.1779  0.5377
  752TMC3    C211109   0.004   2.446  16.606  0.3500  0.5929  0.8490
  752TMC3    C311110   4.698   2.528  16.708 -0.2254 -0.3735 -0.4772
  752TMC3    C411111   4.596   2.277  16.718 -0.5908 -0.1577  0.0545
  752TMC3    C511112   4.590   2.361  16.827  0.2575  0.6070 -0.0967
  752TMC3    C611113   4.636   2.489  16.819  0.2654  0.7585  0.3738
  752TMC3     C11114   4.676   2.252  16.486 -0.4506 -0.0056  0.4144
  752TMC3     O11115   0.049   2.263  16.414  0.2719  0.0260  0.1681
  752TMC3     H11116   0.044   2.480  16.511 -1.9581 -0.8616 -0.6511
  752TMC3    H111117   4.563   2.175  16.727 -1.3483  0.2649  2.1523
  752TMC3    H211118   4.655   2.536  16.915 -0.6975 -0.2039  1.0394
  752TMC3    C711119   4.566   2.311  16.964 -0.4564 -0.0403  0.1326
  752TMC3    C811120   4.721   2.666  16.671 -0.1837 -0.8780  0.8759
  752TMC3    O111121   4.561   2.399  17.045  0.3203 -0.4418 -0.1320
  752TMC3    O211122   0.037   2.691  16.557  0.0599 -0.0475  0.1556
  753TMC3    C111123   1.731   3.220  13.454  0.2410 -0.6833  0.0360
  753TMC3    C211124   1.758   3.166  13.575  0.5488  0.0292  0.1543
  753TMC3    C311125   1.791   3.032  13.574  0.4411  0.1674  0.0872
  753TMC3    C411126   1.718   3.144  13.345  0.4303  0.3617  0.5103
  753TMC3    C511127   1.739   3.010  13.345 -0.0635  1.0987  0.9383
  753TMC3    C611128   1.781   2.947  13.462  0.4993 -0.3977 -0.7674
  753TMC3     C11129   1.670   3.350  13.453  0.1727  0.0280  0.2043
  753TMC3     O11130   1.573   3.360  13.371  0.3583 -0.3064  0.6109
  753TMC3     H11131   1.742   3.215  13.671 -0.4348  0.0412 -0.0203
  753TMC3    H111132   1.679   3.189  13.254  2.0902  2.4853  0.8417
  753TMC3    H211133   1.780   2.839  13.461 -0.4825 -0.3867 -0.3178
  753TMC3    C711134   1.683   2.932  13.227  1.0031  0.3214 -0.0870
  753TMC3    C811135   1.765   2.969  13.700  0.6306 -0.2459  0.1162
  753TMC3    O111136   1.581   2.979  13.172 -0.4199 -0.0338  0.1507
  753TMC3    O211137   1.671   2.885  13.704 -0.4042  0.1490  0.2732
  754MPD2     C11138   0.976   1.786  12.697 -0.0895  0.9582 -0.2863
  754MPD2    C111139   0.977   1.647  12.681 -1.0970 -0.0984  0.7280
  754MPD2    C211140   0.852   1.583  12.664  0.1411 -0.5867 -0.4647
  754MPD2    C311141   0.730   1.650  12.668 -0.0223 -0.4607 -0.9190
  754MPD2    C411142   0.744   1.789  12.678 -0.0349 -0.8273 -0.4078
  754MPD2    C511143   0.861   1.852  12.696  0.8513 -0.1935  1.0917
  754MPD2     H11144   0.849   1.476  12.647  1.2503 -0.1447 -3.4610
  754MPD2    H111145   0.659   1.856  12.683  1.1181  0.6473 -0.5055
  754MPD2    H211146   1.070   1.840  12.710  0.8037 -0.5825 -0.3013
  754MPD2    H311147   0.873   1.960  12.695  2.5700 -0.3923  0.5879
  754MPD2     N11148   0.604   1.600  12.664 -0.1837 -0.0300 -0.0839
  754MPD2    H511149   0.526   1.664  12.660  0.7564  1.1575  0.7105
  754MPD2    N111150   1.097   1.577  12.670 -0.2518 -0.6951 -0.3973
  754MPD2    H711151   1.177   1.639  12.660  0.7525 -1.7789  0.9373
  755MPD2     C11152   4.720   2.060  12.959  0.2835  0.6720 -0.2716
  755MPD2    C111153   4.644   1.946  12.941 -0.4864  0.7560 -0.4563
  755MPD2    C211154   4.707   1.826  12.911  0.6572 -0.2866 -0.6018
  755MPD2    C311155   0.114   1.819  12.883  0.3992  0.4570  0.0549
  755MPD2    C411156   0.196   1.931  12.904 -0.0540 -0.6190  0.1179
  755MPD2    C511157   0.132   2.052  12.933 -0.0117 -0.9186  0.0358
  755MPD2     H11158   4.650   1.735  12.890 -1.2217  0.0564  3.0814
  755MPD2    H111159   0.304   1.920  12.900 -0.1727 -1.7330 -0.1258
  755MPD2    H211160   4.677   2.150  13.002 -0.7707  1.3150 -2.6586
  755MPD2    H311161   0.193   2.140  12.946 -1.0639 -0.0311 -1.0315
  755MPD2     N11162   0.179   1.707  12.834 -0.1734  0.1627 -0.2753
  755MPD2    H511163   0.272   1.728  12.799  0.0075 -3.3260 -1.8692
  755MPD2    N111164   4.497   1.943  12.946  0.0502 -0.2742 -0.3263
  755MPD2    H711165   4.447   1.855  12.937 -0.5630 -0.3176  3.8662
  756MPD2     C11166   0.743   2.599   9.690  0.2807 -0.2202  0.3920
  756MPD2    C111167   0.670   2.539   9.785  0.5671  0.8179  0.7135
  756MPD2    C211168   0.536   2.505   9.760 -0.6369  0.7473  0.7914
  756MPD2    C311169   0.479   2.550   9.643  0.2298 -0.0914  0.4423
  756MPD2    C411170   0.555   2.621   9.556  0.7349  0.5059 -0.1651
  756MPD2    C511171   0.687   2.641   9.572  0.0954 -0.2348  0.0160
  756MPD2     H11172   0.476   2.455   9.835 -2.1265 -1.6910 -2.0306
  756MPD2    H111173   0.521   2.652   9.458  3.6862 -0.1188 -1.3872
  756MPD2    H211174   0.847   2.628   9.699  0.3895 -0.2435 -0.7566
  756MPD2    H311175   0.749   2.686   9.494  1.3797 -0.5560  0.8451
  756MPD2     N11176   0.336   2.518   9.620 -0.4475 -0.5685 -0.2915
  756MPD2    H511177   0.284   2.470   9.693 -0.3809  0.6499  0.5626
  756MPD2    N111178   0.723   2.504   9.909 -0.2852 -0.2538 -1.0220
  756MPD2    H711179   0.660   2.479   9.985  1.0659 -0.3557  0.0722
  757MPD2     C11180   4.626   1.855   9.956 -0.5387  0.5084  0.3623
  757MPD2    C111181   0.032   1.882   9.911  1.5196  0.6645 -0.4168
  757MPD2    C211182   0.063   2.002   9.846  0.1575 -0.0588 -0.1188
  757MPD2    C311183   4.682   2.089   9.826 -0.1333 -0.4603  0.1612
  757MPD2    C411184   4.561   2.069   9.884 -0.9823 -0.5708 -0.2296
  757MPD2    C511185   4.527   1.951   9.948 -0.2321 -0.3428  0.7541
  757MPD2     H11186   0.161   2.025   9.808  1.8097 -2.8434  2.4370
  757MPD2    H111187   4.480   2.141   9.878 -0.0352  0.2423 -3.1386
  757MPD2    H211188   4.610   1.761  10.006 -2.6658 -0.5495 -2.3130
  757MPD2    H311189   4.430   1.940   9.994 -1.0212  3.2166 -0.0436
  757MPD2     N11190   4.717   2.204   9.752 -0.0379 -0.9297  0.6454
  757MPD2    H511191   0.092   2.202   9.730  0.4915  1.8288  2.7303
  757MPD2    N111192   0.119   1.772   9.931 -0.1333 -0.4341 -0.2641
  757MPD2    H711193   0.079   1.687   9.968  1.0109 -0.7075  0.3686
  758MPD2     C11194   0.867   1.770  15.851 -0.3245 -0.1442 -0.8979
  758MPD2    C111195   0.887   1.678  15.949  0.6654 -0.2367 -0.1320
  758MPD2    C211196   0.788   1.671  16.054 -0.2757  0.0274 -0.0762
  758MPD2    C311197   0.668   1.741  16.041  0.3880  0.2238  0.5765
  758MPD2    C411198   0.650   1.832  15.941  0.4962 -0.8281  0.2616
  758MPD2    C511199   0.753   1.845  15.851 -0.1821 -0.3118 -0.9649
  758MPD2     H11200   0.812   1.609  16.140 -1.2441  0.3355  0.4108
  758MPD2    H111201   0.576   1.911  15.937  1.9649  0.4517 -1.5346
  758MPD2    H211202   0.941   1.784  15.773 -0.4517 -0.5923 -1.0961
  758MPD2    H311203   0.736   1.907  15.765  1.6804 -0.5566 -1.5168
  758MPD2     N11204   0.561   1.717  16.132 -0.0318  0.6453  0.4279
  758MPD2    H511205   0.479   1.777  16.120 -0.0089  0.9816  1.9858
  758MPD2    N111206   1.016   1.608  15.955 -0.0826 -0.1565  0.4201
  758MPD2    H711207   1.080   1.620  15.877 -0.3736 -1.0083  0.0473
  759MPD2     C11208   0.410   4.028   9.368 -0.1923 -0.6316 -0.1878
  759MPD2    C111209   0.287   4.087   9.400  0.3135  0.1360  0.0366
  759MPD2    C211210   0.282   4.215   9.445  0.0995 -0.4264  0.4619
  759MPD2    C311211   0.395   4.289   9.446  0.1449 -0.1687 -0.1951
  759MPD2    C411212   0.514   4.234   9.408 -0.2451 -0.3956 -0.1420
  759MPD2    C511213   0.522   4.104   9.378 -0.0564 -0.2388 -0.2333
  759MPD2     H11214   0.188   4.261   9.475  1.1657  1.2002  1.3121
  759MPD2    H111215   0.609   4.285   9.402 -0.2431 -0.6159 -2.0372
  759MPD2    H211216   0.429   3.926   9.336  1.7941  0.0438 -1.1764
  759MPD2    H311217   0.620   4.065   9.355  0.1065  0.1201 -0.1411
  759MPD2     N11218   0.383   4.420   9.493 -0.1296  0.2802  0.4504
  759MPD2    H511219   0.288   4.448   9.516  0.3865  3.0529 -0.7830
  759MPD2    N111220   0.169   4.008   9.382 -0.3482  0.0443 -0.7010
  759MPD2    H711221   0.086   4.055   9.417 -1.3838 -1.8505 -0.5963
  760MPD2     C11222   3.876   2.145  11.873  0.4458 -0.1282 -0.0206
  760MPD2    C111223   3.988   2.127  11.797  0.7579 -0.1579 -0.3692
  760MPD2    C211224   4.037   2.002  11.745  0.2348 -0.3145 -0.7091
  760MPD2    C311225   3.977   1.891  11.805  0.1350 -0.7497  0.3816
  760MPD2    C411226   3.878   1.913  11.899  0.7985  0.2046  0.3948
  760MPD2    C511227   3.820   2.034  11.923  0.0754  0.6764 -0.0829
  760MPD2     H11228   4.112   1.992  11.667  2.5589  0.1315  1.4460
  760MPD2    H111229   3.824   1.824  11.932  0.8426 -0.4767 -1.3561
  760MPD2    H211230   3.836   2.242  11.900  0.3398  0.1473 -1.1797
  760MPD2    H311231   3.732   2.051  11.984  0.0237  2.3260 -0.6229
  760MPD2     N11232   4.012   1.753  11.765 -0.0640  0.0414  0.7215
  760MPD2    H511233   3.960   1.679  11.811 -2.2412  0.4575 -1.0836
  760MPD2    N111234   4.048   2.250  11.759  0.6925  0.3762 -0.1476
  760MPD2    H711235   4.009   2.332  11.804 -1.1709  0.1051 -1.2690
  761MPD2     C11236   0.752   1.243  10.967  0.3458 -0.2332  0.0313
  761MPD2    C111237   0.821   1.141  10.899  0.3093 -0.4715 -0.4542
  761MPD2    C211238   0.956   1.145  10.894  0.5667 -0.2630 -0.3437
  761MPD2    C311239   1.024   1.248  10.951  0.3029 -0.0576 -0.3176
  761MPD2    C411240   0.960   1.359  11.001  0.7754 -0.1581  0.1022
  761MPD2    C511241   0.824   1.351  11.015 -0.4222 -1.1562 -0.6300
  761MPD2     H11242   1.008   1.055  10.863  0.5368 -0.2437 -0.4481
  761MPD2    H111243   1.020   1.441  11.040 -0.3138  0.6436  0.0689
  761MPD2    H211244   0.643   1.237  10.970  0.1606  2.5534 -1.1557
  761MPD2    H311245   0.769   1.422  11.075  0.4957  0.1299 -1.3153
  761MPD2     N11246   1.162   1.267  10.940 -0.2580 -0.2823  0.2012
  761MPD2    H511247   1.210   1.330  11.004 -0.2003  2.5116 -2.6160
  761MPD2    N111248   0.751   1.031  10.845  0.3910  0.8490 -0.3066
  761MPD2    H711249   0.657   1.016  10.880  0.7751 -0.4590  0.1153
  762MPD2     C11250   1.217   0.826  10.567 -0.0259 -0.1542  0.3900
  762MPD2    C111251   1.163   0.704  10.583 -0.5039 -0.8209  0.1040
  762MPD2    C211252   1.238   0.589  10.563 -0.2113  0.5517  0.0678
  762MPD2    C311253   1.362   0.602  10.504  0.1522 -0.0738  0.5768
  762MPD2    C411254   1.422   0.726  10.492  0.2297 -0.3340 -0.6153
  762MPD2    C511255   1.352   0.839  10.536 -0.3288 -0.0034  0.4174
  762MPD2     H11256   1.191   0.492  10.571 -0.8683  0.9046  0.4931
  762MPD2    H111257   1.509   0.739  10.429  0.7702  0.4686  0.2859
  762MPD2    H211258   1.165   0.913  10.607 -0.8098  0.9228 -2.9970
  762MPD2    H311259   1.390   0.938  10.516  2.5255 -1.3546 -0.7127
  762MPD2     N11260   1.425   0.477  10.468  0.5684 -0.7403  0.3108
  762MPD2    H511261   1.380   0.395  10.508 -1.3422 -1.1705 -2.7288
  762MPD2    N111262   1.030   0.693  10.628 -1.0094  0.6948 -0.5987
  762MPD2    H711263   0.991   0.784  10.654 -3.2590  0.1928 -2.1595
  763MPD2     C11264   2.227   0.694  15.918 -0.3683  0.1202 -0.8538
  763MPD2    C111265   2.320   0.774  15.861  0.3501  0.4655  0.1925
  763MPD2    C211266   2.346   0.899  15.914  0.1914  0.5437 -0.2038
  763MPD2    C311267   2.278   0.954  16.023 -0.4317 -0.0534  0.3878
  763MPD2    C411268   2.182   0.873  16.076  0.3324 -0.3270  0.5470
  763MPD2    C511269   2.170   0.743  16.033  0.9518 -0.5529 -0.3531
  763MPD2     H11270   2.417   0.960  15.859 -0.5386 -1.9594 -3.9527
  763MPD2    H111271   2.127   0.903  16.165  0.1693 -0.1080  0.3726
  763MPD2    H211272   2.198   0.594  15.886  3.3837 -1.2775  0.0626
  763MPD2    H311273   2.084   0.693  16.076  0.3426 -1.0154 -2.1433
  763MPD2     N11274   2.302   1.076  16.088 -0.7857  0.5271 -0.3449
  763MPD2    H511275   2.248   1.093  16.173  0.2942  0.4272  0.3579
  763MPD2    N111276   2.371   0.759  15.729  0.2709  0.1333  0.2658
  763MPD2    H711277   2.409   0.844  15.689  0.7717  1.0498  2.7175
  764MPD2     C11278   0.361   3.380  17.015  0.2978 -0.2506 -0.1395
  764MPD2    C111279   0.290   3.269  16.979  0.1589  0.7749  0.1461
  764MPD2    C211280   0.217   3.210  17.079 -0.1958  0.0879 -0.0959
  764MPD2    C311281   0.196   3.273  17.202  0.1637  0.4348  0.2397
  764MPD2    C411282   0.262   3.387  17.233 -0.2067 -0.9132  0.3950
  764MPD2    C511283   0.343   3.436  17.140 -0.4505  0.2050  0.8541
  764MPD2     H11284   0.145   3.131  17.062  0.4356 -0.3265 -0.8149
  764MPD2    H111285   0.245   3.428  17.332 -0.7706 -0.6504  0.1934
  764MPD2    H211286   0.415   3.441  16.944  1.8163 -1.6086 -0.1402
  764MPD2    H311287   0.401   3.524  17.167 -0.5686  0.2903  0.8261
  764MPD2     N11288   0.106   3.210  17.290  0.2593 -0.1708  0.3872
  764MPD2    H511289   0.039   3.141  17.258 -1.7747  1.3774  1.2554
  764MPD2    N111290   0.290   3.217  16.851  0.1589  0.1460  0.5859
  764MPD2    H711291   0.237   3.133  16.829 -1.8761  1.8739 -1.0744
  765MPD2     C11292   0.266   0.778  15.282 -0.2938  0.4331  0.0472
  765MPD2    C111293   0.322   0.764  15.406 -0.5767 -0.2456  0.1362
  765MPD2    C211294   0.449   0.715  15.422  0.3512  0.2865 -0.0047
  765MPD2    C311295   0.521   0.665  15.314  0.3636  0.2235  0.5896
  765MPD2    C411296   0.470   0.685  15.186 -0.0275  0.0556  0.0762
  765MPD2    C511297   0.345   0.742  15.175 -0.0844 -0.9189  0.6536
  765MPD2     H11298   0.496   0.706  15.519  0.5319 -1.9820 -0.3061
  765MPD2    H111299   0.524   0.672  15.092  0.6577 -1.0227  0.6249
  765MPD2    H211300   0.160   0.802  15.273  0.0717  1.6066 -1.1798
  765MPD2    H311301   0.296   0.757  15.079  1.4454 -3.4114 -0.5005
  765MPD2     N11302   0.649   0.611  15.332  0.6953 -0.1378  0.4943
  765MPD2    H511303   0.681   0.608  15.428  0.5281 -0.2539  0.5468
  765MPD2    N111304   0.238   0.811  15.516 -0.3009 -0.1445 -0.1013
  765MPD2    H711305   0.148   0.856  15.497 -1.6883 -2.3992  1.1726
  766MPD2     C11306   4.431   0.732  15.337  0.0987  0.1398  0.7114
  766MPD2    C111307   4.523   0.827  15.374  0.1222  0.5365 -0.4553
  766MPD2    C211308   4.604   0.897  15.276  0.5542  0.6032 -0.1848
  766MPD2    C311309   4.587   0.864  15.146 -0.2015 -0.0125  0.0773
  766MPD2    C411310   4.498   0.771  15.109 -0.2838  0.0920  0.7210
  766MPD2    C511311   4.420   0.699  15.202 -0.0021  0.0841  0.0676
  766MPD2     H11312   4.691   0.955  15.302 -0.3998  1.5592  0.8359
  766MPD2    H111313   4.491   0.747  15.003  0.1585 -1.3958  1.0205
  766MPD2    H211314   4.368   0.685  15.412  0.2187  0.9025  1.2810
  766MPD2    H311315   4.350   0.628  15.159 -1.2168  1.3060  0.0656
  766MPD2     N11316   4.683   0.907  15.050 -0.1850  0.2537 -0.3598
  766MPD2    H511317   4.663   0.869  14.958  0.7196  0.1787 -0.5272
  766MPD2    N111318   4.553   0.844  15.515 -0.0586 -0.4510 -0.2423
  766MPD2    H711319   4.520   0.772  15.578  0.4311 -0.6135 -0.1706
  767MPD2     C11320   4.282   1.150  14.984  0.4263  0.3099 -0.9720
  767MPD2    C111321   4.412   1.170  14.946 -0.1598  0.3650 -0.1876
  767MPD2    C211322   4.457   1.111  14.824 -0.1789 -0.3158  0.0710
  767MPD2    C311323   4.368   1.032  14.745  0.2682  0.0779 -0.0881
  767MPD2    C411324   4.243   1.007  14.800 -0.6581 -0.3269  0.2683
  767MPD2    C511325   4.204   1.053  14.925  0.4208  0.2542  0.5759
  767MPD2     H11326   4.559   1.128  14.790 -1.5916  1.8652 -3.0158
  767MPD2    H111327   4.166   0.950  14.749 -0.6367  2.3565 -2.7805
  767MPD2    H211328   4.243   1.198  15.072  0.7728  2.6977 -2.1086
  767MPD2    H311329   4.108   1.035  14.970 -0.6207  2.6318 -0.7037
  767MPD2     N11330   4.418   0.991  14.619  0.3894  1.0090  0.6734
  767MPD2    H511331   4.519   1.002  14.612  0.3190  1.5353  0.5059
  767MPD2    N111332   4.496   1.241  15.037  0.2247  0.3695  1.3157
  767MPD2    H711333   4.453   1.283  15.119  2.7204  1.1398  2.2507
  768MPD2     C11334   0.532   3.819  10.652 -0.1732 -0.3388 -0.1133
  768MPD2    C111335   0.496   3.813  10.786  0.0060 -0.0876  0.8125
  768MPD2    C211336   0.595   3.782  10.883  0.0155  0.4933 -0.3802
  768MPD2    C311337   0.723   3.753  10.839 -0.1211  0.0415  0.1972
  768MPD2    C411338   0.753   3.757  10.705  0.1798 -0.1140 -0.0646
  768MPD2    C511339   0.656   3.781  10.612  0.1028  0.3654 -0.8526
  768MPD2     H11340   0.575   3.799  10.988 -1.5856 -0.8336 -0.4596
  768MPD2    H111341   0.857   3.753  10.674  0.0930  1.9701 -0.6141
  768MPD2    H211342   0.470   3.851  10.569  0.7278  0.3142 -0.5342
  768MPD2    H311343   0.684   3.783  10.507  1.4409  1.9135 -0.4566
  768MPD2     N11344   0.834   3.740  10.927 -0.2070  0.8475 -0.2045
  768MPD2    H511345   0.927   3.737  10.886 -0.2331 -0.8469 -0.1512
  768MPD2    N111346   0.367   3.847  10.828 -0.4169 -0.3065  0.1863
  768MPD2    H711347   0.346   3.852  10.927  0.5375 -1.2716  0.4363
  769MPD2     C11348   1.792   2.386  14.878 -0.1791 -0.5545  0.0705
  769MPD2    C111349   1.703   2.346  14.974 -0.7927 -0.7747  0.0213
  769MPD2    C211350   1.704   2.424  15.091  0.0342 -0.1291  0.2559
  769MPD2    C311351   1.786   2.529  15.110  0.0960 -0.2094  0.7684
  769MPD2    C411352   1.889   2.552  15.023 -0.0952 -0.7095 -0.0717
  769MPD2    C511353   1.883   2.487  14.907  0.4386  0.0760  0.1008
  769MPD2     H11354   1.627   2.395  15.161  1.2741 -3.4676  0.2428
  769MPD2    H111355   1.957   2.636  15.037  2.3603 -2.7789  0.3646
  769MPD2    H211356   1.795   2.342  14.779  1.8508 -0.4585  0.0861
  769MPD2    H311357   1.959   2.503  14.830  1.1253  1.2190  1.0234
  769MPD2     N11358   1.772   2.589  15.242  0.5181  0.2442  0.3935
  769MPD2    H511359   1.702   2.543  15.299  2.4649 -1.9925  0.9836
  769MPD2    N111360   1.605   2.248  14.945 -0.4506 -0.0695  0.2393
  769MPD2    H711361   1.617   2.204  14.854  0.3977  0.8728 -0.1146
  770MPD2     C11362   0.767   1.544  15.115  0.3673  0.3149 -0.3257
  770MPD2    C111363   0.876   1.474  15.057 -0.6849  0.2488  0.9581
  770MPD2    C211364   0.988   1.549  15.019 -1.2388  0.4019  0.1156
  770MPD2    C311365   1.003   1.681  15.052 -0.3703  0.5631  0.6243
  770MPD2    C411366   0.898   1.748  15.111 -0.5159  0.0025 -0.9046
  770MPD2    C511367   0.783   1.677  15.133  0.1360  0.0534  0.4359
  770MPD2     H11368   1.073   1.501  14.973 -1.1652 -2.7169  3.4591
  770MPD2    H111369   0.902   1.856  15.116 -0.5738  0.0121 -1.0552
  770MPD2    H211370   0.666   1.507  15.119 -0.1526  1.6967 -0.6126
  770MPD2    H311371   0.696   1.725  15.178 -1.7156 -0.9057 -2.1492
  770MPD2     N11372   1.124   1.744  15.017  0.8448 -0.6746 -0.3457
  770MPD2    H511373   1.164   1.705  14.932  0.8351  0.1816 -0.7453
  770MPD2    N111374   0.870   1.334  15.036  0.2855  0.2370 -0.1051
  770MPD2    H711375   0.781   1.295  15.067  0.0413  1.2565  0.4749
  771MPD2     C11376   2.585   0.071  13.924 -0.1493 -0.6642 -0.0667
  771MPD2    C111377   2.551   0.193  13.863 -0.0290  0.5205 -0.0359
  771MPD2    C211378   2.449   0.185  13.765 -0.2592  0.0977 -0.2444
  771MPD2    C311379   2.375   0.065  13.738  0.3087 -0.5619  0.0839
  771MPD2    C411380   2.422   4.674  13.797  0.0280 -0.2943  0.2850
  771MPD2    C511381   2.525   4.678  13.887 -0.3874 -0.1950 -0.2534
  771MPD2     H11382   2.416   0.277  13.718 -0.8265  0.0459  0.0562
  771MPD2    H111383   2.381   4.574  13.787  1.5193 -0.7254 -1.5113
  771MPD2    H211384   2.653   0.079  14.008 -1.6085  1.5259  0.9271
  771MPD2    H311385   2.558   4.586  13.935 -1.8586  0.3522  1.7976
  771MPD2     N11386   2.264   0.080  13.649  1.0145 -0.3902 -0.3837
  771MPD2    H511387   2.253   0.173  13.610  0.4803  0.6988  2.3668
  771MPD2    N111388   2.613   0.317  13.889  0.1776  0.1705  0.6398
  771MPD2    H711389   2.587   0.399  13.834 -0.1105  0.1083  0.6839
  772MPD2     C11390   2.404   0.849  13.708 -0.1345 -0.0078 -0.0364
  772MPD2    C111391   2.373   0.805  13.831 -0.1391  0.3392 -0.1340
  772MPD2    C211392   2.238   0.796  13.878  0.1208  0.1042 -0.3051
  772MPD2    C311393   2.138   0.815  13.785 -0.0682  0.2248  1.0496
  772MPD2    C411394   2.164   0.861  13.662  0.3443 -1.0563 -1.1204
  772MPD2    C511395   2.295   0.884  13.632  0.4607 -0.0481  0.1770
  772MPD2     H11396   2.217   0.770  13.981  0.9807 -0.8079 -0.3537
  772MPD2    H111397   2.090   0.879  13.586 -0.2907  1.4585  0.1034
  772MPD2    H211398   2.504   0.856  13.666 -0.4555  0.9749 -0.6449
  772MPD2    H311399   2.309   0.904  13.526 -3.7160  0.3772 -0.3106
  772MPD2     N11400   1.995   0.793  13.815 -0.3987 -0.4788 -0.1050
  772MPD2    H511401   1.927   0.768  13.743 -0.0553  0.1498 -0.6554
  772MPD2    N111402   2.474   0.765  13.916 -0.2365 -0.3210  0.7642
  772MPD2    H711403   2.461   0.719  14.006 -0.6297 -0.1250  0.8094
  773MPD2     C11404   1.188   1.667  17.625 -0.2700 -0.0892 -0.0736
  773MPD2    C111405   1.105   1.577  17.571  0.3095  0.2879  0.0592
  773MPD2    C211406   1.078   1.459  17.643 -0.5666  0.4031  0.4355
  773MPD2    C311407   1.150   1.423   0.061  0.8940 -0.0282  0.2896
  773MPD2    C411408   1.246   1.514   0.104  0.2067  0.8343  0.3196
  773MPD2    C511409   1.257   1.635   0.044 -0.1924  0.4032 -0.0996
  773MPD2     H11410   1.012   1.384  17.602 -0.5094  1.0192 -0.7779
  773MPD2    H111411   1.307   1.486   0.189  0.4355  3.5191  1.0171
  773MPD2    H211412   1.200   1.766  17.582  0.7591 -0.8001 -1.4225
  773MPD2    H311413   1.327   1.707   0.085 -0.4340  1.1091 -0.9233
  773MPD2     N11414   1.125   1.297   0.119 -0.4523  0.7653  0.3089
  773MPD2    H511415   1.058   1.232   0.080  1.2347 -0.4827 -0.5253
  773MPD2    N111416   1.028   1.596  17.450  0.4445 -0.9610 -0.0125
  773MPD2    H711417   0.968   1.520  17.424 -1.2620 -0.6919  3.1077
  774MPD2     C11418   1.097   0.520  12.993  0.2779 -0.4278 -0.3847
  774MPD2    C111419   0.989   0.579  13.044 -0.1497 -0.5709  0.1322
  774MPD2    C211420   0.946   0.696  12.991 -0.1031 -0.7118 -0.5222
  774MPD2    C311421   1.022   0.768  12.899  0.3222 -0.1003 -0.0257
  774MPD2    C411422   1.132   0.700  12.850  0.1231 -0.1420  0.4071
  774MPD2    C511423   1.169   0.580  12.900  0.2479 -0.0162 -0.2931
  774MPD2     H11424   0.844   0.728  13.010  0.8041  1.4871  0.6603
  774MPD2    H111425   1.207   0.729  12.777  1.7119  1.2222  2.5720
  774MPD2    H211426   1.127   0.422  13.029  0.4811  0.4769  1.9546
  774MPD2    H311427   1.253   0.525  12.858  2.4264  3.2917 -0.2835
  774MPD2     N11428   0.974   0.897  12.862  0.1489 -0.1799 -0.4263
  774MPD2    H511429   0.888   0.925  12.907 -0.1485 -2.4795  0.4589
  774MPD2    N111430   0.924   0.518  13.157  0.3503  0.0499 -0.0999
  774MPD2    H711431   0.977   0.436  13.182  1.0521  0.6467  0.3780
  775MPD2     C11432   2.036   2.283  15.635  0.1786 -0.1224  0.5924
  775MPD2    C111433   1.995   2.378  15.719  0.3588 -0.3231 -0.5078
  775MPD2    C211434   2.061   2.501  15.718 -0.3240  0.8357 -0.2979
  775MPD2    C311435   2.169   2.524  15.634 -0.8092  0.1182 -0.0388
  775MPD2    C411436   2.208   2.425  15.545 -0.4008 -0.2034 -0.2596
  775MPD2    C511437   2.137   2.310  15.549  0.4209  0.0038 -0.3482
  775MPD2     H11438   2.031   2.582  15.784  0.8106 -0.0248  1.2567
  775MPD2    H111439   2.294   2.427  15.479 -0.0525 -4.7702  0.0565
  775MPD2    H211440   1.975   2.195  15.624  1.6451 -0.7825 -2.3385
  775MPD2    H311441   2.172   2.236  15.478  0.4405 -2.2600  1.9878
  775MPD2     N11442   2.252   2.641  15.630  0.0361 -0.1641  0.0865
  775MPD2    H511443   2.328   2.646  15.562 -1.4087  1.2410 -1.4326
  775MPD2    N111444   1.894   2.338  15.806 -0.1150  0.1286  0.4283
  775MPD2    H711445   1.866   2.241  15.796  0.3637  0.1872 -1.3520
  776MPD2     C11446   0.968   2.207  11.934 -0.5864  0.0305 -0.2637
  776MPD2    C111447   1.091   2.187  11.874  0.3437 -0.7275 -0.2071
  776MPD2    C211448   1.147   2.297  11.808  0.2662 -0.4437  0.0902
  776MPD2    C311449   1.076   2.413  11.779 -0.7711 -0.0262  0.2293
  776MPD2    C411450   0.949   2.423  11.827 -0.0450 -0.1241 -0.4962
  776MPD2    C511451   0.894   2.321  11.908  0.3063  0.5074 -0.0894
  776MPD2     H11452   1.247   2.286  11.769  0.4022 -1.5168  0.7270
  776MPD2    H111453   0.896   2.517  11.816  0.7728  0.0801 -2.5802
  776MPD2    H211454   0.925   2.125  11.989  0.4574 -0.5064 -0.2460
  776MPD2    H311455   0.802   2.336  11.962  0.9861  1.8822  0.6917
  776MPD2     N11456   1.111   2.514  11.690  0.3820 -1.0823 -0.1541
  776MPD2    H511457   1.037   2.573  11.653  0.6591  0.3007  1.5011
  776MPD2    N111458   1.155   2.059  11.896  0.2821 -0.0623 -0.3210
  776MPD2    H711459   1.097   1.984  11.933  1.1161 -0.8662 -0.6279
  777MPD2     C11460   0.760   0.426   0.762 -0.6944  0.4411  0.5610
  777MPD2    C111461   0.882   0.422   0.818 -0.0395  0.5178 -0.3474
  777MPD2    C211462   0.976   0.327   0.785 -0.4185 -0.7447 -0.5334
  777MPD2    C311463   0.948   0.243   0.676  0.3168  0.0243  0.7386
  777MPD2    C411464   0.827   0.248   0.614 -0.5241  0.0400 -0.1984
  777MPD2    C511465   0.728   0.339   0.658 -0.2821 -0.0828 -0.3768
  777MPD2     H11466   1.075   0.327   0.830 -1.8804 -0.7075  2.6814
  777MPD2    H111467   0.804   0.190   0.525  1.8437 -2.0587  0.5845
  777MPD2    H211468   0.687   0.500   0.795  0.9317  2.0826  0.5027
  777MPD2    H311469   0.624   0.324   0.629 -0.7526 -0.8551  1.7052
  777MPD2     N11470   1.052   0.155   0.647  0.1036  0.5904  0.0653
  777MPD2    H511471   1.133   0.169   0.707 -0.3841  0.4841  0.7363
  777MPD2    N111472   0.905   0.524   0.911  0.0758 -0.3876 -0.2017
  777MPD2    H711473   0.828   0.588   0.927 -0.9353 -1.7788  0.4805
  778MPD2     C11474   2.271   0.096  15.053  0.3765  0.3200  0.6454
  778MPD2    C111475   2.187   0.141  14.959 -1.4438  0.6037 -0.0989
  778MPD2    C211476   2.235   0.234  14.872 -0.8809  0.4251 -0.1016
  778MPD2    C311477   2.364   0.282  14.879  0.1093 -1.1426  0.7882
  778MPD2    C411478   2.445   0.230  14.982 -0.1478  0.0657  0.6186
  778MPD2    C511479   2.396   0.139  15.068  0.5307  0.0962 -0.7539
  778MPD2     H11480   2.180   0.273  14.787  1.3046 -0.2525 -1.8093
  778MPD2    H111481   2.547   0.255  15.008 -0.2849 -0.9243  2.0999
  778MPD2    H211482   2.241   0.018  15.121 -1.3629  0.6238  0.2283
  778MPD2    H311483   2.468   0.108  15.143  0.2185  1.9790  0.3109
  778MPD2     N11484   2.412   0.364  14.776  0.0625 -0.2968 -0.0228
  778MPD2    H511485   2.349   0.382  14.698  1.1368  0.4855 -0.7210
  778MPD2    N111486   2.057   0.103  14.935  0.2780  0.0327 -0.0728
  778MPD2    H711487   2.023   0.120  14.841 -0.2774 -2.0019 -0.2505
  779MPD2     C11488   1.840   3.805  14.530  0.0555  0.2531  0.7781
  779MPD2    C111489   1.961   3.817  14.476  0.2554 -0.3484  0.3698
  779MPD2    C211490   2.006   3.937  14.425 -0.6685  0.5644 -0.1527
  779MPD2    C311491   1.935   4.048  14.431  0.7311 -0.1787 -0.6263
  779MPD2    C411492   1.811   4.042  14.491 -1.0037 -0.2451 -0.3397
  779MPD2    C511493   1.764   3.921  14.539 -0.0135  0.2991 -0.5393
  779MPD2     H11494   2.102   3.945  14.376 -0.8121  2.4923 -0.1128
  779MPD2    H111495   1.750   4.129  14.513  0.9371  0.4206  2.4802
  779MPD2    H211496   1.807   3.713  14.577 -1.8297  0.9880  0.9169
  779MPD2    H311497   1.670   3.924  14.594 -0.1770  1.4577 -0.8879
  779MPD2     N11498   1.979   4.175  14.387 -0.0725 -0.4584  1.1622
  779MPD2    H511499   2.071   4.184  14.345 -1.2017  0.4503 -1.1340
  779MPD2    N111500   2.049   3.704  14.460  0.3919  0.8521  0.2161
  779MPD2    H711501   2.128   3.719  14.397  0.3392  1.6630  0.3415
  780MPD2     C11502   1.003   3.507   0.576 -0.4001 -0.0405 -0.0240
  780MPD2    C111503   1.128   3.478   0.614 -0.0665  0.1749  0.0726
  780MPD2    C211504   1.235   3.480   0.516 -0.2953 -0.1521  0.5055
  780MPD2    C311505   1.202   3.494   0.383  0.9120 -0.0286 -0.0998
  780MPD2    C411506   1.074   3.528   0.352 -0.6067  0.5421  0.0567
  780MPD2    C511507   0.974   3.530   0.445  0.1865  0.5253  0.1551
  780MPD2     H11508   1.338   3.458   0.542  0.3943  0.9120 -1.3742
  780MPD2    H111509   1.041   3.540   0.250 -1.2758 -0.9009  0.1014
  780MPD2    H211510   0.920   3.508   0.645  0.5234  1.1228  1.0595
  780MPD2    H311511   0.872   3.560   0.422  0.1454 -0.7159 -1.2703
  780MPD2     N11512   1.300   3.466   0.286  0.2643  0.3913 -0.0339
  780MPD2    H511513   1.394   3.479   0.322  0.2429 -1.0619  0.5454
  780MPD2    N111514   1.154   3.449   0.748  0.0829  0.2333  0.6266
  780MPD2    H711515   1.082   3.448   0.818  0.8456  0.9838  1.4193
  781MPD2     C11516   3.501   0.717  12.038 -0.1547  0.5242 -0.9292
  781MPD2    C111517   3.606   0.648  12.073 -0.0528 -0.5282 -0.1747
  781MPD2    C211518   3.718   0.632  11.990  0.1577 -0.0749  0.3147
  781MPD2    C311519   3.721   0.711  11.876  0.2852  0.1346 -0.4154
  781MPD2    C411520   3.611   0.785  11.838  0.0819  0.3376  0.5829
  781MPD2    C511521   3.500   0.780  11.915 -0.3547  0.0981 -0.4942
  781MPD2     H11522   3.806   0.571  12.007  0.3681  0.2503  0.3892
  781MPD2    H111523   3.618   0.847  11.750 -0.6076  1.5344  1.3780
  781MPD2    H211524   3.413   0.737  12.098 -0.3533  1.6055 -1.5806
  781MPD2    H311525   3.413   0.841  11.894 -0.1991  1.2296  2.1183
  781MPD2     N11526   3.836   0.726  11.798  0.4136 -0.4354  0.1687
  781MPD2    H511527   3.832   0.803  11.732 -1.5488 -1.9935 -1.4956
  781MPD2    N111528   3.610   0.575  12.196  0.1017 -0.5300 -0.4232
  781MPD2    H711529   3.685   0.507  12.208  0.9766  0.5682  0.2728
  782MPD2     C11530   2.040   1.780   9.967 -0.3755  0.3680 -0.2194
  782MPD2    C111531   2.029   1.708  10.082  0.2502 -0.0511  0.0031
  782MPD2    C211532   1.952   1.755  10.190  0.5223 -0.4609  0.0423
  782MPD2    C311533   1.889   1.874  10.196 -0.1048  0.7677 -0.0319
  782MPD2    C411534   1.905   1.947  10.081  1.4349  0.7586  0.0084
  782MPD2    C511535   1.972   1.898   9.969  0.6527 -0.7208  0.4024
  782MPD2     H11536   1.944   1.702  10.284  0.5628  0.5169  0.5982
  782MPD2    H111537   1.865   2.048  10.081 -1.8803 -0.5210 -2.7000
  782MPD2    H211538   2.092   1.743   9.880 -0.5638  1.0884 -0.6356
  782MPD2    H311539   1.978   1.968   9.886  1.6491  0.8272  1.7775
  782MPD2     N11540   1.830   1.906  10.317 -0.0934  0.1806 -0.6925
  782MPD2    H511541   1.848   1.839  10.391  2.1108  1.6473  0.1126
  782MPD2    N111542   2.092   1.584  10.099  0.4090  0.6113 -0.2624
  782MPD2    H711543   2.078   1.539  10.190  0.2977  2.6704  0.7358
  783MPD2     C11544   1.753   0.978  10.553  0.1275 -0.1967 -0.3128
  783MPD2    C111545   1.759   1.116  10.543 -0.3947 -0.3587 -0.4436
  783MPD2    C211546   1.841   1.180  10.452 -0.0226 -0.3003  0.6516
  783MPD2    C311547   1.927   1.102  10.374 -0.1233  0.0487  0.5432
  783MPD2    C411548   1.919   0.962  10.389  0.3859 -0.7691 -0.2757
  783MPD2    C511549   1.832   0.902  10.471 -0.0399 -0.5916 -0.2692
  783MPD2     H11550   1.852   1.287  10.443 -1.2258 -0.1779  0.6704
  783MPD2    H111551   1.987   0.896  10.337  2.2596  1.2952 -0.4854
  783MPD2    H211552   1.690   0.928  10.626  0.4074 -0.5713 -0.3250
  783MPD2    H311553   1.841   0.794  10.473  0.8523 -0.4957  1.2588
  783MPD2     N11554   2.022   1.179  10.301 -0.3238 -0.0413 -0.2136
  783MPD2    H511555   2.016   1.280  10.294  1.1798  0.1126  0.8687
  783MPD2    N111556   1.665   1.175  10.633 -0.3817 -0.2687 -0.1655
  783MPD2    H711557   1.621   1.113  10.701 -1.5075 -0.0516 -0.7009
  784MPD2     C11558   3.552   1.653   0.267 -0.2989 -0.0754 -0.5691
  784MPD2    C111559   3.531   1.752   0.365  0.3693  0.3505  0.5612
  784MPD2    C211560   3.421   1.835   0.357 -0.3520 -0.2005 -0.3946
  784MPD2    C311561   3.341   1.827   0.243  0.7702  0.0645  0.1176
  784MPD2    C411562   3.367   1.736   0.147  0.2208 -0.7345 -0.3642
  784MPD2    C511563   3.469   1.650   0.157  0.4955  0.1178 -0.3200
  784MPD2     H11564   3.414   1.899   0.444 -0.3008 -1.4690  0.5581
  784MPD2    H111565   3.299   1.719   0.064 -1.0767  3.2121 -0.0868
  784MPD2    H211566   3.632   1.580   0.257 -1.1015 -1.4330  2.8617
  784MPD2    H311567   3.480   1.570   0.084 -0.6585 -0.7026  0.4089
  784MPD2     N11568   3.227   1.914   0.233 -0.2154 -0.0906 -0.2266
  784MPD2    H511569   3.214   1.970   0.316  1.2026 -0.1559  0.0299
  784MPD2    N111570   3.621   1.770   0.468  0.3577 -0.7760  0.5407
  784MPD2    H711571   3.608   1.850   0.529  1.6380  0.4929 -0.8349
  785MPD2     C11572   4.647   0.278  10.410 -0.7360  0.0706  0.0779
  785MPD2    C111573   4.557   0.238  10.498  0.9683  0.0076  0.4200
  785MPD2    C211574   4.471   0.141  10.462  0.0125 -0.0108  0.4656
  785MPD2    C311575   4.475   0.082  10.334 -0.2867  0.3328  0.1740
  785MPD2    C411576   4.570   0.121  10.243  0.2981 -1.4827  0.2686
  785MPD2    C511577   4.654   0.221  10.282 -0.3650  0.4835 -0.0375
  785MPD2     H11578   4.389   0.115  10.527 -0.3668  0.2493  0.0881
  785MPD2    H111579   4.569   0.068  10.149 -2.5481  0.9612 -1.0969
  785MPD2    H211580   4.722   0.355  10.424 -1.1109  0.4407  0.0766
  785MPD2    H311581   0.001   0.256  10.208 -0.1028 -1.0844 -0.5253
  785MPD2     N11582   4.382   4.702  10.306  0.9318  0.0251  0.7337
  785MPD2    H511583   4.322   4.685  10.386  2.2246 -4.1029  0.8181
  785MPD2    N111584   4.558   0.302  10.627  0.3339  0.2236  0.5539
  785MPD2    H711585   4.632   0.368  10.650  0.5751  0.1223  0.0772
  786MPD2     C11586   2.300   3.195  14.587 -0.1533  0.1532 -0.2733
  786MPD2    C111587   2.427   3.148  14.574 -0.4294 -0.8070  0.3819
  786MPD2    C211588   2.528   3.190  14.656  0.6934  0.2575  0.1163
  786MPD2    C311589   2.504   3.274  14.763  0.1885  0.3187 -0.0526
  786MPD2    C411590   2.378   3.320  14.773  0.3307  0.2974 -0.0889
  786MPD2    C511591   2.273   3.283  14.690 -0.4137 -0.0370 -0.0927
  786MPD2     H11592   2.624   3.144  14.638  0.2606  0.0418 -1.5894
  786MPD2    H111593   2.362   3.396  14.849 -0.2769  0.9275 -0.8371
  786MPD2    H211594   2.214   3.159  14.532 -0.7283  0.1631  0.6201
  786MPD2    H311595   2.172   3.319  14.702 -1.0901 -1.8459 -0.3976
  786MPD2     N11596   2.603   3.320  14.855 -0.0417 -0.3865  0.0569
  786MPD2    H511597   2.578   3.392  14.922 -0.7375  0.7641 -1.4456
  786MPD2    N111598   2.466   3.061  14.468  0.5498 -0.0748 -0.2053
  786MPD2    H711599   2.561   3.027  14.470  0.8573  0.6167 -4.3018
  787MPD2     C11600   2.865   2.800  14.750 -0.3563 -0.2531 -0.3011
  787MPD2    C111601   2.825   2.691  14.668  0.6390 -1.0133 -0.5277
  787MPD2    C211602   2.882   2.569  14.692 -0.5851  0.2714  0.2560
  787MPD2    C311603   2.967   2.548  14.799 -0.4616  0.7330  0.0648
  787MPD2    C411604   2.998   2.657  14.879 -0.3087 -0.2953 -0.3771
  787MPD2    C511605   2.948   2.781  14.852 -0.3701 -0.0919 -0.1138
  787MPD2     H11606   2.856   2.485  14.628 -0.2014  0.8065 -0.5985
  787MPD2    H111607   3.061   2.654  14.967  0.7480  1.6976 -1.0709
  787MPD2    H211608   2.835   2.903  14.736  2.0628  0.6797  1.4391
  787MPD2    H311609   2.983   2.863  14.913  0.1995  0.4218 -1.1195
  787MPD2     N11610   3.012   2.421  14.828 -0.0448  0.1239 -0.5581
  787MPD2    H511611   3.012   2.357  14.749 -1.9575  1.6896 -1.8329
  787MPD2    N111612   2.733   2.725  14.564 -0.3089  0.6421  0.0655
  787MPD2    H711613   2.707   2.823  14.555  0.6483  0.8683 -0.2954
  788MPD2     C11614   4.531   0.580   1.185  0.3622  0.2207  1.0729
  788MPD2    C111615   4.440   0.575   1.087  0.0879 -0.3408  0.7001
  788MPD2    C211616   4.416   0.689   1.014  0.0452  0.3136 -0.0005
  788MPD2    C311617   4.464   0.812   1.054 -0.0127 -0.3533 -0.6779
  788MPD2    C411618   4.555   0.811   1.157 -0.2645  0.3212 -0.1051
  788MPD2    C511619   4.585   0.698   1.229 -0.1091  0.3294 -0.5201
  788MPD2     H11620   4.341   0.689   0.936  0.5013 -1.6894 -0.4437
  788MPD2    H111621   4.600   0.903   1.192 -0.1691 -0.6293  2.2956
  788MPD2    H211622   4.564   0.492   1.240  0.7628 -1.8590 -2.4826
  788MPD2    H311623   4.644   0.700   1.319  1.0612 -0.3796 -1.2719
  788MPD2     N11624   4.433   0.936   0.991 -0.0229 -0.1598 -0.3297
  788MPD2    H511625   4.483   1.020   1.015 -0.8706  0.7620 -1.7596
  788MPD2    N111626   4.391   0.450   1.033  0.0885  0.0201 -0.2599
  788MPD2    H711627   4.344   0.447   0.943 -0.2921 -0.1369 -0.0568
  789MPD2     C11628   0.190   0.880  16.528  0.0287 -0.3741 -0.4208
  789MPD2    C111629   0.105   0.822  16.433 -0.0493 -0.0702 -0.0303
  789MPD2    C211630   4.692   0.824  16.458 -0.6155 -0.2021 -0.0503
  789MPD2    C311631   4.641   0.884  16.573  0.4916  0.6887  0.2512
  789MPD2    C411632   0.001   0.942  16.661  0.5348 -0.5304  0.0942
  789MPD2    C511633   0.135   0.940  16.640  0.2728  0.8850  0.1127
  789MPD2     H11634   4.615   0.775  16.400 -1.1116  0.2112  0.2578
  789MPD2    H111635   4.689   0.991  16.750  0.4461 -1.9599  0.8362
  789MPD2    H211636   0.297   0.874  16.510  0.2475 -2.1188  1.4784
  789MPD2    H311637   0.203   0.972  16.718 -0.9136  0.8982  1.1295
  789MPD2     N11638   4.503   0.891  16.604 -0.5709 -0.2710 -0.4659
  789MPD2    H511639   4.485   0.925  16.698  0.5147 -0.4922 -0.1762
  789MPD2    N111640   0.149   0.752  16.323 -0.4034  0.1087  0.0924
  789MPD2    H711641   0.076   0.698  16.279 -0.1637  1.4311 -1.9274
  790MPD2     C11642   1.200   2.827  13.531 -0.1969 -0.1781 -0.2375
  790MPD2    C111643   1.199   2.694  13.535  0.6199 -0.4092 -0.3307
  790MPD2    C211644   1.146   2.625  13.434  0.4523  0.3585  1.0144
  790MPD2    C311645   1.067   2.686  13.336  0.7630  0.4206  0.4030
  790MPD2    C411646   1.061   2.827  13.342 -0.2927  0.3470  0.4093
  790MPD2    C511647   1.126   2.895  13.446  0.1670  0.5229 -0.1274
  790MPD2     H11648   1.146   2.516  13.431 -0.2848  0.4033 -0.8025
  790MPD2    H111649   0.997   2.878  13.271 -2.1664 -2.7312 -0.0998
  790MPD2    H211650   1.254   2.889  13.602  0.7042 -1.4338  0.1846
  790MPD2    H311651   1.125   3.003  13.462 -0.3370  0.4960  0.0164
  790MPD2     N11652   1.004   2.611  13.231 -0.8239  0.1818 -0.2878
  790MPD2    H511653   1.010   2.510  13.242  4.3460  0.0927 -3.8048
  790MPD2    N111654   1.260   2.639  13.655 -0.8730 -0.1219  0.1365
  790MPD2    H711655   1.295   2.707  13.722  1.0118 -0.0088 -0.9415
  791MPD2     C11656   0.334   2.589  12.964  0.0200 -0.1692  0.3921
  791MPD2    C111657   0.400   2.501  12.882  0.5601 -0.1101  0.5319
  791MPD2    C211658   0.327   2.423  12.792  0.1105  0.2648  0.6225
  791MPD2    C311659   0.193   2.408  12.800 -0.3214  0.3001  0.9774
  791MPD2    C411660   0.130   2.472  12.904 -0.7404 -0.3214 -0.3035
  791MPD2    C511661   0.201   2.571  12.977  0.2371 -0.3346 -0.2722
  791MPD2     H11662   0.372   2.351  12.725 -0.9995 -0.2382  0.4163
  791MPD2    H111663   0.023   2.472  12.921 -0.7649  0.9549 -0.4547
  791MPD2    H211664   0.391   2.646  13.036 -1.4550  0.5985  0.9511
  791MPD2    H311665   0.140   2.617  13.054 -0.7031 -0.0619 -1.1828
  791MPD2     N11666   0.124   2.334  12.706  0.0862  0.7804 -0.1835
  791MPD2    H511667   0.188   2.294  12.638 -1.6025 -3.5314  0.7614
  791MPD2    N111668   0.541   2.502  12.887  0.1880 -0.6191  0.5774
  791MPD2    H711669   0.572   2.559  12.965  3.0139 -1.5504  0.1340
  792MPD2     C11670   1.370   2.197  11.461  0.4230  0.0486 -0.2726
  792MPD2    C111671   1.398   2.213  11.330  0.0965 -0.3156  0.2778
  792MPD2    C211672   1.365   2.119  11.238  0.1483 -0.1081 -0.0694
  792MPD2    C311673   1.294   2.008  11.283  0.7692 -0.5582 -0.2269
  792MPD2    C411674   1.262   1.992  11.410 -0.5614 -0.0063 -0.6058
  792MPD2    C511675   1.296   2.090  11.501  0.4933 -0.5121  0.2871
  792MPD2     H11676   1.376   2.128  11.131  1.4617 -3.1435 -0.1800
  792MPD2    H111677   1.219   1.902  11.451  1.0418 -0.1577  0.7493
  792MPD2    H211678   1.393   2.271  11.537  2.0298  0.1178 -0.8053
  792MPD2    H311679   1.268   2.079  11.605  1.2994  2.0964  0.7648
  792MPD2     N11680   1.263   1.903  11.189  0.2545 -0.2146  0.0634
  792MPD2    H511681   1.309   1.908  11.099  0.6824 -0.7358  0.2548
  792MPD2    N111682   1.475   2.330  11.294  0.2261  0.5521  0.2824
  792MPD2    H711683   1.496   2.396  11.369  1.2721  1.6578 -0.9836
  793MPD2     C11684   0.605   2.053  10.517 -0.5112 -0.4578 -0.2750
  793MPD2    C111685   0.743   2.062  10.487  0.0029 -0.1990  0.1597
  793MPD2    C211686   0.833   1.981  10.553  0.1184  0.5195 -0.7693
  793MPD2    C311687   0.792   1.882  10.646  0.2663 -0.0713 -0.4285
  793MPD2    C411688   0.656   1.880  10.671 -0.1259 -0.8185  0.0495
  793MPD2    C511689   0.558   1.956  10.603  0.0632 -0.8182  0.1749
  793MPD2     H11690   0.939   1.978  10.531  0.5657  2.7587  1.0434
  793MPD2    H111691   0.621   1.816  10.752  0.4129  1.2076  1.8704
  793MPD2    H211692   0.531   2.122  10.479  1.7340  0.7289 -2.4582
  793MPD2    H311693   0.453   1.932  10.613 -0.4291  1.6720  1.1620
  793MPD2     N11694   0.891   1.802  10.708 -0.3419 -0.0200 -0.3022
  793MPD2    H511695   0.985   1.807  10.670  0.0311 -2.9153  0.2578
  793MPD2    N111696   0.807   2.158  10.409  0.3443  0.2394  0.2084
  793MPD2    H711697   0.900   2.131  10.377  0.0886  0.2269 -0.5164
  794MPD2     C11698   1.002   1.646  16.609 -0.1151  0.2425  0.6067
  794MPD2    C111699   0.903   1.728  16.657 -0.0893  0.4608  0.5883
  794MPD2    C211700   0.841   1.804  16.557 -0.0216 -0.5789  0.4681
  794MPD2    C311701   0.881   1.808  16.425 -0.1477  0.6265  0.6252
  794MPD2    C411702   0.993   1.736  16.382  0.2426 -0.2617  0.2330
  794MPD2    C511703   1.046   1.652  16.474  0.0382  0.5479  0.3143
  794MPD2     H11704   0.755   1.861  16.591  1.0460  0.7844  0.8336
  794MPD2    H111705   1.028   1.726  16.280  1.1541 -0.8346  0.6099
  794MPD2    H211706   1.066   1.590  16.676 -0.1218 -1.2611 -0.6560
  794MPD2    H311707   1.128   1.588  16.445 -1.0961 -0.8763  0.2181
  794MPD2     N11708   0.821   1.891  16.329 -0.2232  0.1641 -0.1242
  794MPD2    H511709   0.867   1.907  16.240  0.5680 -3.3514 -0.3195
  794MPD2    N111710   0.857   1.741  16.790  0.4086 -0.5149  0.1261
  794MPD2    H711711   0.775   1.799  16.800  0.9337  0.6076 -2.1709
  795MPD2     C11712   3.287   4.168  13.438 -0.5868  0.2817 -0.3874
  795MPD2    C111713   3.195   4.104  13.529 -0.4137 -0.3602  0.0832
  795MPD2    C211714   3.239   4.003  13.614 -0.0587  0.0292  1.0904
  795MPD2    C311715   3.368   3.984  13.625  0.1942 -0.0705 -0.0819
  795MPD2    C411716   3.456   4.049  13.544 -0.4268  0.4879  0.0880
  795MPD2    C511717   3.417   4.146  13.464  0.1396  0.5210 -0.4043
  795MPD2     H11718   3.173   3.939  13.672 -0.3251 -0.5149  0.1916
  795MPD2    H111719   3.564   4.038  13.548 -0.6491 -1.7019 -0.2098
  795MPD2    H211720   3.266   4.247  13.366  1.5669 -0.1199 -1.4725
  795MPD2    H311721   3.491   4.209  13.416  1.6261 -1.6542 -0.9543
  795MPD2     N11722   3.405   3.883  13.714 -0.7087  0.4799  0.1802
  795MPD2    H511723   3.340   3.844  13.781  0.5414 -0.5573  0.7954
  795MPD2    N111724   3.053   4.117  13.512  0.2971  0.6931 -0.0027
  795MPD2    H711725   2.993   4.064  13.574  2.3688 -0.8426  0.6815
  796MPD2     C11726   2.812   1.242  15.370  0.2807 -0.4030  0.1387
  796MPD2    C111727   2.900   1.244  15.483 -0.0739  0.5383 -0.1923
  796MPD2    C211728   2.945   1.363  15.529 -0.1513 -0.0311  0.5869
  796MPD2    C311729   2.902   1.482  15.469 -0.1961  0.4037  0.5500
  796MPD2    C411730   2.828   1.471  15.355  0.3534 -0.0550 -0.1868
  796MPD2    C511731   2.785   1.353  15.302  0.7506  0.4470  0.1551
  796MPD2     H11732   3.007   1.370  15.618  2.3219 -0.4000 -1.0901
  796MPD2    H111733   2.797   1.557  15.299 -0.9692 -0.2189  0.2915
  796MPD2    H211734   2.765   1.149  15.339 -2.0013  0.9571 -0.4127
  796MPD2    H311735   2.751   1.362  15.200  1.2599  2.2031  0.1280
  796MPD2     N11736   2.942   1.607  15.529 -0.7331  0.0402  0.1606
  796MPD2    H511737   2.985   1.598  15.621 -0.2230  1.1787  0.0366
  796MPD2    N111738   2.917   1.121  15.556 -0.2994  0.3383  0.0880
  796MPD2    H711739   2.858   1.042  15.532 -1.0690  0.8133  0.4047
  797MPD2     C11740   3.227   0.310  17.163 -0.7946 -0.5566 -0.1084
  797MPD2    C111741   3.200   0.430  17.226  0.8168  0.2408  0.6531
  797MPD2    C211742   3.132   0.522  17.161  0.1512  0.1783 -0.0870
  797MPD2    C311743   3.078   0.497  17.038 -0.5997 -0.1218  0.0040
  797MPD2    C411744   3.113   0.381  16.968  0.5929 -0.0581  0.0659
  797MPD2    C511745   3.188   0.285  17.034 -0.5544 -0.2748  0.6426
  797MPD2     H11746   3.122   0.616  17.213 -0.0746 -0.9714  1.9754
  797MPD2    H111747   3.071   0.356  16.871 -0.3843 -3.0195  1.2801
  797MPD2    H211748   3.285   0.237  17.218  0.0489 -0.8651 -1.4323
  797MPD2    H311749   3.211   0.189  16.990 -2.7777 -0.2950 -0.4511
  797MPD2     N11750   3.004   0.592  16.963 -0.2908 -0.4895 -0.1696
  797MPD2    H511751   2.976   0.578  16.866 -1.6549  1.0647  0.0031
  797MPD2    N111752   3.247   0.462  17.354 -0.0303  0.1997 -0.3421
  797MPD2    H711753   3.244   0.562  17.371  0.5381 -0.1866  2.0448
  798MPD2     C11754   2.931   1.109  17.449 -0.5363 -0.1327 -0.1992
  798MPD2    C111755   2.974   1.005  17.365  0.0442  0.3885 -0.6329
  798MPD2    C211756   3.055   0.905  17.416 -0.4524  0.9382 -0.3907
  798MPD2    C311757   3.093   0.905  17.546  0.0263  0.8782  0.4339
  798MPD2    C411758   3.050   1.007  17.632 -0.2998  0.4981 -0.4247
  798MPD2    C511759   2.970   1.103  17.581 -0.0630  0.1413 -0.1882
  798MPD2     H11760   3.094   0.823  17.357 -1.0566  0.7006 -0.4586
  798MPD2    H111761   3.075   1.002   0.041 -0.7655  0.2345 -0.3274
  798MPD2    H211762   2.863   1.187  17.418 -0.8876 -0.1795  0.4567
  798MPD2    H311763   2.936   1.178  17.651 -0.6794  0.5205 -0.8819
  798MPD2     N11764   3.173   0.798  17.580  0.0605 -0.1114 -0.1244
  798MPD2    H511765   3.190   0.730  17.507  0.6370  0.8932 -0.9385
  798MPD2    N111766   2.944   0.994  17.228 -0.5525  0.1361 -0.5759
  798MPD2    H711767   2.967   0.903  17.189  1.3073  1.6709 -3.0642
  799MPD2     C11768   3.080   1.760  14.650 -0.0248  0.6702  0.0639
  799MPD2    C111769   3.071   1.719  14.518  0.3622 -0.6853  0.1339
  799MPD2    C211770   2.991   1.790  14.430  0.0124 -0.0115  0.8689
  799MPD2    C311771   2.923   1.905  14.467 -0.0019  1.3122  0.2185
  799MPD2    C411772   2.929   1.941  14.598 -0.4696  0.0140  0.1111
  799MPD2    C511773   3.003   1.871  14.688  0.6563  0.6180  0.1790
  799MPD2     H11774   3.003   1.753  14.329 -0.5535 -2.2525  1.6063
  799MPD2    H111775   2.867   2.015  14.646  0.1348 -0.1731  1.1772
  799MPD2    H211776   3.142   1.701  14.716 -0.3209  0.1481 -0.1286
  799MPD2    H311777   3.013   1.900  14.792 -2.5993  2.6737 -0.0771
  799MPD2     N11778   2.831   1.974  14.376  0.2089 -0.3424 -0.0551
  799MPD2    H511779   2.793   2.065  14.401 -0.4560 -0.9079  0.9661
  799MPD2    N111780   3.140   1.603  14.470  0.3994 -0.1198 -0.2701
  799MPD2    H711781   3.104   1.569  14.382  1.2759 -0.3083 -0.5491
  800MPD2     C11782   2.809   3.230  14.054 -0.2659  0.4504 -0.6337
  800MPD2    C111783   2.908   3.142  14.007 -0.4924  0.9389  0.2237
  800MPD2    C211784   2.867   3.029  13.937 -0.1569  0.0628  0.4584
  800MPD2    C311785   2.729   3.004  13.915 -0.2157  0.1257 -0.2541
  800MPD2    C411786   2.634   3.091  13.964  0.0442  0.5319 -0.1295
  800MPD2    C511787   2.669   3.207  14.033 -0.3194  0.4417  0.0731
  800MPD2     H11788   2.934   2.959  13.887  1.1846  2.1788 -0.6944
  800MPD2    H111789   2.529   3.069  13.954  0.1331 -1.2612  2.9120
  800MPD2    H211790   2.849   3.312  14.112 -0.3536 -0.2317  0.3910
  800MPD2    H311791   2.600   3.271  14.086 -1.1143  0.7003 -1.2963
  800MPD2     N11792   2.683   2.884  13.839  0.8677  0.5733 -0.2887
  800MPD2    H511793   2.587   2.876  13.809  1.4635  0.7239 -2.2138
  800MPD2    N111794   3.044   3.174  14.032  0.3114  0.0199 -0.1151
  800MPD2    H711795   3.065   3.246  14.100 -0.0540  1.4825 -1.5537
  801MPD2     C11796   3.682   3.733  14.170  0.1991  0.2415  0.0388
  801MPD2    C111797   3.552   3.681  14.164 -0.3998  0.4667 -0.2472
  801MPD2    C211798   3.444   3.757  14.223 -0.5481  0.3495 -0.6958
  801MPD2    C311799   3.470   3.882  14.269 -0.7375  0.5844  0.2782
  801MPD2    C411800   3.602   3.930  14.277  0.4514 -0.6236  0.2844
  801MPD2    C511801   3.707   3.854  14.230 -0.4388 -0.7668 -0.2726
  801MPD2     H11802   3.348   3.709  14.233 -0.7577  1.2098  1.2998
  801MPD2    H111803   3.637   4.023  14.321  1.0993 -0.0574 -1.4031
  801MPD2    H211804   3.765   3.679  14.125  1.0811  1.1715  0.5611
  801MPD2    H311805   3.808   3.891  14.241  0.0084 -1.4014 -2.1119
  801MPD2     N11806   3.372   3.963  14.323  0.0212  0.1722  0.2435
  801MPD2    H511807   3.386   4.056  14.361  0.4151 -0.2134  1.0287
  801MPD2    N111808   3.539   3.546  14.117  0.0920 -0.1857 -0.2714
  801MPD2    H711809   3.623   3.489  14.117 -0.0614 -0.4119  0.3828
  802MPD2     C11810   2.655   2.862  17.393 -0.2232 -0.2803  0.0871
  802MPD2    C111811   2.699   2.992  17.391 -0.0162 -0.9646 -0.1003
  802MPD2    C211812   2.765   3.038  17.283 -0.0793 -0.0782  0.0304
  802MPD2    C311813   2.812   2.956  17.180  0.4679 -0.8410 -0.2779
  802MPD2    C411814   2.783   2.821  17.192  0.1268  0.7117 -0.6919
  802MPD2    C511815   2.705   2.776  17.296 -0.5367 -0.1570 -0.8231
  802MPD2     H11816   2.791   3.143  17.290  1.3801 -0.3188 -1.5594
  802MPD2    H111817   2.829   2.746  17.128  1.3732  0.7885  0.0947
  802MPD2    H211818   2.606   2.822  17.481  0.7241 -0.7484  0.4045
  802MPD2    H311819   2.673   2.673  17.307 -1.3982  0.0773 -1.1397
  802MPD2     N11820   2.890   3.018  17.080 -0.0410 -0.0247  0.6698
  802MPD2    H511821   2.894   3.119  17.079 -1.6803  0.0478  2.7752
  802MPD2    N111822   2.673   3.080  17.489 -0.1440  0.5668  0.3116
  802MPD2    H711823   2.715   3.171  17.475 -1.0816  0.9989  0.2948
  803MPD2     C11824   3.678   2.595  11.808 -0.7412 -0.1443 -0.0180
  803MPD2    C111825   3.786   2.587  11.899 -0.5530  0.0400  0.2932
  803MPD2    C211826   3.771   2.503  12.012 -0.5071 -1.3506  0.2692
  803MPD2    C311827   3.656   2.426  12.030 -0.1732  0.1763 -0.6161
  803MPD2    C411828   3.549   2.446  11.946  0.1993 -0.6234 -0.1700
  803MPD2    C511829   3.567   2.526  11.832 -0.3046  0.3517  0.3425
  803MPD2     H11830   3.849   2.501  12.086 -1.0091  0.3394  0.8372
  803MPD2    H111831   3.455   2.394  11.959  0.7982 -1.2601  1.5410
  803MPD2    H211832   3.672   2.653  11.716  1.7221 -0.6466 -0.4838
  803MPD2    H311833   3.486   2.537  11.761 -3.5193 -1.3281  3.7388
  803MPD2     N11834   3.631   2.343  12.141  0.3511  0.3790 -0.2780
  803MPD2    H511835   3.537   2.309  12.163  0.0429  1.4390  0.0709
  803MPD2    N111836   3.900   2.672  11.889 -0.8693 -0.1258 -0.1694
  803MPD2    H711837   3.963   2.669  11.968  1.6661  4.7228 -1.9546
  804MPD2     C11838   3.579   3.944  16.784  0.1543  0.7078  0.0151
  804MPD2    C111839   3.613   3.929  16.919 -0.7081  0.3683 -0.2150
  804MPD2    C211840   3.650   4.037  16.988  0.0130 -0.3106  0.7164
  804MPD2    C311841   3.650   4.164  16.932  0.2250  0.5216 -0.3830
  804MPD2    C411842   3.600   4.177  16.800 -0.5031 -0.6103  0.5329
  804MPD2    C511843   3.571   4.065  16.725 -0.5615 -0.6168 -0.0012
  804MPD2     H11844   3.685   4.035  17.091  1.6661 -0.4797  0.1555
  804MPD2    H111845   3.589   4.277  16.760  0.8305 -0.4963  0.4441
  804MPD2    H211846   3.536   3.863  16.726 -2.2132  0.1616  2.5216
  804MPD2    H311847   3.544   4.079  16.621 -0.3820 -1.3666 -0.1461
  804MPD2     N11848   3.688   4.273  17.010  0.1562 -0.1775  0.0480
  804MPD2    H511849   3.704   4.258  17.110 -1.0332  0.4408  0.3307
  804MPD2    N111850   3.617   3.805  16.991  0.6115  0.5397  0.0409
  804MPD2    H711851   3.667   3.805  17.080  0.6977 -0.4467 -0.0150
  805MPD2     C11852   2.839   2.672  15.376 -0.2416 -0.3178  0.7361
  805MPD2    C111853   2.878   2.552  15.322 -0.3820  0.5084  0.0884
  805MPD2    C211854   2.968   2.473  15.393 -0.3121  0.3446 -0.6633
  805MPD2    C311855   2.995   2.509  15.527  0.1015  0.5241  0.1950
  805MPD2    C411856   2.938   2.624  15.579 -0.0784 -0.3659 -0.2461
  805MPD2    C511857   2.864   2.708  15.501  0.4038 -0.0356  0.4881
  805MPD2     H11858   3.009   2.388  15.340  1.2447  0.6628  0.0331
  805MPD2    H111859   2.967   2.659  15.677  0.1744 -0.8079 -0.1605
  805MPD2    H211860   2.782   2.742  15.316 -1.1071  0.1178  2.0673
  805MPD2    H311861   2.832   2.801  15.547  1.5165 -0.0773  1.3762
  805MPD2     N11862   3.090   2.432  15.595  0.2252  0.1761  0.3248
  805MPD2    H511863   3.132   2.358  15.539  3.2338  0.7276  1.8261
  805MPD2    N111864   2.834   2.511  15.196  0.4864 -0.4283  0.0024
  805MPD2    H711865   2.886   2.440  15.145 -1.1451 -0.6836 -1.3000
  806MPD2     C11866   3.386   1.860   1.156  0.4420  0.4819 -1.0703
  806MPD2    C111867   3.256   1.825   1.180  0.4402 -0.5740 -0.0760
  806MPD2    C211868   3.169   1.824   1.073  0.3301 -0.3586  0.3083
  806MPD2    C311869   3.211   1.852   0.939  0.1746 -0.4776  0.9220
  806MPD2    C411870   3.346   1.892   0.923 -0.0665 -0.7676  0.2345
  806MPD2    C511871   3.426   1.903   1.031  0.1687 -1.1949 -0.5676
  806MPD2     H11872   3.068   1.787   1.081  0.4582 -0.7821 -0.0905
  806MPD2    H111873   3.396   1.917   0.830  1.6590  0.8229  1.5753
  806MPD2    H211874   3.452   1.853   1.242 -2.1984  2.4472  1.1012
  806MPD2    H311875   3.528   1.937   1.015 -0.6052  0.5737 -1.7009
  806MPD2     N11876   3.119   1.849   0.835 -0.1962  0.6807  0.3407
  806MPD2    H511877   3.027   1.816   0.861 -1.5114  3.1866 -1.0847
  806MPD2    N111878   3.221   1.783   1.304 -0.2725  0.3345 -0.9712
  806MPD2    H711879   3.295   1.792   1.373 -1.5560 -0.1704  0.4716
  807MPD2     C11880   2.531   1.459   1.768 -0.6569  0.7001  0.7472
  807MPD2    C111881   2.649   1.392   1.753 -0.2952  0.0661 -0.1651
  807MPD2    C211882   2.653   1.260   1.799 -0.8437  0.1014  0.0824
  807MPD2    C311883   2.538   1.197   1.849  0.0018  0.2254 -0.0912
  807MPD2    C411884   2.428   1.267   1.873  0.6680  0.1686 -0.1226
  807MPD2    C511885   2.430   1.396   1.832  0.1363  0.1753 -0.2554
  807MPD2     H11886   2.743   1.200   1.789  0.5676  2.3854 -0.9267
  807MPD2    H111887   2.344   1.226   1.928  1.6078 -0.3827  0.9040
  807MPD2    H211888   2.515   1.564   1.744  0.1823  1.0256  1.6284
  807MPD2    H311889   2.341   1.456   1.852  0.6318  1.4795 -1.9753
  807MPD2     N11890   2.553   1.067   1.886 -0.4936 -0.7530  0.5988
  807MPD2    H511891   2.635   1.023   1.846 -0.7524 -0.5720 -0.1342
  807MPD2    N111892   2.771   1.437   1.693 -0.5889 -0.3565 -0.1703
  807MPD2    H711893   2.848   1.371   1.689  1.2245  1.7623 -0.5373
  808MPD2     C11894   3.604   2.837   9.628 -0.2943 -0.1117 -0.1631
  808MPD2    C111895   3.630   2.728   9.548  0.6898 -0.1770  0.0012
  808MPD2    C211896   3.704   2.761   9.435  0.9635  0.1554 -0.0704
  808MPD2    C311897   3.771   2.880   9.428  0.1233  0.4614  0.2467
  808MPD2    C411898   3.759   2.982   9.521  0.0963 -0.3904  0.7408
  808MPD2    C511899   3.665   2.960   9.615  0.0762 -0.1354 -0.1584
  808MPD2     H11900   3.719   2.677   9.368  0.6304 -2.2845  2.8829
  808MPD2    H111901   3.810   3.078   9.514  0.1024 -0.5485 -1.4903
  808MPD2    H211902   3.525   2.824   9.701 -0.9854  1.1174 -0.6860
  808MPD2    H311903   3.650   3.024   9.700  2.2822 -1.2784  1.0855
  808MPD2     N11904   3.867   2.883   9.317 -0.7518  0.4142  0.1324
  808MPD2    H511905   3.869   2.792   9.271 -1.0088  0.0615  0.8225
  808MPD2    N111906   3.564   2.601   9.560 -0.5325  0.8409  0.1715
  808MPD2    H711907   3.568   2.533   9.485 -3.7905  1.3039 -0.4299
  809MPD2     C11908   4.050   2.215   9.471  0.1877 -0.1564 -0.8466
  809MPD2    C111909   4.135   2.304   9.533 -0.3542  0.7501 -0.1614
  809MPD2    C211910   4.179   2.423   9.475  0.1782 -0.6902  0.2137
  809MPD2    C311911   4.157   2.437   9.340 -0.2874  0.4878 -0.0538
  809MPD2    C411912   4.083   2.342   9.270 -0.4692  0.6573  0.0769
  809MPD2    C511913   4.031   2.231   9.336  0.8667  0.1438 -0.5289
  809MPD2     H11914   4.235   2.497   9.532 -2.5173  0.7278  1.0365
  809MPD2    H111915   4.063   2.358   9.164 -0.5910  0.3332  0.0500
  809MPD2    H211916   4.022   2.116   9.505 -2.6016 -0.0448 -2.8435
  809MPD2    H311917   3.966   2.159   9.288 -0.4465  0.4037  0.8317
  809MPD2     N11918   4.198   2.546   9.271  0.0404  0.2118 -0.0361
  809MPD2    H511919   4.157   2.553   9.179 -3.6696  0.1165  1.6238
  809MPD2    N111920   4.177   2.285   9.674  0.3867 -0.1289 -0.2423
  809MPD2    H711921   4.228   2.361   9.718  1.7394 -1.9604  1.3357
  810MPD2     C11922   3.731   2.855   9.955 -1.1872  0.1897  0.1553
  810MPD2    C111923   3.666   2.804  10.063 -0.6150  0.1704 -0.1695
  810MPD2    C211924   3.663   2.878  10.182 -0.0229 -0.2453 -0.2893
  810MPD2    C311925   3.720   3.008  10.190 -0.8251 -0.6071  0.1519
  810MPD2    C411926   3.797   3.049  10.084  0.1967  0.2221  0.4558
  810MPD2    C511927   3.800   2.974   9.967 -0.0099  0.3838 -0.1534
  810MPD2     H11928   3.615   2.842  10.272 -1.0499 -0.9229 -1.1099
  810MPD2    H111929   3.852   3.143  10.079  1.1962 -0.4468 -1.2284
  810MPD2    H211930   3.743   2.799   9.863  1.2539  1.5545 -0.3502
  810MPD2    H311931   3.846   3.016   9.878  1.6281 -1.3607 -0.1276
  810MPD2     N11932   3.705   3.091  10.302  0.4126 -0.2015  0.2576
  810MPD2    H511933   3.760   3.176  10.318  2.6484 -1.6415  0.2726
  810MPD2    N111934   3.602   2.676  10.052 -0.1006 -0.5124 -0.1615
  810MPD2    H711935   3.592   2.639   9.958  1.3016  0.0522 -0.5303
  811MPD2     C11936   2.761   2.627   9.816 -0.3148  0.2646  0.0325
  811MPD2    C111937   2.876   2.696   9.849 -0.6165  0.1581  0.3296
  811MPD2    C211938   2.884   2.830   9.829  0.2758 -1.0659 -0.1545
  811MPD2    C311939   2.781   2.895   9.763  0.4850 -0.2910  0.0452
  811MPD2    C411940   2.676   2.826   9.722 -0.0725 -0.4241 -0.1948
  811MPD2    C511941   2.663   2.692   9.753 -0.2775  0.7569 -0.5341
  811MPD2     H11942   2.968   2.884   9.871 -0.6712 -0.0114  0.3862
  811MPD2    H111943   2.595   2.870   9.665  0.5159  0.7009 -0.1606
  811MPD2    H211944   2.744   2.521   9.831 -0.4050  0.5481  1.9800
  811MPD2    H311945   2.569   2.644   9.732 -0.3401  1.2868 -1.4626
  811MPD2     N11946   2.791   3.034   9.742 -0.0860  0.0710 -0.3874
  811MPD2    H511947   2.871   3.076   9.790  0.4712 -2.2106  0.6958
  811MPD2    N111948   2.985   2.621   9.902 -0.1939  0.1532 -0.4092
  811MPD2    H711949   2.972   2.522   9.924  2.5679 -0.8449 -3.2951
  812MPD2     C11950   2.049   2.470  12.169 -0.0780 -0.3082 -0.2007
  812MPD2    C111951   1.958   2.486  12.270  1.2861 -0.1946 -0.0572
  812MPD2    C211952   1.924   2.376  12.352  0.1604 -0.1476 -0.3109
  812MPD2    C311953   1.977   2.253  12.321 -0.2201  0.3291 -0.0663
  812MPD2    C411954   2.070   2.240  12.219 -0.4129 -0.0754  0.1771
  812MPD2    C511955   2.106   2.347  12.140  0.0082  0.7555 -0.8100
  812MPD2     H11956   1.868   2.386  12.444  2.7124 -4.3937  1.6851
  812MPD2    H111957   2.094   2.136  12.195 -0.1118 -0.1751  0.9187
  812MPD2    H211958   2.077   2.549  12.100  2.0215 -0.8946 -0.0364
  812MPD2    H311959   2.188   2.333  12.070  0.8601  0.2097  0.2969
  812MPD2     N11960   1.941   2.146  12.405 -0.1562 -0.5040 -0.1232
  812MPD2    H511961   1.876   2.172  12.479 -1.8085 -3.1787 -0.6472
  812MPD2    N111962   1.910   2.617  12.277 -0.2576 -0.2712 -0.1268
  812MPD2    H711963   1.945   2.680  12.206 -0.0435 -0.2456  0.0023
  813MPD2     C11964   0.737   4.388  12.629  0.2543 -0.3498 -0.0501
  813MPD2    C111965   0.789   4.504  12.678 -0.1696 -0.8179  0.3415
  813MPD2    C211966   0.716   4.595  12.756  0.2104  0.5135  0.1494
  813MPD2    C311967   0.590   4.551  12.796  0.1530 -0.4751 -0.2998
  813MPD2    C411968   0.531   4.436  12.740 -0.3764  0.6390 -0.1428
  813MPD2    C511969   0.604   4.357  12.658  0.2314 -0.1780  0.0903
  813MPD2     H11970   0.761   4.679  12.807  0.1093  0.1332  0.8697
  813MPD2    H111971   0.429   4.401  12.750 -0.0078  0.2659  2.2355
  813MPD2    H211972   0.788   4.308  12.576 -0.6550 -0.4086 -0.8336
  813MPD2    H311973   0.564   4.264  12.620 -1.9192  0.5369  0.5847
  813MPD2     N11974   0.522   4.634  12.895  0.2060 -0.3528 -0.3918
  813MPD2    H511975   0.571   4.715  12.934  0.9007  0.0147 -2.0282
  813MPD2    N111976   0.926   4.528  12.661  0.2273 -0.2766  0.5544
  813MPD2    H711977   0.962   4.616  12.698 -4.0336  1.7026  0.0275
  814MPD2     C11978   1.906   0.924  12.114  0.0629  0.3454  0.1894
  814MPD2    C111979   1.923   0.967  11.983 -0.1684 -0.8029 -0.3602
  814MPD2    C211980   1.926   1.096  11.962 -0.4540 -1.0539 -0.0424
  814MPD2    C311981   1.920   1.188  12.059  0.8725 -0.4315  0.7619
  814MPD2    C411982   1.905   1.151  12.191 -0.4173 -0.3196  0.0750
  814MPD2    C511983   1.899   1.014  12.219 -0.1247  0.0957  0.2088
  814MPD2     H11984   1.956   1.115  11.859  0.7250 -2.5427  0.0392
  814MPD2    H111985   1.902   1.223  12.272  2.1440 -0.1444  0.0301
  814MPD2    H211986   1.917   0.821  12.145  0.2764  0.7715  1.5620
  814MPD2    H311987   1.898   0.976  12.320  1.0360  0.3021  0.2994
  814MPD2     N11988   1.946   1.322  12.034 -0.2310  0.6026 -0.6809
  814MPD2    H511989   1.978   1.378  12.113 -0.2429 -1.5194  0.8115
  814MPD2    N111990   1.945   0.882  11.876  0.5191 -0.9739  0.2256
  814MPD2    H711991   1.957   0.935  11.791 -0.7840 -2.8747 -1.1535
  815MPD2     C11992   1.868   4.093  12.162  0.3307 -0.0418  0.4378
  815MPD2    C111993   1.806   4.023  12.064 -0.6437 -0.5781  0.0286
  815MPD2    C211994   1.674   3.984  12.084  0.1929 -0.5374 -0.3744
  815MPD2    C311995   1.601   4.009  12.200 -0.4066 -0.1511  0.2779
  815MPD2    C411996   1.664   4.094  12.289 -0.0847 -1.3512 -0.7341
  815MPD2    C511997   1.798   4.126  12.274 -0.4366  0.2576 -0.2108
  815MPD2     H11998   1.635   3.920  12.005 -0.1186 -1.0532  0.1985
  815MPD2    H111999   1.619   4.118  12.384  1.4640  1.0542 -0.6023
  815MPD2    H212000   1.976   4.103  12.161  0.4462 -1.2944  1.0430
  815MPD2    H312001   1.835   4.185  12.357  1.6295 -1.1397 -0.1457
  815MPD2     N12002   1.476   3.957  12.221 -0.3620  0.2740 -0.4032
  815MPD2    H512003   1.447   3.884  12.157 -1.2778  1.2260 -1.0805
  815MPD2    N112004   1.868   3.953  11.958  0.9074 -0.4801  0.5577
  815MPD2    H712005   1.818   3.882  11.905  1.1511 -0.3657  0.1691
  816MPD2     C12006   2.245   3.108  17.472 -0.4232  0.3109 -0.2268
  816MPD2    C112007   2.295   3.223  17.418  1.0450 -0.1940 -0.6342
  816MPD2    C212008   2.365   3.212  17.305  0.3642  0.0297 -0.1653
  816MPD2    C312009   2.395   3.096  17.250  0.2940 -0.2982 -0.1797
  816MPD2    C412010   2.352   2.978  17.306  0.5571  0.7906 -0.6765
  816MPD2    C512011   2.278   2.988  17.419 -0.2545 -0.5482  0.2042
  816MPD2     H12012   2.392   3.298  17.245  0.4469 -0.3233 -0.6397
  816MPD2    H112013   2.356   2.880  17.259  1.1728  0.5906 -0.1944
  816MPD2    H212014   2.180   3.117  17.559 -0.2315  0.5705 -0.1094
  816MPD2    H312015   2.257   2.901  17.480 -2.8296 -0.0828  0.0072
  816MPD2     N12016   2.461   3.097  17.127 -0.1671  0.8579 -0.2125
  816MPD2    H512017   2.511   3.182  17.102  0.6661  1.2154  2.7069
  816MPD2    N112018   2.251   3.341  17.474  0.3998 -0.4167 -0.4779
  816MPD2    H712019   2.159   3.340  17.516  0.5722 -2.6187 -0.1393
  817MPD2     C12020   1.685   0.027  10.157  0.2660 -0.3778  0.5001
  817MPD2    C112021   1.800   0.066  10.096  0.8271  0.2302  1.1674
  817MPD2    C212022   1.792   0.171  10.015  1.0729 -0.0541 -0.2182
  817MPD2    C312023   1.677   0.240  10.000 -0.3461 -0.2999  0.9096
  817MPD2    C412024   1.563   0.201  10.060  0.1178  0.0217 -0.2329
  817MPD2    C512025   1.565   0.086  10.126 -0.1424  0.3436 -0.7503
  817MPD2     H12026   1.878   0.216   9.967  0.4554  1.8296  0.4646
  817MPD2    H112027   1.467   0.249  10.047  0.2745 -0.0855 -1.7961
  817MPD2    H212028   1.679   4.662  10.219 -1.3048 -0.7775 -0.2275
  817MPD2    H312029   1.482   0.033  10.170 -0.0021 -1.2844 -2.4518
  817MPD2     N12030   1.689   0.353   9.915 -0.5918 -0.0063  0.4138
  817MPD2    H512031   1.784   0.364   9.881  0.1657 -4.5434  1.1281
  817MPD2    N112032   1.933   0.013  10.116  0.0139  0.1543 -0.5414
  817MPD2    H712033   1.999   0.046  10.047  0.7602 -1.4781 -0.6033
  818MPD2     C12034   1.097   4.676  10.024 -0.1924  0.3698 -0.1666
  818MPD2    C112035   0.978   4.616  10.044  0.1075 -0.1505  0.1740
  818MPD2    C212036   0.962   4.491   9.995 -0.5746  0.5441 -0.0059
  818MPD2    C312037   1.064   4.425   9.921  0.2800  0.1533 -0.1768
  818MPD2    C412038   1.184   4.494   9.896 -0.0818  0.2426 -0.0404
  818MPD2    C512039   1.200   4.621   9.947  0.6810 -0.9661 -0.0535
  818MPD2     H12040   0.865   4.444  10.007  0.5750 -1.3196  2.0576
  818MPD2    H112041   1.258   4.451   9.830  0.4056  1.5239 -0.3305
  818MPD2    H212042   1.119   0.053  10.057 -0.3748 -0.0678  1.2607
  818MPD2    H312043   1.288   4.677   9.917 -0.2841 -0.5878 -2.1708
  818MPD2     N12044   1.051   4.302   9.863 -0.5533 -0.0504 -0.2687
  818MPD2    H512045   1.135   4.246   9.853 -0.9672 -0.5023 -1.1709
  818MPD2    N112046   0.869   4.683  10.108  0.4361  0.8518 -0.2854
  818MPD2    H712047   0.786   4.625  10.104  1.8919 -1.0639 -2.7490
  819MPD2     C12048   3.349   1.829  15.424  0.2363 -0.4534  0.2757
  819MPD2    C112049   3.351   1.692  15.402 -0.3898  0.1258  0.2997
  819MPD2    C212050   3.434   1.611  15.482  0.6562  0.1303 -0.1652
  819MPD2    C312051   3.508   1.663  15.581 -0.5203 -0.0644 -0.6230
  819MPD2    C412052   3.488   1.797  15.612 -0.5477 -0.2751 -0.1317
  819MPD2    C512053   3.415   1.879  15.533 -0.0657  0.0955  0.1074
  819MPD2     H12054   3.435   1.506  15.455  3.2071 -0.3827  1.9070
  819MPD2    H112055   3.528   1.850  15.697  1.9060 -0.9221 -0.8805
  819MPD2    H212056   3.279   1.894  15.372  1.0797 -0.1632 -0.4984
  819MPD2    H312057   3.413   1.984  15.557 -1.2985  0.4865 -1.7197
  819MPD2     N12058   3.603   1.583  15.652 -0.4174 -0.4048  0.2571
  819MPD2    H512059   3.633   1.503  15.596  1.0547  1.0031 -0.9430
  819MPD2    N112060   3.265   1.647  15.299 -1.0055  0.5421  0.1195
  819MPD2    H712061   3.226   1.721  15.242  0.2630  0.5768 -0.6802
  820MPD2     C12062   2.513   1.895  14.729  0.7131  0.2020 -0.4760
  820MPD2    C112063   2.618   1.951  14.791 -0.4281 -0.3477  1.1153
  820MPD2    C212064   2.701   1.864  14.855 -0.2352 -0.0996 -0.8542
  820MPD2    C312065   2.695   1.727  14.838 -0.3060 -0.3276 -0.4984
  820MPD2    C412066   2.594   1.668  14.774  0.0457  0.3738  0.0683
  820MPD2    C512067   2.501   1.760  14.720 -0.3715  0.5221 -0.5123
  820MPD2     H12068   2.782   1.905  14.913  0.6181 -0.2726 -1.9263
  820MPD2    H112069   2.581   1.562  14.756  2.9022  0.0387 -0.1113
  820MPD2    H212070   2.437   1.953  14.677  1.6330  1.4608 -0.4073
  820MPD2    H312071   2.411   1.717  14.677  0.6260 -1.7684 -0.2912
  820MPD2     N12072   2.800   1.645  14.884  0.5865  0.0155 -0.1824
  820MPD2    H512073   2.783   1.545  14.873 -0.0664 -0.0963  1.9534
  820MPD2    N112074   2.630   2.093  14.790 -0.3740 -0.2522 -0.3438
  820MPD2    H712075   2.560   2.153  14.748 -0.9189 -2.9795 -3.3046
  821MPD2     C12076   2.761   3.326  13.282  0.2013 -0.2557 -0.0330
  821MPD2    C112077   2.862   3.232  13.266  0.0069  0.1605 -0.0087
  821MPD2    C212078   2.969   3.258  13.178  0.3335  0.4264  0.0067
  821MPD2    C312079   2.974   3.372  13.107 -0.6370  0.7310 -0.3370
  821MPD2    C412080   2.870   3.459  13.116 -0.0703 -0.1549  0.6512
  821MPD2    C512081   2.763   3.437  13.205  0.0243  0.3950 -0.1349
  821MPD2     H12082   3.044   3.184  13.155  0.1142 -0.4271  1.9949
  821MPD2    H112083   2.878   3.554  13.065  0.8388 -1.2502 -1.2548
  821MPD2    H212084   2.692   3.320  13.366 -1.8344  1.4541 -1.5829
  821MPD2    H312085   2.690   3.516  13.218  1.7899  2.0479 -0.3379
  821MPD2     N12086   3.089   3.407  13.025 -0.0450  0.2834 -0.3606
  821MPD2    H512087   3.089   3.496  12.978 -2.5314  0.2574 -0.4567
  821MPD2    N112088   2.861   3.115  13.338  0.1874 -0.8717  0.1603
  821MPD2    H712089   2.943   3.063  13.309  0.4793 -0.3342  0.0218
  822MPD2     C12090   3.711   3.045  15.613 -1.2729  0.6239 -0.3694
  822MPD2    C112091   3.836   3.084  15.628 -0.3102 -0.6510  0.3720
  822MPD2    C212092   3.862   3.200  15.701 -0.4238  0.9982  0.0374
  822MPD2    C312093   3.759   3.275  15.751 -0.6497 -0.2722 -0.2529
  822MPD2    C412094   3.631   3.241  15.711  0.2487  0.6726 -0.0972
  822MPD2    C512095   3.604   3.126  15.648 -0.0600 -0.7808 -0.3781
  822MPD2     H12096   3.966   3.223  15.718 -0.4410  0.2420  1.1484
  822MPD2    H112097   3.539   3.290  15.741  0.9734  2.2901 -0.5481
  822MPD2    H212098   3.686   2.952  15.564 -2.1162  1.4325 -1.5062
  822MPD2    H312099   3.500   3.095  15.639  0.1105 -0.3979 -3.6531
  822MPD2     N12100   3.785   3.368  15.857  0.1082 -0.1729 -0.1107
  822MPD2    H512101   3.881   3.399  15.869 -0.4362  0.3899  2.9328
  822MPD2    N112102   3.948   2.996  15.599  0.1937  0.1673  0.1526
  822MPD2    H712103   4.037   3.016  15.642  0.3496 -1.7926  0.7426
  823MPD2     C12104   3.849   3.538  16.724 -0.1851 -0.2471 -0.5019
  823MPD2    C112105   3.789   3.473  16.625  0.2209 -0.3092 -0.3182
  823MPD2    C212106   3.771   3.334  16.635  0.4025  0.3035 -0.3598
  823MPD2    C312107   3.823   3.267  16.740  0.5552  0.1391 -0.7741
  823MPD2    C412108   3.886   3.333  16.843  0.2145  0.0569 -0.6166
  823MPD2    C512109   3.893   3.468  16.834 -0.1911 -0.0395  0.2262
  823MPD2     H12110   3.730   3.283  16.548 -1.6089 -2.2490  2.0812
  823MPD2    H112111   3.928   3.275  16.924  0.3206  0.4155 -0.4107
  823MPD2    H212112   3.853   3.646  16.732 -1.1121 -0.2982  0.6860
  823MPD2    H312113   3.938   3.521  16.917 -0.3377 -1.0081  0.9241
  823MPD2     N12114   3.806   3.123  16.761  0.2710  0.0144  0.1328
  823MPD2    H512115   3.846   3.079  16.843  0.4700  0.0521  0.0571
  823MPD2    N112116   3.773   3.545  16.502 -0.0714  0.0185  0.8305
  823MPD2    H712117   3.811   3.639  16.506 -3.0901  1.2549  0.3960
  824MPD2     C12118   4.226   2.153  15.546 -0.1850 -0.0387 -0.1513
  824MPD2    C112119   4.311   2.258  15.548  0.2527  0.2497  0.4070
  824MPD2    C212120   4.445   2.237  15.562 -0.3490  0.2964  0.4679
  824MPD2    C312121   4.493   2.108  15.580 -0.9487  0.1427 -0.5309
  824MPD2    C412122   4.410   1.998  15.584  0.1858  0.2258 -0.3536
  824MPD2    C512123   4.275   2.026  15.574 -0.1074  0.0551 -0.1153
  824MPD2     H12124   4.519   2.316  15.568 -0.0876  0.0485  0.5249
  824MPD2    H112125   4.444   1.895  15.582 -0.0231  0.1634 -0.7751
  824MPD2    H212126   4.122   2.166  15.519 -0.8512 -3.3363  0.8327
  824MPD2    H312127   4.201   1.947  15.575 -1.9785  1.8008  0.2991
  824MPD2     N12128   4.636   2.089  15.581 -0.3134 -0.4825  0.7032
  824MPD2    H512129   4.680   2.179  15.566  0.0916 -1.0132 -1.2089
  824MPD2    N112130   4.276   2.390  15.562  0.5420  0.1526 -0.1457
  824MPD2    H712131   4.352   2.456  15.573 -1.8663  3.1771 -1.8877
  825MPD2     C12132   0.540   2.072  15.074  0.2007 -0.8084  0.1765
  825MPD2    C112133   0.472   2.166  15.150 -0.5197 -0.6085  0.7008
  825MPD2    C212134   0.444   2.293  15.100  0.1129 -0.0153  0.1778
  825MPD2    C312135   0.505   2.334  14.980 -0.0168  0.1289 -0.1892
  825MPD2    C412136   0.569   2.241  14.908  0.5294 -0.3372 -0.0777
  825MPD2    C512137   0.593   2.112  14.955  0.0425  1.0744  0.1374
  825MPD2     H12138   0.385   2.365  15.156  2.5569  0.9278  1.5758
  825MPD2    H112139   0.607   2.265  14.810  0.0219 -1.0351 -0.4444
  825MPD2    H212140   0.549   1.966  15.094 -0.9344 -0.8678  0.3851
  825MPD2    H312141   0.652   2.035  14.907  0.5287  0.6817  1.3779
  825MPD2     N12142   0.502   2.462  14.929  0.4630  0.0600 -0.4094
  825MPD2    H512143   0.546   2.465  14.837  1.6384 -3.8688  0.0279
  825MPD2    N112144   0.432   2.113  15.269  0.0220  0.3680 -0.4270
  825MPD2    H712145   0.442   2.012  15.277  0.6603  0.3940 -0.9306
  826MPD2     C12146   4.679   1.992  13.294 -0.7960  0.2251 -0.2009
  826MPD2    C112147   4.719   2.124  13.290 -0.2459 -0.2424 -0.5804
  826MPD2    C212148   4.624   2.222  13.326  0.3040  0.3438  0.8387
  826MPD2    C312149   4.494   2.188  13.376 -0.3645 -0.4835 -0.4252
  826MPD2    C412150   4.464   2.059  13.386 -0.1828 -0.0593 -0.3602
  826MPD2    C512151   4.559   1.960  13.349 -0.1895  0.2169  0.0490
  826MPD2     H12152   4.655   2.323  13.306 -1.0485  1.1211  2.6381
  826MPD2    H112153   4.382   2.031  13.450  1.0032  0.3482  1.3283
  826MPD2    H212154   0.019   1.913  13.256 -0.5812  0.3592 -0.1187
  826MPD2    H312155   4.537   1.857  13.376 -0.3745  0.3354  0.3515
  826MPD2     N12156   4.400   2.282  13.422  0.4749  0.1472  0.1782
  826MPD2    H512157   4.306   2.250  13.445  1.0957 -0.6805  1.5669
  826MPD2    N112158   0.128   2.153  13.248 -0.3366  0.1300  0.0431
  826MPD2    H712159   0.189   2.074  13.230  0.4962  0.6954  0.3936
  827MPD2     C12160   1.169   3.654   9.820  0.0437 -0.4534 -0.1487
  827MPD2    C112161   1.097   3.553   9.880  0.6363  0.5208  0.5975
  827MPD2    C212162   0.957   3.529   9.848 -0.1533 -0.2264 -0.4099
  827MPD2    C312163   0.898   3.611   9.750 -0.2069  0.4918  0.5035
  827MPD2    C412164   0.974   3.712   9.692  0.2837  0.3166 -0.0419
  827MPD2    C512165   1.102   3.733   9.728 -0.4762  0.2785  0.8043
  827MPD2     H12166   0.899   3.446   9.887  0.2260  0.1234  0.8973
  827MPD2    H112167   0.937   3.782   9.618  1.1635  0.2286 -0.5650
  827MPD2    H212168   1.274   3.673   9.840  0.5785 -3.4371 -0.2046
  827MPD2    H312169   1.158   3.816   9.687  0.0448  0.1703  1.2959
  827MPD2     N12170   0.763   3.600   9.716  0.0261 -0.3449  0.1570
  827MPD2    H512171   0.714   3.529   9.770 -0.0731  0.6988  1.4196
  827MPD2    N112172   1.167   3.485   9.981  0.0466  0.4181 -0.0605
  827MPD2    H712173   1.264   3.508  10.000 -0.3920  1.3706  1.0296
  828MPD2     C12174   3.820   3.375  12.703  0.0429 -0.9331  0.1443
  828MPD2    C112175   3.789   3.403  12.571  0.7167 -0.2709 -0.0587
  828MPD2    C212176   3.894   3.383  12.477  0.5243  0.4354  0.4174
  828MPD2    C312177   4.022   3.348  12.516 -0.3148 -0.2186  0.0129
  828MPD2    C412178   4.052   3.326  12.645  0.1212 -0.7493 -0.2098
  828MPD2    C512179   3.950   3.341  12.734  0.3909 -0.1937  0.9689
  828MPD2     H12180   3.873   3.407  12.374 -0.4714 -1.0349  0.2780
  828MPD2    H112181   4.150   3.294  12.681 -0.5817 -2.1920  0.4474
  828MPD2    H212182   3.748   3.383  12.784  1.1456 -1.4906  1.1872
  828MPD2    H312183   3.977   3.329  12.839  0.2126 -0.1672  1.0173
  828MPD2     N12184   4.126   3.335  12.420  0.0686 -0.7229  0.0898
  828MPD2    H512185   4.218   3.312  12.457 -0.4260  0.0059  1.7401
  828MPD2    N112186   3.661   3.430  12.524  0.3098  1.0399 -0.0386
  828MPD2    H712187   3.658   3.452  12.425 -0.6720  0.4246 -0.1400
  829MPD2     C12188   3.372   3.562  11.697  0.6520  0.4128 -0.3986
  829MPD2    C112189   3.257   3.570  11.777 -0.4933 -0.4624 -0.5341
  829MPD2    C212190   3.281   3.564  11.911  0.0052 -0.2306  0.1608
  829MPD2    C312191   3.411   3.537  11.964 -0.6788  0.6620  0.5372
  829MPD2    C412192   3.514   3.511  11.879 -0.0836 -0.4522 -0.4784
  829MPD2    C512193   3.494   3.522  11.745  0.0749 -0.1466 -1.0569
  829MPD2     H12194   3.193   3.578  11.973 -0.3005  0.5605 -0.4418
  829MPD2    H112195   3.610   3.487  11.923 -0.7327 -0.6409  0.8242
  829MPD2    H212196   3.361   3.568  11.590 -0.5405  0.4866 -0.2709
  829MPD2    H312197   3.577   3.511  11.676  0.2306 -0.1255 -0.8772
  829MPD2     N12198   3.423   3.534  12.107 -0.4717  0.2667  0.0382
  829MPD2    H512199   3.503   3.480  12.140 -0.7767 -0.4184 -0.3577
  829MPD2    N112200   3.132   3.589  11.716  0.6891  0.1197  0.1389
  829MPD2    H712201   3.129   3.603  11.615  0.2366 -1.0026  0.0011
  830MPD2     C12202   4.470   1.449  15.668  0.4917 -0.2609  1.1744
  830MPD2    C112203   4.353   1.501  15.618 -0.4022 -0.3314  0.0455
  830MPD2    C212204   4.355   1.592  15.515 -0.7968 -0.2437 -0.1222
  830MPD2    C312205   4.479   1.638  15.465  0.0100 -0.3544 -0.9677
  830MPD2    C412206   4.593   1.595  15.534 -0.2936 -0.0102  0.4349
  830MPD2    C512207   4.587   1.503  15.632 -0.1740  0.4047  0.3902
  830MPD2     H12208   4.264   1.631  15.469 -1.3089 -0.1515  0.9624
  830MPD2    H112209   4.692   1.630  15.505 -0.4421  0.6533  0.7363
  830MPD2    H212210   4.477   1.394  15.762 -2.2329 -1.4235  0.7232
  830MPD2    H312211   4.677   1.458  15.672  0.0611  0.7065  0.1975
  830MPD2     N12212   4.501   1.735  15.372 -0.4519 -0.7380  0.0125
  830MPD2    H512213   4.594   1.775  15.374 -0.1187 -1.5116 -0.0245
  830MPD2    N112214   4.228   1.469  15.686 -0.2824  0.1189 -0.5303
  830MPD2    H712215   4.224   1.421  15.775  1.7677  2.4020  0.7721
  831MPD2     C12216   4.187   3.336  16.305 -0.8477  0.3055  0.6508
  831MPD2    C112217   4.123   3.340  16.177  1.0934  0.9955 -0.6034
  831MPD2    C212218   4.002   3.276  16.161 -0.4100 -0.0064 -0.1104
  831MPD2    C312219   3.937   3.207  16.266  0.6232  0.4411 -0.3488
  831MPD2    C412220   3.996   3.207  16.386  0.2529  0.3045 -0.5301
  831MPD2    C512221   4.118   3.271  16.403 -0.4409  0.9635  0.1014
  831MPD2     H12222   3.951   3.292  16.066 -1.3624 -3.5446 -0.1988
  831MPD2    H112223   3.948   3.158  16.469 -0.2753 -0.4938 -1.3063
  831MPD2    H212224   4.285   3.379  16.321 -1.3433  1.8985 -0.7006
  831MPD2    H312225   4.170   3.255  16.496  1.6826  0.9262 -1.1003
  831MPD2     N12226   3.818   3.129  16.243  0.2199 -0.4713  0.1718
  831MPD2    H512227   3.777   3.088  16.326 -0.5835 -0.8055 -0.3917
  831MPD2    N112228   4.192   3.408  16.076 -0.0740 -0.5706  0.6019
  831MPD2    H712229   4.287   3.436  16.101 -0.2586  1.0796 -0.4747
  832MPD2     C12230   2.603   0.072  17.170 -0.0817  0.6697 -0.9957
  832MPD2    C112231   2.619   4.661  17.185  0.2332 -0.4817 -0.2824
  832MPD2    C212232   2.581   4.575  17.085 -0.3334  0.0151 -0.1364
  832MPD2    C312233   2.536   4.625  16.963  0.1789  0.1099 -0.1219
  832MPD2    C412234   2.542   0.033  16.947  0.1200 -0.4167 -0.3197
  832MPD2    C512235   2.566   0.117  17.047  0.6365 -0.3252 -0.0968
  832MPD2     H12236   2.579   4.469  17.108 -0.6687  0.3221  1.2566
  832MPD2    H112237   2.528   0.069  16.846  1.3178 -0.3334 -0.4667
  832MPD2    H212238   2.627   0.142  17.250  0.3929 -0.4013 -0.1965
  832MPD2    H312239   2.558   0.225  17.038 -1.3130 -0.5932 -1.4943
  832MPD2     N12240   2.490   4.542  16.858 -0.3436  0.0067 -1.0572
  832MPD2    H512241   2.470   4.574  16.764 -0.5462 -0.2874 -1.1134
  832MPD2    N112242   2.678   4.619  17.305 -0.4857  0.2231  0.1072
  832MPD2    H712243   2.724   4.693  17.357  0.0298  0.0466 -0.0957
  833MPD2     C12244   0.194   1.023  12.227  1.1070 -0.5678 -1.1727
  833MPD2    C112245   0.203   1.160  12.236 -0.0593 -0.3561  0.3962
  833MPD2    C212246   0.298   1.228  12.170 -0.0129  0.2387  0.7474
  833MPD2    C312247   0.399   1.164  12.108  0.0196  0.6547 -0.0464
  833MPD2    C412248   0.398   1.023  12.106 -0.1690 -0.2654 -0.7011
  833MPD2    C512249   0.293   0.951  12.159 -0.6420 -0.0501 -0.0833
  833MPD2     H12250   0.288   1.334  12.151 -0.5147 -0.1382 -1.0684
  833MPD2    H112251   0.479   0.969  12.058  2.1429  1.3202  1.4499
  833MPD2    H212252   0.111   0.978  12.280 -0.3360  3.0846 -0.2978
  833MPD2    H312253   0.290   0.844  12.141  2.0816 -0.0386 -0.7290
  833MPD2     N12254   0.499   1.237  12.039 -0.2159 -0.2765  0.0908
  833MPD2    H512255   0.551   1.185  11.968  0.8893 -0.3581  0.9495
  833MPD2    N112256   0.094   1.233  12.278  0.1472 -0.2685 -0.2316
  833MPD2    H712257   0.007   1.181  12.285 -0.4833  1.1025  2.1192
  834MPD2     C12258   0.442   1.196  11.181 -0.1378 -0.0478 -0.6494
  834MPD2    C112259   0.400   1.117  11.282 -0.4404  0.6362  0.1233
  834MPD2    C212260   0.409   1.159  11.414  0.4005 -0.4012 -0.6243
  834MPD2    C312261   0.457   1.288  11.448  0.2084  0.0039  0.8511
  834MPD2    C412262   0.506   1.356  11.337  0.1250  0.3088  0.1111
  834MPD2    C512263   0.512   1.308  11.207 -0.2617 -0.5433 -0.1250
  834MPD2     H12264   0.360   1.107  11.495  0.6787 -0.2113 -0.3346
  834MPD2    H112265   0.561   1.448  11.352  1.9412 -0.9523  1.1669
  834MPD2    H212266   0.440   1.154  11.081  0.9978  2.1662 -1.6196
  834MPD2    H312267   0.559   1.366  11.129 -0.9426  1.7878  1.1857
  834MPD2     N12268   0.480   1.333  11.579  0.2690  0.4623  0.2818
  834MPD2    H512269   0.436   1.280  11.654 -2.0195 -2.2499 -3.0120
  834MPD2    N112270   0.359   0.983  11.244 -0.9067 -0.3630 -0.1799
  834MPD2    H712271   0.345   0.963  11.146 -1.1298 -2.6632  0.3164
  835MPD2     C12272   0.250   3.575  11.041  0.1926  0.7099  1.0040
  835MPD2    C112273   0.116   3.555  11.058  0.0411 -0.0815 -0.0682
  835MPD2    C212274   0.064   3.565  11.183  0.5930 -0.6694  0.2077
  835MPD2    C312275   0.139   3.582  11.299  1.0534  0.0490  0.9033
  835MPD2    C412276   0.271   3.606  11.281 -0.6543 -0.3168  0.0043
  835MPD2    C512277   0.326   3.603  11.154 -0.1926 -0.3024 -0.2693
  835MPD2     H12278   4.681   3.552  11.187  0.5061 -0.0150 -0.1212
  835MPD2    H112279   0.337   3.620  11.366  0.5146  1.4966 -1.1813
  835MPD2    H212280   0.294   3.578  10.942  2.6843 -0.1674  2.0979
  835MPD2    H312281   0.431   3.629  11.157 -1.0208  2.8817  1.2874
  835MPD2     N12282   0.084   3.582  11.429 -0.3640 -0.3190 -0.1971
  835MPD2    H512283   0.150   3.584  11.505 -1.2584  0.4175  0.5516
  835MPD2    N112284   0.022   3.540  10.956  0.3064  0.0900  0.0716
  835MPD2    H712285   4.647   3.524  10.977  0.2905  0.2345  0.1065
  836MPD2     C12286   4.047   3.580  11.518  0.2624  0.5878  0.0939
  836MPD2    C112287   4.103   3.603  11.643 -0.0543  0.0315  0.4528
  836MPD2    C212288   4.017   3.653  11.747 -0.9233 -0.1925  0.2006
  836MPD2    C312289   3.881   3.678  11.716 -0.0829 -0.4501  0.3350
  836MPD2    C412290   3.832   3.656  11.587  0.2052  0.3030 -0.0013
  836MPD2    C512291   3.913   3.609  11.490  0.4234  0.1574 -0.7713
  836MPD2     H12292   4.059   3.668  11.845  0.4836  3.7448 -0.9932
  836MPD2    H112293   3.730   3.680  11.562 -0.2755  1.5591  3.1733
  836MPD2    H212294   4.106   3.546  11.433  0.2152 -2.9163  1.4384
  836MPD2    H312295   3.880   3.608  11.387 -0.2612  0.2420 -0.5499
  836MPD2     N12296   3.788   3.732  11.803  0.8905  0.3141  0.1152
  836MPD2    H512297   3.693   3.748  11.770  1.0478 -0.9611 -0.9549
  836MPD2    N112298   4.235   3.570  11.653  0.0632 -0.6518  0.3533
  836MPD2    H712299   4.282   3.548  11.565  0.1340 -0.9315  0.4609
  837MPD2     C12300   2.876   3.742  10.100  0.1549 -0.7340  0.5676
  837MPD2    C112301   2.775   3.723  10.008  0.3026  0.4983  0.2122
  837MPD2    C212302   2.689   3.828   9.992 -0.3385 -0.1300  0.1970
  837MPD2    C312303   2.701   3.945  10.062  0.2927  0.5821 -0.6321
  837MPD2    C412304   2.795   3.957  10.160  0.2028 -0.4235  1.1445
  837MPD2    C512305   2.882   3.856  10.183  0.4561 -0.0234 -0.8338
  837MPD2     H12306   2.620   3.831   9.909 -0.2492  1.3766  0.1685
  837MPD2    H112307   2.830   4.050  10.203  2.0318 -0.7481  0.3931
  837MPD2    H212308   2.954   3.668  10.111  0.2612 -0.3845  2.1813
  837MPD2    H312309   2.969   3.873  10.246  1.4422  3.9895 -3.2424
  837MPD2     N12310   2.631   4.052  10.005  0.0648  0.1539 -0.7532
  837MPD2    H512311   2.576   4.035   9.922  0.1133  2.6960 -1.3192
  837MPD2    N112312   2.761   3.620   9.910 -0.0693 -0.7803  0.0816
  837MPD2    H712313   2.691   3.642   9.839 -0.6259  0.7091  1.0940
  838MPD2     C12314   1.399   0.854  10.923 -0.1834 -0.0192  0.2490
  838MPD2    C112315   1.416   0.934  11.032 -0.0836  0.0750 -0.7511
  838MPD2    C212316   1.306   0.965  11.102 -1.2385  0.0005  0.2635
  838MPD2    C312317   1.186   0.906  11.077  0.1829 -0.3792 -0.2542
  838MPD2    C412318   1.175   0.807  10.981  0.1079 -0.4624  0.3521
  838MPD2    C512319   1.290   0.780  10.904 -0.4760  0.6732 -0.4847
  838MPD2     H12320   1.307   1.032  11.187 -0.6410  0.3850 -0.0529
  838MPD2    H112321   1.087   0.746  10.967  0.2134 -0.5478  0.0785
  838MPD2    H212322   1.487   0.822  10.868 -0.1255  0.3779  0.1041
  838MPD2    H312323   1.284   0.717  10.816 -3.8978  1.8399 -1.0749
  838MPD2     N12324   1.076   0.934  11.161  0.2189  0.0515  1.0099
  838MPD2    H512325   1.085   0.995  11.241  1.5154  2.5226 -1.0085
  838MPD2    N112326   1.540   0.997  11.066  0.5487  0.6973  0.3485
  838MPD2    H712327   1.538   1.060  11.146  3.3922 -0.4751  1.3438
  839MPD2     C12328   1.562   0.955  11.845  0.0967  0.8073  0.8132
  839MPD2    C112329   1.552   0.853  11.751  1.2589 -0.2936  0.5249
  839MPD2    C212330   1.617   0.870  11.631 -0.0932 -0.1665 -0.2587
  839MPD2    C312331   1.706   0.968  11.599  0.0402 -0.0488  0.3284
  839MPD2    C412332   1.718   1.067  11.694  0.4558  0.1621  0.2994
  839MPD2    C512333   1.652   1.060  11.818  0.4262  0.4550 -0.2534
  839MPD2     H12334   1.596   0.804  11.547 -2.2956  0.1641  0.0293
  839MPD2    H112335   1.766   1.162  11.672 -0.3330  0.9867  2.0927
  839MPD2    H212336   1.517   0.963  11.943  0.7131  1.2890  1.0551
  839MPD2    H312337   1.670   1.132  11.897 -0.8879  0.0846  0.3902
  839MPD2     N12338   1.761   0.976  11.476  0.8222 -0.0796  0.6615
  839MPD2    H512339   1.714   0.924  11.402  0.2380  0.6561  0.5173
  839MPD2    N112340   1.461   0.749  11.756  0.0565  0.3162  0.4828
  839MPD2    H712341   1.451   0.706  11.664  0.0804 -1.1998  1.1813
  840MPD2     C12342   1.710   3.713  10.176 -0.1351  0.6095  0.5500
  840MPD2    C112343   1.669   3.634  10.290  0.2709  0.5508 -0.2591
  840MPD2    C212344   1.742   3.641  10.410  0.3774  0.4663 -0.2942
  840MPD2    C312345   1.842   3.737  10.426  0.1807 -1.1335  0.5670
  840MPD2    C412346   1.873   3.811  10.314  0.3859 -0.2956 -0.0951
  840MPD2    C512347   1.808   3.806  10.193 -0.4998  0.1382 -0.3750
  840MPD2     H12348   1.694   3.596  10.497  0.2826  1.1664  0.0166
  840MPD2    H112349   1.942   3.893  10.308 -0.1924  0.2886  1.2440
  840MPD2    H212350   1.659   3.707  10.080  0.1375 -4.3889  0.6771
  840MPD2    H312351   1.835   3.871  10.111  1.9036  0.2914  0.5725
  840MPD2     N12352   1.912   3.759  10.545 -0.2000 -0.9947  0.9906
  840MPD2    H512353   1.975   3.838  10.552 -0.0143 -0.9623 -1.0202
  840MPD2    N112354   1.554   3.560  10.270 -0.0657 -0.4236  0.3231
  840MPD2    H712355   1.504   3.582  10.185  0.6017 -1.9472 -0.4592
  841MPD2     C12356   0.576   3.376  14.932 -0.1544  0.2368  0.4285
  841MPD2    C112357   0.622   3.408  14.813  0.1294  0.7981 -0.0098
  841MPD2    C212358   0.634   3.539  14.780 -0.0229 -0.3676  0.5497
  841MPD2    C312359   0.625   3.643  14.874 -0.5932 -0.0198  0.1812
  841MPD2    C412360   0.569   3.611  14.991 -0.7044  0.2413  0.2419
  841MPD2    C512361   0.541   3.481  15.015  0.0614  0.0148  0.0843
  841MPD2     H12362   0.673   3.566  14.683 -0.8413  0.5662  0.4939
  841MPD2    H112363   0.550   3.692  15.060  4.4439  0.3605  1.5004
  841MPD2    H212364   0.550   3.280  14.977 -1.5708  0.4784  0.1408
  841MPD2    H312365   0.491   3.460  15.109 -1.8436  0.3037 -0.8678
  841MPD2     N12366   0.675   3.777  14.842  0.2818 -0.2847  0.4011
  841MPD2    H512367   0.707   3.808  14.751 -0.7162 -0.8503 -0.1450
  841MPD2    N112368   0.658   3.310  14.723 -0.7667  0.3675 -0.4712
  841MPD2    H712369   0.685   3.348  14.632 -0.6081 -3.2154 -1.9198
  842MPD2     C12370   1.411   4.439  16.767 -0.4682 -0.2294  0.7876
  842MPD2    C112371   1.278   4.453  16.735  0.0765  0.6693 -0.7836
  842MPD2    C212372   1.178   4.379  16.800 -0.6281  0.1550 -0.4764
  842MPD2    C312373   1.215   4.284  16.888 -1.2584 -0.7910  0.5723
  842MPD2    C412374   1.347   4.263  16.918  0.4623 -0.1345  0.0081
  842MPD2    C512375   1.437   4.343  16.862  0.7073  1.0722 -0.2959
  842MPD2     H12376   1.073   4.398  16.783 -1.1603  0.2217  3.0247
  842MPD2    H112377   1.381   4.193  16.994  0.9102 -0.6531 -0.6713
  842MPD2    H212378   1.495   4.488  16.720  0.7161 -2.0945  0.9205
  842MPD2    H312379   1.542   4.321  16.874  0.8853  1.5925 -0.9105
  842MPD2     N12380   1.127   4.207  16.966  0.6032  0.5650  0.3772
  842MPD2    H512381   1.158   4.151  17.045 -1.8307  0.6599  1.4112
  842MPD2    N112382   1.244   4.573  16.652  0.3292 -1.2435 -0.0375
  842MPD2    H712383   1.315   4.645  16.642  0.2372 -1.3095 -1.1219
  843MPD2     C12384   3.112   0.194   0.655  0.3947  0.1944  0.4525
  843MPD2    C112385   3.204   0.092   0.633  0.4184  0.3496  0.9391
  843MPD2    C212386   3.312   0.126   0.561 -0.2935  0.0567 -0.3209
  843MPD2    C312387   3.339   0.254   0.517 -0.5964 -0.2685  0.3819
  843MPD2    C412388   3.248   0.356   0.549 -0.4585  0.4431 -0.0694
  843MPD2    C512389   3.140   0.327   0.622 -0.7105  0.6195  0.3687
  843MPD2     H12390   3.379   0.044   0.538 -0.3075 -0.5908  2.0120
  843MPD2    H112391   3.268   0.459   0.518 -0.8653  0.2495 -0.9927
  843MPD2    H212392   3.029   0.181   0.724  0.5468 -0.6743  0.4791
  843MPD2    H312393   3.082   0.412   0.655 -1.3642  0.1722  0.3692
  843MPD2     N12394   3.460   0.300   0.460 -0.0855 -0.1899  0.2526
  843MPD2    H512395   3.463   0.399   0.439  0.1496  0.0184  1.2472
  843MPD2    N112396   3.176   4.683   0.680 -0.1212 -0.3419  0.0961
  843MPD2    H712397   3.090   4.667   0.731  0.8228  0.5249  1.9657
  844MPD2     C12398   2.535   4.339  16.450  0.6258  0.0463 -0.2905
  844MPD2    C112399   2.569   4.206  16.448  0.0245 -0.3123 -0.3499
  844MPD2    C212400   2.680   4.164  16.526 -0.0277  0.0766  0.4815
  844MPD2    C312401   2.762   4.261  16.592  0.1586  0.0382  0.3393
  844MPD2    C412402   2.721   4.393  16.585  0.0637 -0.4204 -0.0358
  844MPD2    C512403   2.613   4.425  16.516  0.3365 -0.5088  0.2499
  844MPD2     H12404   2.713   4.061  16.531  0.1245  0.0881 -0.3740
  844MPD2    H112405   2.778   4.473  16.631 -0.4064 -1.0364  1.6241
  844MPD2    H212406   2.444   4.378  16.406  0.9569  0.0738 -0.9505
  844MPD2    H312407   2.570   4.525  16.513  2.1446  0.2322 -1.3363
  844MPD2     N12408   2.879   4.215  16.660  0.5537 -0.7508 -0.2779
  844MPD2    H512409   2.904   4.117  16.651  0.0003 -0.8363 -0.8711
  844MPD2    N112410   2.490   4.111  16.382  0.7604 -0.1110 -0.2803
  844MPD2    H712411   2.511   4.012  16.395  0.4853 -0.2988 -1.2107
  845MPD2     C12412   3.279   4.678  17.444  0.2746  0.6039  0.1515
  845MPD2    C112413   3.166   4.703  17.362 -0.0511  0.2103  0.2811
  845MPD2    C212414   3.159   4.625  17.240 -0.3963 -0.3963 -0.0737
  845MPD2    C312415   3.246   4.518  17.219 -0.4162 -0.1232 -0.6823
  845MPD2    C412416   3.351   4.494  17.308 -0.0098  0.5080 -0.4816
  845MPD2    C512417   3.368   4.578  17.419  0.0900  0.4567 -0.5212
  845MPD2     H12418   3.078   4.642  17.169 -0.6113  0.1708  0.3121
  845MPD2    H112419   3.412   4.405  17.299 -0.6460  0.1524 -1.3231
  845MPD2    H212420   3.288   0.019  17.530 -0.2840  0.2846  0.4497
  845MPD2    H312421   3.456   4.568  17.482 -0.4527 -0.3711  0.1059
  845MPD2     N12422   3.227   4.434  17.103 -0.1213  0.1490  0.3127
  845MPD2    H512423   3.138   4.446  17.057  0.6547 -1.9174 -1.6987
  845MPD2    N112424   3.093   0.096  17.401  0.1687 -0.5777  0.0524
  845MPD2    H712425   3.113   0.146  17.487 -0.2860 -0.2703 -0.0209
  846MPD2     C12426   4.577   0.496  13.456  0.1668  0.2236  0.4146
  846MPD2    C112427   4.509   0.616  13.469  0.2650 -0.1580  0.3311
  846MPD2    C212428   4.465   0.652  13.593 -0.0662  0.1882 -0.5768
  846MPD2    C312429   4.472   0.564  13.701 -0.1134  0.8808  0.7994
  846MPD2    C412430   4.524   0.440  13.683 -0.1639 -0.7008 -0.3746
  846MPD2    C512431   4.584   0.410  13.563 -0.5114  0.0125 -0.2917
  846MPD2     H12432   4.437   0.753  13.621  1.2433  0.3252  0.2335
  846MPD2    H112433   4.536   0.371  13.765 -1.2691  0.1096  0.4662
  846MPD2    H212434   4.616   0.464  13.360  0.9833  2.0597  0.1432
  846MPD2    H312435   4.638   0.317  13.550 -1.2819 -0.8318  2.5214
  846MPD2     N12436   4.422   0.603  13.822  0.0671  0.1758  0.2504
  846MPD2    H512437   4.358   0.682  13.815 -2.0277 -1.6094 -0.6859
  846MPD2    N112438   4.502   0.709  13.363  0.0429 -0.1934  0.2007
  846MPD2    H712439   4.454   0.794  13.389  0.4284  1.0173 -3.0354
  847MPD2     C12440   4.062   1.451  14.231 -0.0892  1.1473 -0.0096
  847MPD2    C112441   4.130   1.572  14.209  0.9469  0.2618 -0.6205
  847MPD2    C212442   4.268   1.576  14.245 -0.7828 -0.3477 -0.3110
  847MPD2    C312443   4.333   1.469  14.317 -0.5285  0.1572  0.0028
  847MPD2    C412444   4.255   1.353  14.346 -0.2497 -0.4555 -0.7661
  847MPD2    C512445   4.127   1.348  14.306  0.5264 -0.0238 -0.2884
  847MPD2     H12446   4.335   1.653  14.210 -2.2226  1.0565  0.0177
  847MPD2    H112447   4.295   1.266  14.396 -2.5127 -0.3967  1.1153
  847MPD2    H212448   3.963   1.430  14.191  0.8955 -1.1373 -1.2878
  847MPD2    H312449   4.079   1.251  14.314 -0.8008  0.7411  1.0648
  847MPD2     N12450   4.471   1.487  14.345  0.2067 -0.3297 -0.5687
  847MPD2    H512451   4.499   1.584  14.337 -1.0881  0.1553  0.6079
  847MPD2    N112452   4.081   1.685  14.139  0.0562 -0.0523  0.8150
  847MPD2    H712453   4.149   1.759  14.126 -0.1189  0.3429  2.1197
  848MPD2     C12454   1.920   4.655  16.445  0.0178 -0.8576 -0.2846
  848MPD2    C112455   1.990   4.674  16.561  0.2324 -0.1675  0.1978
  848MPD2    C212456   1.981   0.075  16.619  0.2003  0.2362 -0.2882
  848MPD2    C312457   1.918   0.182  16.562  0.0898  1.5277  0.1842
  848MPD2    C412458   1.856   0.170  16.439  0.2494 -0.3297 -0.0365
  848MPD2    C512459   1.852   0.043  16.385  0.4906  0.6297  0.1419
  848MPD2     H12460   2.027   0.083  16.717 -0.1869  1.2436 -0.1930
  848MPD2    H112461   1.793   0.248  16.399  0.1170 -0.3555  0.1186
  848MPD2    H212462   1.913   4.567  16.382  0.4945  0.8457 -2.7034
  848MPD2    H312463   1.802   0.034  16.290 -2.4500  1.1806  1.6310
  848MPD2     N12464   1.910   0.305  16.627 -0.5753  0.2259  0.5447
  848MPD2    H512465   1.859   0.379  16.579  0.0037 -0.0789 -0.5366
  848MPD2    N112466   2.063   4.569  16.616  0.2983  0.0707  0.1258
  848MPD2    H712467   2.129   4.591  16.690 -0.4848 -0.4685  0.9745
  849MPD2     C12468   0.957   0.096  14.203 -0.6030  0.0006 -0.1048
  849MPD2    C112469   0.999   4.704  14.152  0.7321  1.0977  0.4737
  849MPD2    C212470   1.026   4.598  14.237  0.4118 -0.3798 -0.4479
  849MPD2    C312471   1.024   4.606  14.376  0.3272 -0.2698 -0.0566
  849MPD2    C412472   0.984   0.005  14.429  0.3170  0.1140  0.1766
  849MPD2    C512473   0.947   0.108  14.342  0.0924  0.1326  0.4314
  849MPD2     H12474   1.078   4.518  14.186  0.0760 -1.5805  1.1076
  849MPD2    H112475   0.967   0.010  14.535 -1.5396 -0.8867 -0.0695
  849MPD2    H212476   0.945   0.183  14.141 -1.4993  0.0086  0.0852
  849MPD2    H312477   0.900   0.192  14.391  0.3987  1.4673 -1.5523
  849MPD2     N12478   1.065   4.502  14.459  0.2578 -0.6323 -0.3794
  849MPD2    H512479   1.063   4.529  14.556 -0.8728 -0.2371 -0.5211
  849MPD2    N112480   1.003   4.680  14.014  0.2762  0.6331  0.0993
  849MPD2    H712481   1.032   4.588  13.982 -1.5043  0.7021 -1.6906
  850MPD2     C12482   3.918   2.529  14.464  0.3264  0.0287  0.1531
  850MPD2    C112483   3.896   2.608  14.573 -0.4625  0.0167  0.7059
  850MPD2    C212484   4.010   2.668  14.626 -0.4253 -0.2383 -0.2890
  850MPD2    C312485   4.140   2.650  14.586 -0.3304  0.4251  0.1673
  850MPD2    C412486   4.156   2.571  14.477 -0.1393 -0.3660  0.2155
  850MPD2    C512487   4.047   2.511  14.422 -0.0832 -0.0173  0.0383
  850MPD2     H12488   3.996   2.736  14.710  2.0858  0.0001 -0.0816
  850MPD2    H112489   4.246   2.557  14.417 -0.1851 -1.4515  0.3988
  850MPD2    H212490   3.841   2.488  14.400 -0.2195  3.5685 -1.4087
  850MPD2    H312491   4.054   2.464  14.325  1.5331  1.0779 -0.3773
  850MPD2     N12492   4.256   2.684  14.664 -0.9698 -0.3619 -0.4918
  850MPD2    H512493   4.347   2.644  14.642 -0.3687  1.3196 -0.9906
  850MPD2    N112494   3.760   2.628  14.607  0.0720 -0.0705 -0.4181
  850MPD2    H712495   3.691   2.600  14.538 -1.0397  2.1908 -0.2391
  851MPD2     C12496   4.344   2.662  15.238  0.4619  0.2399 -0.5470
  851MPD2    C112497   4.248   2.582  15.184 -0.5179 -0.0492 -0.0958
  851MPD2    C212498   4.280   2.448  15.172 -0.4931 -0.2890 -0.7687
  851MPD2    C312499   4.395   2.396  15.216  0.2629 -0.1641  0.7770
  851MPD2    C412500   4.483   2.483  15.281  0.3158  0.0855  0.5495
  851MPD2    C512501   4.455   2.616  15.285 -0.2240 -0.1121 -0.2714
  851MPD2     H12502   4.215   2.380  15.118 -1.2456 -1.3722  1.4805
  851MPD2    H112503   4.579   2.460  15.326  0.6300  0.9025  0.3007
  851MPD2    H212504   4.332   2.770  15.237  2.5589  0.4844  0.9675
  851MPD2    H312505   4.520   2.691  15.329 -1.8721  1.0473  0.1830
  851MPD2     N12506   4.420   2.262  15.191 -0.2510  0.0897  0.4967
  851MPD2    H512507   4.359   2.207  15.131  1.5871  0.0664 -1.3536
  851MPD2    N112508   4.135   2.640  15.118  0.6515  0.3278 -0.6764
  851MPD2    H712509   4.118   2.737  15.140 -0.1666  0.3746 -1.5467
  852MPD2     C12510   3.806   0.261   9.929  0.3297  0.6865 -0.4573
  852MPD2    C112511   3.883   0.276  10.044 -0.1758 -0.3244  0.1712
  852MPD2    C212512   3.928   0.407  10.075 -0.4323  0.5081 -0.3067
  852MPD2    C312513   3.889   0.519   9.998  0.0164 -0.4235 -0.3925
  852MPD2    C412514   3.805   0.494   9.891  0.2558 -0.5767 -0.1753
  852MPD2    C512515   3.767   0.371   9.855 -0.0920  0.2278  0.2249
  852MPD2     H12516   3.995   0.415  10.160 -0.1478  1.1740 -0.5899
  852MPD2    H112517   3.783   0.578   9.826  0.7765 -2.0107 -2.2073
  852MPD2    H212518   3.771   0.162   9.902  0.4267  0.5757 -0.1751
  852MPD2    H312519   3.706   0.367   9.766  2.3672  2.9609 -1.5772
  852MPD2     N12520   3.949   0.650  10.017 -0.3520  0.2157  0.4757
  852MPD2    H512521   4.009   0.656  10.098  0.3301 -1.0327  0.0721
  852MPD2    N112522   3.932   0.171  10.122 -0.5012  0.0202 -0.5351
  852MPD2    H712523   3.970   0.193  10.213 -0.0274  0.0235 -0.7333
  853MPD2     C12524   1.261   4.717  12.204 -0.0702 -0.7346  0.1210
  853MPD2    C112525   1.144   0.053  12.177 -0.3775 -0.1327  0.0414
  853MPD2    C212526   1.088   0.042  12.052 -0.2331 -0.4662  0.2423
  853MPD2    C312527   1.160   4.699  11.953 -0.1330 -0.6530 -0.2799
  853MPD2    C412528   1.280   4.640  11.979  0.1282  0.2905  0.2633
  853MPD2    C512529   1.329   4.649  12.106  0.6901 -0.5180  0.6063
  853MPD2     H12530   0.995   0.092  12.029  0.0244  0.5131  1.2803
  853MPD2    H112531   1.336   4.580  11.908  0.7539  0.5544  0.5286
  853MPD2    H212532   1.303   4.723  12.303  0.6567  0.2423 -0.2430
  853MPD2    H312533   1.430   4.616  12.126  0.9274 -0.4190 -0.4033
  853MPD2     N12534   1.122   4.680  11.821  0.1825  0.3453  0.2762
  853MPD2    H512535   1.189   4.631  11.763  0.3569 -0.1322  0.8818
  853MPD2    N112536   1.086   0.111  12.289  0.0713 -0.1713 -0.1458
  853MPD2    H712537   1.135   0.106  12.378 -0.3099  0.2117  0.0864
  854MPD2     C12538   2.659   0.185  13.058  0.2392 -0.3362  0.3815
  854MPD2    C112539   2.583   0.145  12.957  0.5018 -0.1971  0.0801
  854MPD2    C212540   2.596   0.022  12.895 -0.6507  0.3354 -0.1514
  854MPD2    C312541   2.687   4.662  12.945  0.8559  0.6003  0.5239
  854MPD2    C412542   2.758   4.702  13.060  0.2888 -0.2543 -0.2251
  854MPD2    C512543   2.750   0.101  13.115 -0.1611  0.4921 -0.3735
  854MPD2     H12544   2.527   0.005  12.813 -1.7281 -2.0354  1.2399
  854MPD2    H112545   2.843   4.644  13.093  0.0529  0.8540  2.3241
  854MPD2    H212546   2.638   0.281  13.104  3.8135  0.3036  0.6689
  854MPD2    H312547   2.812   0.145  13.192  1.2908 -1.3383 -0.5014
  854MPD2     N12548   2.713   4.531  12.900 -0.0011  0.0203  0.1935
  854MPD2    H512549   2.773   4.477  12.961  0.3435  0.8464  0.5877
  854MPD2    N112550   2.475   0.232  12.928  0.2743 -0.1647  0.1297
  854MPD2    H712551   2.490   0.330  12.948 -2.3251  0.0038  1.2547
  855MPD2     C12552   3.239   4.721  13.181  0.3705 -0.7620 -1.1008
  855MPD2    C112553   3.187   4.602  13.224  0.7081  0.5624 -0.2747
  855MPD2    C212554   3.131   4.516  13.133 -0.6625 -0.1843 -0.6556
  855MPD2    C312555   3.127   4.535  12.999 -0.4965 -0.4310 -0.8493
  855MPD2    C412556   3.183   4.650  12.958  0.2436  0.2430 -0.0678
  855MPD2    C512557   3.242   0.019  13.042  0.2669  0.2991 -0.7824
  855MPD2     H12558   3.066   4.447  13.186 -0.0040 -1.1008 -1.0480
  855MPD2    H112559   3.186   4.679  12.854  0.2712 -0.5243 -0.2765
  855MPD2    H212560   3.276   0.083  13.237  2.5285 -1.7383 -1.0269
  855MPD2    H312561   3.281   0.116  13.012  0.5527  0.2282 -0.6300
  855MPD2     N12562   3.070   4.458  12.900 -0.5189 -0.1949  0.6207
  855MPD2    H512563   3.055   4.495  12.806 -0.7079  0.3763  0.8759
  855MPD2    N112564   3.183   4.557  13.356  0.1567 -0.1640  0.1025
  855MPD2    H712565   3.130   4.470  13.364  1.4807 -1.0486 -0.8301
  856MPD2     C12566   0.472   0.968  14.096  0.0545 -0.0333 -0.0311
  856MPD2    C112567   0.571   1.054  14.059 -0.3986 -0.1809 -0.0006
  856MPD2    C212568   0.544   1.153  13.970  0.1706 -0.1898 -0.2205
  856MPD2    C312569   0.416   1.174  13.918 -0.9552 -0.1466  0.1660
  856MPD2    C412570   0.315   1.081  13.948 -0.1898  0.7548  0.0812
  856MPD2    C512571   0.346   0.983  14.039  0.9677 -0.5206  0.2703
  856MPD2     H12572   0.626   1.222  13.954 -0.0357  0.6612  2.3605
  856MPD2    H112573   0.221   1.087  13.894 -0.6403  0.4276  0.8235
  856MPD2    H212574   0.484   0.889  14.169  0.1581 -1.3233 -1.4406
  856MPD2    H312575   0.270   0.915  14.074 -1.0796  0.4009 -2.3978
  856MPD2     N12576   0.388   1.288  13.840 -0.2477  0.2159  0.4701
  856MPD2    H512577   0.293   1.295  13.805 -0.7357 -0.4463  1.6402
  856MPD2    N112578   0.705   1.050  14.108  0.8527  0.3952 -0.1059
  856MPD2    H712579   0.777   1.119  14.088  0.2816  0.9696 -0.1828
  857MPD2     C12580   1.521   3.003  12.821 -0.1582  0.3163  0.1583
  857MPD2    C112581   1.644   2.994  12.868 -0.8351  0.7640 -0.0388
  857MPD2    C212582   1.706   3.101  12.921 -0.2056 -0.2842  0.1753
  857MPD2    C312583   1.638   3.223  12.940 -0.1673 -1.0236 -0.8382
  857MPD2    C412584   1.503   3.227  12.900  0.3476 -0.2372  0.2681
  857MPD2    C512585   1.441   3.117  12.839  0.1274  0.1968 -0.5208
  857MPD2     H12586   1.806   3.092  12.961 -1.0000 -0.9153  2.0142
  857MPD2    H112587   1.449   3.320  12.909  0.8385  0.0245  0.5076
  857MPD2    H212588   1.469   2.918  12.778  0.1089  1.2925 -2.1043
  857MPD2    H312589   1.346   3.124  12.788  0.2083  1.4143 -0.5126
  857MPD2     N12590   1.711   3.332  12.986 -0.2732 -0.0991  0.4742
  857MPD2    H512591   1.807   3.313  13.015 -0.3719 -2.6484 -0.9067
  857MPD2    N112592   1.701   2.872  12.830  0.4110  0.1386  0.2790
  857MPD2    H712593   1.641   2.804  12.784  0.3911 -0.1241  0.6904
  858MPD2     C12594   2.078   1.408  16.629 -0.4959 -0.9879 -0.7647
  858MPD2    C112595   2.220   1.400  16.628 -0.4905 -0.1146 -0.2099
  858MPD2    C212596   2.296   1.462  16.731 -0.7976 -0.1830  0.3520
  858MPD2    C312597   2.222   1.525  16.835 -1.0084  0.5090 -0.0747
  858MPD2    C412598   2.084   1.514  16.846  0.2555  0.2620 -0.3945
  858MPD2    C512599   2.013   1.462  16.739 -0.1278 -0.6502 -0.3863
  858MPD2     H12600   2.404   1.461  16.733 -0.8366  2.6871  4.6610
  858MPD2    H112601   2.031   1.554  16.931 -0.2051 -0.0515 -0.5362
  858MPD2    H212602   2.013   1.366  16.553 -2.0852 -0.3343  0.2401
  858MPD2    H312603   1.905   1.470  16.746  0.2633  3.5720  1.1444
  858MPD2     N12604   2.290   1.612  16.928  0.3981 -0.9295  0.0393
  858MPD2    H512605   2.245   1.631  17.017 -0.2224 -0.9174 -0.2751
  858MPD2    N112606   2.284   1.350  16.509  0.6520  0.0931 -0.5299
  858MPD2    H712607   2.232   1.335  16.424 -1.0336 -0.8247  0.6553
  859MPD2     C12608   1.378   3.843  15.446  0.3882  0.6716  0.2573
  859MPD2    C112609   1.280   3.847  15.354  0.0372 -0.0914 -0.0281
  859MPD2    C212610   1.275   3.752  15.249  0.5165 -0.4428 -0.8503
  859MPD2    C312611   1.371   3.655  15.235 -0.2126 -0.2832 -0.2472
  859MPD2    C412612   1.462   3.637  15.335  0.1680  0.1102  0.3019
  859MPD2    C512613   1.462   3.729  15.440 -0.0500  0.2542 -0.0354
  859MPD2     H12614   1.194   3.750  15.177  0.2680 -1.5210 -0.5358
  859MPD2    H112615   1.531   3.554  15.328 -0.3578 -0.1357 -1.9411
  859MPD2    H212616   1.383   3.918  15.524 -1.2907  2.4097 -1.3169
  859MPD2    H312617   1.535   3.723  15.520  0.1843  1.7508 -0.1341
  859MPD2     N12618   1.373   3.561  15.132 -0.5877 -0.0462  0.8306
  859MPD2    H512619   1.433   3.480  15.142  0.4061  0.6150  0.2538
  859MPD2    N112620   1.187   3.950  15.370 -0.2448  0.0292  0.0774
  859MPD2    H712621   1.193   4.013  15.449  3.4369 -2.2244  1.6189
  860MPD2     C12622   3.964   4.189  11.271  1.0275  0.5842 -0.6239
  860MPD2    C112623   3.977   4.302  11.349  0.2585 -0.4118  0.2114
  860MPD2    C212624   3.871   4.341  11.438  0.2108 -0.1219 -0.3756
  860MPD2    C312625   3.758   4.261  11.451 -0.0789 -0.5325 -0.4619
  860MPD2    C412626   3.740   4.155  11.364 -0.3459  0.1986 -0.1366
  860MPD2    C512627   3.843   4.124  11.277 -0.1476 -0.6819  0.6699
  860MPD2     H12628   3.882   4.430  11.497  0.6192  0.4249 -1.2715
  860MPD2    H112629   3.650   4.095  11.366  0.4801 -1.0034  1.5494
  860MPD2    H212630   4.038   4.134  11.213 -0.1923 -1.6617 -0.0493
  860MPD2    H312631   3.825   4.034  11.219 -1.6170 -0.6799  1.1130
  860MPD2     N12632   3.661   4.297  11.553 -0.6567  0.0707 -0.2660
  860MPD2    H512633   3.685   4.373  11.616 -0.3775  0.9479 -1.4384
  860MPD2    N112634   4.091   4.381  11.353 -0.0858 -0.4927 -0.4625
  860MPD2    H712635   4.099   4.444  11.432  0.2059  0.1505 -1.0062
  861MPD2     C12636   2.012   2.586  11.208 -0.2287  0.1141 -0.4163
  861MPD2    C112637   2.118   2.673  11.246  0.4061 -0.8827  0.3976
  861MPD2    C212638   2.154   2.781  11.168 -0.0953 -0.5550  0.1286
  861MPD2    C312639   2.089   2.796  11.041 -0.3407 -0.1593  0.7662
  861MPD2    C412640   1.989   2.710  11.012 -0.2203 -0.0127  0.1122
  861MPD2    C512641   1.945   2.611  11.091 -0.2552  0.4848 -0.4683
  861MPD2     H12642   2.228   2.849  11.209 -2.1585  2.1336 -0.6021
  861MPD2    H112643   1.938   2.717  10.917  0.7870  0.7696 -0.3653
  861MPD2    H212644   1.974   2.504  11.268 -0.3734  0.1164 -0.5042
  861MPD2    H312645   1.867   2.544  11.059  0.0596  0.2371 -0.7178
  861MPD2     N12646   2.118   2.892  10.948 -0.3156  0.6965  0.7985
  861MPD2    H512647   2.056   2.890  10.868  1.7101  2.0068 -0.7778
  861MPD2    N112648   2.182   2.664  11.372  0.8646  0.0504  0.0663
  861MPD2    H712649   2.252   2.733  11.399  1.9020 -0.0755 -2.3192
  862MPD2     C12650   2.287   3.274  10.313 -0.0801 -0.2556 -0.0238
  862MPD2    C112651   2.222   3.181  10.395 -0.1999 -1.3894  0.2936
  862MPD2    C212652   2.139   3.084  10.341  0.1217  0.5076 -0.7549
  862MPD2    C312653   2.117   3.080  10.209 -0.0852 -0.2582  0.4624
  862MPD2    C412654   2.183   3.170  10.126  0.4815 -0.0551 -0.1072
  862MPD2    C512655   2.266   3.268  10.178  0.9103  0.0419 -0.4064
  862MPD2     H12656   2.092   3.019  10.414 -0.7013  1.5489 -0.3552
  862MPD2    H112657   2.152   3.179  10.023  0.3053  0.0313 -0.0466
  862MPD2    H212658   2.355   3.349  10.352  0.0830 -0.1283 -0.5470
  862MPD2    H312659   2.316   3.335  10.108  2.2128  0.0019  0.4897
  862MPD2     N12660   2.039   2.988  10.143  0.0747 -0.2585  0.0937
  862MPD2    H512661   2.045   2.983  10.042  0.2024 -3.3294  0.2680
  862MPD2    N112662   2.256   3.173  10.535  0.1882  0.4223  0.1265
  862MPD2    H712663   2.210   3.095  10.582 -0.5309  0.5144 -0.4214
  863MPD2     C12664   0.142   1.298  16.862 -0.1383 -0.0926  0.6800
  863MPD2    C112665   0.243   1.294  16.771 -0.3079  0.0505  0.1199
  863MPD2    C212666   0.364   1.228  16.800  0.1450 -0.1139 -0.1115
  863MPD2    C312667   0.375   1.174  16.926  0.3563 -0.3006  0.3754
  863MPD2    C412668   0.270   1.176  17.016 -0.1526  0.0593 -0.3127
  863MPD2    C512669   0.152   1.230  16.983  0.4471 -0.4713 -0.0352
  863MPD2     H12670   0.450   1.222  16.734 -0.1476  1.2311 -0.6110
  863MPD2    H112671   0.273   1.145  17.120 -1.6840 -2.3996 -1.0082
  863MPD2    H212672   0.053   1.356  16.838 -0.3649 -0.8808 -0.4150
  863MPD2    H312673   0.070   1.221  17.053 -0.7531 -1.0218 -1.5069
  863MPD2     N12674   0.484   1.107  16.975 -0.2314 -0.3565  0.5386
  863MPD2    H512675   0.466   1.048  17.055  0.0960 -2.7725 -1.1880
  863MPD2    N112676   0.220   1.370  16.655 -0.0456 -0.3501 -0.2720
  863MPD2    H712677   0.151   1.445  16.659  1.3643  0.9625 -0.2080
  864MPD2     C12678   1.301   2.169  17.201 -0.1096  0.5633 -0.0940
  864MPD2    C112679   1.350   2.160  17.075 -0.3503  0.2023 -0.3042
  864MPD2    C212680   1.377   2.281  17.007 -0.5502 -1.2009  0.1794
  864MPD2    C312681   1.354   2.400  17.073  0.0720 -0.3371  0.7723
  864MPD2    C412682   1.315   2.408  17.203  0.2934 -0.2238 -0.5005
  864MPD2    C512683   1.289   2.288  17.262  0.3196 -0.2900 -0.0033
  864MPD2     H12684   1.426   2.272  16.910  0.6047  0.2003  0.6420
  864MPD2    H112685   1.299   2.500  17.259 -0.7429 -0.6858 -0.0349
  864MPD2    H212686   1.273   2.083  17.260 -0.4932  1.0196  0.3963
  864MPD2    H312687   1.285   2.296  17.370  3.0162 -0.4743  0.1067
  864MPD2     N12688   1.396   2.523  17.018 -0.1025 -0.6788  0.1098
  864MPD2    H512689   1.362   2.609  17.061  1.0669 -0.3229  0.3076
  864MPD2    N112690   1.372   2.034  17.006  0.5467  0.1691 -0.4474
  864MPD2    H712691   1.376   2.035  16.905  1.1880  2.4878 -0.3961
  865MPD2     C12692   1.421   2.836  16.146 -0.1310  0.2170 -0.0800
  865MPD2    C112693   1.427   2.729  16.230  0.1324  0.3074 -0.3556
  865MPD2    C212694   1.385   2.742  16.361 -0.3596  0.6790 -0.3021
  865MPD2    C312695   1.336   2.874  16.401 -0.0451  0.2816 -0.1374
  865MPD2    C412696   1.341   2.978  16.314 -0.3377  0.2405 -0.0313
  865MPD2    C512697   1.374   2.958  16.187  0.1542  0.0726 -0.2956
  865MPD2     H12698   1.396   2.670  16.441 -1.2830  1.1088  0.2131
  865MPD2    H112699   1.307   3.076  16.346  1.3840  1.2923 -1.3962
  865MPD2    H212700   1.460   2.820  16.046  0.8542 -1.3074  0.5405
  865MPD2    H312701   1.366   3.037  16.114 -0.9592 -0.8377 -1.1664
  865MPD2     N12702   1.311   2.903  16.540  0.6898  0.0204 -0.0038
  865MPD2    H512703   1.316   2.999  16.570  0.7156 -0.6398  2.0836
  865MPD2    N112704   1.486   2.616  16.176  0.4068 -0.3119 -0.1902
  865MPD2    H712705   1.509   2.622  16.078 -1.4324 -1.3338 -0.6991
  866MPD2     C12706   3.031   2.945  11.850  0.0772 -0.3166 -0.1656
  866MPD2    C112707   3.039   2.879  11.730  0.6438  0.4517 -0.9230
  866MPD2    C212708   2.957   2.909  11.624 -0.0767  0.2071  0.3978
  866MPD2    C312709   2.859   3.002  11.640  0.2685 -0.3288 -0.5447
  866MPD2    C412710   2.847   3.062  11.767 -0.5316  0.2425  0.5480
  866MPD2    C512711   2.930   3.032  11.875 -0.0094 -0.1707  0.2826
  866MPD2     H12712   2.977   2.877  11.522 -0.0318  0.2364  0.3977
  866MPD2    H112713   2.785   3.149  11.781  0.9631  1.0379  2.1236
  866MPD2    H212714   3.098   2.917  11.932  1.3417  0.2652 -0.9948
  866MPD2    H312715   2.905   3.076  11.971 -2.1552 -4.2111  1.5709
  866MPD2     N12716   2.763   3.044  11.542  0.3802  0.1488  0.0747
  866MPD2    H512717   2.692   3.110  11.572  0.2318  0.8879 -1.9321
  866MPD2    N112718   3.159   2.803  11.703 -0.1418 -0.1248 -0.3411
  866MPD2    H712719   3.236   2.817  11.767  0.7812 -1.6372 -1.1319
  867MPD2     C12720   0.430   2.392  16.659  0.7964  0.1189  0.0193
  867MPD2    C112721   0.447   2.447  16.530 -0.1274 -0.3839 -0.0480
  867MPD2    C212722   0.427   2.583  16.513  0.4077  0.7919  0.7161
  867MPD2    C312723   0.377   2.661  16.617  0.1135  0.0253 -0.3059
  867MPD2    C412724   0.347   2.599  16.742  0.2467 -0.5596  0.3613
  867MPD2    C512725   0.383   2.471  16.760  0.3286 -0.2665 -0.8298
  867MPD2     H12726   0.463   2.632  16.423 -3.6546  1.7553 -0.4023
  867MPD2    H112727   0.320   2.652  16.832 -0.8075  1.4497 -1.1298
  867MPD2    H212728   0.462   2.290  16.679 -2.5133 -1.1384 -1.0750
  867MPD2    H312729   0.369   2.434  16.861  3.6380 -0.6395 -0.5160
  867MPD2     N12730   0.356   2.799  16.612  0.8619 -0.4025 -0.5461
  867MPD2    H512731   0.331   2.845  16.699  2.5706 -0.1834 -0.1752
  867MPD2    N112732   0.496   2.356  16.436  0.1691 -0.5206 -0.0106
  867MPD2    H712733   0.525   2.264  16.468 -1.3483 -0.8332  0.4490
  868MPD2     C12734   2.128   1.116  12.979  0.9064 -0.5519  0.5331
  868MPD2    C112735   2.201   1.220  13.039 -0.8647 -0.4826 -0.0387
  868MPD2    C212736   2.132   1.339  13.054  0.1074  0.2396  0.1823
  868MPD2    C312737   1.992   1.345  13.025  0.0708 -1.0316  0.6759
  868MPD2    C412738   1.929   1.236  12.978 -0.4053 -0.0377  0.1331
  868MPD2    C512739   1.997   1.118  12.948 -0.3746  0.5170  0.2801
  868MPD2     H12740   2.183   1.427  13.091 -0.4593  1.0269 -0.9055
  868MPD2    H112741   1.822   1.230  12.968 -0.6311  1.8593  1.5446
  868MPD2    H212742   2.172   1.021  12.949 -1.4746 -1.7060  0.7637
  868MPD2    H312743   1.952   1.039  12.890 -0.6722  0.9788 -0.1127
  868MPD2     N12744   1.938   1.470  13.044 -0.3765 -0.0380 -0.2136
  868MPD2    H512745   2.002   1.535  13.090  2.2133 -0.4924 -3.2412
  868MPD2    N112746   2.337   1.211  13.064 -0.0468  0.7510 -0.6720
  868MPD2    H712747   2.381   1.297  13.094 -1.4926  1.4438 -0.5469
  869MPD2     C12748   1.886   4.176   1.994  0.3573  0.1929  0.0654
  869MPD2    C112749   1.974   4.090   1.938 -0.1237 -0.1714  0.1356
  869MPD2    C212750   2.061   4.146   1.846  0.0571  0.3472  0.3350
  869MPD2    C312751   2.062   4.284   1.833 -0.0905 -0.1494  0.2745
  869MPD2    C412752   1.970   4.367   1.892 -0.9553 -0.3662 -0.2889
  869MPD2    C512753   1.872   4.305   1.955  0.2914 -0.4562 -0.0907
  869MPD2     H12754   2.133   4.085   1.794  2.0084  3.1012 -0.1643
  869MPD2    H112755   1.956   4.473   1.873 -1.6207 -0.7246 -1.7970
  869MPD2    H212756   1.806   4.141   2.058  2.0464  0.7767  2.4588
  869MPD2    H312757   1.790   4.373   1.973  1.5549  1.0190  0.0627
  869MPD2     N12758   2.161   4.356   1.762 -0.4516  0.0456  0.4061
  869MPD2    H512759   2.163   4.457   1.772  1.8580  0.1328 -1.0964
  869MPD2    N112760   1.975   3.954   1.984  0.2857 -0.7037  0.2051
  869MPD2    H712761   1.907   3.940   2.057  1.5413 -1.5535  1.2070
  870MPD2     C12762   1.907   2.951   1.102 -0.0392  0.0805 -0.4579
  870MPD2    C112763   2.038   2.969   1.070  0.9441 -0.8611  0.6628
  870MPD2    C212764   2.067   3.033   0.946 -0.9000 -0.1004 -0.7218
  870MPD2    C312765   1.967   3.093   0.876 -0.3020  0.8061 -0.2356
  870MPD2    C412766   1.836   3.076   0.909  0.1317 -0.1511 -0.2350
  870MPD2    C512767   1.810   3.002   1.022 -0.4174 -0.6279 -0.5567
  870MPD2     H12768   2.171   3.055   0.922 -0.9574  0.9668  0.0353
  870MPD2    H112769   1.750   3.114   0.855 -1.0641 -0.5707  1.3737
  870MPD2    H212770   1.875   2.904   1.195 -1.4791  0.4060 -0.7934
  870MPD2    H312771   1.706   2.991   1.050 -0.4072  1.5292  0.3551
  870MPD2     N12772   2.010   3.173   0.770 -0.0112  0.2890  0.0111
  870MPD2    H512773   2.110   3.178   0.754 -0.0621  2.9589  0.5529
  870MPD2    N112774   2.124   2.912   1.159  0.4182 -0.2952 -0.2113
  870MPD2    H712775   2.080   2.854   1.230  0.7739  2.0421  1.9245
  871MPD2     C12776   3.651   2.626  16.183  0.1570 -0.1612 -0.3825
  871MPD2    C112777   3.651   2.554  16.303 -0.0134 -0.2482  1.0228
  871MPD2    C212778   3.672   2.416  16.304  0.3338 -0.4733 -0.1062
  871MPD2    C312779   3.714   2.356  16.185  0.9339  0.1835  0.5519
  871MPD2    C412780   3.725   2.431  16.070 -0.4859 -0.0499 -0.4558
  871MPD2    C512781   3.699   2.566  16.071 -0.8955 -0.6562  0.6367
  871MPD2     H12782   3.653   2.357  16.392  0.1290  0.8921  0.7599
  871MPD2    H112783   3.767   2.391  15.978 -1.0205  0.0098 -0.7283
  871MPD2    H212784   3.628   2.732  16.185 -0.5630 -0.3713  2.3140
  871MPD2    H312785   3.718   2.632  15.987 -1.7640  1.3071  1.9668
  871MPD2     N12786   3.730   2.219  16.194  0.0926  0.6094 -0.4689
  871MPD2    H512787   3.715   2.169  16.282 -0.2507  0.6309 -0.5149
  871MPD2    N112788   3.637   2.630  16.420 -0.8456 -0.0353 -0.2150
  871MPD2    H712789   3.620   2.729  16.408 -0.7314  0.1271  0.8933
  872MPD2     C12790   0.271   0.702  13.730 -0.4823 -0.3666 -0.1637
  872MPD2    C112791   0.362   0.612  13.786  0.3755 -0.0902  0.2547
  872MPD2    C212792   0.313   0.545  13.900 -0.4915  0.1415 -0.3060
  872MPD2    C312793   0.180   0.568  13.952  0.8124  0.3012  0.5011
  872MPD2    C412794   0.092   0.657  13.883  0.7562  0.0666 -0.4295
  872MPD2    C512795   0.141   0.726  13.774 -0.1582  0.0049 -0.7601
  872MPD2     H12796   0.381   0.477  13.949  0.1184  0.3374 -0.8902
  872MPD2    H112797   4.716   0.664  13.926  1.0206 -1.4001  0.4490
  872MPD2    H212798   0.306   0.766  13.649  2.4803 -0.8240  0.7485
  872MPD2    H312799   0.078   0.802  13.730  0.1667  1.0839  0.6308
  872MPD2     N12800   0.120   0.480  14.039 -0.6943  0.0055 -0.3532
  872MPD2    H512801   0.018   0.477  14.038 -0.6515 -1.8415 -0.0273
  872MPD2    N112802   0.483   0.577  13.722  0.1745 -0.3680  0.5578
  872MPD2    H712803   0.547   0.517  13.773 -0.8453 -0.5896  1.5518
  873MPD2     C12804   1.062   1.003   0.849 -0.3809 -0.1785 -0.2331
  873MPD2    C112805   1.151   0.990   0.954 -0.6941 -0.6449 -0.5873
  873MPD2    C212806   1.254   0.898   0.953  0.4720 -0.5297 -0.6152
  873MPD2    C312807   1.270   0.820   0.840 -0.3750 -0.1614  0.5945
  873MPD2    C412808   1.186   0.845   0.734  0.2955  0.7898 -0.6260
  873MPD2    C512809   1.083   0.933   0.735 -0.4568  0.7480 -0.1791
  873MPD2     H12810   1.315   0.880   1.041  2.6328 -2.4208 -2.4984
  873MPD2    H112811   1.195   0.782   0.647 -1.6396 -0.9280  0.4235
  873MPD2    H212812   0.984   1.078   0.851  0.3836  0.6036  0.5087
  873MPD2    H312813   1.022   0.940   0.645  0.9343 -0.8629 -1.2467
  873MPD2     N12814   1.366   0.711   0.825  0.4176 -0.0493 -0.0814
  873MPD2    H512815   1.362   0.659   0.738 -0.1388  0.2349 -0.2337
  873MPD2    N112816   1.124   1.075   1.070 -0.7004  0.3227 -0.0524
  873MPD2    H712817   1.042   1.134   1.059 -1.3287 -0.3856  0.8727
  874MPD2     C12818   1.273   0.682  16.494 -0.2377 -0.3399 -0.3024
  874MPD2    C112819   1.310   0.573  16.570  0.6955 -0.0982 -0.0153
  874MPD2    C212820   1.406   0.576  16.668 -0.0515  0.8374 -0.5785
  874MPD2    C312821   1.491   0.685  16.674  0.2579 -0.6536 -0.5921
  874MPD2    C412822   1.465   0.791  16.595 -0.5652 -0.6660  0.7253
  874MPD2    C512823   1.355   0.786  16.508  0.0832 -0.4085 -0.6583
  874MPD2     H12824   1.419   0.491  16.734 -2.6087 -0.8091 -2.1679
  874MPD2    H112825   1.525   0.881  16.604  0.5037 -1.4418  1.4385
  874MPD2    H212826   1.191   0.678  16.423 -1.3770 -1.3616  1.1031
  874MPD2    H312827   1.346   0.880  16.455 -0.5000  0.5012  1.0504
  874MPD2     N12828   1.609   0.670  16.743  0.0136 -0.2195 -0.2760
  874MPD2    H512829   1.623   0.583  16.793  1.4796 -0.6605 -1.4413
  874MPD2    N112830   1.233   0.456  16.545  1.0456  0.3863 -0.3889
  874MPD2    H712831   1.169   0.457  16.466  1.4705  0.7047 -0.7258
  875MPD2     C12832   2.754   3.487  14.481 -0.4621 -0.2868 -0.0356
  875MPD2    C112833   2.632   3.521  14.541 -0.6918 -0.3513  0.2666
  875MPD2    C212834   2.627   3.575  14.663  0.1669 -0.2516  0.3856
  875MPD2    C312835   2.742   3.619  14.724  0.2484  0.1414  0.5039
  875MPD2    C412836   2.861   3.598  14.655  0.2558  0.1760 -0.2327
  875MPD2    C512837   2.874   3.541  14.533  0.3828 -1.0900 -0.3048
  875MPD2     H12838   2.535   3.605  14.712 -0.5519 -2.1192  0.1741
  875MPD2    H112839   2.950   3.625  14.711 -1.2052  0.6202  1.9067
  875MPD2    H212840   2.760   3.434  14.387 -0.0561  2.9490 -1.8460
  875MPD2    H312841   2.971   3.518  14.491 -0.0694 -1.2966 -1.2422
  875MPD2     N12842   2.749   3.679  14.847  0.0933  0.8799 -0.1766
  875MPD2    H512843   2.837   3.702  14.892  2.1844 -0.3259 -3.6539
  875MPD2    N112844   2.508   3.491  14.481  0.4556 -0.4267 -0.1635
  875MPD2    H712845   2.430   3.505  14.544  0.1191 -0.7787 -0.5049
  876MPD2     C12846   1.102   0.309  16.004  0.5732  0.4500  0.2855
  876MPD2    C112847   1.230   0.296  15.954 -0.3167 -0.9651  0.2363
  876MPD2    C212848   1.325   0.200  16.005  0.1398  0.8846 -0.1493
  876MPD2    C312849   1.279   0.113  16.100  0.1934  1.0285  0.7094
  876MPD2    C412850   1.153   0.121  16.143 -0.6715 -0.3003  0.0479
  876MPD2    C512851   1.064   0.221  16.106  0.2901 -0.0766 -0.5752
  876MPD2     H12852   1.426   0.194  15.967  0.6027  0.3466  1.1860
  876MPD2    H112853   1.112   0.054  16.218 -1.1598 -0.6480 -0.5336
  876MPD2    H212854   1.026   0.376  15.966 -0.2195 -1.0954 -0.8353
  876MPD2    H312855   0.963   0.221  16.145  0.7614  1.4119  0.6301
  876MPD2     N12856   1.375   0.013  16.141 -0.0365 -0.5651  0.3856
  876MPD2    H512857   1.463   0.009  16.090  0.6562  3.2134  1.2302
  876MPD2    N112858   1.255   0.379  15.838 -0.1061 -0.3268  0.1764
  876MPD2    H712859   1.176   0.406  15.780 -0.4937  1.1671  1.3857
  877MPD2     C12860   1.588   0.815  15.189 -0.1243 -0.2289  0.6410
  877MPD2    C112861   1.604   0.680  15.173  0.1275  0.4114 -0.1093
  877MPD2    C212862   1.639   0.632  15.052  0.2105 -0.1605  0.3786
  877MPD2    C312863   1.676   0.713  14.949  0.1918  0.6899  0.0716
  877MPD2    C412864   1.677   0.849  14.974 -1.6497  0.3107  0.2237
  877MPD2    C512865   1.640   0.900  15.091 -0.0973 -0.4676 -0.1785
  877MPD2     H12866   1.653   0.524  15.047  1.9494  0.0359  0.8593
  877MPD2    H112867   1.704   0.920  14.896  0.3332 -0.7017 -0.0249
  877MPD2    H212868   1.543   0.852  15.280  0.7098 -2.4605  1.9912
  877MPD2    H312869   1.645   1.007  15.107 -0.9007 -0.4410 -0.1112
  877MPD2     N12870   1.719   0.659  14.818 -0.3068  0.3463 -0.5529
  877MPD2    H512871   1.752   0.730  14.753  0.6781 -0.2618 -0.7289
  877MPD2    N112872   1.569   0.580  15.269  0.2879  0.4616 -0.3094
  877MPD2    H712873   1.573   0.483  15.239 -0.9735  0.4300 -0.3701
  878MPD2     C12874   0.818   4.408  13.045  0.6646  0.0838 -0.3019
  878MPD2    C112875   0.947   4.438  13.073  0.4459 -0.0282  0.3428
  878MPD2    C212876   0.988   4.451  13.203  0.3893  0.2667 -0.5855
  878MPD2    C312877   0.894   4.443  13.305  1.0351 -0.7575 -0.4460
  878MPD2    C412878   0.763   4.418  13.273 -0.4267  0.2943  0.3718
  878MPD2    C512879   0.721   4.403  13.141 -0.4285 -0.2687  1.1441
  878MPD2     H12880   1.091   4.474  13.229  0.3977  0.4715 -0.7965
  878MPD2    H112881   0.691   4.401  13.352 -1.0962  0.0796 -0.2849
  878MPD2    H212882   0.790   4.371  12.947  1.5897 -0.4802 -0.3507
  878MPD2    H312883   0.621   4.371  13.115 -0.2709 -1.9695  2.6065
  878MPD2     N12884   0.940   4.450  13.443 -0.1593 -0.1900  0.1102
  878MPD2    H512885   1.040   4.439  13.456  0.1207  2.6208  0.4070
  878MPD2    N112886   1.038   4.453  12.965  0.1696  0.0384  0.6859
  878MPD2    H712887   0.996   4.431  12.874  1.4691 -3.2337  0.8658
  879MPD2     C12888   1.725   0.740  17.225 -0.2794 -1.0046  0.4879
  879MPD2    C112889   1.637   0.641  17.264  0.4972  0.5797 -0.8167
  879MPD2    C212890   1.526   0.622  17.190 -0.1602  0.7835  0.3449
  879MPD2    C312891   1.484   0.711  17.087 -0.2358  0.0025 -0.5087
  879MPD2    C412892   1.567   0.821  17.069 -0.7084 -0.0271  0.1972
  879MPD2    C512893   1.690   0.825  17.126 -0.1011  0.2573  0.6879
  879MPD2     H12894   1.464   0.535  17.211  1.1410 -0.4526 -0.9414
  879MPD2    H112895   1.537   0.901  17.002  0.7735  0.9004  0.6226
  879MPD2    H212896   1.811   0.773  17.281 -0.3145  0.9552 -0.6382
  879MPD2    H312897   1.756   0.910  17.119  0.6529 -0.4231 -0.4707
  879MPD2     N12898   1.372   0.696  16.998  0.8149 -0.2750 -0.1665
  879MPD2    H512899   1.367   0.755  16.915  0.9960  0.1376  0.1161
  879MPD2    N112900   1.670   0.562  17.368 -0.0371 -0.1362 -0.5160
  879MPD2    H712901   1.759   0.582  17.413  0.5172 -2.9314 -0.3956
  880MPD2     C12902   3.020   2.795  17.470  0.5463  0.0212  0.5018
  880MPD2    C112903   3.012   2.809  17.609 -0.1775  0.0013 -0.5335
  880MPD2    C212904   2.991   2.689  17.682  0.5485 -0.1653  0.0639
  880MPD2    C312905   2.975   2.565  17.617 -0.4695 -0.8626 -0.0190
  880MPD2    C412906   2.986   2.562  17.482 -0.1094  0.4069  0.5576
  880MPD2    C512907   3.003   2.676  17.406 -0.3420 -0.4771 -0.1720
  880MPD2     H12908   2.991   2.693   0.093  0.4379 -0.0434  0.0596
  880MPD2    H112909   2.973   2.469  17.429  1.8999 -0.4951  1.6327
  880MPD2    H212910   3.055   2.882  17.414  3.9011 -0.8497  1.2633
  880MPD2    H312911   3.012   2.672  17.298  0.4107 -0.6781 -0.1062
  880MPD2     N12912   2.944   2.446  17.688 -1.1423  0.2595  0.1907
  880MPD2    H512913   2.946   2.438   0.092 -2.0580  1.9240  0.3406
  880MPD2    N112914   3.032   2.938  17.672 -0.7792 -0.6138  0.1511
  880MPD2    H712915   3.063   3.017  17.617  0.7645 -1.5802 -0.3504
  881MPD2     C12916   3.592   3.719  17.647 -0.0101  0.0296  0.0754
  881MPD2    C112917   3.549   3.613  17.572 -0.8325  0.2378  0.1652
  881MPD2    C212918   3.434   3.549  17.605  0.9070  0.6442  0.1770
  881MPD2    C312919   3.365   3.575   0.028  0.3680 -0.8218  0.3049
  881MPD2    C412920   3.412   3.681   0.100 -0.1677 -0.3236 -0.0992
  881MPD2    C512921   3.518   3.755   0.063 -0.2345 -0.3141 -0.2993
  881MPD2     H12922   3.399   3.474  17.536 -0.4352  2.4463 -1.1022
  881MPD2    H112923   3.362   3.707   0.192  2.1162 -0.1500  1.0897
  881MPD2    H212924   3.677   3.780  17.621 -0.4998 -0.0737 -1.7796
  881MPD2    H312925   3.554   3.833   0.129 -0.1484 -0.9274  0.3745
  881MPD2     N12926   3.256   3.492   0.075  0.2418  0.4403 -0.7782
  881MPD2    H512927   3.225   3.510   0.170  1.2751  2.8737 -0.8968
  881MPD2    N112928   3.605   3.601  17.444  0.1020  0.6826  0.1050
  881MPD2    H712929   3.663   3.672  17.401 -1.0480  2.0707  0.8654
  882MPD2     C12930   1.504   0.186  14.098  0.4401 -0.3558 -0.8811
  882MPD2    C112931   1.479   0.289  14.184 -0.0368  0.0941  0.3326
  882MPD2    C212932   1.362   0.366  14.165 -0.6856  0.3178  0.1799
  882MPD2    C312933   1.270   0.326  14.063  0.1328  0.3458  0.1264
  882MPD2    C412934   1.292   0.214  13.986  0.0895 -0.1780  0.2458
  882MPD2    C512935   1.408   0.146  14.003  0.1837 -0.2007  0.7903
  882MPD2     H12936   1.348   0.452  14.229 -1.6145 -1.7172  2.7255
  882MPD2    H112937   1.214   0.192  13.914 -0.1202  1.4182 -0.0226
  882MPD2    H212938   1.578   0.108  14.110  0.9231  0.4340  1.2345
  882MPD2    H312939   1.436   0.059  13.945  1.2271  1.9445 -1.8981
  882MPD2     N12940   1.137   0.378  14.042  0.3587 -0.3169  0.3106
  882MPD2    H512941   1.073   0.320  13.990 -0.6763  1.8894 -0.8579
  882MPD2    N112942   1.579   0.318  14.289  0.0244  0.4491  0.3529
  882MPD2    H712943   1.662   0.260  14.301 -1.5240 -1.2815  2.7070
  883MPD2     C12944   3.270   0.577  15.871 -0.2376  0.2581 -0.5698
  883MPD2    C112945   3.353   0.585  15.764 -0.6191  0.2255 -0.2563
  883MPD2    C212946   3.473   0.647  15.782 -0.5188  0.4648 -0.0975
  883MPD2    C312947   3.518   0.683  15.904 -0.0504 -0.4945 -0.2100
  883MPD2    C412948   3.429   0.678  16.015 -0.6079  0.1127  0.4789
  883MPD2    C512949   3.310   0.619  15.991 -1.0105  1.0038 -0.8035
  883MPD2     H12950   3.523   0.681  15.691  2.0077 -0.9649  0.7466
  883MPD2    H112951   3.450   0.707  16.118  0.4859  0.9511  0.0167
  883MPD2    H212952   3.170   0.534  15.867  0.5887 -1.7281  0.6874
  883MPD2    H312953   3.275   0.576  16.085  0.3732  1.4034 -0.1024
  883MPD2     N12954   3.646   0.740  15.902  0.6466  0.4499  0.3631
  883MPD2    H512955   3.699   0.739  15.816  1.2170  1.3826  0.6953
  883MPD2    N112956   3.319   0.553  15.632  0.6471  0.2392  0.5236
  883MPD2    H712957   3.368   0.593  15.553  2.8979  0.6554  2.1340
  884MPD2     C12958   0.611   1.047  15.481 -0.3474  0.0272  0.4160
  884MPD2    C112959   0.582   1.054  15.347 -0.6490 -0.4774 -0.2476
  884MPD2    C212960   0.461   1.111  15.309 -0.0338 -0.2615  0.8196
  884MPD2    C312961   0.380   1.182  15.394  0.0652  0.0191  0.4971
  884MPD2    C412962   0.421   1.186  15.524  0.6146  0.8302  0.2406
  884MPD2    C512963   0.533   1.117  15.571 -0.5555 -0.0661  0.4395
  884MPD2     H12964   0.422   1.116  15.207 -0.8224  0.2530  1.1440
  884MPD2    H112965   0.365   1.233  15.604 -1.6598 -0.4221 -0.6091
  884MPD2    H212966   0.689   0.989  15.528 -0.0520  0.4528  0.4445
  884MPD2    H312967   0.565   1.138  15.672 -0.6676  2.2933 -0.0306
  884MPD2     N12968   0.268   1.251  15.337 -0.2402 -0.0032  0.5673
  884MPD2    H512969   0.244   1.220  15.244  1.0387 -0.4539  0.3927
  884MPD2    N112970   0.677   1.015  15.244 -0.5575  0.4572  0.3163
  884MPD2    H712971   0.645   1.028  15.149 -1.3984 -1.2602  0.3623
  885MPD2     C12972   3.384   1.279   0.452 -0.7520  0.2242 -0.7180
  885MPD2    C112973   3.392   1.145   0.436  0.4183  0.7380  0.1853
  885MPD2    C212974   3.401   1.097   0.306 -0.5021 -0.1103 -0.0824
  885MPD2    C312975   3.410   1.187   0.201  0.2290 -0.9197  0.4237
  885MPD2    C412976   3.407   1.316   0.222 -0.2395  0.0417 -0.0514
  885MPD2    C512977   3.392   1.367   0.348 -0.8533 -0.3181 -0.4645
  885MPD2     H12978   3.397   0.989   0.293  0.7507 -0.3277  1.2367
  885MPD2    H112979   3.408   1.386   0.139  1.9620 -0.0964 -0.1570
  885MPD2    H212980   3.360   1.315   0.551 -3.0979  2.0442 -1.9555
  885MPD2    H312981   3.363   1.471   0.355 -2.3477 -0.7719  0.0749
  885MPD2     N12982   3.420   1.131   0.074 -0.5834 -0.5369  0.6472
  885MPD2    H512983   3.400   1.033   0.056  1.8424 -0.8255 -0.4160
  885MPD2    N112984   3.391   1.046   0.540  0.6717  0.3264 -0.6704
  885MPD2    H712985   3.403   0.950   0.508 -0.2516  0.1125 -0.3516
  886MPD2     C12986   4.698   4.719  15.635  0.2130 -0.0346 -0.0218
  886MPD2    C112987   0.110   4.712  15.599  0.7708  0.0931 -0.0857
  886MPD2    C212988   0.165   0.101  15.530 -0.8242  0.7471 -0.4600
  886MPD2    C312989   0.082   0.198  15.485 -0.1413 -0.7799 -0.2097
  886MPD2    C412990   4.671   0.198  15.508 -0.2845  0.6389 -0.9454
  886MPD2    C512991   4.619   0.102  15.592 -0.2483  0.6030 -0.8254
  886MPD2     H12992   0.271   0.087  15.509 -0.8183  0.6983 -0.3995
  886MPD2    H112993   4.610   0.280  15.470 -1.0868  0.0585 -0.8896
  886MPD2    H212994   4.642   4.636  15.678 -0.4211  0.4741  0.1356
  886MPD2    H312995   4.515   0.108  15.621 -0.1746 -0.4395 -0.3425
  886MPD2     N12996   0.129   0.299  15.391 -0.0803  0.2995 -0.1882
  886MPD2    H512997   0.059   0.351  15.340 -1.0112 -0.1594  0.6223
  886MPD2    N112998   0.201   4.605  15.625  0.4202 -0.5136 -0.0731
  886MPD2    H712999   0.294   4.611  15.585 -1.5760 -0.4631 -4.7619
  887MPD2     C13000   0.881   4.393  15.607  0.0835 -0.4154  0.3831
  887MPD2    C113001   0.777   4.454  15.538 -0.4345  0.7275  0.1014
  887MPD2    C213002   0.797   4.573  15.477  0.3727 -1.2515  0.7743
  887MPD2    C313003   0.923   4.634  15.474 -0.0580  0.4029 -0.7609
  887MPD2    C413004   1.024   4.572  15.544 -0.1926 -0.6561 -0.2970
  887MPD2    C513005   0.996   4.463  15.621 -0.7178 -0.1182 -0.3191
  887MPD2     H13006   0.717   4.618  15.418  1.4983  3.1608  2.6093
  887MPD2    H113007   1.123   4.615  15.550 -0.1282 -0.2780 -3.7765
  887MPD2    H213008   0.875   4.311  15.677  0.2167  0.8858  1.9309
  887MPD2    H313009   1.071   4.411  15.678  0.6596  1.8059 -0.4086
  887MPD2     N13010   0.950   0.032  15.413  0.0332  0.1196 -0.1566
  887MPD2    H513011   1.045   0.068  15.413  0.1430 -0.1760 -2.5180
  887MPD2    N113012   0.639   4.404  15.540 -0.3248  0.0077  0.5296
  887MPD2    H713013   0.566   4.462  15.498  0.0218 -0.8205 -1.2317
  888MPD2     C13014   2.622   0.107  14.482  0.1171  0.0273 -0.0841
  888MPD2    C113015   2.651   0.148  14.613  0.5259 -0.2117 -1.0115
  888MPD2    C213016   2.753   0.244  14.635 -0.0305  0.0130  0.4120
  888MPD2    C313017   2.827   0.293  14.529  0.0859  0.2544 -0.1209
  888MPD2    C413018   2.795   0.258  14.402  0.1159  0.1863 -0.1262
  888MPD2    C513019   2.695   0.165  14.384  0.4866 -0.2170 -0.1105
  888MPD2     H13020   2.803   0.243  14.731  1.8370  0.5955 -0.5537
  888MPD2    H113021   2.848   0.295  14.315  0.4249  1.2005  0.4964
  888MPD2    H213022   2.560   0.026  14.444  0.0088 -0.2943  0.7737
  888MPD2    H313023   2.675   0.128  14.284  2.2998  1.0017 -0.9277
  888MPD2     N13024   2.934   0.382  14.562 -0.3815  0.4368 -0.0343
  888MPD2    H513025   2.941   0.406  14.660 -2.0663  1.2181 -0.1064
  888MPD2    N113026   2.598   0.088  14.726 -0.1395  0.1211 -0.1841
  888MPD2    H713027   2.650   0.101  14.812 -1.3455  2.7621  0.1719
  889MPD2     C13028   1.568   4.184  13.153  0.1192  0.1527  0.1194
  889MPD2    C113029   1.690   4.146  13.206  0.1995 -0.1609  0.1496
  889MPD2    C213030   1.775   4.240  13.255  0.1286  0.1967  0.1502
  889MPD2    C313031   1.735   4.371  13.260 -0.1696  0.5791 -0.2713
  889MPD2    C413032   1.604   4.409  13.232 -0.2053  0.3013 -0.1093
  889MPD2    C513033   1.520   4.311  13.175 -0.5335  0.8848  0.1877
  889MPD2     H13034   1.870   4.222  13.305  0.1402  0.5254  0.2472
  889MPD2    H113035   1.558   4.506  13.241  0.8127  0.6419  1.4927
  889MPD2    H213036   1.502   4.116  13.100  2.2769 -0.4494 -1.8074
  889MPD2    H313037   1.421   4.345  13.149 -0.6834  0.7467  0.5810
  889MPD2     N13038   1.825   4.465  13.312  0.6398  0.4310 -0.6622
  889MPD2    H513039   1.916   4.430  13.340  0.1095 -0.1003  0.3872
  889MPD2    N113040   1.746   4.018  13.189 -0.3448 -0.0572  0.6888
  889MPD2    H713041   1.839   4.002  13.226  0.4550  2.9529 -0.0863
  890MPD2     C13042   2.007   1.659  15.630  0.9750  0.0029  0.2215
  890MPD2    C113043   1.958   1.617  15.507 -0.2135  0.4614  0.6264
  890MPD2    C213044   1.918   1.482  15.505  0.1874  0.6187 -0.3993
  890MPD2    C313045   1.915   1.409  15.623 -0.6718  0.1563  0.0752
  890MPD2    C413046   1.957   1.461  15.742  0.3655  0.0399  0.0074
  890MPD2    C513047   2.010   1.587  15.750  0.9206  0.4398 -0.5378
  890MPD2     H13048   1.898   1.438  15.408 -0.2474 -0.5454  0.2241
  890MPD2    H113049   1.972   1.393  15.825  0.2371 -1.6678 -1.3801
  890MPD2    H213050   2.042   1.761  15.638 -2.0398  1.1571 -1.2974
  890MPD2    H313051   2.061   1.623  15.839  2.9889  0.1791 -1.6244
  890MPD2     N13052   1.855   1.281  15.624 -0.2918  0.4747 -0.5717
  890MPD2    H513053   1.850   1.246  15.719 -2.5184  1.9589 -0.1456
  890MPD2    N113054   1.955   1.706  15.400 -0.0994 -0.3001  0.3652
  890MPD2    H713055   1.990   1.799  15.420 -1.6385  0.1132  1.1231
  891MPD2     C13056   4.272   0.040  16.144  0.3090  0.4531  0.0314
  891MPD2    C113057   4.222   0.122  16.237  0.3034 -0.1449  0.2667
  891MPD2    C213058   4.273   0.132  16.361 -0.4018  0.0901  0.1865
  891MPD2    C313059   4.404   0.083  16.387 -0.0201  0.1158 -1.1702
  891MPD2    C413060   4.462   0.015  16.280 -0.0876 -0.1051 -0.5950
  891MPD2    C513061   4.387   4.704  16.173  0.1467 -0.1877 -0.7138
  891MPD2     H13062   4.222   0.188  16.439  0.1611  2.3010 -1.0465
  891MPD2    H113063   4.567   4.716  16.289 -0.2420 -0.7531 -0.3959
  891MPD2    H213064   4.226   0.034  16.046  1.0856 -0.2403 -0.2888
  891MPD2    H313065   4.432   4.650  16.091  0.1337  0.1140 -0.9201
  891MPD2     N13066   4.476   0.109  16.506  0.3843  0.2007 -0.3336
  891MPD2    H513067   4.418   0.138  16.584  0.6252 -2.0993  0.7049
  891MPD2    N113068   4.105   0.192  16.205 -0.1172  0.4311 -0.0068
  891MPD2    H713069   4.069   0.178  16.111  2.3397  0.8846 -1.0038
  892MPD2     C13070   0.751   0.772  14.893  1.0209 -0.1452 -0.1589
  892MPD2    C113071   0.673   0.784  14.777 -0.1267  0.3956  0.2519
  892MPD2    C213072   0.720   0.731  14.661  0.2357 -0.7214 -0.4659
  892MPD2    C313073   0.837   0.670  14.654 -0.2030  0.6558  0.2093
  892MPD2    C413074   0.917   0.665  14.762 -0.5855 -0.1357 -0.6083
  892MPD2    C513075   0.877   0.718  14.878  0.1455  0.1649 -0.2219
  892MPD2     H13076   0.664   0.751  14.570 -0.5042 -0.1226  0.1178
  892MPD2    H113077   1.013   0.616  14.755 -0.9768 -0.9513 -0.1915
  892MPD2    H213078   0.713   0.818  14.983  0.3442  0.7886 -0.9223
  892MPD2    H313079   0.946   0.725  14.962 -0.7386 -1.4515  0.6440
  892MPD2     N13080   0.881   0.587  14.542  0.3289  0.5321 -0.2312
  892MPD2    H513081   0.979   0.563  14.547 -0.0300 -0.5389  1.9296
  892MPD2    N113082   0.552   0.862  14.765 -0.0252  0.3039  0.3634
  892MPD2    H713083   0.502   0.862  14.677 -1.2527  2.9281  1.0772
  893MPD2     C13084   1.383   3.723   0.748  0.0294 -0.1129  0.3006
  893MPD2    C113085   1.405   3.700   0.885  0.0299  0.8632 -0.8148
  893MPD2    C213086   1.296   3.713   0.976 -0.2245 -0.1863 -0.0549
  893MPD2    C313087   1.176   3.758   0.931  0.1512 -0.2404 -0.5204
  893MPD2    C413088   1.159   3.776   0.799  0.2230 -0.5875 -0.5676
  893MPD2    C513089   1.262   3.763   0.710  0.2404 -0.0834  0.1039
  893MPD2     H13090   1.316   3.700   1.082 -1.2246 -0.2150  0.1313
  893MPD2    H113091   1.067   3.818   0.761 -0.1282 -0.7895  0.0587
  893MPD2    H213092   1.458   3.709   0.671 -1.7482 -0.9357 -1.2749
  893MPD2    H313093   1.243   3.777   0.604 -0.8445 -1.0752  0.1689
  893MPD2     N13094   1.065   3.796   1.013  0.1941 -0.1575 -0.0582
  893MPD2    H513095   0.985   3.831   0.961 -0.1819 -0.1482  0.5223
  893MPD2    N113096   1.531   3.645   0.923 -0.4552  0.1741  0.1103
  893MPD2    H713097   1.599   3.637   0.847  1.0954  0.2430  1.4950
  894MPD2     C13098   0.282   1.965   0.344  0.5504 -0.6942  0.0955
  894MPD2    C113099   0.222   1.942   0.462  0.0571 -0.6098 -0.1797
  894MPD2    C213100   0.163   2.045   0.531 -0.1626 -0.2194  0.2167
  894MPD2    C313101   0.151   2.171   0.480  0.9101  0.7557  0.7205
  894MPD2    C413102   0.203   2.196   0.359 -0.1392  0.8593  0.1605
  894MPD2    C513103   0.267   2.096   0.292  0.0917  0.8344 -0.3030
  894MPD2     H13104   0.121   2.024   0.629  0.6269  1.7386  0.9630
  894MPD2    H113105   0.190   2.293   0.312  1.5313  1.2050  0.4317
  894MPD2    H213106   0.336   1.890   0.287  0.2757 -0.3840 -0.5759
  894MPD2    H313107   0.315   2.136   0.204  1.1212 -0.3601 -0.2774
  894MPD2     N13108   0.088   2.264   0.563 -0.8103 -0.3935  0.0859
  894MPD2    H513109   0.025   2.228   0.634 -1.3664  1.3981  0.4918
  894MPD2    N113110   0.216   1.817   0.520 -0.3119 -0.0430 -0.2409
  894MPD2    H713111   0.148   1.815   0.595  0.8858  0.3386  0.8495
  895MPD2     C13112   3.982   0.069  13.610 -0.1752 -0.6773 -0.4970
  895MPD2    C113113   3.989   4.722  13.491 -0.1155 -0.0008 -0.3612
  895MPD2    C213114   4.033   4.596  13.476 -0.5520 -0.3534 -0.0477
  895MPD2    C313115   4.106   4.548  13.582 -0.1594 -0.6455 -0.4148
  895MPD2    C413116   4.091   4.609  13.701 -0.0653  0.1200  0.0705
  895MPD2    C513117   4.032   0.004  13.722  0.1697  0.1959 -0.1956
  895MPD2     H13118   4.042   4.557  13.375  1.6276  1.7513 -0.6804
  895MPD2    H113119   4.140   4.565  13.787  0.4484  1.2728  0.3775
  895MPD2    H213120   3.956   0.173  13.620  0.6886 -0.3869 -1.3117
  895MPD2    H313121   4.041   0.048  13.821  1.4038  0.9887 -0.6632
  895MPD2     N13122   4.182   4.427  13.568  0.6046  0.1669 -0.0682
  895MPD2    H513123   4.175   4.361  13.645  0.8284 -0.9602 -1.0106
  895MPD2    N113124   3.948   0.060  13.369  0.8606  0.0180 -0.5288
  895MPD2    H713125   3.935   4.722  13.289 -2.0526 -0.9622  0.7385
  896MPD2     C13126   0.904   2.769   1.638  0.3329  0.0725  0.1301
  896MPD2    C113127   0.912   2.664   1.557  0.2705 -0.2990  0.4689
  896MPD2    C213128   0.801   2.581   1.538  0.1015 -0.1905  0.0517
  896MPD2    C313129   0.679   2.624   1.587 -0.5881  0.2656 -0.0466
  896MPD2    C413130   0.670   2.742   1.664 -0.5141 -0.0869 -0.2322
  896MPD2    C513131   0.784   2.809   1.693 -0.4271  0.0731 -0.3333
  896MPD2     H13132   0.800   2.496   1.471 -5.6689 -0.3771  0.3850
  896MPD2    H113133   0.581   2.771   1.719  0.0966  2.7616 -0.7706
  896MPD2    H213134   0.994   2.812   1.680 -1.5133  1.8456  2.2430
  896MPD2    H313135   0.779   2.875   1.778  1.5897  1.5379 -1.3512
  896MPD2     N13136   0.567   2.539   1.551  0.2219 -0.3180 -0.9151
  896MPD2    H513137   0.591   2.473   1.479 -0.7480 -0.3702 -1.1826
  896MPD2    N113138   1.042   2.627   1.520  0.0266 -0.4449 -0.5700
  896MPD2    H713139   1.106   2.700   1.550 -0.4981 -0.4076  0.4568
  897MPD2     C13140   3.393   3.689   9.945  0.5601  0.4970 -0.2351
  897MPD2    C113141   3.404   3.788  10.043 -0.1103  0.4229 -0.2332
  897MPD2    C213142   3.321   3.770  10.157 -0.0730  0.4130 -0.0558
  897MPD2    C313143   3.239   3.663  10.176  0.1812  0.8404  0.1997
  897MPD2    C413144   3.233   3.567  10.072 -0.5020  0.0537  0.2130
  897MPD2    C513145   3.307   3.587   9.957 -0.8702  0.6158 -0.8611
  897MPD2     H13146   3.339   3.836  10.240  0.3277 -0.0342  0.2116
  897MPD2    H113147   3.170   3.479  10.077  1.2348 -1.1867  0.2188
  897MPD2    H213148   3.458   3.699   9.859 -0.5300  1.5118 -0.9470
  897MPD2    H313149   3.306   3.508   9.883  0.2555  0.6700 -0.9283
  897MPD2     N13150   3.168   3.653  10.301  0.0522 -0.1054 -0.0833
  897MPD2    H513151   3.185   3.730  10.365 -0.3272 -0.4194  0.4010
  897MPD2    N113152   3.505   3.890  10.035 -0.1603  0.1535 -0.3735
  897MPD2    H713153   3.563   3.883   9.952  1.8518  1.8826  0.8746
  898MPD2     C13154   4.641   0.143   0.089  0.0533  0.5893 -0.3428
  898MPD2    C113155   4.723   0.151  17.675 -0.6962  0.0576 -0.2874
  898MPD2    C213156   4.701   0.253  17.586  0.8209  0.3529  0.3832
  898MPD2    C313157   4.606   0.352  17.604 -0.1128 -0.2380  0.3338
  898MPD2    C413158   4.537   0.350   0.023 -0.2528 -0.5250  1.1214
  898MPD2    C513159   4.557   0.247   0.114 -0.1492 -0.4403  0.0678
  898MPD2     H13160   0.036   0.259  17.495 -0.7850 -1.8602 -0.7993
  898MPD2    H113161   4.477   0.432   0.060  1.7096  0.2688  2.5555
  898MPD2    H213162   4.646   0.065   0.164 -0.4477  2.2429  1.4419
  898MPD2    H313163   4.494   0.247   0.202 -0.4711  0.2893 -0.1593
  898MPD2     N13164   4.588   0.446  17.497 -0.4500  0.0735  0.3249
  898MPD2    H513165   4.649   0.435  17.416  0.0569 -0.5402  0.7966
  898MPD2    N113166   0.104   0.061  17.649  0.0949  0.1129 -0.4234
  898MPD2    H713167   0.161   0.088  17.569  0.5243  0.3664 -0.0268
  899MPD2     C13168   0.696   0.590  17.576 -0.0898  0.4970  0.2820
  899MPD2    C113169   0.658   0.701  17.505 -0.6564  0.3862 -0.7298
  899MPD2    C213170   0.576   0.783  17.565  0.0047 -0.7753 -0.5659
  899MPD2    C313171   0.531   0.767  17.696 -0.1977 -0.1498  0.1329
  899MPD2    C413172   0.571   0.663   0.073 -0.6319 -0.1957 -0.2999
  899MPD2    C513173   0.646   0.575   0.012 -0.3964 -0.4190 -0.5756
  899MPD2     H13174   0.567   0.883  17.523  0.0653 -0.1555  0.9107
  899MPD2    H113175   0.538   0.643   0.174 -0.2234 -1.1010 -0.3470
  899MPD2    H213176   0.752   0.508  17.532  1.5897  0.2915  2.7796
  899MPD2    H313177   0.656   0.477   0.058  0.7611  0.5098  1.1277
  899MPD2     N13178   0.456   0.869   0.066  0.0928 -0.0665  0.5516
  899MPD2    H513179   0.451   0.875   0.167  0.4158 -0.1562  0.5712
  899MPD2    N113180   0.702   0.717  17.371  0.2594  0.0025  0.9831
  899MPD2    H713181   0.785   0.666  17.344  0.3081  1.3083 -1.2913
  900MPD2     C13182   1.052   2.440  12.575  0.2676 -0.5183 -0.5911
  900MPD2    C113183   0.964   2.362  12.502  0.1744 -0.0198 -0.0911
  900MPD2    C213184   0.836   2.410  12.482 -0.7044  0.0474  0.3380
  900MPD2    C313185   0.796   2.525  12.541  0.1260 -0.3098  0.1501
  900MPD2    C413186   0.879   2.598  12.622 -0.7886 -0.1922  0.2811
  900MPD2    C513187   1.011   2.554  12.636  0.0390  0.0708  0.0213
  900MPD2     H13188   0.764   2.363  12.416  1.0083 -0.8123 -0.9435
  900MPD2    H113189   0.837   2.685  12.672 -2.4382 -0.8123 -0.0516
  900MPD2    H213190   1.156   2.414  12.587  0.2421 -0.9871 -1.3973
  900MPD2    H313191   1.079   2.617  12.692 -1.1921  1.9348 -0.5777
  900MPD2     N13192   0.665   2.571  12.507 -0.1225 -0.1849  0.1951
  900MPD2    H513193   0.615   2.521  12.434  0.6122 -2.3099  1.1395
  900MPD2    N113194   1.012   2.238  12.454 -0.7442  0.5182  0.6482
  900MPD2    H713195   1.110   2.215  12.465 -1.5343 -2.4752  1.6154
  901MPD2     C13196   0.752   1.173  12.325  0.3369 -0.2525  0.2748
  901MPD2    C113197   0.887   1.191  12.322 -0.2385 -0.2341  0.7624
  901MPD2    C213198   0.939   1.319  12.310 -0.1312 -0.0972 -0.4427
  901MPD2    C313199   0.859   1.428  12.312  0.3338 -0.3012  0.0084
  901MPD2    C413200   0.723   1.414  12.320  0.4686  0.3291 -0.6050
  901MPD2    C513201   0.674   1.285  12.326  0.0100  0.3373  0.4379
  901MPD2     H13202   1.046   1.334  12.307 -0.3112  1.9940  2.9372
  901MPD2    H113203   0.655   1.495  12.344 -0.2768  0.2761 -2.6051
  901MPD2    H213204   0.705   1.076  12.335 -1.1396  0.3465 -0.8863
  901MPD2    H313205   0.566   1.291  12.339  0.0759  0.2230  1.0175
  901MPD2     N13206   0.920   1.557  12.303 -0.0925  0.1170  0.4339
  901MPD2    H513207   1.021   1.555  12.292 -0.1615 -0.8566 -0.0014
  901MPD2    N113208   0.966   1.072  12.313  0.1157  0.3132  0.4352
  901MPD2    H713209   0.917   0.984  12.301 -1.5589  1.3651 -0.5664
  902MPD2     C13210   4.216   0.046  12.476  0.1020 -0.5960  0.4557
  902MPD2    C113211   4.340   0.094  12.443  0.2773  0.1331  1.2809
  902MPD2    C213212   4.450   0.003  12.430 -0.6083  1.3453  0.0766
  902MPD2    C313213   4.430   4.594  12.465 -0.8558 -1.3480 -0.0886
  902MPD2    C413214   4.301   4.551  12.491 -0.2570 -0.8450 -0.1192
  902MPD2    C513215   4.192   4.636  12.496 -0.1047 -0.0046 -0.0080
  902MPD2     H13216   4.550   0.042  12.416 -0.0269  0.5164  2.1067
  902MPD2    H113217   4.300   4.446  12.521  0.2383 -0.7225  0.3387
  902MPD2    H213218   4.126   0.104  12.488 -1.7196 -3.3694  0.0694
  902MPD2    H313219   4.100   4.597  12.538 -0.8014 -0.8126 -2.2941
  902MPD2     N13220   4.533   4.496  12.458 -0.0211  0.5722  0.5499
  902MPD2    H513221   4.512   4.403  12.492  2.5292  0.5821  2.1354
  902MPD2    N113222   4.350   0.231  12.413  0.2091  0.0586  0.2932
  902MPD2    H713223   4.270   0.293  12.413 -0.4487 -0.7889  0.1204
  903MPD2     C13224   0.095   0.001  11.967 -0.4993 -1.2699  0.9092
  903MPD2    C113225   0.095   4.589  11.951  0.1128 -0.3283 -0.0502
  903MPD2    C213226   0.059   4.531  11.829  0.1274  0.0073 -0.7262
  903MPD2    C313227   0.000   4.609  11.728  0.6733 -0.0096 -0.5727
  903MPD2    C413228   4.716   0.019  11.749 -0.1664 -1.2953  0.4658
  903MPD2    C513229   0.041   0.077  11.867 -0.8946  0.7558  0.6302
  903MPD2     H13230   0.050   4.424  11.815  0.8191 -0.2671  0.9186
  903MPD2    H113231   4.674   0.086  11.675  1.7057 -3.3571 -2.5008
  903MPD2    H213232   0.126   0.045  12.061 -1.2998  1.3379 -0.0509
  903MPD2    H313233   0.033   0.184  11.882 -1.8300  0.9661 -1.3880
  903MPD2     N13234   4.658   4.543  11.622  0.5620 -1.0019  0.3100
  903MPD2    H513235   4.666   4.442  11.628  2.0653 -0.6697  3.7507
  903MPD2    N113236   0.129   4.508  12.064  0.1774 -0.2275 -0.1953
  903MPD2    H713237   0.137   4.553  12.155 -2.5606  1.0033 -0.5579
  904MPD2     C13238   4.022   4.067  14.201 -1.3488 -0.0423  0.8010
  904MPD2    C113239   4.035   4.029  14.069  0.0557  0.1481  1.3381
  904MPD2    C213240   4.162   3.999  14.027  0.2850 -0.2407 -0.2602
  904MPD2    C313241   4.271   4.018  14.107  0.0857 -0.4224 -0.4243
  904MPD2    C413242   4.254   4.050  14.240 -0.5939 -0.2574  0.2722
  904MPD2    C513243   4.126   4.072  14.287  1.0394  0.1936 -0.2798
  904MPD2     H13244   4.179   3.959  13.928 -2.3038  1.3297 -1.3255
  904MPD2    H113245   4.333   4.067  14.312  0.3294  1.5352 -1.1604
  904MPD2    H213246   3.926   4.097  14.241 -0.7197  1.1486  1.4090
  904MPD2    H313247   4.114   4.099  14.391  0.5121  0.5339 -0.4317
  904MPD2     N13248   4.403   4.001  14.054  0.1931  0.1295 -0.3441
  904MPD2    H513249   4.412   3.980  13.955  0.1174  1.5104 -0.6534
  904MPD2    N113250   3.921   4.031  13.981 -0.4113  0.2811  0.2761
  904MPD2    H713251   3.947   3.986  13.895 -0.2626  0.9623 -0.0383
  905MPD2     C13252   3.892   3.770  13.404  0.3907 -0.1927  0.8485
  905MPD2    C113253   3.948   3.890  13.440  0.4130 -0.2026 -0.6215
  905MPD2    C213254   4.049   3.943  13.353 -0.0336  0.0365 -0.7576
  905MPD2    C313255   4.099   3.868  13.249 -0.8058 -0.3174 -0.3318
  905MPD2    C413256   4.040   3.750  13.215 -0.5634  0.3326 -0.6016
  905MPD2    C513257   3.938   3.700  13.293  1.0828  0.3987 -0.0222
  905MPD2     H13258   4.084   4.045  13.367  2.1086 -0.6562 -1.0599
  905MPD2    H113259   4.074   3.697  13.127  1.4818  0.1722  0.2915
  905MPD2    H213260   3.817   3.720  13.465 -0.6884  0.2371 -0.1203
  905MPD2    H313261   3.902   3.601  13.265  2.7284 -0.8613  2.2426
  905MPD2     N13262   4.192   3.914  13.152 -0.8471  0.0007  0.1874
  905MPD2    H513263   4.190   3.855  13.069  1.7166  0.7570 -0.4310
  905MPD2    N113264   3.896   3.961  13.551  0.3454  0.1668 -0.8927
  905MPD2    H713265   3.824   3.914  13.604  0.9113  0.5850  0.2370
  906MPD2     C13266   1.849   3.725  11.388 -0.1505  0.1792 -0.4108
  906MPD2    C113267   1.818   3.647  11.278 -0.7375  0.1410 -0.0242
  906MPD2    C213268   1.709   3.567  11.289 -0.0853  0.3907  0.2290
  906MPD2    C313269   1.634   3.549  11.402 -0.5998  0.0492  0.1084
  906MPD2    C413270   1.684   3.614  11.517  0.7553  0.1374 -0.3867
  906MPD2    C513271   1.780   3.706  11.505 -0.2921 -0.3600  0.1966
  906MPD2     H13272   1.676   3.519  11.198 -1.9288  0.2992  0.9509
  906MPD2    H113273   1.628   3.620  11.610  2.7695  1.0065  0.7837
  906MPD2    H213274   1.928   3.798  11.397 -0.6054  0.3967  1.9472
  906MPD2    H313275   1.800   3.759  11.598  1.3392 -1.7909  0.6606
  906MPD2     N13276   1.522   3.469  11.400  0.0276 -0.2066 -0.1474
  906MPD2    H513277   1.507   3.421  11.311 -3.7220 -0.5415  0.6662
  906MPD2    N113278   1.880   3.665  11.152 -0.6965  0.2113 -0.2585
  906MPD2    H713279   1.857   3.594  11.083 -1.1975 -1.8522  2.0200
  907MPD2     C13280   0.304   3.209  15.239  0.2607  0.8715 -0.1976
  907MPD2    C113281   0.422   3.161  15.183 -0.4114 -0.0578  0.4133
  907MPD2    C213282   0.540   3.214  15.217  0.0962 -0.0917 -0.9120
  907MPD2    C313283   0.546   3.307  15.321 -0.2554 -0.1068  0.1710
  907MPD2    C413284   0.432   3.362  15.374 -0.3269  0.3882  0.3085
  907MPD2    C513285   0.317   3.305  15.335  0.3326  0.4207  0.3112
  907MPD2     H13286   0.632   3.169  15.181 -1.0823 -1.5620 -2.0517
  907MPD2    H113287   0.436   3.442  15.447  0.1508 -1.3374  2.1739
  907MPD2    H213288   0.207   3.170  15.208  0.0541 -0.8041  2.6005
  907MPD2    H313289   0.227   3.350  15.377 -0.7558 -1.5677  0.0863
  907MPD2     N13290   0.678   3.347  15.363 -0.3912 -0.4548  0.0522
  907MPD2    H513291   0.758   3.300  15.323 -1.3658 -0.6670 -1.6271
  907MPD2    N113292   0.417   3.059  15.087  0.2344  0.2198  0.0720
  907MPD2    H713293   0.502   3.012  15.058 -0.0511  1.5007 -2.8347
  908MPD2     C13294   3.741   4.061   9.251 -0.0671  0.1046 -0.0262
  908MPD2    C113295   3.613   4.046   9.310 -0.1393  0.5958  0.1461
  908MPD2    C213296   3.601   4.079   9.446 -0.2556 -0.0079  0.3165
  908MPD2    C313297   3.700   4.118   9.527 -0.0295 -0.8174  0.0650
  908MPD2    C413298   3.820   4.151   9.465 -0.4577  0.1188 -0.1456
  908MPD2    C513299   3.842   4.114   9.336  0.2268 -0.1218 -0.6187
  908MPD2     H13300   3.504   4.068   9.493 -0.2169 -0.9008  0.1901
  908MPD2    H113301   3.903   4.195   9.519 -1.1617  1.6760 -0.3264
  908MPD2    H213302   3.759   4.033   9.148  3.4690  0.6426  0.4540
  908MPD2    H313303   3.939   4.124   9.289  1.0143 -1.0896  0.7819
  908MPD2     N13304   3.684   4.137   9.661 -0.4479 -0.1910 -0.3863
  908MPD2    H513305   3.595   4.114   9.705 -1.2022  2.0343 -0.7358
  908MPD2    N113306   3.501   3.992   9.242 -0.7796  0.2239 -0.2251
  908MPD2    H713307   3.415   3.978   9.294 -0.5279 -1.8524 -0.3705
  909MPD2     C13308   3.535   1.677  12.133 -0.8324 -0.5157 -0.0198
  909MPD2    C113309   3.492   1.783  12.057 -0.3896 -0.3450  0.3358
  909MPD2    C213310   3.409   1.876  12.113  1.1074 -0.0216  0.0190
  909MPD2    C313311   3.368   1.862  12.240 -0.3184 -0.3716  0.0750
  909MPD2    C413312   3.413   1.760  12.316  0.3914  0.6411  0.2051
  909MPD2    C513313   3.491   1.670  12.264  0.0483  0.1562  0.5153
  909MPD2     H13314   3.379   1.965  12.059  0.0258  0.2222  1.0219
  909MPD2    H113315   3.391   1.743  12.420  0.7857  1.0257  0.3504
  909MPD2    H213316   3.600   1.599  12.096 -0.1293 -0.3874  0.9328
  909MPD2    H313317   3.529   1.590  12.326 -0.9299 -0.1574  0.7062
  909MPD2     N13318   3.271   1.956  12.287 -0.3157  0.3403  0.1971
  909MPD2    H513319   3.250   2.036  12.228 -2.2426 -0.1512  0.2173
  909MPD2    N113320   3.523   1.804  11.921  0.4250 -0.3890  0.2040
  909MPD2    H713321   3.489   1.891  11.881 -0.4628 -0.5295  0.6634
  910MPD2     C13322   0.781   3.829  15.744 -0.1015  0.6606  0.0456
  910MPD2    C113323   0.671   3.750  15.724  0.1469  0.1017 -0.6633
  910MPD2    C213324   0.587   3.759  15.611  0.2253 -0.2635  0.8682
  910MPD2    C313325   0.622   3.858  15.523 -0.8532 -0.4596  0.4932
  910MPD2    C413326   0.726   3.941  15.543 -0.0392  0.0391  0.6391
  910MPD2    C513327   0.799   3.929  15.652 -0.3958  0.3103  0.3630
  910MPD2     H13328   0.502   3.693  15.597 -0.4771  0.7987  0.1377
  910MPD2    H113329   0.749   4.025  15.478  0.7565  0.2883  1.2400
  910MPD2    H213330   0.851   3.825  15.827  0.7582  0.6664 -0.6810
  910MPD2    H313331   0.873   4.006  15.673 -0.4956  0.1649  1.2355
  910MPD2     N13332   0.549   3.886  15.399  0.2460  0.0516 -0.7992
  910MPD2    H513333   0.585   3.967  15.351  0.9663  0.2481  0.0702
  910MPD2    N113334   0.648   3.638  15.807 -0.4051  0.3692 -0.1612
  910MPD2    H713335   0.579   3.571  15.775 -0.9774  0.8657  0.0268
  911MPD2     C13336   2.351   0.055  16.326  0.1259 -0.2917  0.0848
  911MPD2    C113337   2.413   0.006  16.214  0.6103 -0.1674  0.8303
  911MPD2    C213338   2.336   4.720  16.100  0.9540  0.6459  0.8496
  911MPD2    C313339   2.211   0.056  16.084  0.0031  0.3387 -0.3806
  911MPD2    C413340   2.150   0.096  16.196  0.5038  0.4387  0.5801
  911MPD2    C513341   2.223   0.101  16.315  0.0555 -0.2428 -0.0269
  911MPD2     H13342   2.389   4.678  16.016 -0.4428 -4.0315  2.2821
  911MPD2    H113343   2.053   0.146  16.194  0.2013 -0.1403  0.8465
  911MPD2    H213344   2.412   0.089  16.409  0.7327  1.1526 -0.9378
  911MPD2    H313345   2.173   0.138  16.404 -0.1489 -2.2473  0.6949
  911MPD2     N13346   2.151   0.076  15.959 -0.3255 -0.2160 -0.3026
  911MPD2    H513347   2.058   0.115  15.957  0.9432  2.8322  0.0214
  911MPD2    N113348   2.550   4.690  16.213  0.2094  0.3386 -0.5761
  911MPD2    H713349   2.589   4.663  16.123 -0.9676 -2.1513 -0.3402
  912MPD2     C13350   1.996   4.230  15.484 -0.4624  0.5126 -0.0372
  912MPD2    C113351   1.992   4.313  15.593  0.2423 -0.9551  0.2501
  912MPD2    C213352   2.041   4.263  15.716 -0.4482 -0.2254 -0.2715
  912MPD2    C313353   2.098   4.143  15.732  0.9648 -0.1844 -0.1094
  912MPD2    C413354   2.115   4.065  15.612 -0.5522  0.0853 -0.2953
  912MPD2    C513355   2.059   4.107  15.498  0.0166  0.0312 -0.1183
  912MPD2     H13356   2.018   4.322  15.803 -2.5523 -1.5218  0.0412
  912MPD2    H113357   2.166   3.969  15.609  1.0747  0.9070  1.6212
  912MPD2    H213358   1.959   4.260  15.386 -0.7211  0.2058 -0.0330
  912MPD2    H313359   2.087   4.049  15.411  1.1703  3.2845 -1.9253
  912MPD2     N13360   2.150   4.092  15.851 -0.7905 -0.1886 -0.7886
  912MPD2    H513361   2.125   4.147  15.933  2.6148  0.4855 -0.1777
  912MPD2    N113362   1.929   4.439  15.576 -0.4191 -0.0354 -0.0716
  912MPD2    H713363   1.890   4.463  15.486  2.0118 -0.4881 -1.2468
  913MPD2     C13364   3.259   0.516  10.344  0.6000 -0.5450  0.5357
  913MPD2    C113365   3.316   0.628  10.396  0.2468 -0.1365 -0.7649
  913MPD2    C213366   3.276   0.751  10.354  0.5001 -0.0638 -0.5396
  913MPD2    C313367   3.186   0.760  10.251 -0.1421  0.4196 -0.2699
  913MPD2    C413368   3.134   0.646  10.199 -0.4433 -0.6439  0.1824
  913MPD2    C513369   3.160   0.527  10.254  0.1764 -0.1058 -0.0295
  913MPD2     H13370   3.319   0.836  10.405 -1.3822 -0.3751  1.5732
  913MPD2    H113371   3.062   0.663  10.119 -0.0065  0.3815  0.0131
  913MPD2    H213372   3.288   0.415  10.372 -0.3550 -1.1179 -0.5249
  913MPD2    H313373   3.124   0.437  10.206 -1.5940  0.4246  0.2832
  913MPD2     N13374   3.153   0.882  10.182  0.0874  0.0149 -0.3251
  913MPD2    H513375   3.101   0.881  10.095  0.4592 -3.8220 -0.4748
  913MPD2    N113376   3.414   0.606  10.496  0.5276 -0.5546 -0.7692
  913MPD2    H713377   3.428   0.507  10.512 -1.1286 -0.6288  0.2370
  914MPD2     C13378   0.838   0.455  11.706  0.9050  0.4622 -0.1676
  914MPD2    C113379   0.854   0.594  11.693 -0.2097 -0.3586  0.2794
  914MPD2    C213380   0.917   0.662  11.796  0.1126 -0.4040  0.2807
  914MPD2    C313381   0.956   0.599  11.912  0.5618 -0.8152  0.5637
  914MPD2    C413382   0.937   0.465  11.916  0.6194 -0.1378 -0.8504
  914MPD2    C513383   0.872   0.400  11.822 -0.4748 -0.6817  0.0851
  914MPD2     H13384   0.949   0.763  11.773 -0.4893 -0.8906 -2.8093
  914MPD2    H113385   0.967   0.406  12.002  0.2611 -0.2727 -0.8179
  914MPD2    H213386   0.802   0.393  11.624 -3.1543  2.1324  0.3604
  914MPD2    H313387   0.867   0.292  11.829 -1.3710 -0.6293  0.2526
  914MPD2     N13388   1.013   0.673  12.015  0.3119  0.1252  0.9111
  914MPD2    H513389   1.025   0.773  12.009 -0.4242  0.1597 -0.0469
  914MPD2    N113390   0.817   0.661  11.576  0.7053  0.2679 -0.5672
  914MPD2    H713391   0.784   0.603  11.499 -0.6527  1.3410 -0.8006
  915MPD2     C13392   3.946   1.166  15.665 -0.4547 -0.4181  0.3292
  915MPD2    C113393   3.812   1.153  15.631  0.2775  0.3028  1.1633
  915MPD2    C213394   3.724   1.160  15.734  0.1965  0.6139  0.6742
  915MPD2    C313395   3.754   1.191  15.865  0.1365  0.0827  0.7071
  915MPD2    C413396   3.886   1.208  15.894  0.6861 -0.3452  0.5025
  915MPD2    C513397   3.977   1.190  15.798 -0.3153  0.2487 -0.2790
  915MPD2     H13398   3.620   1.139  15.715  0.5861 -0.2342 -0.4646
  915MPD2    H113399   3.927   1.242  15.989  0.0914 -0.1292  0.6843
  915MPD2    H213400   4.027   1.157  15.593  0.1892 -0.6136  1.0754
  915MPD2    H313401   4.081   1.202  15.827 -0.1615  0.2051 -0.8244
  915MPD2     N13402   3.648   1.217  15.956 -0.4150  0.1984  0.6417
  915MPD2    H513403   3.556   1.214  15.912  0.2003  1.4335 -0.7417
  915MPD2    N113404   3.768   1.116  15.503  0.6505 -0.6787  0.0202
  915MPD2    H713405   3.668   1.098  15.492  0.4191 -0.0057  0.9217
  916MPD2     C13406   1.444   4.329  15.697  0.6445 -0.6520 -0.1011
  916MPD2    C113407   1.548   4.295  15.779  0.6042 -0.1616 -0.3129
  916MPD2    C213408   1.643   4.207  15.726 -0.1426  0.6373  0.4462
  916MPD2    C313409   1.633   4.167  15.589 -0.1790  0.1143 -0.5899
  916MPD2    C413410   1.528   4.214  15.514  0.6486 -0.5825  0.2902
  916MPD2    C513411   1.436   4.287  15.567 -0.5253  1.0888  0.8581
  916MPD2     H13412   1.731   4.179  15.783 -0.9634 -1.5874  0.6432
  916MPD2    H113413   1.512   4.191  15.409 -1.1958  0.2994  0.3872
  916MPD2    H213414   1.363   4.398  15.721  1.0531  0.5441 -2.2135
  916MPD2    H313415   1.348   4.311  15.508 -0.9496  1.2271  1.5471
  916MPD2     N13416   1.726   4.077  15.543 -0.4443  0.1657 -0.4418
  916MPD2    H513417   1.794   4.044  15.611 -0.9469  1.1903  0.5637
  916MPD2    N113418   1.547   4.349  15.911  0.3626  0.1453  0.1205
  916MPD2    H713419   1.474   4.411  15.945 -0.1278  0.3559 -1.3076
  917MPD2     C13420   2.388   1.762  10.884  0.3514 -0.0055  0.5590
  917MPD2    C113421   2.421   1.815  11.009 -0.4521 -0.4625 -0.5211
  917MPD2    C213422   2.493   1.929  11.016  0.2465  0.2282  0.0199
  917MPD2    C313423   2.537   1.991  10.893  0.1650 -0.1237  0.0875
  917MPD2    C413424   2.490   1.945  10.770 -0.0444 -0.0612  0.1672
  917MPD2    C513425   2.418   1.828  10.771 -0.4155 -0.0970 -0.4926
  917MPD2     H13426   2.528   1.973  11.108  0.6973  1.9365 -0.9553
  917MPD2    H113427   2.525   1.986  10.676 -0.6427 -2.6367 -1.1858
  917MPD2    H213428   2.323   1.677  10.873 -1.9683  1.6638  1.3167
  917MPD2    H313429   2.386   1.777  10.681  2.5869 -0.2243 -1.4911
  917MPD2     N13430   2.608   2.112  10.877 -0.9050  0.2700 -0.4164
  917MPD2    H513431   2.615   2.150  10.783 -3.2615  1.9772  0.1189
  917MPD2    N113432   2.377   1.746  11.128  0.0686 -0.4183  0.4712
  917MPD2    H713433   2.309   1.676  11.099  2.2360 -2.2457 -0.2568
  918MPD2     C13434   2.447   2.000  12.128  0.4514  0.1665  0.3862
  918MPD2    C113435   2.525   1.900  12.070  0.0385  0.2971  0.5678
  918MPD2    C213436   2.482   1.840  11.953 -0.3641  0.1086 -0.0396
  918MPD2    C313437   2.378   1.892  11.882 -0.3310  0.4012  0.2997
  918MPD2    C413438   2.317   2.005  11.927  0.4015 -0.5581  0.2018
  918MPD2    C513439   2.347   2.056  12.049  0.1621  0.8153 -0.0071
  918MPD2     H13440   2.538   1.756  11.915 -1.6492 -0.0778 -1.5577
  918MPD2    H113441   2.244   2.063  11.872  0.1791  0.6675  1.7752
  918MPD2    H213442   2.473   2.053  12.219  1.1737  2.7551 -1.3376
  918MPD2    H313443   2.301   2.150  12.078 -2.4648 -0.3289 -0.4912
  918MPD2     N13444   2.340   1.838  11.762  0.2753 -0.3933 -0.0882
  918MPD2    H513445   2.263   1.886  11.716  0.3002  0.5403  0.8344
  918MPD2    N113446   2.645   1.854  12.121 -0.2809  0.1948  0.4986
  918MPD2    H713447   2.689   1.774  12.075  0.7399  0.8403  0.3446
  919MPD2     C13448   3.334   0.688  11.587  0.5072  0.0666  0.2318
  919MPD2    C113449   3.284   0.577  11.520 -0.7907 -0.8124  0.0509
  919MPD2    C213450   3.278   0.571  11.384  0.2697 -0.0215  1.1283
  919MPD2    C313451   3.309   0.690  11.309 -0.0715 -0.4148  0.1498
  919MPD2    C413452   3.350   0.799  11.380 -0.0553  0.6128 -0.5077
  919MPD2    C513453   3.379   0.792  11.516 -0.5288  0.0663 -0.9770
  919MPD2     H13454   3.246   0.478  11.339 -0.6623  1.4464 -1.2632
  919MPD2    H113455   3.377   0.891  11.329  4.5571 -0.4008  0.1296
  919MPD2    H213456   3.344   0.693  11.695 -0.7883 -3.0463  0.4813
  919MPD2    H313457   3.413   0.881  11.568 -2.3387  0.5319 -0.5816
  919MPD2     N13458   3.313   0.699  11.166  0.2387  0.4501  0.0067
  919MPD2    H513459   3.361   0.780  11.128  1.7270 -0.9832 -1.1690
  919MPD2    N113460   3.237   0.462  11.589  0.4138  0.7832  0.8261
  919MPD2    H713461   3.232   0.377  11.534  0.9632 -1.2328  3.8605
  920MPD2     C13462   2.879   1.111  10.381 -0.4468 -0.6442  0.1478
  920MPD2    C113463   2.842   0.978  10.367  0.0620  0.5804 -0.8527
  920MPD2    C213464   2.904   0.893  10.458  0.2233 -0.1816 -0.6097
  920MPD2    C313465   2.989   0.942  10.551  0.6109 -1.0237 -0.8833
  920MPD2    C413466   3.022   1.077  10.561 -0.2072 -0.1942  0.3218
  920MPD2    C513467   2.954   1.163  10.478  0.6209 -0.6324 -0.5721
  920MPD2     H13468   2.894   0.788  10.434 -0.7110 -0.6791  2.0463
  920MPD2    H113469   3.091   1.123  10.631 -1.8400 -0.9371  2.4434
  920MPD2    H213470   2.816   1.186  10.334  1.0794  0.8646  0.4905
  920MPD2    H313471   2.961   1.271  10.486  1.5553 -0.7530  0.2951
  920MPD2     N13472   3.049   0.845  10.636  0.1765 -0.0296 -0.1516
  920MPD2    H513473   3.005   0.754  10.643 -0.5450  0.3508  0.2674
  920MPD2    N113474   2.759   0.929  10.278 -0.3792  0.3910  0.2876
  920MPD2    H713475   2.748   0.828  10.276  2.1103  0.1224  1.0549
  921MPD2     C13476   3.444   0.319  16.640 -0.3987 -0.4815  0.0832
  921MPD2    C113477   3.438   0.304  16.503  0.4291  0.0126  0.8220
  921MPD2    C213478   3.326   0.232  16.455  0.6035  0.2443  0.0744
  921MPD2    C313479   3.215   0.200  16.530 -0.4252 -0.4749 -0.1989
  921MPD2    C413480   3.219   0.224  16.665  0.2404 -0.7485  0.3269
  921MPD2    C513481   3.330   0.284  16.719  0.3618 -0.1170  0.0310
  921MPD2     H13482   3.336   0.197  16.352 -0.9532  1.8127 -0.6177
  921MPD2    H113483   3.131   0.202  16.723 -0.2686 -1.2241 -0.6344
  921MPD2    H213484   3.530   0.364  16.690  0.5628  0.1905 -2.1699
  921MPD2    H313485   3.345   0.302  16.824  0.4639 -3.8385  0.6610
  921MPD2     N13486   3.104   0.138  16.469  0.1120 -0.0870  0.2267
  921MPD2    H513487   3.019   0.116  16.518 -0.8971 -1.3984 -2.0954
  921MPD2    N113488   3.551   0.341  16.431  0.3211 -0.2335  0.7323
  921MPD2    H713489   3.634   0.365  16.486  0.5761 -1.6133  0.9492
  922MPD2     C13490   4.226   1.925  16.831 -0.1094 -0.4854  0.2579
  922MPD2    C113491   4.149   2.026  16.878 -0.0854  0.0138 -0.6440
  922MPD2    C213492   4.057   1.993  16.975  0.2652 -0.4262 -0.2877
  922MPD2    C313493   4.026   1.867  17.015  0.1896  0.3059  0.0987
  922MPD2    C413494   4.100   1.766  16.960  0.6964 -0.3877 -0.2438
  922MPD2    C513495   4.198   1.793  16.871 -0.0208  0.2664  0.3691
  922MPD2     H13496   4.015   2.073  17.035  1.7762  0.5687 -0.5682
  922MPD2    H113497   4.092   1.666  17.000  2.9199 -1.3315 -2.1845
  922MPD2    H213498   4.303   1.938  16.756 -1.2480 -1.9100 -1.1791
  922MPD2    H313499   4.247   1.703  16.834 -1.1553  0.3486 -1.3552
  922MPD2     N13500   3.922   1.849  17.106  0.1051  0.3952  0.0200
  922MPD2    H513501   3.871   1.935  17.126 -1.0735  0.0409 -1.5584
  922MPD2    N113502   4.153   2.164  16.835  0.1755  0.8754  0.2983
  922MPD2    H713503   4.102   2.233  16.888  0.2143  1.8653 -0.9542
  923MPD2     C13504   1.813   4.491   9.376 -0.2952 -0.1550  0.0346
  923MPD2    C113505   1.681   4.479   9.335 -0.6897  0.1083 -0.5348
  923MPD2    C213506   1.626   4.351   9.334 -0.6932 -0.4516 -0.2356
  923MPD2    C313507   1.700   4.236   9.363 -0.0093 -0.4449 -0.2892
  923MPD2    C413508   1.834   4.253   9.390  0.0743  0.3491 -0.3691
  923MPD2    C513509   1.885   4.375   9.400 -0.4225 -0.2335  0.1417
  923MPD2     H13510   1.523   4.340   9.303 -1.0358  3.2253 -0.3789
  923MPD2    H113511   1.906   4.173   9.405 -0.9597 -0.9881 -2.4326
  923MPD2    H213512   1.868   4.583   9.395 -0.7185  0.2553 -0.7317
  923MPD2    H313513   1.989   4.388   9.428 -0.2912 -0.9724 -0.0053
  923MPD2     N13514   1.650   4.107   9.356  0.2599 -0.0907  0.0629
  923MPD2    H513515   1.720   4.034   9.368 -1.3541 -1.5651  0.5908
  923MPD2    N113516   1.591   4.591   9.310  0.4530  0.2366  0.0074
  923MPD2    H713517   1.492   4.569   9.303  0.1983  1.1886  0.6935
  924MPD2     C13518   1.120   2.966  14.961 -0.1827 -0.4367 -0.3016
  924MPD2    C113519   1.157   2.978  15.095  0.0199  0.2959 -0.0589
  924MPD2    C213520   1.148   3.100  15.162 -0.1531  0.6713 -1.1076
  924MPD2    C313521   1.097   3.212  15.096 -0.0768 -0.1002 -0.6412
  924MPD2    C413522   1.052   3.198  14.966 -0.0007 -0.3988 -0.5847
  924MPD2    C513523   1.055   3.073  14.905 -0.3839  0.9595 -0.0666
  924MPD2     H13524   1.158   3.103  15.270  0.8984 -1.0632 -1.1502
  924MPD2    H113525   1.006   3.285  14.920  0.7751  0.3253  0.0027
  924MPD2    H213526   1.119   2.870  14.912 -1.8656 -0.6389  0.1491
  924MPD2    H313527   1.022   3.057  14.803 -0.5572 -1.7536  0.4243
  924MPD2     N13528   1.074   3.335  15.162  0.0818 -0.3868 -0.0249
  924MPD2    H513529   1.012   3.402  15.118  1.5270  0.8100 -0.2353
  924MPD2    N113530   1.165   2.857  15.172  0.1314 -0.2627  0.0478
  924MPD2    H713531   1.136   2.768  15.133  0.7680 -0.7372  0.6374
  925MPD2     C13532   0.094   0.113  14.848 -0.0737 -0.3184  0.5446
  925MPD2    C113533   4.694   0.139  14.792  0.2510 -0.5068 -1.1217
  925MPD2    C213534   4.574   0.119  14.851  0.8632 -0.4198  0.5216
  925MPD2    C313535   4.573   0.099  14.992  0.2784  0.2799 -0.1721
  925MPD2    C413536   4.694   0.066  15.049  0.2519 -0.0275  0.2782
  925MPD2    C513537   0.090   0.073  14.978  0.2779  0.3140  0.4872
  925MPD2     H13538   4.487   0.135  14.789  0.0566 -0.7965  1.5466
  925MPD2    H113539   4.700   0.015  15.145  1.7851  1.6998  1.0907
  925MPD2    H213540   0.190   0.119  14.798 -1.1682 -0.3207 -1.5823
  925MPD2    H313541   0.179   0.040  15.029  0.5943 -0.0735 -0.3031
  925MPD2     N13542   4.449   0.092  15.067 -0.2782  0.7425 -0.1689
  925MPD2    H513543   4.457   0.061  15.163 -1.0347  1.3527  0.0914
  925MPD2    N113544   4.689   0.176  14.650  0.0507 -0.4007  0.3052
  925MPD2    H713545   4.598   0.158  14.609 -0.4724  0.4979  1.0828
  926MPD2     C13546   2.967   3.536  13.772  0.0360 -1.0962  0.6811
  926MPD2    C113547   2.898   3.631  13.698 -0.9558  0.2606  0.5886
  926MPD2    C213548   2.950   3.680  13.579 -0.3361 -0.0303  0.0255
  926MPD2    C313549   3.064   3.630  13.526 -0.1279  0.1574 -0.1276
  926MPD2    C413550   3.132   3.532  13.595  0.5946 -0.2461 -0.0749
  926MPD2    C513551   3.080   3.492  13.716 -0.2128  0.1604  0.4591
  926MPD2     H13552   2.885   3.754  13.535 -0.2429 -0.2884 -0.5420
  926MPD2    H113553   3.225   3.488  13.560 -0.5185 -0.6827 -2.4466
  926MPD2    H213554   2.933   3.507  13.871 -0.2666  0.0792  0.9146
  926MPD2    H313555   3.137   3.423  13.776 -1.2574 -1.8641 -0.8919
  926MPD2     N13556   3.120   3.679  13.403 -0.2586  0.1312 -0.9042
  926MPD2    H513557   3.209   3.651  13.364  0.7348  3.1479 -0.7708
  926MPD2    N113558   2.771   3.677  13.743 -0.0573 -0.0292  0.2379
  926MPD2    H713559   2.738   3.755  13.687 -2.4050 -0.7594  0.6175
  927MPD2     C13560   2.454   0.647   0.955 -0.0395  0.3094 -0.1459
  927MPD2    C113561   2.449   0.758   0.868  0.5481 -0.7129  0.7214
  927MPD2    C213562   2.530   0.758   0.762  0.5037 -0.0735  0.2581
  927MPD2    C313563   2.615   0.656   0.728  0.5288 -0.4421 -0.3752
  927MPD2    C413564   2.626   0.551   0.813 -0.4763  0.6282  0.4890
  927MPD2    C513565   2.543   0.549   0.921 -0.5798  0.4521 -0.1212
  927MPD2     H13566   2.546   0.847   0.702  0.6835  0.5606  1.2491
  927MPD2    H113567   2.690   0.468   0.786 -1.5896 -0.8333  2.3128
  927MPD2    H213568   2.390   0.637   1.042 -0.2953 -1.5373 -0.5478
  927MPD2    H313569   2.550   0.469   0.993 -0.0712  2.5247  2.1150
  927MPD2     N13570   2.696   0.672   0.610 -0.6222 -0.0305  0.2817
  927MPD2    H513571   2.673   0.759   0.562  1.4330  1.2168  1.5517
  927MPD2    N113572   2.370   0.874   0.893 -0.5783  0.5652  0.3509
  927MPD2    H713573   2.319   0.877   0.981 -1.4157 -1.4221 -0.0731
  928MPD2     C13574   1.036   4.231   1.269 -0.6770 -0.0946  0.1562
  928MPD2    C113575   1.010   4.361   1.239 -0.3927  0.0237  0.7871
  928MPD2    C213576   1.035   4.402   1.111  0.0924  0.4203  0.1778
  928MPD2    C313577   1.084   4.322   1.014  0.7968 -0.0201 -0.6353
  928MPD2    C413578   1.110   4.190   1.049 -0.0248  0.8513 -0.0457
  928MPD2    C513579   1.093   4.151   1.173 -0.0322  0.0668  0.2367
  928MPD2     H13580   1.020   4.507   1.090 -0.4349  0.0836 -1.0922
  928MPD2    H113581   1.144   4.115   0.978  1.1948  0.8760  0.5122
  928MPD2    H213582   1.015   4.186   1.365  0.1842 -1.2869 -0.2184
  928MPD2    H313583   1.116   4.047   1.191 -1.5853 -0.2715  0.3095
  928MPD2     N13584   1.126   4.356   0.885 -0.9074 -0.5019  0.4169
  928MPD2    H513585   1.198   4.300   0.840  0.1477  2.0967 -1.1224
  928MPD2    N113586   0.950   4.446   1.341  0.2659  0.7501 -0.2522
  928MPD2    H713587   0.964   4.412   1.436  0.3770  0.3954 -0.3981
  929MPD2     C13588   1.499   3.910  10.431  0.5489  0.0720 -0.6845
  929MPD2    C113589   1.381   3.841  10.436 -0.6408 -0.2592 -0.3876
  929MPD2    C213590   1.276   3.870  10.349 -0.1138  0.7614  0.6210
  929MPD2    C313591   1.299   3.950  10.240 -0.0597  0.9977  0.1584
  929MPD2    C413592   1.421   4.011  10.228  0.5136 -0.6987 -0.8569
  929MPD2    C513593   1.514   3.989  10.320 -0.4832  0.2514  0.0002
  929MPD2     H13594   1.190   3.804  10.347  0.4256  0.1628 -2.0824
  929MPD2    H113595   1.456   4.061  10.138 -0.6784  0.1765 -0.8336
  929MPD2    H213596   1.584   3.888  10.495 -0.1672 -2.6338 -0.6599
  929MPD2    H313597   1.613   4.034  10.314 -0.5295  0.5010  1.0525
  929MPD2     N13598   1.206   3.961  10.133 -0.3217  0.0009  0.1280
  929MPD2    H513599   1.222   4.034  10.064  0.5061 -0.8030 -0.5173
  929MPD2    N113600   1.360   3.746  10.537  0.6503 -0.0063 -0.3844
  929MPD2    H713601   1.420   3.738  10.619  1.0720  0.1658 -0.6822
  930MPD2     C13602   2.977   1.393  13.797  0.8767  0.1218 -0.3605
  930MPD2    C113603   2.865   1.453  13.746  0.2390 -0.1464  0.2074
  930MPD2    C213604   2.760   1.378  13.703 -0.3606 -0.5742 -0.2839
  930MPD2    C313605   2.772   1.240  13.716  0.1425 -0.7166  0.3535
  930MPD2    C413606   2.884   1.185  13.764 -0.1945  0.0717 -0.0814
  930MPD2    C513607   2.990   1.262  13.803  0.3144 -0.1495  0.2531
  930MPD2     H13608   2.665   1.428  13.684 -0.2742  0.4716  2.0542
  930MPD2    H113609   2.896   1.077  13.769  1.1495  0.2117 -0.0985
  930MPD2    H213610   3.061   1.460  13.812  2.1747 -1.7916  0.8304
  930MPD2    H313611   3.077   1.218  13.850  0.3844 -1.1967 -0.8493
  930MPD2     N13612   2.663   1.159  13.674  0.1764  0.0944 -0.9170
  930MPD2    H513613   2.658   1.063  13.704  0.7757  0.6757  1.0523
  930MPD2    N113614   2.867   1.594  13.727  0.4333  0.4818  0.2595
  930MPD2    H713615   2.950   1.637  13.768  0.2862  0.7637  0.2644
  931MPD2     C13616   2.056   1.459   1.452 -0.3773  0.3638 -0.4036
  931MPD2    C113617   2.131   1.350   1.398  0.9186  0.0479  0.6488
  931MPD2    C213618   2.162   1.243   1.487 -0.4432  0.3539  0.0967
  931MPD2    C313619   2.122   1.245   1.623 -0.9348  0.4617  0.0860
  931MPD2    C413620   2.047   1.353   1.672  0.0709 -0.0020 -0.0816
  931MPD2    C513621   2.021   1.459   1.584 -0.1776  0.0311 -0.1810
  931MPD2     H13622   2.206   1.150   1.452  0.4431  1.0287 -0.5940
  931MPD2    H113623   2.010   1.354   1.774  0.0247  0.3762 -0.1030
  931MPD2    H213624   2.034   1.546   1.392 -2.4625 -0.3689 -0.6918
  931MPD2    H313625   1.951   1.537   1.612  0.4548 -0.2154  2.0081
  931MPD2     N13626   2.127   1.129   1.713  0.3217 -0.8048 -0.3068
  931MPD2    H513627   2.076   1.135   1.801  0.5470 -0.6118 -0.1887
  931MPD2    N113628   2.146   1.334   1.260  0.5712  0.9301  0.6521
  931MPD2    H713629   2.108   1.401   1.194 -0.4445  0.6971  0.9956
  932MPD2     C13630   0.249   0.222  11.546  0.0481  0.3849 -0.0049
  932MPD2    C113631   0.198   0.224  11.416 -0.4404 -0.2629 -0.0171
  932MPD2    C213632   0.184   0.106  11.353 -0.1643  0.4035 -0.0030
  932MPD2    C313633   0.216   4.716  11.415 -0.2211 -0.3431  0.0490
  932MPD2    C413634   0.273   4.712  11.541 -0.4731  0.7881 -0.1729
  932MPD2    C513635   0.291   0.103  11.610  0.3051  0.1929 -0.0541
  932MPD2     H13636   0.139   0.109  11.254  1.3830 -1.0886 -0.7583
  932MPD2    H113637   0.299   4.621  11.593 -2.1342  1.4008  1.7301
  932MPD2    H213638   0.257   0.307  11.613 -1.5269  0.3655  0.2058
  932MPD2    H313639   0.339   0.094  11.707  1.9406 -0.5580 -0.9474
  932MPD2     N13640   0.192   4.590  11.352  0.5149 -0.3024  0.5701
  932MPD2    H513641   0.224   4.520  11.418 -1.4149 -1.3363  0.4047
  932MPD2    N113642   0.157   0.337  11.348 -0.1061 -0.0790 -0.7868
  932MPD2    H713643   0.131   0.320  11.251 -0.8456  2.0153 -0.9442
  933MPD2     C13644   0.650   0.467   1.812 -0.4466  0.1364  0.3133
  933MPD2    C113645   0.628   0.414   1.688  0.0970  0.3141 -0.0941
  933MPD2    C213646   0.551   0.493   1.604  0.2449 -0.2245 -0.0592
  933MPD2    C313647   0.498   0.615   1.651 -0.0655 -0.7034  0.3061
  933MPD2    C413648   0.515   0.666   1.777 -0.3666 -0.3152  0.2341
  933MPD2    C513649   0.599   0.587   1.853 -0.1983 -0.0815  0.3628
  933MPD2     H13650   0.524   0.462   1.504 -0.3792 -2.8818  0.9220
  933MPD2    H113651   0.487   0.763   1.814  1.7464  0.5623 -0.4528
  933MPD2    H213652   0.723   0.419   1.876 -1.4501 -0.5597  0.9364
  933MPD2    H313653   0.643   0.626   1.944 -2.3322  3.2092 -0.0175
  933MPD2     N13654   0.401   0.673   1.561  0.1697 -0.6960 -0.2410
  933MPD2    H513655   0.391   0.620   1.475 -2.3223 -0.8924  0.1938
  933MPD2    N113656   0.683   0.291   1.663 -0.2644 -0.1995 -0.0069
  933MPD2    H713657   0.740   0.255   1.739  0.0320 -1.7696 -0.9760
  934MPD2     C13658   0.449   2.349   1.951  0.2360  0.0662 -0.0541
  934MPD2    C113659   0.563   2.334   1.863  0.0240 -0.6354  0.2368
  934MPD2    C213660   0.573   2.228   1.775  0.5168 -0.0430  0.6372
  934MPD2    C313661   0.472   2.141   1.768  0.1955 -0.0718 -0.2828
  934MPD2    C413662   0.361   2.158   1.851  0.1298 -0.4279  0.1043
  934MPD2    C513663   0.352   2.252   1.947  0.0146  0.7466  0.0232
  934MPD2     H13664   0.662   2.217   1.714  0.6932 -1.3789  1.1368
  934MPD2    H113665   0.292   2.077   1.871 -1.4285  0.1415 -3.0326
  934MPD2    H213666   0.445   2.423   2.031 -0.4209  0.4544 -0.4457
  934MPD2    H313667   0.269   2.256   2.016 -0.1909 -2.4964 -0.0417
  934MPD2     N13668   0.462   2.032   1.675  0.1799 -0.1496 -0.4096
  934MPD2    H513669   0.376   1.978   1.674 -0.6866  1.2580 -0.9549
  934MPD2    N113670   0.681   2.414   1.871  0.6058  0.1206 -0.2960
  934MPD2    H713671   0.766   2.379   1.828  1.0573  0.7441  0.0962
  935MPD2     C13672   1.192   1.501   1.271 -0.0107 -0.0254 -0.5296
  935MPD2    C113673   1.103   1.501   1.165 -0.3470 -0.0529  0.1233
  935MPD2    C213674   0.984   1.572   1.187  0.2941  0.0879 -0.2527
  935MPD2    C313675   0.950   1.620   1.308  1.1524  0.1221  0.0177
  935MPD2    C413676   1.042   1.612   1.411 -0.2967  0.8729  0.0518
  935MPD2    C513677   1.163   1.553   1.392  0.6275  0.6312  0.5931
  935MPD2     H13678   0.911   1.569   1.106  1.9619 -2.9201 -1.6612
  935MPD2    H113679   1.021   1.657   1.507  4.2061  1.2926  0.8191
  935MPD2    H213680   1.298   1.477   1.265 -0.0749 -0.0434 -1.6615
  935MPD2    H313681   1.239   1.555   1.470 -1.6998  1.0953  2.8296
  935MPD2     N13682   0.833   1.696   1.333  0.2586 -0.0620 -0.1769
  935MPD2    H513683   0.838   1.760   1.412  2.4635 -0.7992  0.2900
  935MPD2    N113684   1.130   1.458   1.032  0.0798  0.0484  0.3387
  935MPD2    H713685   1.064   1.484   0.959 -0.1061  3.3942  1.6689
  936MPD2     C13686   4.479   3.479  12.491 -0.9799  0.3110 -0.2850
  936MPD2    C113687   4.522   3.463  12.620  0.1795 -0.3494 -0.0946
  936MPD2    C213688   4.589   3.572  12.678 -0.1330 -0.1263 -0.2755
  936MPD2    C313689   4.615   3.687  12.599 -0.7027  0.4435 -0.6857
  936MPD2    C413690   4.560   3.704  12.476 -0.3060  1.0991  0.3717
  936MPD2    C513691   4.494   3.596  12.423 -0.1198  0.3599 -0.2696
  936MPD2     H13692   4.640   3.565  12.773 -0.9662 -0.6375  0.1329
  936MPD2    H113693   4.570   3.794  12.418  1.2812 -0.2718 -1.4844
  936MPD2    H213694   4.436   3.395  12.439  0.4150  1.0483 -2.5884
  936MPD2    H313695   4.462   3.605  12.320  0.8429  0.6327 -0.5410
  936MPD2     N13696   4.680   3.783  12.663 -0.7742 -0.1340  0.8357
  936MPD2    H513697   4.705   3.762  12.759  0.4709  0.4881  0.6500
  936MPD2    N113698   4.499   3.356  12.710 -0.4074  0.0014 -0.4680
  936MPD2    H713699   4.533   3.368  12.804 -1.9733 -0.7638  0.2028
  937MPD2     C13700   3.232   4.474  11.470 -0.0731  0.1443  0.1157
  937MPD2    C113701   3.327   4.563  11.521  0.7115 -0.9664  0.8049
  937MPD2    C213702   3.441   4.576  11.447 -0.3510  0.2245 -0.3277
  937MPD2    C313703   3.472   4.495  11.341  0.4310  0.1846 -0.1420
  937MPD2    C413704   3.383   4.402  11.295 -0.2570 -0.2071 -0.5538
  937MPD2    C513705   3.254   4.399  11.355  0.0628 -0.7930  0.4279
  937MPD2     H13706   3.509   4.651  11.487 -0.4354  0.4268 -0.5695
  937MPD2    H113707   3.410   4.335  11.214  2.3490 -2.2757  2.0242
  937MPD2    H213708   3.134   4.467  11.515 -1.1242 -0.7310 -2.3289
  937MPD2    H313709   3.173   4.336  11.323 -1.2490  1.2062 -0.1504
  937MPD2     N13710   3.596   4.520  11.269 -0.3604 -0.4898 -0.2205
  937MPD2    H513711   3.665   4.575  11.319 -0.2048 -1.0167  0.1551
  937MPD2    N113712   3.292   4.670  11.605 -0.0771  0.4718 -0.0933
  937MPD2    H713713   3.368   0.007  11.631 -0.6743  1.7277 -1.3115
  938MPD2     C13714   0.691   1.604   0.611 -0.0118 -0.2912 -0.4010
  938MPD2    C113715   0.601   1.708   0.660 -0.9634  0.3626 -0.3222
  938MPD2    C213716   0.513   1.683   0.767  0.2733  0.5218 -0.4232
  938MPD2    C313717   0.519   1.563   0.835 -0.2809 -0.5932  0.0714
  938MPD2    C413718   0.612   1.467   0.796  0.0457  1.0711  0.4849
  938MPD2    C513719   0.693   1.487   0.687 -0.5786  0.2970 -0.4974
  938MPD2     H13720   0.451   1.767   0.794 -1.2929 -1.1963  1.3438
  938MPD2    H113721   0.623   1.374   0.850 -2.0761 -0.7528 -2.2056
  938MPD2    H213722   0.757   1.607   0.526 -1.1545  2.3354 -1.2099
  938MPD2    H313723   0.762   1.407   0.664 -1.2393 -0.7240  1.0748
  938MPD2     N13724   0.442   1.530   0.946 -0.4132 -0.6138  0.3250
  938MPD2    H513725   0.486   1.461   1.006 -1.2594 -0.2044  1.4060
  938MPD2    N113726   0.587   1.839   0.605  0.3087  0.6143  0.5251
  938MPD2    H713727   0.531   1.902   0.661 -0.9929 -1.8708  2.0207
  939MPD2     C13728   1.429   2.351   0.554 -0.4418  0.3700 -0.3916
  939MPD2    C113729   1.556   2.316   0.595 -0.1172  0.4210  0.4760
  939MPD2    C213730   1.630   2.226   0.517  0.8399 -0.4355 -0.5110
  939MPD2    C313731   1.571   2.162   0.410  0.0775 -0.4854 -0.5313
  939MPD2    C413732   1.450   2.203   0.363  0.3124 -0.3113 -0.0870
  939MPD2    C513733   1.379   2.294   0.435  0.8493  0.3061  0.2678
  939MPD2     H13734   1.727   2.201   0.559  0.6885  0.0793  0.1546
  939MPD2    H113735   1.417   2.166   0.266 -0.1090 -2.3246  0.8220
  939MPD2    H213736   1.372   2.431   0.599 -0.6318 -0.1133  0.2296
  939MPD2    H313737   1.290   2.333   0.386  1.5389  0.8978 -0.5182
  939MPD2     N13738   1.642   2.072   0.333 -0.3416 -0.5711  0.3518
  939MPD2    H513739   1.594   2.041   0.249 -0.9025  0.5522  0.2666
  939MPD2    N113740   1.592   2.362   0.729 -0.8222 -0.3576 -0.1441
  939MPD2    H713741   1.534   2.436   0.767  0.2744  0.2104  0.4239
  940MPD2     C13742   0.719   3.653  13.006  0.9443  0.2855  0.0263
  940MPD2    C113743   0.774   3.555  13.090  0.1307 -0.6020 -0.0703
  940MPD2    C213744   0.842   3.450  13.042  1.1951  0.3925  0.5793
  940MPD2    C313745   0.852   3.425  12.908  0.6878 -0.0733  0.1016
  940MPD2    C413746   0.786   3.511  12.824  0.4507 -0.1320 -0.3704
  940MPD2    C513747   0.734   3.632  12.874  0.2727 -0.2464 -0.5644
  940MPD2     H13748   0.874   3.376  13.114 -0.3585 -0.6024  0.2455
  940MPD2    H113749   0.771   3.474  12.723 -0.1317 -0.3603 -0.1990
  940MPD2    H213750   0.656   3.734  13.040 -0.4854 -1.5187  1.6657
  940MPD2    H313751   0.692   3.700  12.801 -2.7484 -0.5447  0.8726
  940MPD2     N13752   0.916   3.307  12.849 -0.1741  0.0841  0.4169
  940MPD2    H513753   0.905   3.297  12.749  0.0724  0.2129  0.3760
  940MPD2    N113754   0.774   3.562  13.231  0.3211  0.3678  0.4427
  940MPD2    H713755   0.828   3.490  13.278 -1.7616  0.9515  3.7510
  941MPD2     C13756   0.073   2.788   9.778  0.3048  0.4440 -0.2008
  941MPD2    C113757   0.191   2.753   9.843  0.2331  0.8628 -0.2701
  941MPD2    C213758   0.186   2.642   9.923 -0.0454 -0.3066  0.0076
  941MPD2    C313759   0.081   2.550   9.932  0.0296  0.0111 -0.1781
  941MPD2    C413760   4.696   2.584   9.856 -0.4300  0.9073 -0.2217
  941MPD2    C513761   4.696   2.690   9.777 -0.1133  0.5539  0.0373
  941MPD2     H13762   0.278   2.630   9.979  0.3649  0.2046 -0.5629
  941MPD2    H113763   4.607   2.524   9.844 -0.2824  0.4859  0.7545
  941MPD2    H213764   0.062   2.880   9.721  1.4908 -0.5712 -2.0771
  941MPD2    H313765   4.603   2.699   9.722 -0.8127  0.4277  1.1913
  941MPD2     N13766   0.084   2.420   9.990 -0.4610 -0.6383 -0.3211
  941MPD2    H513767   4.722   2.367   9.995 -1.6569  1.3122 -0.6142
  941MPD2    N113768   0.317   2.826   9.829 -0.1849  0.4373  0.5304
  941MPD2    H713769   0.378   2.813   9.909 -0.5922 -0.3614  0.7071
  942MPD2     C13770   4.556   4.096   9.135  0.0306  0.6758  0.4605
  942MPD2    C113771   4.532   4.175   9.246  0.2452  0.2785  0.4430
  942MPD2    C213772   4.623   4.276   9.276 -0.0750  0.1531 -0.7515
  942MPD2    C313773   4.722   4.310   9.186 -0.4228 -0.0891  0.7199
  942MPD2    C413774   0.031   4.224   9.084 -0.2357 -0.5395  0.1128
  942MPD2    C513775   4.665   4.119   9.058  0.2428  0.2334  0.3899
  942MPD2     H13776   4.612   4.332   9.368 -0.5539 -3.2912  1.2711
  942MPD2    H113777   0.123   4.232   9.026 -0.4066  2.0648  0.2024
  942MPD2    H213778   4.501   4.006   9.110 -0.6189  1.5246 -1.2047
  942MPD2    H313779   4.684   4.054   8.973 -0.7785 -0.3902  0.6462
  942MPD2     N13780   0.086   4.426   9.191  0.6696 -0.4173  0.3119
  942MPD2    H513781   0.167   4.437   9.131 -0.5555  0.2141 -1.2332
  942MPD2    N113782   4.432   4.152   9.341  0.2827  0.5836  0.7014
  942MPD2    H713783   4.427   4.205   9.427 -0.4819  1.2839  0.2261
  943MPD2     C13784   3.908   2.559   9.657 -0.3315  0.4401 -0.7939
  943MPD2    C113785   3.889   2.471   9.759  0.4027 -0.8891 -0.0591
  943MPD2    C213786   3.948   2.506   9.882 -0.0669 -0.0858 -0.6836
  943MPD2    C313787   4.002   2.630   9.902  0.4370 -0.3200  0.4546
  943MPD2    C413788   4.019   2.719   9.798 -0.6026  0.0644  0.1605
  943MPD2    C513789   3.979   2.678   9.672 -0.7281 -0.5612  0.8526
  943MPD2     H13790   3.939   2.451   9.975  0.2852  1.4041  0.2331
  943MPD2    H113791   4.062   2.816   9.819 -2.8258  0.9810  0.4293
  943MPD2    H213792   3.860   2.535   9.562  0.2336  2.0552 -1.4844
  943MPD2    H313793   3.991   2.747   9.589 -1.3550 -1.9444 -0.3796
  943MPD2     N13794   4.035   2.697  10.025 -0.2034 -0.0463 -0.2527
  943MPD2    H513795   4.073   2.791  10.019 -0.5593  0.0509 -1.0135
  943MPD2    N113796   3.826   2.347   9.731  0.8028 -0.2519 -0.1166
  943MPD2    H713797   3.799   2.341   9.634  0.4606 -1.0872  0.0289
  944MPD2     C13798   3.762   1.813  10.727  0.6839  0.3099 -0.4207
  944MPD2    C113799   3.721   1.685  10.710 -0.1385  0.5640  0.1388
  944MPD2    C213800   3.658   1.618  10.814 -0.0265  0.0685 -0.4030
  944MPD2    C313801   3.641   1.683  10.938  0.4408  0.3950 -0.0933
  944MPD2    C413802   3.690   1.817  10.956  0.6311  0.5184 -0.0906
  944MPD2    C513803   3.744   1.881  10.845  0.1873 -0.4418  0.1354
  944MPD2     H13804   3.624   1.516  10.800 -0.9062  0.2318  0.5357
  944MPD2    H113805   3.692   1.873  11.049 -0.3621 -0.7232  0.6626
  944MPD2    H213806   3.811   1.857  10.641  2.2996  1.5578  1.1582
  944MPD2    H313807   3.790   1.979  10.849 -0.3294 -0.1371 -1.3807
  944MPD2     N13808   3.581   1.600  11.037  0.3478 -0.1016  0.4513
  944MPD2    H513809   3.542   1.513  11.002 -1.3713  1.3454 -1.2571
  944MPD2    N113810   3.749   1.627  10.586 -0.7490  0.5657 -0.1131
  944MPD2    H713811   3.786   1.693  10.519 -1.3971 -0.7460 -1.7718
    1TCq1    O113812   1.462   2.229  14.108  0.5884 -0.1946 -0.1789
    1TCq1    C113813   1.577   2.230  14.038  0.2584  0.2170  0.2669
    1TCq1    O213814   1.597   2.167  13.933  0.5612  0.3350  0.5343
    1TCq1    C213815   1.679   2.234  14.144  0.2670  0.0280 -0.3401
    1TCq1    C313816   1.782   2.152  14.129  0.8041 -0.5879 -0.0541
    1TCq1    C413817   1.887   2.158  14.215 -0.1021  0.2153  0.1060
    1TCq1    C513818   1.899   2.260  14.305  0.0146 -0.1154 -0.1735
    1TCq1    C613819   1.787   2.342  14.318 -0.1296 -0.0828  0.0367
    1TCq1    C713820   1.673   2.325  14.245  0.0421 -0.4839  0.0972
    1TCq1    C813821   1.793   2.435  14.427  0.0035  0.0693  0.5796
    1TCq1    O413822   1.869   2.399  14.514  0.1016 -0.5167 -0.5345
    1TCq1    C913823   1.999   2.067  14.196  0.4340  0.0843  0.4886
    1TCq1    O513824   2.086   2.058  14.287 -0.3793 -0.5813 -0.5040
    1TCq1    O613825   2.001   2.010  14.084 -0.5574 -0.5969  0.2237
    1TCq1    H113826   1.480   2.252  14.202  0.7436  2.0904 -0.7674
    1TCq1    H213827   1.791   2.085  14.044 -0.9309  2.1781 -2.4014
    1TCq1    H313828   1.992   2.262  14.361 -0.3023  0.2215  0.3422
    1TCq1    H413829   1.587   2.391  14.259  0.8841  1.1400 -2.4054
    2MPD2     C13830   1.673   2.870  14.678  0.2143 -0.4242 -0.1096
    2MPD2    C113831   1.615   2.872  14.551 -0.2624  0.8056 -0.1615
    2MPD2    C213832   1.638   2.762  14.468 -0.1823  0.0017 -0.2580
    2MPD2    C313833   1.711   2.651  14.505  0.0528  0.4827 -0.8768
    2MPD2    C413834   1.764   2.654  14.629 -0.0059 -0.0513 -0.0173
    2MPD2    C513835   1.749   2.758  14.715 -0.3748  0.1082  0.3023
    2MPD2     H13836   1.586   2.767  14.373  0.1063 -0.5770 -0.4518
    2MPD2    H113837   1.825   2.570  14.662  0.7995  0.5757  0.0874
    2MPD2    H213838   1.669   2.954  14.746 -1.3224  0.9573 -1.9202
    2MPD2    H313839   1.803   2.764  14.809 -0.5582  1.0309  0.3496
    2MPD2     N13840   1.712   2.542  14.416  0.2984  0.0491  0.1748
    2MPD2    H513841   1.672   2.553  14.322  0.9612  3.0876  0.2446
    2MPD2    N113842   1.542   2.984  14.513  0.1714 -0.2869  0.1586
    2MPD2    H713843   1.566   3.066  14.568  1.3544 -0.8781  0.5059
    3TMC2    C113844   1.412   3.112  14.353 -0.9000 -0.3740  0.0618
    3TMC2    C213845   1.499   3.217  14.379 -0.1602 -0.8986 -0.8393
    3TMC2    C313846   1.535   3.316  14.291 -0.0424  0.6507 -0.1367
    3TMC2    C413847   1.361   3.112  14.224 -0.2234 -0.4546 -0.5343
    3TMC2    C513848   1.393   3.205  14.136  0.5660  0.0832  0.5776
    3TMC2    C613849   1.478   3.311  14.164 -0.7656  0.3402 -0.3223
    3TMC2     C13850   1.449   2.988  14.407  0.4615 -0.0162 -0.0257
    3TMC2     O13851   1.398   2.894  14.351 -0.1417  0.8842 -1.1208
    3TMC2     H13852   1.547   3.215  14.476  0.1070 -1.3865 -0.9816
    3TMC2    H113853   1.300   3.029  14.188  0.9419 -1.0545 -1.1167
    3TMC2    H213854   1.492   3.385  14.086  0.0776 -2.2260 -2.6091
    3TMC2    C713855   1.391   3.151  14.000  0.7378  0.7544  0.2655
    3TMC2    C813856   1.651   3.397  14.309 -0.0475  0.3120 -0.5364
    3TMC2    O113857   1.425   3.035  13.982 -0.6121 -0.3282  0.1583
    3TMC2    O213858   1.697   3.391  14.421 -0.1325  0.5036  0.0808
    3TMC2    O513859   1.723   3.414  14.190 -0.4533  0.1906  0.1114
    3TMC2    H513860   1.682   3.385  14.106  0.7603  0.6955 -0.6544
    4MPD2     C13861   0.486   4.243  13.481 -0.5052 -0.4503  0.3176
    4MPD2    C113862   0.485   4.183  13.360 -0.3938  1.1299 -0.1640
    4MPD2    C213863   0.598   4.109  13.323  0.3451  0.8160 -0.5784
    4MPD2    C313864   0.706   4.093  13.410 -0.1462  0.3599  1.1036
    4MPD2    C413865   0.710   4.161  13.528 -0.5075 -0.4530  0.2846
    4MPD2    C513866   0.598   4.239  13.563  0.3067  0.4124 -0.2973
    4MPD2     H13867   0.604   4.054  13.229  0.2042  0.0475 -0.1348
    4MPD2    H113868   0.789   4.155  13.602  0.5176  0.0837 -0.7762
    4MPD2    H213869   0.405   4.303  13.521  1.0521  2.5587 -1.0272
    4MPD2    H313870   0.592   4.291  13.658  0.9971 -3.0180  1.6455
    4MPD2     N13871   0.804   4.000  13.377  0.1449  0.2877  0.6076
    4MPD2    H513872   0.794   3.954  13.287 -0.8377  0.5505  0.5871
    4MPD2    N113873   0.366   4.207  13.279  0.0874  0.6399  0.0591
    4MPD2    H713874   0.300   4.276  13.313 -0.5550  0.0786 -0.0441
    5TCq2    C113875   0.906   3.958  13.463  0.0281 -0.3474 -0.5509
    5TCq2    O213876   0.919   3.991  13.581  0.2599  0.1664  0.9156
    5TCq2    C213877   0.986   3.852  13.404 -0.4614  0.3551 -0.3394
    5TCq2    C313878   0.997   3.831  13.270 -0.1741  0.0527 -0.0519
    5TCq2    C413879   1.075   3.719  13.228 -0.3432  0.0129 -0.0891
    5TCq2    C513880   1.134   3.641  13.317 -0.1081 -0.2263  0.0847
    5TCq2    C613881   1.123   3.669  13.452  0.7661  0.4577 -0.8474
    5TCq2    C713882   1.049   3.776  13.498  0.2111  0.0346  0.5735
    5TCq2    C813883   1.184   3.575  13.545 -0.1030 -0.0152  0.3132
    5TCq2    O413884   1.203   3.618  13.657 -0.0789 -0.2680 -0.6150
    5TCq2    C913885   1.092   3.702  13.085  0.0386  0.4064 -0.5545
    5TCq2    O513886   1.074   3.810  13.023 -0.3705 -0.2586  0.0413
    5TCq2    O613887   1.169   3.609  13.046  0.3028  0.6954  0.4153
    5TCq2    H213888   0.956   3.904  13.202  2.5282  2.6929  1.1490
    5TCq2    H313889   1.195   3.561  13.277 -2.9299 -1.6829 -1.3366
    5TCq2    H413890   1.060   3.795  13.605  0.2017  2.0650  0.2209
    6MPD1     C13891   0.127   1.263  13.021  0.2302  0.5373  0.3201
    6MPD1    C113892   0.041   1.198  12.940  0.0704 -0.4495 -0.1508
    6MPD1    C213893   0.058   1.063  12.928 -0.1259 -1.2595  0.5694
    6MPD1    C313894   0.159   0.989  12.988 -0.0545  0.9605 -0.5992
    6MPD1    C413895   0.237   1.061  13.071  0.1686  0.6731  0.0726
    6MPD1    C513896   0.223   1.197  13.087 -0.6702  0.8098 -1.0249
    6MPD1     H13897   4.715   1.016  12.856 -0.8137  1.5830 -0.6153
    6MPD1    H113898   0.314   1.010  13.128  1.0069  2.0235  0.1337
    6MPD1    H213899   0.113   1.369  13.042 -1.0162  0.1216  1.5557
    6MPD1    H313900   0.289   1.252  13.154 -2.0236 -0.2283  1.1693
    6MPD1     N13901   0.174   0.846  12.975 -0.3663 -0.1671  0.1611
    6MPD1    H513902   0.251   0.817  13.033  1.6278  0.3879 -2.1818
    6MPD1    N113903   4.639   1.255  12.908  0.3209 -0.0339  0.3265
    6MPD1    H613904   4.650   1.356  12.902  0.5513 -0.0384  0.6415
    6MPD1    H713905   4.600   1.213  12.824 -2.2095 -0.3858  1.6787
    7MPD2     C13906   0.062   0.157  13.381  0.1265 -0.0771 -0.2038
    7MPD2    C113907   0.059   0.133  13.241  0.1377 -0.1665  0.4539
    7MPD2    C213908   0.035   0.009  13.196 -0.2823 -0.1053  0.4356
    7MPD2    C313909   0.004   4.627  13.282 -0.3171  0.0464 -0.3784
    7MPD2    C413910   0.013   4.645  13.420  0.3477 -0.2869 -0.0323
    7MPD2    C513911   0.041   0.049  13.459 -0.3939  0.5707  0.6008
    7MPD2     H13912   0.041   4.720  13.089 -2.7748 -2.4461  0.5847
    7MPD2    H113913   4.710   4.564  13.488 -1.1741  0.4019  0.1925
    7MPD2    H213914   0.088   0.250  13.431 -1.6080  0.1803  0.2130
    7MPD2    H313915   0.050   0.073  13.564 -0.9583 -0.3369  0.8646
    7MPD2     N13916   4.700   4.495  13.240 -0.4862  0.9369  0.0948
    7MPD2    H513917   4.683   4.426  13.313  0.2682 -0.3623 -0.9624
    7MPD2    N113918   0.081   0.236  13.148  0.8755  0.3162 -0.0827
    7MPD2    H713919   0.059   0.217  13.051  1.3816  0.0102 -0.1361
    8TMC3    C113920   0.020   4.323  13.078  0.7903  0.3288 -0.3069
    8TMC3    C213921   0.136   4.288  13.145 -0.2364  0.7322  0.1767
    8TMC3    C313922   0.232   4.220  13.082  0.1459 -0.1881  0.5069
    8TMC3    C413923   0.022   4.307  12.940 -0.3948 -0.1792  0.0447
    8TMC3    C513924   0.128   4.255  12.877 -0.1992  0.0778  1.1217
    8TMC3    C613925   0.235   4.216  12.949 -0.2805 -0.0348  1.2936
    8TMC3     C13926   4.701   4.460  13.108 -0.6885  0.4339  0.3313
    8TMC3     O13927   4.681   4.527  13.009  0.1579  0.2171 -0.3289
    8TMC3     H13928   0.146   4.303  13.252  1.2059  0.0168  0.1416
    8TMC3    H113929   4.651   4.329  12.892 -1.0418 -1.5159  0.7125
    8TMC3    H213930   0.327   4.189  12.899  0.1611 -0.4162  2.3282
    8TMC3    C713931   0.163   4.328  12.756 -0.3493  0.6477  0.0771
    8TMC3    C813932   0.347   4.163  13.148  0.7970 -0.2999 -0.1837
    8TMC3    O113933   0.234   4.276  12.668 -0.5547 -1.0208  0.2483
    8TMC3    O213934   0.420   4.090  13.081  0.0184  0.1130  0.0084
    9TMC3    C113935   0.162   0.619  12.910 -0.2968 -0.3911 -0.1918
    9TMC3    C213936   0.162   0.538  12.799  0.2632 -0.6056 -0.7331
    9TMC3    C313937   0.187   0.405  12.805 -0.5471  0.3485 -0.6156
    9TMC3    C413938   0.156   0.557  13.031  0.0197  0.2720  0.0302
    9TMC3    C513939   0.159   0.422  13.039  0.3669 -0.3388  0.2736
    9TMC3    C613940   0.186   0.343  12.929  0.0489 -0.2109 -0.8005
    9TMC3     C13941   0.105   0.752  12.897  0.8013  0.4813  0.1047
    9TMC3     O13942   0.017   0.768  12.816 -0.3818 -0.1254 -0.0416
    9TMC3     H13943   0.150   0.581  12.700 -2.2300  1.3406  0.4249
    9TMC3    H113944   0.134   0.628  13.110  0.2301 -0.3984  0.6949
    9TMC3    H213945   0.202   0.235  12.931  0.7557 -0.0879  0.3714
    9TMC3    C713946   0.135   0.362  13.167  0.5254 -0.2684 -0.0555
    9TMC3    C813947   0.187   0.328  12.677  0.0473 -0.1119 -0.2785
    9TMC3    O113948   0.156   0.429  13.268  0.0995  0.1987  0.1825
    9TMC3    O213949   0.261   0.368  12.588 -0.8739  0.2680  0.3963
   10MPD2     C13950   0.259   4.552  12.578 -0.2792 -1.0786  0.3855
   10MPD2    C113951   0.178   4.570  12.682 -0.5445 -0.8438 -0.4406
   10MPD2    C213952   0.144   4.694  12.712  0.6343 -1.1643  0.3000
   10MPD2    C313953   0.187   0.079  12.647  0.2162  0.5830 -0.1827
   10MPD2    C413954   0.271   0.070  12.542  0.3072  0.1041 -0.5189
   10MPD2    C513955   0.305   4.666  12.514  0.8394  0.3020  0.1020
   10MPD2     H13956   0.081   4.699  12.800 -0.3942 -2.5529 -0.3491
   10MPD2    H113957   0.306   0.149  12.476  3.0710 -1.0304 -0.4349
   10MPD2    H213958   0.287   4.459  12.529 -1.1031 -1.8393  1.3543
   10MPD2    H313959   0.369   4.650  12.428 -0.5623  0.1112 -0.9026
   10MPD2     N13960   0.147   0.200  12.707  0.3210  0.5529 -0.5514
   10MPD2    H513961   0.075   0.200  12.779  0.5901 -0.3428 -0.2901
   10MPD2    N113962   0.135   4.465  12.773  0.4331  0.1486  0.1787
   10MPD2    H713963   0.075   4.495  12.850 -0.4009 -0.4014 -0.2575
   11MPD2     C13964   1.408   3.142  13.699 -0.6065  0.4471  0.5906
   11MPD2    C113965   1.352   3.246  13.769 -0.6421  0.7348 -0.6872
   11MPD2    C213966   1.274   3.342  13.706  0.4966 -0.4191 -0.3347
   11MPD2    C313967   1.265   3.348  13.569  0.2061 -0.7354 -0.3216
   11MPD2    C413968   1.318   3.242  13.496 -0.0502 -0.0638 -0.2844
   11MPD2    C513969   1.381   3.139  13.564  0.3315  0.0142  0.0513
   11MPD2     H13970   1.224   3.418  13.765 -0.0997 -0.8740 -0.2542
   11MPD2    H113971   1.323   3.248  13.388  0.6469  2.3001 -0.1168
   11MPD2    H213972   1.469   3.067  13.748 -0.7033  0.7597  1.1981
   11MPD2    H313973   1.409   3.054  13.504 -1.2700  0.7228 -1.7344
   11MPD2     N13974   1.203   3.450  13.495  0.3001  0.3204  0.5433
   11MPD2    H513975   1.177   3.432  13.399  1.9169 -0.2592  0.1966
   11MPD2    N113976   1.349   3.249  13.913  0.1163 -0.0338 -0.0430
   11MPD2    H713977   1.312   3.334  13.955 -0.6892 -0.1535 -0.5144
    1MPD1     C13978   3.486   0.064  17.038 -0.2040 -0.4502  0.1545
    1MPD1    C113979   3.544   0.101  16.917  0.3567  0.1223  0.1587
    1MPD1    C213980   3.645   0.189  16.915 -0.2086  0.2441 -0.0897
    1MPD1    C313981   3.688   0.256  17.027 -0.1387 -0.0994  0.4395
    1MPD1    C413982   3.616   0.226  17.143  1.1298 -0.3954 -0.0386
    1MPD1    C513983   3.513   0.137  17.148  0.5632 -0.5490 -0.2057
    1MPD1     H13984   3.711   0.191  16.828 -3.6140 -0.9814 -2.7196
    1MPD1    H113985   3.632   0.281  17.235  3.6544  1.3465 -1.5404
    1MPD1    H213986   3.403   4.717  17.038  0.2930 -1.0306 -0.2163
    1MPD1    H313987   3.464   0.123  17.244 -0.4806  0.6933 -0.5497
    1MPD1     N13988   3.802   0.341  17.030 -0.0837  0.3442 -0.5077
    1MPD1    H513989   3.822   0.370  17.126 -3.1062  0.8525 -0.0383
    1MPD1    N113990   3.519   0.025  16.797 -0.1273 -0.3950  0.2986
    1MPD1    H613991   3.524   0.083  16.713  2.7521  1.6313  1.8979
    1MPD1    H713992   3.422   4.717  16.803  0.7003 -3.2185 -1.0327
    2MPD1     C13993   3.905   1.137  17.450  0.0852 -0.4290 -1.0647
    2MPD1    C113994   4.003   1.163  17.358  0.5313  0.0888 -0.5753
    2MPD1    C213995   4.058   1.057  17.293 -1.0123 -0.4773  0.0978
    2MPD1    C313996   4.022   0.929  17.327  0.0890  0.1737 -0.0932
    2MPD1    C413997   3.943   0.901  17.433  0.6352  0.0784 -0.7314
    2MPD1    C513998   3.886   1.009  17.503  0.1603 -0.1675 -0.4571
    2MPD1     H13999   4.120   1.072  17.205 -0.3082 -1.7998  0.3570
    2MPD1    H114000   3.900   0.804  17.459 -0.5400  0.8087  0.0617
    2MPD1    H214001   3.844   1.214  17.494  1.9142  0.9720 -0.9926
    2MPD1    H314002   3.810   0.989  17.578 -0.0197  3.0059  0.1782
    2MPD1     N14003   4.076   0.835  17.233  0.2015  0.3770 -0.8633
    2MPD1    H514004   4.118   0.868  17.147 -0.3810  0.2835 -1.1863
    2MPD1    N114005   4.011   1.291  17.309 -0.4016 -0.3185  0.1202
    2MPD1    H614006   4.105   1.324  17.287 -1.3673  0.7303 -2.4701
    2MPD1    H714007   3.967   1.358  17.371  1.3066 -0.1477  1.1535
    3TMC3    C114008   4.078   0.628  17.120 -0.1335 -0.4087  0.0835
    3TMC3    C214009   4.178   0.664  17.033 -0.5873  0.4520  0.6577
    3TMC3    C314010   4.200   0.579  16.927 -0.4513  0.5916  0.4190
    3TMC3    C414011   3.986   0.527  17.092 -0.7349 -0.2126  0.0669
    3TMC3    C514012   4.006   0.459  16.978  0.4029 -0.6678  0.5375
    3TMC3    C614013   4.117   0.479  16.898  1.0632 -0.3045 -0.0016
    3TMC3     C14014   4.051   0.702  17.247 -0.4447  0.2275  0.4026
    3TMC3     O14015   3.993   0.636  17.330 -0.0773  0.0052  0.2253
    3TMC3     H14016   4.232   0.756  17.050  0.8954 -0.7610  2.5672
    3TMC3    H114017   3.914   0.504  17.170  1.0705  1.1568  2.1167
    3TMC3    H214018   4.137   0.413  16.815  2.3032 -0.0681  0.1114
    3TMC3    C714019   3.891   0.366  16.935  0.0705 -0.3255 -0.8908
    3TMC3    C814020   4.325   0.602  16.850 -0.6183  0.7525  0.3507
    3TMC3    O114021   3.894   0.326  16.820  0.2774  0.2747  0.1623
    3TMC3    O214022   4.413   0.672  16.904  0.0367  0.2729  0.6701
    4MPD1     C14023   4.683   0.503  16.487 -0.2938  0.1137  0.2859
    4MPD1    C114024   4.565   0.438  16.455 -0.4781 -0.0154 -0.0240
    4MPD1    C214025   4.453   0.448  16.538 -0.4574 -0.1582 -0.0944
    4MPD1    C314026   4.456   0.525  16.655 -0.8841 -0.5739 -0.1713
    4MPD1    C414027   4.577   0.577  16.694 -0.0804  0.4598 -0.1561
    4MPD1    C514028   4.690   0.561  16.608  0.1898 -0.0516 -0.0156
    4MPD1     H14029   4.357   0.406  16.509  0.4162 -1.5083 -1.0762
    4MPD1    H114030   4.605   0.634  16.782  0.1256 -1.6317  1.1305
    4MPD1    H214031   0.050   0.488  16.429  0.4410  1.2655  1.1366
    4MPD1    H314032   0.062   0.608  16.627  0.1058 -0.9713  2.6226
    4MPD1     N14033   4.338   0.530  16.731 -0.5881 -0.1930 -0.0052
    4MPD1    H514034   4.256   0.490  16.687 -0.2585  0.1304 -0.9122
    4MPD1    N114035   4.560   0.385  16.325 -0.0381  0.9083 -0.5581
    4MPD1    H614036   4.500   0.302  16.327 -2.2093  2.4639 -0.8696
    4MPD1    H714037   4.657   0.360  16.309 -0.1846  0.0883 -0.2001
    1TCq1    O114038   0.741   0.182  10.978  0.1467  0.2359  0.0433
    1TCq1    C114039   0.646   0.177  10.881 -0.4632 -0.1614  0.0319
    1TCq1    O214040   0.622   0.257  10.791  0.1737 -0.1611  0.4276
    1TCq1    C214041   0.531   0.104  10.942  0.1271 -0.0434 -0.0858
    1TCq1    C314042   0.402   0.132  10.895 -0.1047  0.3906 -0.4991
    1TCq1    C414043   0.293   0.043  10.902  1.5394  0.0352 -0.2699
    1TCq1    C514044   0.324   4.644  10.951  0.3826 -0.4533 -0.4301
    1TCq1    C614045   0.447   4.610  10.992 -0.3752 -0.1232 -0.0613
    1TCq1    C714046   0.549   4.702  11.001 -0.5645 -0.0306 -0.0612
    1TCq1    C814047   0.453   4.510  11.095 -0.9166 -0.5240 -0.2134
    1TCq1    O414048   0.383   4.410  11.080  0.2944 -0.0588 -0.1380
    1TCq1    C914049   0.194   0.041  10.794  0.1715  0.0932  0.2124
    1TCq1    O514050   0.183   0.148  10.721 -0.7013  0.0216 -0.0905
    1TCq1    O614051   0.181   4.658  10.730  0.1252 -0.5076  0.1004
    1TCq1    H114052   0.720   0.119  11.050 -0.5369 -0.4863 -0.7817
    1TCq1    H214053   0.379   0.226  10.846  0.8307  0.5327 -0.6673
    1TCq1    H314054   0.242   4.573  10.951 -0.0465  0.0379 -1.5344
    1TCq1    H414055   0.646   4.671  11.038  0.1401  0.4971 -1.4742
    2MPD1     C14056   0.494   4.362  11.578  0.3075 -0.7113 -0.0206
    2MPD1    C114057   0.542   4.499  11.570  0.4026 -0.1801 -0.7140
    2MPD1    C214058   0.552   4.549  11.444  0.3612 -0.0749 -0.5175
    2MPD1    C314059   0.499   4.484  11.332  0.2610  0.4107 -0.0384
    2MPD1    C414060   0.446   4.354  11.344  0.2484  0.1091  0.2613
    2MPD1    C514061   0.438   4.297  11.471 -0.0472  0.2027 -0.3652
    2MPD1     H14062   0.585   4.652  11.437 -0.5549  0.0760 -2.5323
    2MPD1    H114063   0.397   4.306  11.259  0.0043  0.0638  0.4273
    2MPD1    H214064   0.493   4.317  11.676 -0.7498  2.8845  1.6263
    2MPD1    H314065   0.409   4.195  11.490  1.5140 -0.4855 -1.6214
    2MPD1     N14066   0.513   4.553  11.210  0.2046  0.6416  0.2721
    2MPD1    H514067   0.553   4.645  11.220  0.0935  0.5251  1.8385
    2MPD1    N114068   0.588   4.560  11.683  0.0107 -0.2095  0.0401
    2MPD1    H614069   0.592   4.661  11.676  0.5306 -0.3483 -1.5707
    2MPD1    H714070   0.524   4.548  11.762 -1.2557 -0.2177 -0.9906
    1TCq1    O114071   2.036   3.924   2.507  0.2553  0.0054 -0.3198
    1TCq1    C114072   2.106   4.028   2.478  0.5809 -0.1481 -0.5594
    1TCq1    O214073   2.076   4.145   2.507  0.2592 -0.1021 -0.2185
    1TCq1    C214074   2.181   4.002   2.359  0.7810  0.5237 -0.4601
    1TCq1    C314075   2.273   3.901   2.361 -0.4839  0.5239  0.8618
    1TCq1    C414076   2.370   3.897   2.268  0.0845 -0.5859  0.2787
    1TCq1    C514077   2.375   3.994   2.173 -0.0278  0.0053 -0.9366
    1TCq1    C614078   2.279   4.091   2.159 -0.3062 -0.2542 -0.9053
    1TCq1    C714079   2.179   4.098   2.254  0.4110  0.1663 -0.8709
    1TCq1    C814080   2.307   4.220   2.100 -0.8535  0.4057 -0.8609
    1TCq1    O414081   2.257   4.321   2.153 -0.1054 -0.1183  0.0104
    1TCq1    C914082   2.489   3.827   2.297  0.2422  0.3166 -0.3190
    1TCq1    O514083   2.483   3.736   2.380 -0.5023 -0.3685 -0.0781
    1TCq1    O614084   2.592   3.881   2.249  0.1086  0.1521 -0.9262
    1TCq1    H114085   2.053   3.842   2.456 -0.6626 -1.1863  1.3088
    1TCq1    H214086   2.287   3.852   2.457  4.4033  4.0692  1.9255
    1TCq1    H314087   2.456   3.996   2.102  1.9992  0.6366  1.4185
    1TCq1    H414088   2.094   4.165   2.252 -0.1601 -0.4861  1.4461
    2MPD1     C14089   2.649   4.536   1.871  0.5991  0.0664 -0.0447
    2MPD1    C114090   2.658   4.411   1.812  0.2260  1.3830  0.1632
    2MPD1    C214091   2.580   4.304   1.861  0.4216 -0.2087 -0.1227
    2MPD1    C314092   2.486   4.326   1.964 -0.0784  0.1144  0.8156
    2MPD1    C414093   2.473   4.455   2.012  0.0168  0.3133 -0.5168
    2MPD1    C514094   2.552   4.561   1.974  0.1994 -0.0869  0.2946
    2MPD1     H14095   2.594   4.208   1.814 -0.5012  0.6777 -2.2060
    2MPD1    H114096   2.385   4.478   2.071  0.5485 -0.0060  0.3889
    2MPD1    H214097   2.720   4.610   1.837  1.3196  0.0750  1.4659
    2MPD1    H314098   2.537   4.656   2.024 -0.5658 -1.3302  2.4248
    2MPD1     N14099   2.411   4.216   2.008  0.0874  1.1805  0.4098
    2MPD1    H514100   2.420   4.135   1.947 -0.2697 -0.3761  2.3958
    2MPD1    N114101   2.768   4.385   1.733 -0.1789 -0.5047  0.0448
    2MPD1    H614102   2.749   4.304   1.675 -0.3176  1.4361 -2.6341
    2MPD1    H714103   2.793   4.465   1.674 -3.2173  1.0980  0.9223
    1MPD1     C14104   2.879   0.996  10.930 -0.0371 -0.1933 -0.1673
    1MPD1    C114105   2.952   0.971  11.046  0.0594 -0.6931 -0.2182
    1MPD1    C214106   2.988   0.839  11.070 -0.1308 -0.6067 -0.1492
    1MPD1    C314107   2.921   0.737  11.002 -0.8929  0.2185 -0.5800
    1MPD1    C414108   2.813   0.764  10.921  0.2264 -0.8116  0.1959
    1MPD1    C514109   2.809   0.896  10.870  0.0125  0.0986  0.8475
    1MPD1     H14110   3.055   0.814  11.151  0.6739  0.7962 -0.3711
    1MPD1    H114111   2.753   0.700  10.857  1.9609 -1.5916 -0.6455
    1MPD1    H214112   2.873   1.100  10.899 -0.1093 -0.1823 -0.1158
    1MPD1    H314113   2.745   0.918  10.785  1.3353  0.0070 -0.1732
    1MPD1     N14114   2.949   0.611  11.037  0.1397  0.0177  0.9201
    1MPD1    H514115   2.998   0.589  11.123  1.4373  2.3848  0.7746
    1MPD1    N114116   3.025   1.085  11.115  0.5495 -0.1995 -0.2171
    1MPD1    H614117   3.053   1.074  11.212 -3.7400 -2.2405  0.8116
    1MPD1    H714118   2.977   1.173  11.101  0.2844  0.2084  3.2494
    2MPD1     C14119   1.697   4.639  12.889 -0.1339 -0.0534  0.4220
    2MPD1    C114120   1.766   4.705  12.790  0.6988  0.5271  0.1502
    2MPD1    C214121   1.748   4.658  12.666  1.1110 -0.1476  0.4580
    2MPD1    C314122   1.659   4.556  12.632  0.1888 -0.3928  0.2455
    2MPD1    C414123   1.597   4.491  12.737  0.1100 -0.1370  0.4667
    2MPD1    C514124   1.613   4.539  12.865  0.5861  0.4098  0.9313
    2MPD1     H14125   1.805   4.709  12.589 -2.0608  0.6891 -1.3324
    2MPD1    H114126   1.543   4.398  12.723  0.5243 -0.6552  2.3682
    2MPD1    H214127   1.722   4.660  12.993 -0.0322  0.7796  0.2294
    2MPD1    H314128   1.553   4.494  12.943  0.7630  1.2614  1.5580
    2MPD1     N14129   1.638   4.506  12.500  0.3883  0.0403  0.8162
    2MPD1    H514130   1.577   4.430  12.472  0.4933 -0.4631  1.9227
    2MPD1    N114131   1.867   0.070  12.823 -0.4301  0.5939  0.3038
    2MPD1    H614132   1.834   0.119  12.905  1.9846 -1.1382  2.3086
    2MPD1    H714133   1.882   0.133  12.744 -1.3048  0.9741  0.4355
    3MPD1     C14134   0.921   4.247  12.136  0.3547  0.2116  0.2495
    3MPD1    C114135   0.974   4.240  12.257 -0.2702 -0.6610  0.1735
    3MPD1    C214136   1.111   4.267  12.268 -0.1750  0.0074  0.0516
    3MPD1    C314137   1.192   4.282  12.159 -0.0430 -0.0056  0.0155
    3MPD1    C414138   1.131   4.283  12.036  0.2536  0.0296 -0.0932
    3MPD1    C514139   0.995   4.282  12.027 -0.4037 -0.1580 -0.0714
    3MPD1     H14140   1.160   4.258  12.365  2.8752  1.3285 -1.3745
    3MPD1    H114141   1.183   4.289  11.941  0.5010  0.0472  0.0428
    3MPD1    H214142   0.813   4.241  12.125  0.3558  3.5533 -1.7101
    3MPD1    H314143   0.941   4.296  11.934 -2.3730 -2.1366  0.7635
    3MPD1     N14144   1.330   4.285  12.174 -0.0941  0.6760 -0.8067
    3MPD1    H514145   1.373   4.270  12.265  1.6600 -0.4661 -1.8185
    3MPD1    N114146   0.894   4.232  12.367 -0.1041 -0.4957  0.0854
    3MPD1    H614147   0.827   4.158  12.350 -0.5667 -0.1542  0.4301
    3MPD1    H714148   0.938   4.226  12.458 -0.1992 -2.2387  0.0144
    4MPD2     C14149   2.964   4.478  11.070 -0.3447  0.0825 -0.8598
    4MPD2    C114150   2.934   4.577  11.166 -0.0515 -0.2880  0.6610
    4MPD2    C214151   2.896   4.542  11.289  0.1462  0.4876  0.2308
    4MPD2    C314152   2.880   4.416  11.330  0.7130 -0.2525 -0.6686
    4MPD2    C414153   2.908   4.310  11.244 -0.1665 -0.7174  0.4675
    4MPD2    C514154   2.943   4.342  11.111  0.2824  0.2168  0.1733
    4MPD2     H14155   2.891   4.613  11.370  0.8692  1.3931 -0.5294
    4MPD2    H114156   2.883   4.207  11.269 -1.4613 -0.6602 -0.6205
    4MPD2    H214157   2.998   4.506  10.971 -0.4488 -1.6550 -1.3955
    4MPD2    H314158   2.970   4.264  11.040  3.9078  1.2741  0.3580
    4MPD2     N14159   2.825   4.407  11.462  0.2937 -0.2706  0.2398
    4MPD2    H514160   2.813   4.492  11.515  0.9457  1.1133 -1.8325
    4MPD2    N114161   2.961   4.708  11.144  0.4052  0.6832 -0.3800
    4MPD2    H714162   2.980   0.040  11.226  0.9464 -0.1812  0.0901
    5TMC3    C114163   3.055   0.178  11.048 -0.1170 -0.0733  0.2242
    5TMC3    C214164   2.975   0.272  10.988  0.6215 -0.3619 -0.0052
    5TMC3    C314165   2.921   0.380  11.050 -0.2114 -0.5772  0.5222
    5TMC3    C414166   3.088   0.191  11.179  0.6249  0.0338 -0.0648
    5TMC3    C514167   3.027   0.293  11.245  0.4240 -0.1316 -0.3817
    5TMC3    C614168   2.944   0.394  11.185 -1.0707 -0.1405  0.7771
    5TMC3     C14169   3.007   0.043  11.027  0.2467  0.1456  0.8184
    5TMC3     O14170   2.987   0.009  10.907 -0.6104 -0.0551  0.3405
    5TMC3     H14171   2.944   0.265  10.884 -1.1295  0.2089  0.4811
    5TMC3    H114172   3.146   0.117  11.234 -0.3901 -0.1393  0.7626
    5TMC3    H214173   2.887   0.466  11.243 -0.7835 -0.6706  1.7056
    5TMC3    C714174   2.996   0.249  11.380  0.0004  0.1716 -0.0555
    5TMC3    C814175   2.899   0.503  10.971 -0.0085 -0.2933  0.7149
    5TMC3    O114176   3.005   0.131  11.402  0.6326 -0.3009 -0.2329
    5TMC3    O214177   2.852   0.493  10.857  0.5579 -0.2849 -0.0232
    6TMC3    C114178   1.684   4.462  12.272  0.5636  0.7704  0.6950
    6TMC3    C214179   1.562   4.418  12.245 -0.2815 -0.3101  0.1267
    6TMC3    C314180   1.553   4.354  12.123 -0.1911  0.0472 -0.7241
    6TMC3    C414181   1.796   4.441  12.197  0.1238  0.5855  0.0998
    6TMC3    C514182   1.777   4.397  12.070  0.0352 -0.4403 -0.2345
    6TMC3    C614183   1.649   4.346  12.034  0.5598  0.3040 -0.0441
    6TMC3     C14184   1.713   4.546  12.387  0.6119 -0.5301 -0.1073
    6TMC3     O14185   1.826   4.599  12.393 -0.6462 -0.6626 -0.1476
    6TMC3     H14186   1.482   4.442  12.314 -0.5417  0.2290 -0.3621
    6TMC3    H114187   1.893   4.479  12.227 -0.1140  0.9778  0.3770
    6TMC3    H214188   1.627   4.304  11.937 -2.4454  1.4712  0.1401
    6TMC3    C714189   1.896   4.375  11.988 -0.0562  0.3454  0.4458
    6TMC3    C814190   1.420   4.316  12.072  0.1406 -0.0288  0.1553
    6TMC3    O114191   2.000   4.429  12.033 -0.4163 -0.4422 -0.0994
    6TMC3    O214192   1.406   4.333  11.953 -0.1710 -0.1047 -0.2995
    7MPD2     C14193   2.697   0.301  11.801  0.2044  0.2968  0.4721
    7MPD2    C114194   2.746   0.191  11.731  0.0046 -0.5373  0.0693
    7MPD2    C214195   2.835   0.213  11.624 -0.1399 -0.4841 -0.2019
    7MPD2    C314196   2.872   0.335  11.573 -0.0397  0.4926 -0.4076
    7MPD2    C414197   2.828   0.446  11.643  0.5879  0.4649 -0.5049
    7MPD2    C514198   2.752   0.427  11.763 -0.7417 -0.4840  0.8696
    7MPD2     H14199   2.871   0.123  11.575 -1.4502 -1.4381  0.5686
    7MPD2    H114200   2.854   0.551  11.629  1.0404  0.5989  1.2655
    7MPD2    H214201   2.633   0.302  11.888 -0.6600  0.2754 -0.1671
    7MPD2    H314202   2.723   0.515  11.821 -1.0487  0.4547 -0.6995
    7MPD2     N14203   2.941   0.348  11.452 -0.1756  0.0092  0.1771
    7MPD2    H514204   2.962   0.445  11.430 -0.6954  0.3322  1.1038
    7MPD2    N114205   2.715   0.065  11.781  0.2006  0.0597 -0.3011
    7MPD2    H714206   2.669   0.068  11.871  1.0431 -0.8904  0.1611
    8TMC3    C114207   2.723   4.538  11.788 -0.4936 -0.3691 -1.0651
    8TMC3    C214208   2.594   4.512  11.819  0.1957 -0.2577 -0.1311
    8TMC3    C314209   2.533   4.399  11.765 -0.0272  0.0698 -0.0559
    8TMC3    C414210   2.786   4.443  11.713  0.3483 -0.3230 -0.0076
    8TMC3    C514211   2.732   4.331  11.661 -0.1811  0.5340  0.6706
    8TMC3    C614212   2.601   4.309  11.683 -0.1963  0.0200 -0.4682
    8TMC3     C14213   2.736   4.666  11.715  0.3087  0.1408 -0.3909
    8TMC3     O14214   2.759   4.653  11.597  0.2442  0.1203 -0.0063
    8TMC3     H14215   2.535   4.576  11.883  1.6945  1.8386 -0.8709
    8TMC3    H114216   2.890   4.470  11.702  1.0179 -1.5851  2.9253
    8TMC3    H214217   2.546   4.229  11.637  0.1973 -1.4077  1.5231
    8TMC3    C714218   2.766   4.305  11.522 -0.2733 -0.2114 -0.4801
    8TMC3    C814219   2.394   4.391  11.790  0.2679 -0.4151  0.4567
    8TMC3    O114220   2.738   4.199  11.471 -0.0751  0.3061 -0.0614
    8TMC3    O214221   2.357   4.432  11.898 -0.5195 -0.2812  0.3044
    9MPD2     C14222   2.153   4.229  11.565 -0.0785  0.5899 -0.1782
    9MPD2    C114223   2.195   4.300  11.675  0.0223 -0.5395  0.7779
    9MPD2    C214224   2.103   4.330  11.777 -0.5094  0.0930  0.0739
    9MPD2    C314225   1.971   4.282  11.768 -0.1525 -0.9302  0.1469
    9MPD2    C414226   1.942   4.189  11.661 -0.3903 -0.2587  0.8241
    9MPD2    C514227   2.026   4.184  11.552  0.3740  0.0158 -0.1738
    9MPD2     H14228   2.124   4.388  11.866 -1.1714  2.2141 -1.1380
    9MPD2    H114229   1.840   4.152  11.660 -0.0734 -1.0701 -0.5658
    9MPD2    H214230   2.220   4.219  11.481  1.5053 -1.4773  1.3165
    9MPD2    H314231   2.000   4.124  11.465  1.5079  1.0242 -1.2278
    9MPD2     N14232   1.870   4.313  11.866 -0.4226  0.2225  0.3563
    9MPD2    H514233   1.775   4.288  11.840 -1.0121  0.5651  2.1463
    9MPD2    N114234   2.326   4.344  11.679 -0.4537 -0.3122  0.5829
    9MPD2    H714235   2.381   4.338  11.593  1.1758 -1.1624  1.6821
    1MPD1     C14236   2.658   3.973  17.319 -0.2171  0.9602 -0.4102
    1MPD1    C114237   2.619   3.846  17.333 -0.2356  0.2653  0.1869
    1MPD1    C214238   2.536   3.781  17.249  0.2435 -0.2372  0.0915
    1MPD1    C314239   2.487   3.856  17.141 -0.3514 -0.3491  0.1676
    1MPD1    C414240   2.518   3.989  17.126  0.6066 -1.0156  0.3617
    1MPD1    C514241   2.611   4.048  17.212  0.3698  0.2506  0.1008
    1MPD1     H14242   2.511   3.676  17.260 -2.1144  0.4332  0.9376
    1MPD1    H114243   2.471   4.046  17.047  0.2658 -1.0030  0.5761
    1MPD1    H214244   2.716   4.014  17.402 -0.0079 -0.8717  0.3496
    1MPD1    H314245   2.650   4.150  17.207 -1.3142  0.8857 -0.1205
    1MPD1     N14246   2.403   3.807  17.045  0.4766  0.2296 -0.2050
    1MPD1    H514247   2.385   3.869  16.966  1.3606  0.7087 -0.0347
    1MPD1    N114248   2.656   3.774  17.453 -0.5233 -0.2191 -0.0897
    1MPD1    H614249   2.751   3.794  17.482 -0.1723 -2.0900  0.0717
    1MPD1    H714250   2.663   3.677  17.421 -3.3156 -0.4164 -0.1655
    2MPD1     C14251   2.334   2.825  16.607 -1.2553  0.1247  0.1021
    2MPD1    C114252   2.365   2.933  16.521 -0.9135 -0.0261  0.1641
    2MPD1    C214253   2.333   3.061  16.553  0.0161 -0.4370 -0.7766
    2MPD1    C314254   2.284   3.096  16.678  0.8184  0.0908 -0.4482
    2MPD1    C414255   2.252   2.990  16.763 -0.6148  0.3672 -0.3149
    2MPD1    C514256   2.276   2.862  16.726  0.4043 -0.0411 -0.0054
    2MPD1     H14257   2.353   3.137  16.478 -1.0959 -0.4250 -1.0511
    2MPD1    H114258   2.202   2.996  16.860  1.0265 -0.9381  0.6162
    2MPD1    H214259   2.342   2.720  16.582 -0.4109  0.7572 -2.3361
    2MPD1    H314260   2.246   2.781  16.792 -1.0593  2.4940  2.4336
    2MPD1     N14261   2.258   3.229  16.710  0.0217 -0.2778  0.2464
    2MPD1    H514262   2.281   3.294  16.635 -1.0877 -0.0673  0.0851
    2MPD1    N114263   2.447   2.909  16.407  0.1778 -0.1021 -0.0946
    2MPD1    H614264   2.436   2.813  16.373  0.1481  0.2556 -1.0906
    2MPD1    H714265   2.426   2.972  16.330  0.3406 -1.0917 -0.9526
    3TCq2    C114266   2.210   3.281  16.829  0.3763  0.0275 -0.7828
    3TCq2    O214267   2.187   3.230  16.939  0.1188  0.1967  0.1790
    3TCq2    C214268   2.229   3.426  16.815 -0.7102 -0.6164  0.3151
    3TCq2    C314269   2.268   3.490  16.696  0.4271 -0.1395 -0.3558
    3TCq2    C414270   2.301   3.625  16.694  0.2630  0.0734 -0.2802
    3TCq2    C514271   2.310   3.698  16.809  0.1204 -0.1402 -0.0276
    3TCq2    C614272   2.277   3.634  16.924 -0.2778 -0.4593  0.3598
    3TCq2    C714273   2.237   3.503  16.928 -0.3074  0.1970 -1.0152
    3TCq2    C814274   2.337   3.687  17.048 -0.3900 -0.1700 -0.0589
    3TCq2    O414275   2.333   3.605  17.143  0.5431  0.5732  0.1535
    3TCq2    C914276   2.322   3.695  16.568  0.0715 -0.1636  0.3694
    3TCq2    O514277   2.359   3.817  16.573 -0.4839 -0.1299  0.0598
    3TCq2    O614278   2.299   3.632  16.463  0.4783  0.3150 -0.1457
    3TCq2    H214279   2.249   3.434  16.605 -0.6836  3.2607 -2.2044
    3TCq2    H314280   2.327   3.805  16.803 -0.0098 -0.1541 -0.6693
    3TCq2    H414281   2.210   3.456  17.022  2.0307  1.2228  0.1713
    1TCq1    O114282   0.214   2.927  12.605  0.3249 -0.0510 -0.6630
    1TCq1    C114283   0.113   2.840  12.615  0.6807 -0.6710 -0.1817
    1TCq1    O214284   0.032   2.823  12.526 -0.6783  0.4779 -1.1198
    1TCq1    C214285   0.082   2.818  12.754 -0.5480  0.3334  0.5151
    1TCq1    C314286   4.709   2.731  12.778  0.3426 -0.6333 -0.6185
    1TCq1    C414287   4.644   2.753  12.895 -0.1413  0.1203 -0.3321
    1TCq1    C514288   4.700   2.827  12.991  0.1886  0.1640 -0.3897
    1TCq1    C614289   0.083   2.903  12.963 -0.1471  0.6913 -0.7967
    1TCq1    C714290   0.144   2.896  12.845 -0.7111  0.6362 -0.3620
    1TCq1    C814291   0.180   2.942  13.070 -0.2361  0.3188 -0.1043
    1TCq1    O414292   0.275   3.003  13.029  0.2655  1.2291 -0.2064
    1TCq1    C914293   4.521   2.695  12.929 -0.7487 -0.0663 -0.3135
    1TCq1    O514294   4.488   2.683  13.051  0.1247 -0.7888 -0.3482
    1TCq1    O614295   4.471   2.620  12.849 -0.4746 -0.0176  0.7509
    1TCq1    H114296   0.282   2.916  12.675 -0.4762  2.6864  0.5651
    1TCq1    H214297   4.663   2.671  12.700  0.8151 -1.6625 -0.1102
    1TCq1    H314298   4.649   2.852  13.084 -1.5845 -0.4389 -1.1966
    1TCq1    H414299   0.217   2.974  12.829  3.0380 -2.3341  2.3524
    2MPD2     C14300   0.385   2.905  13.273  0.1883  0.0483 -0.0643
    2MPD2    C114301   0.269   2.839  13.277  0.2154 -0.3947 -0.1973
    2MPD2    C214302   0.255   2.729  13.358  0.1310  0.0348 -0.5930
    2MPD2    C314303   0.358   2.685  13.430 -0.4446  0.2166  0.3383
    2MPD2    C414304   0.473   2.757  13.428 -0.0205  0.0885 -0.4397
    2MPD2    C514305   0.487   2.870  13.352  0.2112 -0.1652 -0.1108
    2MPD2     H14306   0.160   2.678  13.351 -0.1383  0.1217  2.4906
    2MPD2    H114307   0.556   2.736  13.493 -0.3166 -1.5162 -0.5771
    2MPD2    H214308   0.411   2.989  13.211  0.4873  0.0977  0.1296
    2MPD2    H314309   0.585   2.915  13.342 -0.3809  0.7592 -1.7402
    2MPD2     N14310   0.338   2.569  13.502 -0.0337  0.5211  0.0651
    2MPD2    H514311   0.248   2.522  13.500 -0.5499  1.5260 -0.1439
    2MPD2    N114312   0.167   2.871  13.183  0.1947  0.4712 -0.4140
    2MPD2    H714313   0.086   2.810  13.190  0.6378  0.1896  2.2328
    3TCq1    O114314   0.151   2.208  13.865  0.1350 -0.2706  0.0156
    3TCq1    C114315   0.126   2.179  13.734 -0.8406  0.0355  0.9694
    3TCq1    O214316   0.059   2.086  13.700 -0.0282  0.2950  0.3132
    3TCq1    C214317   0.245   2.204  13.657 -0.4859  0.5939  0.6462
    3TCq1    C314318   0.317   2.095  13.614  0.2035  0.3539 -0.2752
    3TCq1    C414319   0.434   2.121  13.551  0.1900 -0.4552  0.0683
    3TCq1    C514320   0.480   2.253  13.540  0.1796 -0.3397  0.6658
    3TCq1    C614321   0.404   2.357  13.587 -0.0437 -0.6516 -0.4967
    3TCq1    C714322   0.286   2.337  13.651 -0.4189 -0.5350  0.4719
    3TCq1    C814323   0.445   2.491  13.542 -0.6170  0.4395 -0.4195
    3TCq1    O414324   0.566   2.523  13.543 -0.0203 -0.0053  0.9840
    3TCq1    C914325   0.520   2.010  13.511  1.1730 -0.8366  0.3956
    3TCq1    O514326   0.458   1.905  13.477 -0.0777  0.3963  0.3393
    3TCq1    O614327   0.643   2.035  13.486  0.0826 -0.1961 -0.0157
    3TCq1    H114328   0.241   2.245  13.879  0.1628  0.2710 -1.6687
    3TCq1    H214329   0.274   1.996  13.612  0.1212  0.3919 -0.4780
    3TCq1    H314330   0.571   2.277  13.487 -1.4039  2.2665 -0.8612
    3TCq1    H414331   0.216   2.415  13.680 -1.2441 -1.4849  1.0279
    1MPD2     C14332   4.014   3.419  14.997 -0.0966  0.6698 -0.3528
    1MPD2    C114333   3.929   3.411  14.883 -0.5734 -0.0044 -0.7835
    1MPD2    C214334   3.924   3.291  14.813  0.0106  0.1504 -0.3456
    1MPD2    C314335   3.997   3.182  14.865 -0.3022  0.3670 -0.2049
    1MPD2    C414336   4.087   3.187  14.973 -0.0525 -0.2350 -0.1643
    1MPD2    C514337   4.091   3.313  15.033  0.4984  0.0207  0.0778
    1MPD2     H14338   3.859   3.296  14.727  1.9087 -0.8730 -1.8151
    1MPD2    H114339   4.152   3.109  15.009 -0.2293 -0.2477  0.1282
    1MPD2    H214340   4.015   3.518  15.040  1.9997  1.0502 -1.2987
    1MPD2    H314341   4.157   3.315  15.118  0.9483 -2.1189 -0.2278
    1MPD2     N14342   4.005   3.065  14.788  0.1209 -0.0814 -0.2466
    1MPD2    H514343   4.075   2.993  14.803  1.7487  1.3179 -1.1288
    1MPD2    N114344   3.853   3.515  14.832 -0.0494  0.1603  0.0050
    1MPD2    H714345   3.791   3.497  14.753  0.5646  1.5535 -0.7975
    2TMC3    C114346   3.745   3.713  14.798 -0.4163 -0.3126  0.0400
    2TMC3    C214347   3.636   3.649  14.749  0.0432 -0.1034 -0.3250
    2TMC3    C314348   3.553   3.706  14.663 -0.0095 -0.5318  0.0384
    2TMC3    C414349   3.776   3.832  14.748 -0.3454 -0.4072  0.0958
    2TMC3    C514350   3.700   3.884  14.653  0.8318 -0.4353  0.3179
    2TMC3    C614351   3.583   3.827  14.609 -0.3131 -0.1435  0.0732
    2TMC3     C14352   3.844   3.643  14.878 -0.1982  0.3843  0.0288
    2TMC3     O14353   3.916   3.703  14.951  0.2040  0.4400 -0.1078
    2TMC3     H14354   3.608   3.547  14.772  1.5503 -0.9867 -2.3677
    2TMC3    H114355   3.863   3.883  14.788 -0.6263  1.7129 -2.0301
    2TMC3    H214356   3.519   3.871  14.534  0.3632 -0.0902 -0.4708
    2TMC3    C714357   3.724   4.017  14.598  0.1852  0.1123 -1.0402
    2TMC3    C814358   3.479   3.619  14.569  1.3281  0.4826 -0.6997
    2TMC3    O114359   3.628   4.077  14.556  0.0875  0.2192 -0.2505
    2TMC3    O214360   3.363   3.653  14.545 -0.0450 -0.4979  0.1261
    3TCq1    O114361   0.169   4.560  14.739  0.0850 -0.3538  0.3997
    3TCq1    C114362   0.058   4.559  14.655 -0.4707 -0.4978 -0.4560
    3TCq1    O214363   0.048   4.614  14.547  0.1399  0.3283 -0.3376
    3TCq1    C214364   4.678   4.467  14.708  0.0317 -0.3699  0.0450
    3TCq1    C314365   4.714   4.347  14.759  0.7434  0.6737 -0.1591
    3TCq1    C414366   4.616   4.253  14.765  0.4477 -0.2110  0.0979
    3TCq1    C514367   4.493   4.276  14.726 -0.2621  0.2727  0.0002
    3TCq1    C614368   4.459   4.392  14.661 -0.1287  0.1134 -0.3101
    3TCq1    C714369   4.555   4.491  14.655 -0.2629  0.6466  0.0934
    3TCq1    C814370   4.331   4.411  14.593 -0.5771  0.2336  0.6917
    3TCq1    O414371   4.321   4.505  14.517 -0.6032 -0.5284  0.2054
    3TCq1    C914372   4.653   4.121  14.808 -0.4240 -0.2745 -0.3140
    3TCq1    O514373   4.564   4.031  14.821  0.6397 -0.2790 -0.0464
    3TCq1    O614374   0.056   4.100  14.824  0.6547  0.5004 -0.0808
    3TCq1    H114375   0.163   4.519  14.828  0.3791 -0.1177  0.5292
    3TCq1    H214376   0.091   4.325  14.792  1.0651 -0.0345 -1.5884
    3TCq1    H314377   4.417   4.203  14.752  0.4989 -0.7384 -0.5880
    3TCq1    H414378   4.544   4.582  14.598  0.9896  0.8064  0.1136
    4MPD2     C14379   4.056   4.386  14.466  0.3749  0.4480 -0.4313
    4MPD2    C114380   4.122   4.295  14.551  0.1649 -0.2598  0.1769
    4MPD2    C214381   4.050   4.196  14.608 -0.3362 -0.1372 -0.4681
    4MPD2    C314382   3.918   4.176  14.573  0.4884  0.7782 -0.6438
    4MPD2    C414383   3.849   4.267  14.486 -0.2264 -0.1101 -0.0785
    4MPD2    C514384   3.918   4.372  14.443 -0.2066 -0.3835  0.0301
    4MPD2     H14385   4.108   4.136  14.678  1.0827 -1.2263 -2.5535
    4MPD2    H114386   3.743   4.254  14.466 -0.2555  1.0247 -0.6796
    4MPD2    H214387   4.110   4.469  14.422  0.8171  0.9572  1.0715
    4MPD2    H314388   3.862   4.453  14.397  0.7079 -0.3777 -1.0873
    4MPD2     N14389   3.852   4.057  14.626  0.5260  0.3158  0.2508
    4MPD2    H514390   3.907   3.978  14.659  2.9264  2.3918  1.2103
    4MPD2    N114391   4.248   4.312  14.616 -0.6675  0.4366  0.0503
    4MPD2    H714392   4.279   4.238  14.678  1.1182  1.8906  0.9009
    5TMC2    C114393   3.892   3.006  14.348  0.1162  0.3424 -0.0880
    5TMC2    C214394   4.018   3.016  14.309  0.5524 -0.2395  0.5266
    5TMC2    C314395   4.118   3.005  14.400 -1.4209 -0.4863 -0.2282
    5TMC2    C414396   3.869   2.970  14.482 -0.6961 -0.1665 -0.2041
    5TMC2    C514397   3.969   2.974  14.576 -0.4322  1.1386 -0.0071
    5TMC2    C614398   4.100   2.996  14.535  0.1001  0.4621 -0.1022
    5TMC2     C14399   3.820   3.121  14.302 -0.7519 -0.4072 -0.0217
    5TMC2     O14400   3.883   3.222  14.320 -0.3789 -0.0823  0.4299
    5TMC2     H14401   4.042   3.013  14.203 -0.2464 -0.0553  0.3395
    5TMC2    H114402   3.770   2.934  14.507  0.0527 -1.2463  1.1907
    5TMC2    H214403   4.180   2.994  14.609  0.5398 -1.3778 -0.6240
    5TMC2    C714404   3.913   3.040  14.687  0.2560  0.0505  0.2077
    5TMC2    C814405   4.260   2.976  14.362 -0.0131 -0.4835 -0.1358
    5TMC2    O114406   3.797   3.065  14.686  0.4110 -0.1240  0.7432
    5TMC2    O214407   4.339   2.920  14.438  0.2671 -0.2210  0.2456
    5TMC2    O514408   4.290   3.054  14.256 -1.5189 -0.7626 -0.1733
    5TMC2    H514409   4.221   3.107  14.212 -0.0662  2.0212  0.8929
    6MPD2     C14410   3.390   3.363  14.451 -0.6645  0.2976  0.3218
    6MPD2    C114411   3.524   3.407  14.459  0.2973  0.0516  0.5527
    6MPD2    C214412   3.628   3.323  14.405 -0.5298 -0.0553  0.0244
    6MPD2    C314413   3.592   3.198  14.356 -0.2626 -0.0106  0.8346
    6MPD2    C414414   3.462   3.150  14.359  0.8085  0.2539 -0.5980
    6MPD2    C514415   3.360   3.241  14.399 -0.2076 -0.1311 -0.1348
    6MPD2     H14416   3.732   3.354  14.415 -0.0399 -1.3667 -1.0328
    6MPD2    H114417   3.426   3.049  14.346  0.3282  0.3479 -0.0094
    6MPD2    H214418   3.314   3.429  14.492 -0.5446 -1.3473  3.1920
    6MPD2    H314419   3.258   3.206  14.413  0.4279 -2.5285 -1.3959
    6MPD2     N14420   3.685   3.095  14.309 -0.0263  0.1028 -0.1116
    6MPD2    H514421   3.647   3.001  14.311 -0.1337  0.1398 -0.4243
    6MPD2    N114422   3.564   3.526  14.517 -0.1081  0.1000  0.1728
    6MPD2    H714423   3.663   3.534  14.538 -0.2007 -0.9569  1.0195
  945NH3     N114424   0.106   1.757  16.041 -0.1931  0.4391 -0.1049
  945NH3     H214425   0.176   1.691  16.008 -1.9447 -0.5076 -1.9095
  945NH3     H314426   0.160   1.826  16.091  1.7949 -1.1757 -0.0216
  945NH3     H414427   0.074   1.807  15.959 -1.4256 -0.7260 -0.3382
  946SOD     NA14428   3.666   1.626   8.893  0.0775  0.5205 -0.3533
  947SOD     NA14429   0.953   2.316  14.128 -0.1539 -0.2141  0.3685
  948SOD     NA14430   4.375   3.940  14.834 -0.2991 -0.5175 -0.3906
  949SOD     NA14431   0.022   2.460  11.872  0.0981 -0.4481  0.0836
  950SOD     NA14432   2.678   4.074  15.791 -0.0198 -0.4791  0.1174
  951SOD     NA14433   1.120   2.078   7.750  0.3551  0.2329 -0.0923
  952SOD     NA14434   2.236   2.443  10.735 -0.1017 -0.2154 -0.5971
  953SOD     NA14435   2.457   1.796   6.802 -0.3506 -0.0079 -0.7716
  954SOD     NA14436   0.432   2.007  12.408 -0.0825  0.1385 -0.4141
  955SOD     NA14437   1.544   1.427  12.319 -0.0639  0.0379 -0.0197
  956SOD     NA14438   0.040   4.522  10.643  0.3054  0.0384  0.4230
  957SOD     NA14439   1.357   3.556  12.984 -0.3474  0.0639 -0.5102
  958SOD     NA14440   2.018   3.144  17.048 -0.1482 -0.1474  0.0520
  959SOD     NA14441   2.023   1.430  15.088 -0.0196  0.4826 -0.0388
  960SOD     NA14442   3.118   1.948   9.551 -0.2677  0.0493 -0.0875
  961SOD     NA14443   2.395   2.560  17.570 -0.4516 -0.1495 -0.1536
  962SOD     NA14444   0.004   2.979  12.373 -0.2285  0.0445 -0.0094
  963SOD     NA14445   1.008   0.479   2.438  0.0201  0.1113  0.1226
  964SOD     NA14446   2.916   1.781  12.812  0.2090 -0.4147  0.2944
  965SOD     NA14447   1.672   4.245   2.430  0.8821 -0.2722 -0.2116
  966SOD     NA14448   3.706   1.957  15.110  0.2725  0.1842 -0.1096
  967SOD     NA14449   3.744   0.741   1.852 -0.5101 -0.2457  0.3183
  968SOD     NA14450   0.358   0.129   5.958  0.2784  0.5809 -0.1332
  969SOD     NA14451   0.630   1.694  11.422  0.2170 -0.4456  0.1343
  970SOD     NA14452   1.471   3.689  17.431 -0.0733  0.0674 -0.3299
  971SOD     NA14453   2.260   1.628  14.132  0.1149  0.2099  0.0744
  972SOD     NA14454   3.897   3.924   1.172  0.0608  0.4530 -0.0751
  973SOD     NA14455   3.747   3.242  11.111 -0.1252 -0.6511  0.1797
  974SOD     NA14456   1.571   1.015  12.942 -0.1775 -0.1359  0.0061
  975SOD     NA14457   3.201   2.530   8.942 -0.4228  0.1643 -0.0065
  976SOD     NA14458   2.848   2.581   3.137 -0.3749  0.3325  0.0331
  977SOD     NA14459   3.998   2.998  10.771 -0.6934 -0.0131  0.0361
  978SOD     NA14460   0.896   1.986   0.936 -0.0923  0.1702  0.4224
  979SOD     NA14461   2.906   1.919  15.203 -0.4896 -0.6780  0.4752
  980SOD     NA14462   0.835   2.574  14.291  0.4571 -0.0569 -0.1514
  981SOD     NA14463   4.089   3.247  10.589 -0.0010 -0.2150  0.6527
  982SOD     NA14464   1.082   2.635  14.439 -0.1870 -0.1789  0.3179
  983SOD     NA14465   0.334   0.790  17.397 -0.4778 -0.3262  0.0707
  984SOD     NA14466   2.975   2.735  11.326 -0.1341 -0.4171 -0.1022
  985SOD     NA14467   1.585   2.273   2.837  0.2064  0.4326  0.6376
  986SOD     NA14468   3.421   2.467   4.650  0.0906  0.0667 -0.3729
  987SOD     NA14469   1.490   1.913  17.414 -0.1872 -0.5824  0.3655
  988SOD     NA14470   3.531   0.415  13.637  0.1566  0.0839 -0.3622
  989SOD     NA14471   3.161   2.691  16.375 -0.1802 -0.3345 -0.2277
  990SOD     NA14472   3.487   2.560   8.842 -0.3993 -0.1129 -0.3788
  991SOD     NA14473   1.767   3.288  14.615 -0.1251 -0.0191  0.8426
  992SOD     NA14474   0.120   3.561  14.815 -0.1628 -0.0077 -0.3209
  993SOD     NA14475   3.258   0.273   9.502 -0.2263  0.0807  0.1597
  994SOD     NA14476   0.248   3.215  12.337 -0.3194  0.1728 -0.0204
  995SOD     NA14477   1.021   3.968  16.196 -0.2734  0.0529  0.0300
  996SOD     NA14478   1.686   2.035   1.400  0.3562  0.1304  0.1168
  997SOD     NA14479   4.522   3.173  11.638  0.3494 -0.2890 -0.3372
  998SOD     NA14480   4.287   4.224  10.976 -0.3127  0.3805  0.2862
  999SOD     NA14481   4.171   1.772  10.353 -0.4473 -0.0081  0.2584
 1000SOD     NA14482   0.291   2.952   2.454 -0.0207  0.1806 -0.4284
 1001SOD     NA14483   4.168   1.717  10.025 -0.6035 -0.2567 -0.3487
 1002SOD     NA14484   1.853   3.503  14.939  0.1356  0.6954 -0.1263
 1003SOD     NA14485   0.819   2.257  11.408 -0.3481  0.0288  0.2282
 1004SOD     NA14486   4.662   1.840  10.509  0.0463  0.0284  0.0976
 1005SOD     NA14487   4.430   2.394  12.850  0.2910  0.6186  0.0334
 1006SOD     NA14488   4.414   2.038  10.407  0.0327 -0.0650  0.2314
 1007SOD     NA14489   0.844   2.676  11.163  0.3750 -0.3095  0.0948
 1008SOD     NA14490   4.715   3.883  14.728  0.3536  0.1950 -0.2377
 1009SOD     NA14491   3.484   3.206   3.400 -0.2939 -0.3824 -0.1023
 1010SOD     NA14492   0.244   0.024  10.541  0.0712 -0.0021 -0.1883
 1011SOD     NA14493   3.398   4.348   3.157  0.2100  0.0931 -0.0282
 1012SOL     OW14494   0.029   3.202   5.935  0.5517  0.3178 -1.0371
 1012SOL    HW114495   0.004   3.181   5.845  2.8526 -3.4474 -0.8054
 1012SOL    HW214496   4.723   3.292   5.944 -0.5879 -0.0633 -0.9853
 1013SOL     OW14497   0.104   0.959  11.593  0.4630 -0.0239 -0.3836
 1013SOL    HW114498   0.043   0.986  11.524 -0.7922  1.0141  1.1407
 1013SOL    HW214499   0.170   0.904  11.550  0.8332  0.4954 -0.4845
 1014SOL     OW14500   2.203   4.709   6.876  0.0794 -0.1490 -0.3459
 1014SOL    HW114501   2.293   0.017   6.880 -0.0479  0.0667  0.8268
 1014SOL    HW214502   2.177   4.712   6.783 -2.1173  0.0211  0.2555
 1015SOL     OW14503   3.472   0.945   4.696 -0.2700  0.0129  0.1564
 1015SOL    HW114504   3.426   0.965   4.614  0.6632  0.7324 -0.1824
 1015SOL    HW214505   3.402   0.982   4.750  1.3038 -1.5941  3.3155
 1016SOL     OW14506   0.678   2.727   4.733  0.6050 -0.7234 -0.0068
 1016SOL    HW114507   0.753   2.785   4.717 -0.5176  0.8725  0.5509
 1016SOL    HW214508   0.603   2.778   4.702  2.2795  1.1896 -0.8749
 1017SOL     OW14509   1.333   1.576   4.091 -0.2049  0.3966 -0.6742
 1017SOL    HW114510   1.239   1.591   4.084 -0.1577  0.8082 -0.3970
 1017SOL    HW214511   1.371   1.611   4.010  1.7321 -1.0401 -0.3830
 1018SOL     OW14512   0.905   2.334  17.645 -0.0343 -0.2255 -0.3779
 1018SOL    HW114513   0.890   2.345  17.551  2.0688 -2.4839 -0.9709
 1018SOL    HW214514   0.849   2.401  17.684 -0.0936  0.9987 -2.5734
 1019SOL     OW14515   4.281   3.703  11.369 -0.0183 -0.3774  0.2758
 1019SOL    HW114516   4.241   3.733  11.287  2.7302  2.2650 -0.1017
 1019SOL    HW214517   4.318   3.620  11.340 -1.5955 -1.0952  0.2995
 1020SOL     OW14518   3.066   1.079   0.807 -0.0730 -0.0363  0.4229
 1020SOL    HW114519   3.102   1.166   0.828 -0.4936 -0.3868  2.6383
 1020SOL    HW214520   3.075   1.085   0.712 -1.5559  0.5427  0.3161
 1021SOL     OW14521   3.146   0.808   6.119  0.8978 -0.7017  0.2912
 1021SOL    HW114522   3.230   0.834   6.155  1.1014 -3.4523  1.8169
 1021SOL    HW214523   3.083   0.864   6.164 -0.5514 -0.8249 -1.5761
 1022SOL     OW14524   2.881   0.763   5.590 -0.7586 -0.0570  0.0179
 1022SOL    HW114525   2.909   0.675   5.614 -0.0212 -0.4667 -2.3519
 1022SOL    HW214526   2.785   0.761   5.591 -0.7327 -0.8117  1.1700
 1023SOL     OW14527   4.258   0.245   3.559 -0.1764  0.0164  0.5654
 1023SOL    HW114528   4.180   0.276   3.515  1.0183 -0.2521 -1.7333
 1023SOL    HW214529   4.259   0.316   3.623 -1.3187 -0.4994  1.1579
 1024SOL     OW14530   2.900   4.016  13.746  0.4962  0.8915 -0.5904
 1024SOL    HW114531   2.917   4.093  13.800 -0.9827 -0.0389  1.2199
 1024SOL    HW214532   2.940   3.949  13.801  0.9457  1.1649 -0.5866
 1025SOL     OW14533   0.795   2.509  15.121 -0.0997 -0.0719  0.0183
 1025SOL    HW114534   0.820   2.548  15.205 -3.1597 -0.1083  0.9331
 1025SOL    HW214535   0.793   2.583  15.061  0.3252 -0.7242 -0.8035
 1026SOL     OW14536   4.100   2.957   7.424  0.5740  0.4979  0.5247
 1026SOL    HW114537   4.174   2.988   7.476  2.4569 -1.4342 -1.0161
 1026SOL    HW214538   4.097   2.863   7.442 -0.5048  0.9407  2.6028
 1027SOL     OW14539   1.213   1.280   3.982  0.5359  0.1050 -0.2531
 1027SOL    HW114540   1.167   1.303   3.901  2.4610 -0.4030 -1.4954
 1027SOL    HW214541   1.241   1.364   4.018  1.6407 -0.7325  0.8540
 1028SOL     OW14542   1.328   0.644   7.243  0.2057 -0.4523  0.3356
 1028SOL    HW114543   1.298   0.560   7.208 -1.2502  0.4750 -0.6435
 1028SOL    HW214544   1.400   0.668   7.184 -1.1155  2.2168 -0.2100
 1029SOL     OW14545   4.270   4.015   0.473  0.1733  0.2644  0.2498
 1029SOL    HW114546   4.346   4.023   0.530  1.8240  1.4514 -2.1137
 1029SOL    HW214547   4.310   4.042   0.390 -1.5872  0.2405 -0.6069
 1030SOL     OW14548   2.280   4.203   8.081  0.5133 -0.4396  0.1048
 1030SOL    HW114549   2.363   4.215   8.128  0.2526 -1.7802  0.9064
 1030SOL    HW214550   2.319   4.178   7.997 -4.7176 -0.9709 -2.1577
 1031SOL     OW14551   1.090   0.345   7.412  0.8002  0.2558 -0.0168
 1031SOL    HW114552   1.144   0.363   7.335  0.7552  0.8833  0.0966
 1031SOL    HW214553   1.011   0.395   7.391 -0.1081 -1.5824 -0.9483
 1032SOL     OW14554   3.386   0.785   0.389 -1.1990  0.3575  0.4802
 1032SOL    HW114555   3.472   0.754   0.362 -0.9838  1.7863 -0.5069
 1032SOL    HW214556   3.336   0.720   0.339 -1.4910  0.1894  0.9955
 1033SOL     OW14557   4.594   1.570   3.573  0.3564 -0.0355  0.0471
 1033SOL    HW114558   4.556   1.657   3.566 -1.7151 -0.8051  1.7010
 1033SOL    HW214559   4.512   1.523   3.559  2.2132 -3.1318 -0.5762
 1034SOL     OW14560   3.717   4.564   9.863 -0.4582 -0.0259 -0.1923
 1034SOL    HW114561   3.803   4.605   9.858  0.7695 -2.4890  0.6335
 1034SOL    HW214562   3.675   4.598   9.785  1.3615  2.1726 -0.2165
 1035SOL     OW14563   1.831   3.575   6.388 -0.5044  0.0499  0.5442
 1035SOL    HW114564   1.765   3.506   6.383  0.3856 -0.7085 -0.7402
 1035SOL    HW214565   1.777   3.654   6.401 -0.4004  0.1132  0.5869
 1036SOL     OW14566   0.613   0.849  16.641 -0.2404 -0.2227 -0.5304
 1036SOL    HW114567   0.701   0.835  16.675 -0.0967 -1.7600 -1.5913
 1036SOL    HW214568   0.626   0.939  16.611 -0.5450  0.4720  1.4282
 1037SOL     OW14569   2.428   1.753  12.779  0.0037  0.1134  0.4991
 1037SOL    HW114570   2.441   1.825  12.718  2.8902 -0.9290 -0.1097
 1037SOL    HW214571   2.359   1.699  12.740 -1.2660  1.8903  0.2778
 1038SOL     OW14572   4.375   0.758   2.188 -0.4570 -0.2769 -0.0604
 1038SOL    HW114573   4.353   0.757   2.095 -0.3002 -0.7910 -0.0945
 1038SOL    HW214574   4.303   0.810   2.224 -0.4367  0.5602 -1.2317
 1039SOL     OW14575   4.298   0.305   4.612  0.7222 -0.0522 -0.0123
 1039SOL    HW114576   4.233   0.256   4.662  0.5132  2.0362  1.7583
 1039SOL    HW214577   4.277   0.393   4.645 -1.2268 -0.2102 -0.8117
 1040SOL     OW14578   3.190   0.774   7.107  0.1917 -0.4264  0.3252
 1040SOL    HW114579   3.277   0.788   7.068  0.2294  2.3454  1.3632
 1040SOL    HW214580   3.142   0.744   7.030 -1.2091  0.9557  0.6588
 1041SOL     OW14581   2.496   0.922  16.267  0.0603  0.4414 -0.5949
 1041SOL    HW114582   2.540   0.895  16.186 -0.5117 -1.3297 -0.3238
 1041SOL    HW214583   2.406   0.934  16.238 -0.7510 -1.0714  1.3021
 1042SOL     OW14584   1.504   3.898   2.222  0.0985  0.8935 -0.0631
 1042SOL    HW114585   1.453   3.839   2.276 -0.1522  0.7656 -0.4402
 1042SOL    HW214586   1.478   3.874   2.133  1.8439  0.1141 -0.3559
 1043SOL     OW14587   3.778   0.879   3.730  0.4497  0.3417  0.3836
 1043SOL    HW114588   3.786   0.964   3.774 -1.1622  0.8671 -0.3516
 1043SOL    HW214589   3.863   0.864   3.689  0.4005 -2.3890  1.2675
 1044SOL     OW14590   2.188   4.147   1.006 -0.5034  0.1691 -0.7540
 1044SOL    HW114591   2.128   4.123   0.936  0.9074  1.1492 -2.2929
 1044SOL    HW214592   2.194   4.062   1.050  0.4386 -0.3751 -1.9150
 1045SOL     OW14593   2.064   3.392   6.589  0.0889 -0.2038  0.2583
 1045SOL    HW114594   1.980   3.347   6.590 -0.3731  0.6112 -3.8113
 1045SOL    HW214595   2.118   3.339   6.531 -2.6949 -2.2872 -0.3890
 1046SOL     OW14596   3.770   0.370   5.885 -0.1679 -0.1082 -0.1302
 1046SOL    HW114597   3.863   0.356   5.870 -0.3563  0.8988 -2.2605
 1046SOL    HW214598   3.763   0.334   5.973 -2.7848  0.4274 -0.1015
 1047SOL     OW14599   3.775   3.471   7.268  0.4727 -0.2166 -0.4349
 1047SOL    HW114600   3.743   3.502   7.183  0.6371  0.2561 -0.3277
 1047SOL    HW214601   3.856   3.429   7.241  0.8722 -0.1950  0.7113
 1048SOL     OW14602   0.558   4.111   7.863  0.0795  0.1153 -0.1441
 1048SOL    HW114603   0.647   4.076   7.865  0.7677  1.9206  0.6016
 1048SOL    HW214604   0.503   4.032   7.867  1.2882 -0.6451  1.1251
 1049SOL     OW14605   2.236   4.691  12.276 -0.2680 -0.2290  0.1345
 1049SOL    HW114606   2.167   0.010  12.327  0.7752  0.0017  1.3279
 1049SOL    HW214607   2.235   4.597  12.296  0.1517  0.1414  1.8707
 1050SOL     OW14608   3.428   2.880   4.863  0.2348  0.3106 -0.7166
 1050SOL    HW114609   3.445   2.920   4.948 -0.8161 -2.6136  0.8637
 1050SOL    HW214610   3.450   2.954   4.806  1.9668  0.6063  0.3563
 1051SOL     OW14611   1.300   3.044  10.167 -0.0949  0.0428 -0.1251
 1051SOL    HW114612   1.298   2.961  10.120  0.7308  0.6833 -1.2847
 1051SOL    HW214613   1.227   3.043  10.229 -0.7989  1.5485 -0.9504
 1052SOL     OW14614   4.147   1.357   7.224 -0.1305 -0.0194 -0.3778
 1052SOL    HW114615   4.192   1.427   7.177  0.3794 -0.1699 -0.1165
 1052SOL    HW214616   4.214   1.306   7.270  0.4440  1.4350  0.3926
 1053SOL     OW14617   2.974   1.388   4.159 -0.4520 -0.7352 -0.3795
 1053SOL    HW114618   2.985   1.480   4.185 -0.5084 -0.9616  0.4446
 1053SOL    HW214619   2.905   1.384   4.093 -1.2167 -0.8700  0.4235
 1054SOL     OW14620   2.259   4.582   7.309 -0.2928 -0.2899  0.0822
 1054SOL    HW114621   2.289   4.529   7.235 -0.6407 -1.8584  1.0651
 1054SOL    HW214622   2.344   4.616   7.338  0.4780 -0.7721 -1.6361
 1055SOL     OW14623   2.010   1.018   1.264  0.6947  0.3943 -0.4653
 1055SOL    HW114624   1.943   1.049   1.324 -0.6498 -2.6516 -0.3646
 1055SOL    HW214625   1.967   1.022   1.178 -0.9156 -2.0432  0.2213
 1056SOL     OW14626   2.795   2.982   4.115  0.0947  0.4628  0.4082
 1056SOL    HW114627   2.888   3.004   4.122  0.1712  0.2049  0.2158
 1056SOL    HW214628   2.801   2.888   4.099 -0.2106  0.5594 -0.2580
 1057SOL     OW14629   2.561   3.764   0.132  0.0535 -0.0040  0.2235
 1057SOL    HW114630   2.528   3.798   0.215 -0.2024  0.5503 -0.1044
 1057SOL    HW214631   2.562   3.846   0.082 -1.3152 -0.2902 -0.2653
 1058SOL     OW14632   0.944   0.884   6.395  0.1079  0.1903 -0.3743
 1058SOL    HW114633   0.852   0.907   6.408  0.0601 -0.2097  0.0073
 1058SOL    HW214634   0.942   0.794   6.362 -2.3783  0.0122  0.3127
 1059SOL     OW14635   0.259   3.435   0.440 -0.2209 -0.2237  0.4863
 1059SOL    HW114636   0.181   3.392   0.475 -0.9016 -0.5799 -1.4292
 1059SOL    HW214637   0.227   3.525   0.430  0.2402 -0.1319 -0.2179
 1060SOL     OW14638   3.562   4.283  15.539 -0.0438 -0.6639  0.5397
 1060SOL    HW114639   3.509   4.255  15.465 -1.5827 -1.3707  1.9053
 1060SOL    HW214640   3.574   4.377  15.532 -0.7912 -0.6032  0.1270
 1061SOL     OW14641   4.630   2.910   6.834  0.0470  0.0601  0.1832
 1061SOL    HW114642   4.565   2.946   6.774 -1.7130  0.0339  2.0674
 1061SOL    HW214643   4.714   2.919   6.789 -0.3119  1.7160 -0.1865
 1062SOL     OW14644   0.530   3.207   1.099  0.1560 -0.6021  0.3470
 1062SOL    HW114645   0.531   3.286   1.045 -0.4957 -0.4083  0.6221
 1062SOL    HW214646   0.597   3.152   1.058  0.7396  0.2735  0.1187
 1063SOL     OW14647   4.068   4.343   6.785 -0.0344 -1.1230 -0.3303
 1063SOL    HW114648   4.077   4.269   6.725 -1.8006 -0.2577 -1.6541
 1063SOL    HW214649   4.155   4.362   6.821  1.1173 -0.9499 -3.2481
 1064SOL     OW14650   4.592   1.980  11.946  0.2417 -0.2154  0.1635
 1064SOL    HW114651   4.663   1.939  11.898  0.5767  0.7748 -0.1931
 1064SOL    HW214652   4.603   1.949  12.036  2.4034  2.8990  0.9586
 1065SOL     OW14653   3.654   2.078   5.159  0.0887  0.3742 -0.4083
 1065SOL    HW114654   3.572   2.032   5.175  0.5482 -0.4671 -0.4873
 1065SOL    HW214655   3.670   2.112   5.248  0.0058  0.4445 -0.4202
 1066SOL     OW14656   1.401   3.621   2.324 -0.1842  0.2646 -0.1818
 1066SOL    HW114657   1.324   3.629   2.381  0.3233 -0.0211  0.5470
 1066SOL    HW214658   1.374   3.568   2.250  1.7394  2.1854 -2.2450
 1067SOL     OW14659   2.624   3.520   6.439  0.1307 -0.8602  0.0017
 1067SOL    HW114660   2.684   3.576   6.487 -3.7168  2.7245  0.6664
 1067SOL    HW214661   2.543   3.572   6.436  0.3094 -0.5060  1.2946
 1068SOL     OW14662   1.874   3.245   0.105  0.0824 -0.9422 -0.2619
 1068SOL    HW114663   1.954   3.214   0.147 -1.6931 -3.2778  1.3279
 1068SOL    HW214664   1.811   3.199   0.160  0.9032 -1.5065  0.2076
 1069SOL     OW14665   2.895   4.424  10.625  0.6169  0.1502 -0.1024
 1069SOL    HW114666   2.958   4.448  10.557 -0.7454 -0.8153 -1.7087
 1069SOL    HW214667   2.905   4.501  10.680  1.0362  1.2316 -1.6786
 1070SOL     OW14668   1.710   4.036  17.598 -0.5045 -0.0311  0.6838
 1070SOL    HW114669   1.791   4.062  17.643  0.0553 -2.7969  1.2796
 1070SOL    HW214670   1.681   4.121  17.566 -1.1569 -0.3070  0.5425
 1071SOL     OW14671   0.400   3.295   7.831  0.0685  0.6557  0.0400
 1071SOL    HW114672   0.309   3.285   7.861  0.8323  1.1228  2.4973
 1071SOL    HW214673   0.449   3.296   7.913  2.5089  1.0745 -1.4306
 1072SOL     OW14674   1.762   3.527   4.070 -0.2504  0.3315  0.1939
 1072SOL    HW114675   1.754   3.461   4.002 -0.5899 -0.0626  0.6119
 1072SOL    HW214676   1.715   3.602   4.035 -2.8296 -1.9299 -1.1786
 1073SOL     OW14677   2.074   2.673   3.905  0.6161  0.0154  0.6792
 1073SOL    HW114678   2.001   2.705   3.850  0.5233 -0.0910  0.7411
 1073SOL    HW214679   2.049   2.720   3.985 -2.4192  2.2202 -1.5456
 1074SOL     OW14680   2.308   1.486  15.919 -0.0278  0.5266 -0.4299
 1074SOL    HW114681   2.304   1.457  15.828 -1.0996 -0.3087 -0.1179
 1074SOL    HW214682   2.242   1.424  15.952  0.7389  1.3866  2.7709
 1075SOL     OW14683   3.798   3.724   3.046 -0.0009 -0.8850  0.8244
 1075SOL    HW114684   3.892   3.705   3.036  0.2145  0.8522 -0.5523
 1075SOL    HW214685   3.755   3.648   3.006  0.9029 -1.7351  1.4468
 1076SOL     OW14686   0.943   4.211   8.462  0.0459  0.2917 -0.1248
 1076SOL    HW114687   1.022   4.239   8.414  0.6935 -2.9618 -0.9716
 1076SOL    HW214688   0.911   4.162   8.386 -3.0986  3.5716 -0.9017
 1077SOL     OW14689   0.065   1.303   0.382  0.0229  0.2202 -0.3515
 1077SOL    HW114690   0.036   1.372   0.323 -0.0133  0.9669  0.5439
 1077SOL    HW214691   0.001   1.236   0.357  1.8333 -0.4365 -3.2605
 1078SOL     OW14692   0.692   4.630   2.027 -0.3455 -0.2166 -0.2789
 1078SOL    HW114693   0.692   4.621   1.932  2.8928 -0.3863 -0.2859
 1078SOL    HW214694   0.787   4.637   2.038 -0.0323 -0.2685 -2.9188
 1079SOL     OW14695   1.625   0.087  17.258  0.8078  0.1732  0.1939
 1079SOL    HW114696   1.579   0.004  17.246  1.2821 -0.0417 -0.1648
 1079SOL    HW214697   1.606   0.124  17.344 -1.9767 -0.6635 -0.0704
 1080SOL     OW14698   0.713   3.432  11.445 -0.4610  0.2614  0.1202
 1080SOL    HW114699   0.781   3.412  11.381  0.0645 -1.4115  1.2089
 1080SOL    HW214700   0.683   3.347  11.478 -0.2513 -0.8809 -2.6468
 1081SOL     OW14701   3.087   2.290   3.428 -0.2859  0.2595  0.5367
 1081SOL    HW114702   3.058   2.217   3.484  2.2530  0.0059  1.5222
 1081SOL    HW214703   3.142   2.238   3.369 -0.1983  1.0283 -0.0549
 1082SOL     OW14704   2.307   3.023   0.705 -0.1326  0.1929  0.6286
 1082SOL    HW114705   2.396   3.022   0.670 -0.4189 -0.0865 -0.1034
 1082SOL    HW214706   2.259   3.052   0.627  0.0799  1.6443  1.0280
 1083SOL     OW14707   3.118   2.400   7.942  0.2223  0.0817 -0.4870
 1083SOL    HW114708   3.048   2.336   7.955  0.1537  0.3344  0.4349
 1083SOL    HW214709   3.076   2.485   7.957 -0.1666 -0.7700  3.3708
 1084SOL     OW14710   0.686   0.001  12.458  0.1942 -0.4307 -0.1395
 1084SOL    HW114711   0.696   0.054  12.379 -0.6806 -0.3114 -0.1666
 1084SOL    HW214712   0.746   4.651  12.449 -1.4410 -1.6123 -1.1740
 1085SOL     OW14713   3.647   0.182  17.502  0.1680 -0.5544  0.3456
 1085SOL    HW114714   3.568   0.186  17.449  0.7729 -0.7463 -0.5703
 1085SOL    HW214715   3.669   0.089  17.499  0.4350 -0.5516  1.9049
 1086SOL     OW14716   1.351   3.900  12.679  0.5399  0.4542  0.1155
 1086SOL    HW114717   1.355   3.989  12.644 -1.8507  0.5503  0.1272
 1086SOL    HW214718   1.288   3.923  12.747  1.7829  3.7040  0.1900
 1087SOL     OW14719   0.095   2.764   0.093  0.1453 -0.2181 -0.5159
 1087SOL    HW114720   0.049   2.690   0.054  0.7274 -1.4756  1.1472
 1087SOL    HW214721   0.032   2.836   0.090  1.3182  0.7101 -2.7606
 1088SOL     OW14722   0.164   2.224   6.593 -0.1891 -0.2751 -0.3205
 1088SOL    HW114723   0.206   2.211   6.678  0.4638  0.0884 -0.5816
 1088SOL    HW214724   0.157   2.139   6.550  1.8986 -1.1891  1.1622
 1089SOL     OW14725   2.297   0.679   4.473 -0.7546  0.5184  0.5562
 1089SOL    HW114726   2.253   0.749   4.426  0.1424  0.4467 -0.3915
 1089SOL    HW214727   2.234   0.608   4.463 -0.9597  0.5345  1.7558
 1090SOL     OW14728   3.388   2.685   2.207  0.1643 -0.3148 -0.3934
 1090SOL    HW114729   3.367   2.593   2.224 -0.1241  0.0425  1.1760
 1090SOL    HW214730   3.318   2.694   2.141  1.3952  0.2039 -1.6225
 1091SOL     OW14731   4.360   0.839   7.883  0.4304  0.6112  0.0415
 1091SOL    HW114732   4.292   0.783   7.919  1.4006 -1.5268 -1.4255
 1091SOL    HW214733   4.437   0.786   7.905 -1.3434 -1.5130  1.1860
 1092SOL     OW14734   1.719   0.774   6.399 -0.5149  0.2265 -0.0861
 1092SOL    HW114735   1.633   0.814   6.384 -0.3841 -0.5486 -3.0062
 1092SOL    HW214736   1.689   0.695   6.444 -1.8367  1.5803  1.4013
 1093SOL     OW14737   1.624   0.380  16.863 -0.2390  0.7634  0.3735
 1093SOL    HW114738   1.564   0.362  16.936 -2.3911 -0.7918 -1.7631
 1093SOL    HW214739   1.707   0.384  16.911  1.2895 -2.7757 -1.9816
 1094SOL     OW14740   1.424   1.816   6.211 -0.4874 -0.4344 -0.2234
 1094SOL    HW114741   1.463   1.816   6.124 -0.2954  0.1984 -0.1407
 1094SOL    HW214742   1.383   1.730   6.224  2.0750 -1.5983  0.0895
 1095SOL     OW14743   1.159   3.348   3.873  0.7587  0.1567  0.2970
 1095SOL    HW114744   1.127   3.305   3.952 -2.8555  1.6240 -0.3333
 1095SOL    HW214745   1.150   3.272   3.815 -0.2608 -0.6762  1.5561
 1096SOL     OW14746   2.985   2.302   9.853 -0.1334  0.1861  0.1255
 1096SOL    HW114747   2.920   2.256   9.801  0.2431  0.8374 -0.9275
 1096SOL    HW214748   2.939   2.293   9.936  1.3528  0.1693  0.9514
 1097SOL     OW14749   1.204   1.051  11.707  0.0026 -0.2030  0.0429
 1097SOL    HW114750   1.197   0.991  11.781 -3.2092  0.1831  0.0725
 1097SOL    HW214751   1.212   1.134  11.755 -1.3067 -0.4432  0.6888
 1098SOL     OW14752   3.489   0.013  14.851 -0.1385 -0.9199 -0.0819
 1098SOL    HW114753   3.439   0.087  14.816 -1.0421 -1.8273 -0.7159
 1098SOL    HW214754   3.519   0.045  14.936  1.4863  1.9206 -1.7262
 1099SOL     OW14755   2.748   2.003   9.348 -0.6339  0.2421 -0.2978
 1099SOL    HW114756   2.662   2.019   9.309 -1.8159  2.4167  3.2399
 1099SOL    HW214757   2.797   2.085   9.352  2.7736 -1.8842  1.1000
 1100SOL     OW14758   3.205   1.112   3.177 -0.2750  0.1115  0.2599
 1100SOL    HW114759   3.180   1.128   3.086  1.6273 -0.0020 -0.2750
 1100SOL    HW214760   3.225   1.018   3.180  0.2837  0.3053  2.5631
 1101SOL     OW14761   3.611   1.043  16.733  0.2182  0.9000 -0.5078
 1101SOL    HW114762   3.684   1.064  16.791  0.3260 -0.3242 -0.1934
 1101SOL    HW214763   3.536   1.037  16.793  0.5351 -0.5804 -0.2651
 1102SOL     OW14764   4.321   2.831   9.951 -0.3472 -0.1258 -0.3707
 1102SOL    HW114765   4.374   2.857  10.027 -1.2789  0.8169 -0.0526
 1102SOL    HW214766   4.325   2.736   9.959 -1.7659 -0.0079  1.5096
 1103SOL     OW14767   3.922   1.466   9.820 -0.9139 -0.3240 -0.2046
 1103SOL    HW114768   3.916   1.532   9.889 -0.0731 -0.1348 -0.3118
 1103SOL    HW214769   3.968   1.402   9.874  0.7694  0.2869 -0.9193
 1104SOL     OW14770   2.170   1.641   6.975 -0.2605 -0.2707 -0.4884
 1104SOL    HW114771   2.085   1.655   7.017 -1.2238  2.1877 -3.3148
 1104SOL    HW214772   2.156   1.554   6.937  1.1611 -0.9231  0.5005
 1105SOL     OW14773   3.499   1.344   8.219 -0.2860 -0.3232 -0.2963
 1105SOL    HW114774   3.498   1.295   8.301  2.1900 -0.4643 -0.3673
 1105SOL    HW214775   3.586   1.384   8.216 -0.1586 -0.4633  1.7952
 1106SOL     OW14776   3.675   3.861   7.471 -0.0685  0.5000 -1.2922
 1106SOL    HW114777   3.728   3.818   7.538 -1.5391  1.2726  0.3665
 1106SOL    HW214778   3.689   3.956   7.476  0.2600  0.3298  1.0599
 1107SOL     OW14779   0.251   1.040   4.662 -0.4222 -0.7097 -0.0474
 1107SOL    HW114780   0.287   0.962   4.704 -1.1519  0.2579  2.3590
 1107SOL    HW214781   0.308   1.104   4.704 -0.4340 -1.3405  0.9280
 1108SOL     OW14782   3.106   2.863   8.757  0.2806  0.1169  0.5623
 1108SOL    HW114783   3.120   2.940   8.702  1.1559 -0.0836  0.4967
 1108SOL    HW214784   3.032   2.901   8.803  0.1627 -2.1888  2.2723
 1109SOL     OW14785   2.746   1.693   4.929 -0.0720  0.1573  0.0897
 1109SOL    HW114786   2.683   1.720   4.995  0.2524 -0.5347  0.6842
 1109SOL    HW214787   2.709   1.614   4.890  1.0209  1.2468 -3.2504
 1110SOL     OW14788   3.605   4.369  10.439 -0.2418 -0.2785 -0.2508
 1110SOL    HW114789   3.580   4.303  10.503  0.3591 -1.9766 -1.7887
 1110SOL    HW214790   3.539   4.362  10.371  2.3008  1.1285 -2.8977
 1111SOL     OW14791   3.783   4.168   4.747  0.6791 -0.1623 -0.3146
 1111SOL    HW114792   3.722   4.185   4.676 -0.8911  3.4244  1.8730
 1111SOL    HW214793   3.861   4.216   4.718 -0.1139 -0.1893 -2.4629
 1112SOL     OW14794   2.858   2.487   7.292 -0.4325  0.3245 -0.1134
 1112SOL    HW114795   2.773   2.445   7.281 -1.1020  1.4559  0.6742
 1112SOL    HW214796   2.920   2.442   7.235  0.3914 -0.0193  1.0372
 1113SOL     OW14797   1.519   3.561   4.712 -0.1676  0.0684  0.0422
 1113SOL    HW114798   1.445   3.505   4.690  1.3260 -1.8385 -0.0965
 1113SOL    HW214799   1.509   3.621   4.637  0.5765  0.9767  0.6620
 1114SOL     OW14800   3.578   3.163  11.257 -0.0830  0.6825  0.7006
 1114SOL    HW114801   3.628   3.113  11.322 -0.8225 -0.6468  0.2557
 1114SOL    HW214802   3.500   3.183  11.309 -1.1448 -0.4031 -0.4549
 1115SOL     OW14803   0.477   0.849  13.311 -0.4074  0.1199  0.3650
 1115SOL    HW114804   0.477   0.803  13.395  0.5386  0.6416  0.6566
 1115SOL    HW214805   0.443   0.935  13.336  0.5936  1.6005 -3.2820
 1116SOL     OW14806   4.087   1.127   2.581 -0.3357 -0.0110  0.1351
 1116SOL    HW114807   4.064   1.035   2.567 -1.2796  0.5123 -1.8536
 1116SOL    HW214808   4.130   1.142   2.497  0.5667 -0.4499  0.5240
 1117SOL     OW14809   1.076   2.121   7.521  0.0757  0.8758 -0.5951
 1117SOL    HW114810   1.129   2.090   7.447 -0.6670  0.9986 -1.1712
 1117SOL    HW214811   1.002   2.163   7.479 -1.9419 -1.2733  0.7877
 1118SOL     OW14812   1.093   2.075  10.309 -0.0186 -0.2625  0.2157
 1118SOL    HW114813   1.182   2.104  10.327  0.2490 -3.0574  3.3670
 1118SOL    HW214814   1.112   1.986  10.279  0.0167 -0.1984  0.0441
 1119SOL     OW14815   2.868   2.310   7.524  0.1655 -0.1462  0.5767
 1119SOL    HW114816   2.868   2.342   7.434  1.8619  1.1537  1.0388
 1119SOL    HW214817   2.923   2.231   7.515  0.1972  0.2481 -2.8796
 1120SOL     OW14818   3.863   2.834   8.677  0.5241  0.0852  0.6039
 1120SOL    HW114819   3.891   2.770   8.612  0.7901  0.0637  0.7393
 1120SOL    HW214820   3.794   2.878   8.628  0.0170  2.9328  3.8820
 1121SOL     OW14821   2.977   1.002   5.554 -0.3573  0.0182 -0.1449
 1121SOL    HW114822   2.926   0.921   5.563 -0.8091  0.2357 -0.7370
 1121SOL    HW214823   3.002   1.017   5.645  0.3834 -0.7752 -0.2122
 1122SOL     OW14824   3.268   4.482   8.128 -0.7148  0.2600 -0.6347
 1122SOL    HW114825   3.353   4.522   8.113 -0.1916  0.0843  1.8735
 1122SOL    HW214826   3.268   4.413   8.062 -1.5663 -0.6495  0.3138
 1123SOL     OW14827   3.529   3.367   5.314  0.0709 -0.4693 -0.0001
 1123SOL    HW114828   3.547   3.344   5.405  0.6481 -1.1694 -0.2872
 1123SOL    HW214829   3.435   3.352   5.313  0.1485 -0.7721 -2.4480
 1124SOL     OW14830   4.571   0.795   6.506  0.3405 -0.0950  0.0510
 1124SOL    HW114831   4.639   0.796   6.439 -0.6785 -0.7428 -0.9907
 1124SOL    HW214832   4.488   0.816   6.463  0.5149 -0.4566 -0.4557
 1125SOL     OW14833   2.900   2.032   1.836 -0.0226 -0.2211  0.4306
 1125SOL    HW114834   2.839   2.044   1.909 -1.3712  1.9738 -1.0636
 1125SOL    HW214835   2.848   1.991   1.766 -0.1646 -0.0624  0.4433
 1126SOL     OW14836   0.969   1.927   7.884  0.5929 -0.1152  0.1071
 1126SOL    HW114837   1.005   1.940   7.972 -0.1037  0.5803  0.2896
 1126SOL    HW214838   0.957   1.832   7.884 -0.3782  0.0080  1.2903
 1127SOL     OW14839   0.947   0.639   0.619 -0.3634 -0.0285 -0.2797
 1127SOL    HW114840   0.869   0.673   0.664 -0.1874 -0.6224  0.4722
 1127SOL    HW214841   0.939   0.546   0.639 -0.1183  0.0070 -0.0118
 1128SOL     OW14842   4.257   3.202   5.559  0.0898 -0.4209 -0.6421
 1128SOL    HW114843   4.185   3.242   5.609 -1.3238 -2.0947 -1.3320
 1128SOL    HW214844   4.199   3.140   5.516  1.0733 -1.1734 -0.8670
 1129SOL     OW14845   0.525   4.082   0.853  0.4433 -0.0256 -0.9208
 1129SOL    HW114846   0.605   4.131   0.875  2.3257 -3.4691 -0.1177
 1129SOL    HW214847   0.541   3.997   0.894  0.0794 -0.8348 -2.4659
 1130SOL     OW14848   2.191   2.011  17.198 -0.0126 -0.4127  0.8981
 1130SOL    HW114849   2.123   2.078  17.208  0.5150  0.3591 -0.5482
 1130SOL    HW214850   2.192   2.013  17.102 -3.6161  0.1544  0.8691
 1131SOL     OW14851   1.524   3.069  11.049  0.6304  0.5014 -0.0978
 1131SOL    HW114852   1.520   3.079  10.954 -0.1933  0.5686 -0.0523
 1131SOL    HW214853   1.434   3.083  11.078  1.0115 -0.1186  1.3571
 1132SOL     OW14854   3.213   1.083   7.627 -0.5360 -0.7969  0.0808
 1132SOL    HW114855   3.302   1.093   7.660  0.0339 -3.0569 -0.7648
 1132SOL    HW214856   3.227   1.022   7.553  2.4990 -0.7949  0.6416
 1133SOL     OW14857   0.718   2.710  11.776 -0.1640 -0.0524  0.1017
 1133SOL    HW114858   0.641   2.754  11.740 -0.3485  1.1594  2.0180
 1133SOL    HW214859   0.681   2.648  11.839  2.7680 -1.5859  0.3222
 1134SOL     OW14860   1.022   0.148   4.166 -0.2905  0.0580 -0.5888
 1134SOL    HW114861   1.029   0.055   4.146  0.4687 -0.6504  3.0132
 1134SOL    HW214862   1.018   0.186   4.078  2.4893  0.3646 -0.5865
 1135SOL     OW14863   1.384   1.739   2.792 -0.4250 -0.4432  0.1800
 1135SOL    HW114864   1.380   1.697   2.878 -0.8803  0.0437  0.4002
 1135SOL    HW214865   1.309   1.694   2.755 -0.9079 -0.0529  0.6711
 1136SOL     OW14866   2.371   0.281   3.834 -0.5181  0.2470 -0.2470
 1136SOL    HW114867   2.330   0.240   3.757  2.3129 -0.4285 -1.3915
 1136SOL    HW214868   2.295   0.275   3.891  0.5593  0.2508  1.1748
 1137SOL     OW14869   0.053   0.622   9.242 -0.1992  0.1358  0.1863
 1137SOL    HW114870   0.141   0.640   9.273 -0.0503 -1.5771  0.7146
 1137SOL    HW214871   0.062   0.531   9.215 -0.8528 -0.4869  2.0807
 1138SOL     OW14872   4.434   4.064   8.040 -0.2461  0.8742  0.1295
 1138SOL    HW114873   4.486   3.990   8.008 -0.4425  0.3320  1.0596
 1138SOL    HW214874   4.391   4.029   8.118 -0.7403 -0.7487 -0.8567
 1139SOL     OW14875   4.215   0.611  16.326  0.8008 -0.6890 -0.2815
 1139SOL    HW114876   4.266   0.530  16.326  2.2372  0.2178 -2.9632
 1139SOL    HW214877   4.270   0.672  16.376 -0.8639 -0.2646  1.0549
 1140SOL     OW14878   1.120   2.321   2.210  0.1568  0.3489 -0.1668
 1140SOL    HW114879   1.044   2.280   2.169  1.5182 -1.6735 -0.6631
 1140SOL    HW214880   1.156   2.252   2.265  1.5363  0.3398 -1.0636
 1141SOL     OW14881   0.018   0.080   4.468  0.3095  0.2810 -0.1211
 1141SOL    HW114882   0.024   0.079   4.564 -1.7960  0.3416  0.0189
 1141SOL    HW214883   0.036   0.174   4.460  1.8331 -0.1977 -2.2346
 1142SOL     OW14884   3.777   1.188  17.158  0.0890  0.3787 -0.2980
 1142SOL    HW114885   3.863   1.203  17.197 -0.6955 -0.9070  1.9679
 1142SOL    HW214886   3.733   1.263  17.198 -1.1139 -1.1297  1.2228
 1143SOL     OW14887   2.053   4.108   6.855 -0.1552 -0.2970 -0.8384
 1143SOL    HW114888   2.133   4.159   6.855  0.7929 -1.7653  0.9349
 1143SOL    HW214889   2.024   4.106   6.764  0.6170 -0.9909 -1.0707
 1144SOL     OW14890   4.573   3.855   7.881 -0.5102 -0.5069 -0.0015
 1144SOL    HW114891   4.594   3.762   7.892 -1.2317 -0.5222  1.2282
 1144SOL    HW214892   4.646   3.887   7.829 -0.0065 -1.0117  0.3972
 1145SOL     OW14893   1.734   2.145  14.678 -0.0435 -0.2332  0.0084
 1145SOL    HW114894   1.805   2.179  14.625 -0.1795  0.6297  0.3753
 1145SOL    HW214895   1.775   2.069  14.720 -0.9765  0.2933  1.9093
 1146SOL     OW14896   4.538   1.530   7.079 -0.6380  0.1983  0.2702
 1146SOL    HW114897   4.618   1.535   7.132  1.3217 -1.8883 -2.4933
 1146SOL    HW214898   4.577   1.525   6.992 -0.0817  0.0843  0.5265
 1147SOL     OW14899   1.998   1.368  10.711  0.3309 -0.0779 -0.1304
 1147SOL    HW114900   1.912   1.362  10.670 -0.7278 -1.6455  2.2756
 1147SOL    HW214901   1.972   1.407  10.794  0.7393 -1.7487  0.7982
 1148SOL     OW14902   0.972   3.060   9.311  0.1158  0.0841 -0.3672
 1148SOL    HW114903   0.987   3.142   9.359 -0.6052 -0.5719  0.9857
 1148SOL    HW214904   0.893   3.084   9.263 -1.7117 -2.7668  1.2610
 1149SOL     OW14905   4.532   3.998   6.361  0.0687  0.0270 -0.1187
 1149SOL    HW114906   4.557   3.934   6.427 -1.4767  0.2315  0.6416
 1149SOL    HW214907   4.505   3.941   6.289 -2.5236  0.6386  0.3817
 1150SOL     OW14908   4.704   1.917   8.244  0.0317  0.0511  0.0685
 1150SOL    HW114909   0.060   1.865   8.247  0.7336  1.0819 -0.6882
 1150SOL    HW214910   4.651   1.866   8.305  1.2904 -0.4579  0.7413
 1151SOL     OW14911   3.845   2.851  16.292  0.1090  0.1383 -0.3208
 1151SOL    HW114912   3.921   2.904  16.270 -0.5862  1.8258  1.2538
 1151SOL    HW214913   3.875   2.762  16.276 -1.2613 -0.6668  1.5987
 1152SOL     OW14914   2.675   0.324  12.654  0.4151  0.1701 -0.2421
 1152SOL    HW114915   2.734   0.313  12.580  0.1517  3.4628 -0.9309
 1152SOL    HW214916   2.637   0.236  12.657 -0.1116  0.3188 -2.9590
 1153SOL     OW14917   1.706   1.767   9.688 -0.0010 -0.5897 -0.1096
 1153SOL    HW114918   1.763   1.841   9.710 -1.3804  0.8612 -1.3720
 1153SOL    HW214919   1.710   1.710   9.764 -1.8665  0.7039  0.9505
 1154SOL     OW14920   2.936   0.079   7.744  0.0300 -0.6977 -0.3283
 1154SOL    HW114921   2.999   0.012   7.719  1.3868  0.4286  0.0310
 1154SOL    HW214922   2.936   0.069   7.840  0.0222  0.3715 -0.2165
 1155SOL     OW14923   3.251   1.326   4.441 -0.0358 -0.5313  0.4530
 1155SOL    HW114924   3.311   1.397   4.418 -0.3798 -0.0865  0.9288
 1155SOL    HW214925   3.271   1.262   4.372  0.9503  0.8834 -0.5787
 1156SOL     OW14926   1.165   1.111  17.578 -0.3231  0.1536 -0.1581
 1156SOL    HW114927   1.213   1.192  17.597 -0.7943  0.5392 -0.6281
 1156SOL    HW214928   1.241   1.061  17.547  0.1796  1.5804 -1.2230
 1157SOL     OW14929   4.339   4.558  10.771 -0.1758  0.0682 -0.1970
 1157SOL    HW114930   4.257   4.522  10.805  0.7284 -0.8427  1.0102
 1157SOL    HW214931   4.307   4.599  10.690 -3.5367 -0.9435  0.6014
 1158SOL     OW14932   1.241   2.757   1.255  0.3545 -0.1157  0.3453
 1158SOL    HW114933   1.255   2.796   1.341  0.7996 -1.2887  0.8037
 1158SOL    HW214934   1.148   2.735   1.259  0.7496 -1.7597  0.4370
 1159SOL     OW14935   0.065   4.180   2.885 -0.6597  0.0012  0.0557
 1159SOL    HW114936   0.002   4.110   2.904 -2.2426  1.9397  1.9325
 1159SOL    HW214937   0.142   4.123   2.881 -0.4627  0.2739 -0.0097
 1160SOL     OW14938   1.326   3.180   5.100 -0.6554 -0.2132 -0.4395
 1160SOL    HW114939   1.323   3.086   5.085 -2.5677 -0.2761  0.4019
 1160SOL    HW214940   1.237   3.206   5.122 -0.4935 -0.2085  0.2236
 1161SOL     OW14941   1.121   1.938   5.739  0.1362  0.4934  0.3234
 1161SOL    HW114942   1.033   1.942   5.776 -0.8204 -0.1332 -1.8705
 1161SOL    HW214943   1.157   1.872   5.798  1.4358  1.1264  0.2385
 1162SOL     OW14944   4.641   4.617   8.330 -0.3254  0.1213  0.9385
 1162SOL    HW114945   4.647   4.522   8.319  2.7098  0.6567 -2.1870
 1162SOL    HW214946   4.602   4.637   8.414  0.7649 -2.5162  2.0801
 1163SOL     OW14947   3.010   0.588  16.311  0.0121  0.4721  0.1428
 1163SOL    HW114948   3.025   0.668  16.261  4.9285 -0.5721 -0.0496
 1163SOL    HW214949   3.100   0.555  16.311 -0.0915  0.1835 -0.0010
 1164SOL     OW14950   3.263   3.561   4.904 -0.0313  0.0594  0.4182
 1164SOL    HW114951   3.233   3.510   4.829  1.2195  0.7127 -0.5346
 1164SOL    HW214952   3.305   3.495   4.959 -0.7737 -0.0294  0.8847
 1165SOL     OW14953   0.857   1.048   7.002 -0.0118  0.5315  0.3915
 1165SOL    HW114954   0.885   1.132   7.039  0.6631  0.8441 -0.8131
 1165SOL    HW214955   0.859   0.989   7.077  0.5379  0.0839  0.0280
 1166SOL     OW14956   0.161   1.266   8.717 -0.0031 -0.6129 -0.2923
 1166SOL    HW114957   0.081   1.217   8.735 -1.4884  2.0228  0.1444
 1166SOL    HW214958   0.185   1.278   8.809  1.5876 -0.3793 -0.7414
 1167SOL     OW14959   3.794   1.539   3.077 -0.3701  0.3348  0.0166
 1167SOL    HW114960   3.867   1.485   3.106 -1.4475 -1.2089 -0.1445
 1167SOL    HW214961   3.834   1.571   2.996  1.7068  0.6098  1.1428
 1168SOL     OW14962   0.681   4.325   2.032  0.0629  0.6570  0.3436
 1168SOL    HW114963   0.630   4.406   2.022 -0.2851  0.2215 -1.4868
 1168SOL    HW214964   0.624   4.270   1.979  1.7392  0.3155 -1.1184
 1169SOL     OW14965   4.385   0.762   9.337 -0.4611 -0.1655  0.4830
 1169SOL    HW114966   4.474   0.787   9.363  0.6087 -1.2574 -2.0764
 1169SOL    HW214967   4.337   0.808   9.405 -2.9072 -0.1025 -1.2995
 1170SOL     OW14968   0.523   1.470  14.563 -0.1768  0.0096  0.0700
 1170SOL    HW114969   0.614   1.478  14.592  0.1060  0.3435 -0.9239
 1170SOL    HW214970   0.537   1.432  14.477 -0.9218  2.0926 -0.9634
 1171SOL     OW14971   2.083   4.559   1.349  0.6602  0.2788 -0.1195
 1171SOL    HW114972   1.995   4.530   1.322 -0.1093  0.1490  2.5191
 1171SOL    HW214973   2.138   4.499   1.299  1.2634  3.2422 -3.0422
 1172SOL     OW14974   1.856   1.187   1.427  0.1770 -0.0455  0.1279
 1172SOL    HW114975   1.821   1.138   1.501 -2.9384 -0.6849 -1.7715
 1172SOL    HW214976   1.938   1.212   1.469  0.3766 -0.0089 -0.2807
 1173SOL     OW14977   1.629   4.294   7.365  0.7750 -0.0043  0.3904
 1173SOL    HW114978   1.631   4.355   7.291  1.7796  1.9230  2.0373
 1173SOL    HW214979   1.660   4.357   7.429 -0.1412 -0.1180  0.9299
 1174SOL     OW14980   3.047   1.763   4.094 -0.0155  0.2110 -0.2809
 1174SOL    HW114981   3.122   1.731   4.044 -0.6193 -0.8712 -0.5076
 1174SOL    HW214982   3.067   1.730   4.182 -0.3342  0.1446 -0.2322
 1175SOL     OW14983   4.234   1.462   8.300 -0.2168 -0.2163 -0.7352
 1175SOL    HW114984   4.273   1.533   8.350 -0.7636  1.4390 -2.6617
 1175SOL    HW214985   4.272   1.473   8.213 -0.4639 -0.4160 -0.8699
 1176SOL     OW14986   3.490   0.865   2.233  0.4911 -0.5224 -0.3994
 1176SOL    HW114987   3.399   0.837   2.241  0.0557  1.3335  1.2920
 1176SOL    HW214988   3.505   0.932   2.165  0.3480  1.0006  1.0582
 1177SOL     OW14989   3.750   3.386   7.891  0.5999  0.1820  0.0732
 1177SOL    HW114990   3.813   3.314   7.897  1.5078  0.9478 -0.3449
 1177SOL    HW214991   3.804   3.465   7.891  0.0628  0.5483 -0.0504
 1178SOL     OW14992   2.178   0.153  17.633 -0.2719  0.1122 -0.3324
 1178SOL    HW114993   2.110   0.091  17.607 -2.0261  0.5416  3.2342
 1178SOL    HW214994   2.126   0.223  17.673 -0.5626 -0.4664  0.3006
 1179SOL     OW14995   0.490   3.836   7.015 -0.4780 -0.0859  0.5529
 1179SOL    HW114996   0.500   3.755   7.066  1.9657 -0.1774 -0.0911
 1179SOL    HW214997   0.398   3.823   6.994 -0.6711  0.2571  1.1703
 1180SOL     OW14998   4.681   0.368   8.840  0.5084 -1.2947  0.5664
 1180SOL    HW114999   0.044   0.409   8.838  1.4868 -3.4123 -0.8374
 1180SOL    HW215000   4.623   0.443   8.830 -0.9620 -2.3965  0.8514
 1181SOL     OW15001   4.114   0.011   9.157  0.7481  0.4785  0.2818
 1181SOL    HW115002   4.067   0.086   9.192 -2.1461 -1.6499  0.9069
 1181SOL    HW215003   4.204   0.036   9.137  0.8972  0.2702  0.7046
 1182SOL     OW15004   1.226   3.631   1.941 -0.2039 -0.3460  0.5306
 1182SOL    HW115005   1.249   3.587   1.859 -0.8029 -0.0370  0.1920
 1182SOL    HW215006   1.131   3.642   1.929  0.1500 -0.6751 -2.5914
 1183SOL     OW15007   2.572   1.835   7.896  0.5685  0.0627  0.3339
 1183SOL    HW115008   2.534   1.763   7.845  1.7306  1.3741 -2.3627
 1183SOL    HW215009   2.619   1.792   7.967  0.7699 -0.8963 -0.3728
 1184SOL     OW15010   1.009   0.398   8.186 -0.4629  0.1327 -0.3762
 1184SOL    HW115011   1.007   0.439   8.099 -0.6108  1.9672  0.4958
 1184SOL    HW215012   1.001   0.473   8.245 -1.8903 -2.2024  2.4042
 1185SOL     OW15013   1.507   1.178  11.293  0.0422 -0.0885 -0.8667
 1185SOL    HW115014   1.502   1.270  11.269  0.7159  0.0832 -0.3299
 1185SOL    HW215015   1.480   1.174  11.385  4.0257 -0.9340  0.2307
 1186SOL     OW15016   0.764   2.176  13.678  0.2209  0.0803  0.9200
 1186SOL    HW115017   0.715   2.130  13.611 -2.2439  3.5096  0.3628
 1186SOL    HW215018   0.814   2.237  13.624 -0.4006  0.0654  0.3334
 1187SOL     OW15019   3.915   3.998   8.259  0.0810 -0.4218 -0.1167
 1187SOL    HW115020   3.845   4.050   8.299  0.5454 -0.6829  1.0586
 1187SOL    HW215021   3.898   4.003   8.165 -1.6128 -2.2100  0.0798
 1188SOL     OW15022   0.541   2.218   5.060 -0.1301  0.1420  0.2040
 1188SOL    HW115023   0.591   2.278   5.006 -1.6147  0.0788 -1.2607
 1188SOL    HW215024   0.551   2.135   5.013 -1.9906  0.4040 -0.6467
 1189SOL     OW15025   2.597   2.794   1.751 -0.6354 -0.2205 -0.2410
 1189SOL    HW115026   2.540   2.724   1.783  0.6138 -0.5977  1.1775
 1189SOL    HW215027   2.670   2.745   1.711  0.4893 -0.6252  2.3249
 1190SOL     OW15028   3.489   0.964   3.304  0.1807 -0.2281 -0.0573
 1190SOL    HW115029   3.467   1.056   3.317 -0.4328 -0.4038  0.1458
 1190SOL    HW215030   3.432   0.924   3.370 -1.4771 -1.1389 -2.0578
 1191SOL     OW15031   4.589   3.690  17.332 -0.5521 -0.3409 -0.4581
 1191SOL    HW115032   4.630   3.777  17.324  0.4516 -0.7498  0.2542
 1191SOL    HW215033   4.577   3.680  17.426 -2.9663  0.6548 -0.6733
 1192SOL     OW15034   3.504   3.658   5.964 -0.5784  0.3079  0.0101
 1192SOL    HW115035   3.569   3.728   5.962 -1.1739  0.8575  0.2286
 1192SOL    HW215036   3.534   3.579   6.009  0.7486  2.0328  2.1318
 1193SOL     OW15037   3.208   0.237   3.591 -0.1650 -0.0625 -0.2388
 1193SOL    HW115038   3.193   0.290   3.670 -1.6262 -1.1497  0.2119
 1193SOL    HW215039   3.123   0.196   3.574 -0.5051  0.6966 -0.3618
 1194SOL     OW15040   2.591   3.895   3.302  0.2259 -0.1121 -0.4135
 1194SOL    HW115041   2.516   3.838   3.284  0.3874 -1.3390  2.7209
 1194SOL    HW215042   2.661   3.830   3.305 -1.1946 -1.5950  0.7952
 1195SOL     OW15043   0.309   0.120   7.728  0.4057  0.0977 -0.0197
 1195SOL    HW115044   0.295   0.040   7.677  3.6388 -0.8528  0.5717
 1195SOL    HW215045   0.401   0.134   7.706  1.2557 -1.1613  2.7563
 1196SOL     OW15046   0.478   0.485  12.913  0.7700 -0.0106  1.3565
 1196SOL    HW115047   0.438   0.563  12.953 -2.1873 -1.6797  1.6770
 1196SOL    HW215048   0.487   0.428  12.990  0.6378 -2.3887 -0.4232
 1197SOL     OW15049   4.202   0.091   6.695 -0.2795 -0.0441 -0.0460
 1197SOL    HW115050   4.159   0.016   6.737 -0.2470  0.1140  0.2750
 1197SOL    HW215051   4.209   0.058   6.606  1.6723  0.5143 -0.0975
 1198SOL     OW15052   2.319   3.637   5.705  0.0696  0.1615 -0.3901
 1198SOL    HW115053   2.293   3.676   5.621 -0.7274 -0.0010 -0.2214
 1198SOL    HW215054   2.396   3.686   5.733 -0.5147  0.7540  0.1934
 1199SOL     OW15055   2.334   1.206   2.307  0.1385 -0.8347  0.7543
 1199SOL    HW115056   2.304   1.283   2.259  1.7828  0.3457  1.6051
 1199SOL    HW215057   2.275   1.139   2.271 -0.5909 -0.3822  1.0959
 1200SOL     OW15058   2.460   4.000  12.018 -0.1501 -0.3902 -0.3157
 1200SOL    HW115059   2.443   4.092  12.040 -1.4858 -0.7093 -0.0111
 1200SOL    HW215060   2.466   3.994  11.923  3.7860 -1.4527  0.0031
 1201SOL     OW15061   2.852   1.815   8.880 -0.0644  0.0761 -0.2244
 1201SOL    HW115062   2.871   1.879   8.948  1.2830  0.8406 -1.3445
 1201SOL    HW215063   2.853   1.730   8.925  3.2084  0.2172 -0.0203
 1202SOL     OW15064   1.552   4.639   5.367 -0.1802 -0.3561 -0.1352
 1202SOL    HW115065   1.545   4.572   5.435  3.3690 -1.7714 -1.1510
 1202SOL    HW215066   1.645   4.656   5.353 -0.5317  0.9328 -0.9284
 1203SOL     OW15067   3.524   0.421   2.062 -0.7071 -0.0090  0.4705
 1203SOL    HW115068   3.590   0.357   2.036 -1.2372 -1.1808  2.0058
 1203SOL    HW215069   3.444   0.378   2.093 -0.0699  0.6509  3.0633
 1204SOL     OW15070   2.133   2.676   3.326  0.0864 -0.4855  0.5299
 1204SOL    HW115071   2.160   2.767   3.340 -0.0815 -0.3432 -0.0825
 1204SOL    HW215072   2.121   2.644   3.416 -0.7664  3.7085  1.8962
 1205SOL     OW15073   0.008   4.338   6.961  0.0047 -0.0962  0.2698
 1205SOL    HW115074   4.676   4.376   7.030  0.9038  0.1581  0.8531
 1205SOL    HW215075   0.053   4.268   7.009  0.0199  0.7730  1.5386
 1206SOL     OW15076   3.597   1.354   0.729  0.3795  0.0944 -0.7877
 1206SOL    HW115077   3.539   1.280   0.708  1.9900 -1.1649 -0.8615
 1206SOL    HW215078   3.532   1.417   0.759  1.0293  0.5840 -0.4245
 1207SOL     OW15079   3.741   1.315   4.769 -0.0866 -0.3684  0.0535
 1207SOL    HW115080   3.711   1.278   4.852 -0.7922  0.5968  0.2257
 1207SOL    HW215081   3.757   1.406   4.794  0.2486 -0.5926  0.6466
 1208SOL     OW15082   3.956   2.020   4.414 -0.0182  0.6368 -0.0025
 1208SOL    HW115083   3.990   1.949   4.468  2.3777  2.0534  0.3454
 1208SOL    HW215084   3.906   2.068   4.480 -0.0735  0.3701  0.1492
 1209SOL     OW15085   4.418   1.846  11.482 -0.2031  0.7510 -0.0852
 1209SOL    HW115086   4.361   1.815  11.553  1.6689 -0.1935  0.9943
 1209SOL    HW215087   4.355   1.887  11.422  0.0521  2.0951  0.5745
 1210SOL     OW15088   0.910   0.027   4.560  0.0149 -0.0429 -0.5075
 1210SOL    HW115089   0.829   0.077   4.570 -0.1934 -0.5578  0.3885
 1210SOL    HW215090   0.964   0.069   4.627  0.6391  1.5542 -1.9954
 1211SOL     OW15091   3.508   2.190   4.926 -0.0118 -0.6597 -0.1208
 1211SOL    HW115092   3.539   2.153   5.008 -0.0843  0.3720  0.3676
 1211SOL    HW215093   3.458   2.118   4.886  0.6733 -1.6169  0.7593
 1212SOL     OW15094   4.415   4.288   8.772 -0.0776  0.3312 -0.7635
 1212SOL    HW115095   4.405   4.367   8.825  1.2875  0.0204 -0.0655
 1212SOL    HW215096   4.497   4.311   8.729 -1.1143  1.7434 -1.9762
 1213SOL     OW15097   4.677   4.463   1.109  0.2289 -0.0540  0.6141
 1213SOL    HW115098   0.043   4.443   1.085 -0.0182 -0.3929 -0.0293
 1213SOL    HW215099   4.630   4.385   1.080  0.8554 -1.0421  2.2665
 1214SOL     OW15100   0.951   0.997   9.184  0.0901 -0.1058 -0.3466
 1214SOL    HW115101   0.955   0.946   9.103 -1.9227  0.8122 -1.0416
 1214SOL    HW215102   0.975   0.934   9.251  2.4570  0.9047 -0.2291
 1215SOL     OW15103   0.198   0.094   3.916  0.2955 -0.4015  0.4774
 1215SOL    HW115104   0.231   0.102   3.826  0.0460  0.4618  0.4619
 1215SOL    HW215105   0.265   0.142   3.965  1.2575 -2.9219  1.5880
 1216SOL     OW15106   3.557   3.441   1.390  0.2689  0.3690 -0.0291
 1216SOL    HW115107   3.550   3.527   1.349  0.4669  0.2081 -0.4062
 1216SOL    HW215108   3.645   3.430   1.354  1.0331 -1.7945  2.5017
 1217SOL     OW15109   4.260   0.566   4.732  0.1579 -0.0896 -0.3244
 1217SOL    HW115110   4.185   0.555   4.791  0.0519 -1.1856 -0.6572
 1217SOL    HW215111   4.232   0.648   4.692 -2.0636 -0.7181 -0.0701
 1218SOL     OW15112   3.965   0.685   6.803 -0.0810 -0.1294  0.2233
 1218SOL    HW115113   3.910   0.759   6.828  1.5299  0.9461  0.5693
 1218SOL    HW215114   3.941   0.677   6.710 -1.5696  1.1322  0.4948
 1219SOL     OW15115   2.075   1.790  10.531  0.2317  0.3802  0.3507
 1219SOL    HW115116   2.007   1.724  10.547 -0.2283  0.5460 -0.9320
 1219SOL    HW215117   2.151   1.734  10.513 -0.2530 -0.1034 -0.2110
 1220SOL     OW15118   3.803   4.458   6.842 -0.7167  0.1832  0.4541
 1220SOL    HW115119   3.822   4.514   6.917 -0.3777  0.2509  0.3184
 1220SOL    HW215120   3.892   4.424   6.832 -0.4210  0.2028  2.9444
 1221SOL     OW15121   3.778   4.584  11.690 -0.2226  0.0513 -0.1066
 1221SOL    HW115122   3.865   4.606  11.723 -0.1335 -1.2895  0.5740
 1221SOL    HW215123   3.767   4.651  11.623 -0.7397 -1.4901 -1.5745
 1222SOL     OW15124   3.124   3.028   1.692 -0.6444 -0.1037  0.0406
 1222SOL    HW115125   3.054   3.085   1.659  0.6914  1.9105  0.6648
 1222SOL    HW215126   3.073   2.964   1.740 -1.3478 -0.9417 -1.8117
 1223SOL     OW15127   1.625   1.514   4.818 -0.2852 -0.6763 -0.1635
 1223SOL    HW115128   1.609   1.557   4.733 -1.1047  0.5220  0.6056
 1223SOL    HW215129   1.648   1.584   4.879 -0.8085  0.9587 -1.8195
 1224SOL     OW15130   4.250   3.646   3.362 -0.2177  0.3566 -0.1418
 1224SOL    HW115131   4.240   3.620   3.453  1.9627  1.1227  0.3186
 1224SOL    HW215132   4.242   3.564   3.314  2.0067  0.5332 -0.8234
 1225SOL     OW15133   1.656   4.097  14.797 -0.1663 -0.1186 -0.2188
 1225SOL    HW115134   1.701   4.017  14.827 -1.6280 -1.0744 -0.5633
 1225SOL    HW215135   1.639   4.146  14.877  0.4179  1.5284 -1.1078
 1226SOL     OW15136   0.923   3.807   2.190 -0.5017 -0.0173 -0.3491
 1226SOL    HW115137   0.975   3.871   2.141 -0.7528 -0.2293 -0.8888
 1226SOL    HW215138   0.884   3.756   2.119  0.4779 -0.0644 -0.8438
 1227SOL     OW15139   4.126   2.016   1.278  0.2906 -0.0571  0.0159
 1227SOL    HW115140   4.122   2.107   1.246 -1.0301  0.4653  1.7198
 1227SOL    HW215141   4.214   1.996   1.245  0.3816 -1.0309  0.8751
 1228SOL     OW15142   0.133   2.142   8.723 -0.2697 -0.1802 -0.0262
 1228SOL    HW115143   0.193   2.119   8.794 -1.1279 -0.2537  0.6763
 1228SOL    HW215144   0.202   2.152   8.657 -0.8379 -3.1982 -1.0760
 1229SOL     OW15145   1.792   3.879   8.621 -0.0075 -0.1762 -0.7742
 1229SOL    HW115146   1.832   3.961   8.649 -0.2267 -0.7251  1.1468
 1229SOL    HW215147   1.699   3.899   8.621 -0.6229 -3.0023 -0.6222
 1230SOL     OW15148   1.864   0.027   7.060 -0.0316 -0.0253 -0.1970
 1230SOL    HW115149   1.880   4.692   6.986  0.0782 -0.9179  0.5467
 1230SOL    HW215150   1.952   0.059   7.079  0.0719  0.5177 -1.5278
 1231SOL     OW15151   1.403   1.661   5.296 -0.3137  0.4285  0.1864
 1231SOL    HW115152   1.397   1.726   5.226 -0.2689  0.8625  0.5841
 1231SOL    HW215153   1.344   1.702   5.359 -0.1642 -0.7505  1.0929
 1232SOL     OW15154   1.977   1.713   9.531  0.1191  0.4191  0.4724
 1232SOL    HW115155   1.888   1.732   9.500 -0.4159 -2.4126  0.2287
 1232SOL    HW215156   2.011   1.680   9.448  0.1011  0.5070  0.4311
 1233SOL     OW15157   1.789   2.802   2.379 -0.2006  0.1170  0.6361
 1233SOL    HW115158   1.711   2.844   2.413  1.3141  2.0916  1.6600
 1233SOL    HW215159   1.765   2.764   2.295  0.4506  1.9141 -0.3666
 1234SOL     OW15160   0.457   3.249   3.759 -0.5514  0.4245 -0.1200
 1234SOL    HW115161   0.479   3.336   3.791 -1.7892  0.9995 -0.8347
 1234SOL    HW215162   0.538   3.203   3.780 -2.1440 -1.6449  1.5352
 1235SOL     OW15163   0.817   1.289   5.566 -0.0693  0.0387 -0.0905
 1235SOL    HW115164   0.844   1.218   5.509  0.4098  0.3990 -0.3160
 1235SOL    HW215165   0.737   1.313   5.520 -1.2622 -0.5963  1.6766
 1236SOL     OW15166   2.765   2.483   5.329 -0.7403  0.5717  0.1061
 1236SOL    HW115167   2.679   2.473   5.370  0.2778 -1.1597  1.7872
 1236SOL    HW215168   2.746   2.566   5.285 -1.0014 -0.4980 -1.7911
 1237SOL     OW15169   0.521   2.822   2.418  0.1428 -0.3598 -0.1911
 1237SOL    HW115170   0.530   2.741   2.467  0.9903 -1.2549 -1.8413
 1237SOL    HW215171   0.592   2.827   2.354  0.7651  3.6543  0.7799
 1238SOL     OW15172   0.809   3.378   8.303  0.0893 -0.3222  0.4248
 1238SOL    HW115173   0.783   3.406   8.390  1.3011  1.4634  0.2265
 1238SOL    HW215174   0.886   3.331   8.335 -0.4234 -0.2069  1.8239
 1239SOL     OW15175   4.528   3.773  13.179 -0.2039 -0.7189  0.2441
 1239SOL    HW115176   4.514   3.684  13.210 -0.2186 -1.1476 -1.0146
 1239SOL    HW215177   4.595   3.765  13.110  0.2994  0.7745  0.5386
 1240SOL     OW15178   0.724   3.073  12.667 -0.4775 -0.3246  0.1280
 1240SOL    HW115179   0.719   2.993  12.613 -1.4172  1.4473 -2.4373
 1240SOL    HW215180   0.686   3.042  12.749  1.2043 -1.6255  0.4224
 1241SOL     OW15181   3.680   4.498   5.220  0.3528  0.0755 -0.7380
 1241SOL    HW115182   3.595   4.459   5.239  1.1577 -1.1863  0.2886
 1241SOL    HW215183   3.655   4.585   5.190 -0.9095 -0.0483 -0.0260
 1242SOL     OW15184   0.627   1.923   8.969 -0.0986  1.3475  0.3102
 1242SOL    HW115185   0.645   1.984   9.041 -0.8785  1.2535  0.5891
 1242SOL    HW215186   0.540   1.903   9.003  0.5720 -1.0670  0.6406
 1243SOL     OW15187   0.860   1.632   9.685 -0.2132  0.2056  0.0725
 1243SOL    HW115188   0.845   1.660   9.776 -4.2204  0.8547 -0.8084
 1243SOL    HW215189   0.787   1.661   9.631  0.4112  1.3102 -0.1809
 1244SOL     OW15190   0.425   0.230  14.389 -0.1132  0.2634  0.1331
 1244SOL    HW115191   0.379   0.291  14.331  0.7250 -0.0403 -0.8595
 1244SOL    HW215192   0.395   0.254  14.477  1.1310 -0.7634  0.8375
 1245SOL     OW15193   2.363   2.733   0.379  0.4225  0.3128  0.2645
 1245SOL    HW115194   2.394   2.762   0.464 -0.2826 -2.3866  1.4446
 1245SOL    HW215195   2.417   2.655   0.367  1.0268  0.8243 -0.3273
 1246SOL     OW15196   0.897   4.206   6.768  0.0250 -0.3831  0.1651
 1246SOL    HW115197   0.946   4.128   6.793 -1.6250 -0.2608  3.8090
 1246SOL    HW215198   0.931   4.239   6.685 -0.1247  0.8775  0.6047
 1247SOL     OW15199   1.234   2.820   1.547 -0.0869  0.6650  0.1781
 1247SOL    HW115200   1.202   2.898   1.593 -0.3636  0.6865 -0.0490
 1247SOL    HW215201   1.329   2.819   1.552 -0.0838 -1.3402 -0.2389
 1248SOL     OW15202   0.611   4.223  14.251 -0.2281 -0.0322 -0.0771
 1248SOL    HW115203   0.635   4.316  14.248 -0.3765  0.0581  2.1967
 1248SOL    HW215204   0.698   4.192  14.228 -0.7962 -0.9612 -0.9797
 1249SOL     OW15205   3.839   3.422  14.120  0.5154  0.1579  0.3637
 1249SOL    HW115206   3.855   3.366  14.196 -0.8014  0.6033  0.9510
 1249SOL    HW215207   3.881   3.375  14.047 -0.4993  0.6643 -0.5463
 1250SOL     OW15208   4.037   1.398   2.642  0.1439  0.0448 -0.2274
 1250SOL    HW115209   4.020   1.311   2.607 -0.4794 -0.9282  2.4629
 1250SOL    HW215210   3.948   1.433   2.654  0.1575 -0.5873  1.8238
 1251SOL     OW15211   3.547   3.116   0.619 -0.2796  0.0251  0.4657
 1251SOL    HW115212   3.504   3.130   0.704  0.1946 -1.2963  0.9191
 1251SOL    HW215213   3.487   3.165   0.562 -1.4322 -1.1258  0.6943
 1252SOL     OW15214   2.068   0.253  17.368 -0.3929 -0.2021 -0.6428
 1252SOL    HW115215   2.152   0.218  17.399 -0.7360 -0.4054  0.0578
 1252SOL    HW215216   2.026   0.170  17.346 -2.5885  0.6737  0.2889
 1253SOL     OW15217   1.154   0.289   3.619  0.1313  0.1921  0.0793
 1253SOL    HW115218   1.204   0.334   3.551 -0.4438 -1.4876 -1.4703
 1253SOL    HW215219   1.069   0.309   3.581 -0.2984  1.4739  1.7175
 1254SOL     OW15220   1.211   1.956   7.284 -0.7321  0.4848  0.2794
 1254SOL    HW115221   1.181   1.876   7.241  0.9634 -0.2541  0.4579
 1254SOL    HW215222   1.295   1.916   7.308  0.4886  2.6975 -0.3171
 1255SOL     OW15223   4.297   4.285  10.081  0.4934 -0.2252 -0.1104
 1255SOL    HW115224   4.204   4.308  10.076  0.4023 -0.4061  0.6857
 1255SOL    HW215225   4.321   4.253   9.994 -0.1289  2.2443 -1.1854
 1256SOL     OW15226   1.073   0.662  17.601 -0.3727  0.1019 -0.1486
 1256SOL    HW115227   1.093   0.589  17.542  0.6244 -0.4713  0.9103
 1256SOL    HW215228   1.159   0.679  17.640 -0.2647  0.1774 -0.4180
 1257SOL     OW15229   0.550   1.311   5.190 -0.2397 -0.1283  0.0373
 1257SOL    HW115230   0.630   1.316   5.138 -0.3886 -2.3544 -0.4274
 1257SOL    HW215231   0.486   1.257   5.143 -0.4454 -1.5350  1.9420
 1258SOL     OW15232   3.569   4.183   1.973  0.1794 -0.2301 -0.5986
 1258SOL    HW115233   3.549   4.103   1.924  0.2351  1.1231 -2.8437
 1258SOL    HW215234   3.661   4.169   1.996  0.5759  0.2816 -1.8523
 1259SOL     OW15235   0.732   3.591   6.100  0.1301 -0.3086 -0.2407
 1259SOL    HW115236   0.757   3.683   6.095 -0.9603  0.0692  1.0403
 1259SOL    HW215237   0.671   3.574   6.029  1.4655 -0.9517 -1.2238
 1260SOL     OW15238   3.939   1.434   5.736  0.3782  0.4524  0.4263
 1260SOL    HW115239   3.912   1.367   5.673  1.0047  0.5531  0.0517
 1260SOL    HW215240   3.979   1.376   5.801 -0.0924 -0.8180 -0.4169
 1261SOL     OW15241   3.476   3.292   6.498  0.2105 -0.7316 -0.6685
 1261SOL    HW115242   3.424   3.275   6.576 -1.4282  0.6659 -1.4428
 1261SOL    HW215243   3.514   3.377   6.520  0.6075 -0.7434 -1.2967
 1262SOL     OW15244   1.467   1.644   3.053  0.4308  0.3947 -0.2059
 1262SOL    HW115245   1.501   1.715   3.107  0.9618  2.1480 -2.8128
 1262SOL    HW215246   1.540   1.589   3.025 -0.6235 -0.6227 -0.9679
 1263SOL     OW15247   3.850   1.475  17.487  0.1712  0.0605 -0.3381
 1263SOL    HW115248   3.867   1.428  17.568 -0.2216  0.3871 -0.0625
 1263SOL    HW215249   3.826   1.559  17.526  0.4567 -0.3787  0.7621
 1264SOL     OW15250   0.605   3.560   6.586  0.7065 -0.1153 -0.2304
 1264SOL    HW115251   0.648   3.594   6.507  0.9210  0.4765  0.1345
 1264SOL    HW215252   0.632   3.625   6.652  0.5633 -0.2085 -0.0804
 1265SOL     OW15253   0.770   3.279   1.903 -0.2318  0.6859 -0.6060
 1265SOL    HW115254   0.832   3.213   1.874  1.3043  1.7947  0.1065
 1265SOL    HW215255   0.737   3.241   1.985  0.3558 -0.9409 -1.1407
 1266SOL     OW15256   2.356   1.355   8.853 -0.0794 -0.0214  0.4052
 1266SOL    HW115257   2.434   1.302   8.837  0.0015 -0.6702  3.0239
 1266SOL    HW215258   2.390   1.445   8.857  1.0387 -0.4844  1.3920
 1267SOL     OW15259   1.174   3.818  14.414 -0.1994  0.1816 -0.0633
 1267SOL    HW115260   1.096   3.873  14.424 -1.3577 -1.5874  0.5577
 1267SOL    HW215261   1.210   3.807  14.501  0.7123 -0.9593 -0.5919
 1268SOL     OW15262   2.672   4.302   4.102 -0.0627 -0.2870  0.3828
 1268SOL    HW115263   2.588   4.327   4.064 -0.0597 -3.2378 -1.5224
 1268SOL    HW215264   2.709   4.242   4.037  0.1916 -0.9071  1.1098
 1269SOL     OW15265   0.005   2.702   4.456 -0.4421  0.0746 -0.1779
 1269SOL    HW115266   4.683   2.656   4.386  0.8731  0.6133 -1.3730
 1269SOL    HW215267   4.668   2.684   4.528 -1.9274  0.7878 -1.2657
 1270SOL     OW15268   2.998   4.239   3.882 -0.1328 -0.4317  0.7843
 1270SOL    HW115269   3.062   4.183   3.926  0.1847 -0.1929  0.6289
 1270SOL    HW215270   3.010   4.224   3.789  1.2070 -0.3652  0.9467
 1271SOL     OW15271   2.436   4.709  16.622 -0.6226 -0.2301 -0.0104
 1271SOL    HW115272   2.372   0.056  16.615 -1.3167 -0.6914  1.7604
 1271SOL    HW215273   2.504   0.012  16.560  0.6981 -1.6351  0.8267
 1272SOL     OW15274   4.390   1.187   9.294  0.6104  0.0642 -0.3846
 1272SOL    HW115275   4.305   1.230   9.280  1.2198  1.2492 -0.4024
 1272SOL    HW215276   4.447   1.246   9.245 -1.2373  1.2553 -1.1240
 1273SOL     OW15277   3.559   4.442   1.811  0.3544  0.7288 -0.1664
 1273SOL    HW115278   3.652   4.444   1.790  0.3394  2.3029 -0.0651
 1273SOL    HW215279   3.546   4.350   1.834 -1.4944  0.5852 -1.7824
 1274SOL     OW15280   3.413   2.832  17.191 -0.4362  0.0315  0.5953
 1274SOL    HW115281   3.359   2.756  17.171  0.3540 -0.3981  0.1022
 1274SOL    HW215282   3.496   2.787  17.180 -0.2427  0.4842  0.2007
 1275SOL     OW15283   3.759   4.161  17.335  0.0236 -0.5619  0.0855
 1275SOL    HW115284   3.851   4.176  17.358 -0.7662  1.2700  2.0515
 1275SOL    HW215285   3.731   4.083  17.383 -1.8905 -0.3501 -0.6675
 1276SOL     OW15286   2.836   3.304   5.314 -0.0570 -0.0239 -0.4683
 1276SOL    HW115287   2.886   3.342   5.385  0.1359  2.0242 -1.6969
 1276SOL    HW215288   2.889   3.320   5.236  0.6953  0.1750  0.0928
 1277SOL     OW15289   2.525   2.435   2.462  0.5924  0.2134 -0.2785
 1277SOL    HW115290   2.595   2.403   2.405  0.4511 -1.2791  0.3807
 1277SOL    HW215291   2.534   2.530   2.463  0.5135  0.2395 -1.7351
 1278SOL     OW15292   4.633   4.288   1.511  0.0502 -0.0955  0.1360
 1278SOL    HW115293   4.575   4.364   1.501  0.8107  0.5665  0.8019
 1278SOL    HW215294   4.703   4.319   1.568 -0.2187 -0.5846  0.7352
 1279SOL     OW15295   0.294   2.793   6.336 -0.6314  0.2580 -0.0185
 1279SOL    HW115296   0.212   2.844   6.335 -1.6328 -1.3776 -0.4596
 1279SOL    HW215297   0.257   2.707   6.318  0.0442  0.0887 -0.5450
 1280SOL     OW15298   2.755   4.387   3.409 -0.0227 -0.1772  0.8418
 1280SOL    HW115299   2.749   4.292   3.402 -1.5525 -0.0055 -0.1508
 1280SOL    HW215300   2.848   4.403   3.391 -0.2408  0.9749  0.7047
 1281SOL     OW15301   2.942   3.738  14.205  0.3893  0.3790 -0.8199
 1281SOL    HW115302   3.029   3.698  14.210  0.1166 -0.0764  0.5731
 1281SOL    HW215303   2.878   3.672  14.179 -1.2668  1.1570  1.3131
 1282SOL     OW15304   0.920   0.894  16.339 -0.7105 -0.4912 -0.4548
 1282SOL    HW115305   0.840   0.886  16.288 -0.4086  0.3577 -1.0634
 1282SOL    HW215306   0.917   0.985  16.367  0.6139 -0.4004 -0.5849
 1283SOL     OW15307   1.906   1.211  17.000  0.0226 -0.2778  0.1878
 1283SOL    HW115308   1.947   1.153  17.064 -2.8237 -3.4728 -0.9177
 1283SOL    HW215309   1.895   1.150  16.927 -2.4600  0.0818  0.2658
 1284SOL     OW15310   2.220   0.502   6.921  0.1944 -0.0040  0.1508
 1284SOL    HW115311   2.199   0.444   6.994  2.1759 -0.6650  0.1915
 1284SOL    HW215312   2.224   0.442   6.846  0.1658  0.3233 -0.1127
 1285SOL     OW15313   0.106   1.280   6.255 -0.8250 -0.6197 -0.2805
 1285SOL    HW115314   0.171   1.298   6.323  1.3723 -0.7168 -2.3488
 1285SOL    HW215315   0.166   1.242   6.190 -0.3120 -1.4023  0.6517
 1286SOL     OW15316   2.103   0.282   0.760 -0.6453 -0.2888  0.0787
 1286SOL    HW115317   2.055   0.323   0.832 -0.4886 -0.8013  0.4791
 1286SOL    HW215318   2.106   0.348   0.691  0.1934  0.0765  0.4759
 1287SOL     OW15319   1.363   4.582  14.210 -0.0034  0.0566 -0.1400
 1287SOL    HW115320   1.356   4.580  14.114  0.5636  1.2805 -0.1958
 1287SOL    HW215321   1.413   4.503  14.231 -0.3620  0.0310  0.6223
 1288SOL     OW15322   2.545   3.507   7.371  0.0152  0.4847  0.4343
 1288SOL    HW115323   2.623   3.496   7.426 -1.4336 -1.4457  2.0695
 1288SOL    HW215324   2.577   3.481   7.285  0.4930  0.4245  0.6264
 1289SOL     OW15325   1.139   4.323   7.225 -0.0962 -0.0604 -0.1656
 1289SOL    HW115326   1.109   4.317   7.135 -0.7787 -0.1189  0.0584
 1289SOL    HW215327   1.232   4.301   7.226 -0.1658 -0.3389  3.0819
 1290SOL     OW15328   0.104   3.516   8.201 -0.2100  0.2822  0.3462
 1290SOL    HW115329   0.057   3.599   8.209 -0.6466  0.0494  0.2166
 1290SOL    HW215330   0.189   3.542   8.166  0.3350 -2.2526 -0.1614
 1291SOL     OW15331   0.739   0.106   3.769  0.2790 -0.0718  0.5994
 1291SOL    HW115332   0.682   0.057   3.710  0.8013 -1.5743  1.3447
 1291SOL    HW215333   0.682   0.122   3.844  1.0497  1.8916  0.7825
 1292SOL     OW15334   1.317   2.125   3.674 -0.4461  0.3602  0.2440
 1292SOL    HW115335   1.277   2.161   3.753 -0.7185 -2.2737  1.2801
 1292SOL    HW215336   1.347   2.041   3.705  2.3630  1.9230  1.7056
 1293SOL     OW15337   4.473   1.162  16.254 -0.2850  0.0900 -0.1243
 1293SOL    HW115338   4.379   1.151  16.264  0.0556 -0.6126  2.3347
 1293SOL    HW215339   4.485   1.233  16.191 -1.7155 -0.8959 -1.5169
 1294SOL     OW15340   0.897   2.440   2.786  0.3916 -0.0960 -0.0143
 1294SOL    HW115341   0.808   2.475   2.780  1.4488  3.0978  2.8535
 1294SOL    HW215342   0.947   2.519   2.805 -0.5686  0.7692 -1.0924
 1295SOL     OW15343   2.164   3.548   4.020  0.5397  0.7908 -0.2297
 1295SOL    HW115344   2.125   3.496   4.090 -0.2770 -0.8031 -1.8854
 1295SOL    HW215345   2.240   3.491   4.010  1.0061  1.4860 -0.6074
 1296SOL     OW15346   0.690   3.343   6.746 -0.5142 -0.4679 -0.7069
 1296SOL    HW115347   0.663   3.406   6.679  0.2050  1.2719  0.6444
 1296SOL    HW215348   0.705   3.269   6.687 -2.2450 -1.1619 -0.2699
 1297SOL     OW15349   4.283   3.727  12.888  0.1119  0.0331 -0.5464
 1297SOL    HW115350   4.317   3.812  12.862  0.4109 -0.1893 -0.8724
 1297SOL    HW215351   4.229   3.705  12.812  0.2202  0.2624 -0.6878
 1298SOL     OW15352   4.080   0.071   9.810  0.0187 -0.0395  0.6099
 1298SOL    HW115353   3.988   0.052   9.828 -0.0492 -0.8075 -0.5283
 1298SOL    HW215354   4.103   0.013   9.737  0.2742  1.7547 -0.7387
 1299SOL     OW15355   3.516   4.662   8.408  0.0907  0.4655  0.2288
 1299SOL    HW115356   3.593   4.710   8.376 -0.9191  1.0364 -1.3644
 1299SOL    HW215357   3.571   4.595   8.448 -1.2927  0.1968  1.6603
 1300SOL     OW15358   4.063   4.598   6.377  0.3614  0.0592  0.2004
 1300SOL    HW115359   4.084   4.513   6.339 -0.6634  0.2544 -0.7816
 1300SOL    HW215360   4.144   4.634   6.413  1.0201 -0.2589 -0.9621
 1301SOL     OW15361   1.165   3.963   3.146 -0.7002 -0.4070 -0.1319
 1301SOL    HW115362   1.076   3.929   3.134 -1.1487  0.4297  0.7417
 1301SOL    HW215363   1.206   3.963   3.060  0.2864  1.4252  0.3276
 1302SOL     OW15364   1.944   4.349   5.685  0.2308 -0.5793  0.8352
 1302SOL    HW115365   1.984   4.350   5.598 -1.4218  1.9659  0.1274
 1302SOL    HW215366   2.018   4.336   5.745  1.2439 -2.9122 -0.9003
 1303SOL     OW15367   0.006   3.934   3.226  0.2826 -0.7318 -0.7955
 1303SOL    HW115368   0.042   3.951   3.313  0.6430 -1.8582 -0.7219
 1303SOL    HW215369   4.659   3.996   3.209  0.6810 -1.2638 -4.3024
 1304SOL     OW15370   4.651   1.475   6.209  0.6575  0.4557 -0.0067
 1304SOL    HW115371   4.721   1.534   6.182  0.1727  0.6704 -0.8012
 1304SOL    HW215372   4.711   1.401   6.213  0.1717 -0.1074 -2.6430
 1305SOL     OW15373   4.285   0.254  15.478  0.2123 -0.0045 -0.0058
 1305SOL    HW115374   4.208   0.272  15.532  0.7469 -0.6192  0.9668
 1305SOL    HW215375   4.301   0.161  15.495  0.4165  0.2471  1.2228
 1306SOL     OW15376   4.529   0.155   3.261  0.1244  0.3857 -0.0694
 1306SOL    HW115377   4.521   0.250   3.276 -0.7008  0.0475  1.6722
 1306SOL    HW215378   4.535   0.126   3.352  1.5718  0.4011 -0.1641
 1307SOL     OW15379   1.034   4.273   6.127 -0.2428 -0.2858 -0.2219
 1307SOL    HW115380   0.982   4.315   6.059 -1.1875  1.6939  1.7408
 1307SOL    HW215381   1.113   4.327   6.136 -3.0835  3.4229  2.1337
 1308SOL     OW15382   1.977   4.463   2.663 -0.0610  0.1367 -0.2689
 1308SOL    HW115383   1.972   4.538   2.603 -0.2193 -0.4425 -0.9702
 1308SOL    HW215384   1.961   4.504   2.748  1.4022 -0.7317  0.4232
 1309SOL     OW15385   2.184   3.111  15.375  0.1425 -0.6174  0.6017
 1309SOL    HW115386   2.114   3.111  15.441 -0.7900 -0.0274 -0.3949
 1309SOL    HW215387   2.175   3.200  15.340  1.3832 -0.3794  0.8991
 1310SOL     OW15388   1.165   0.478  16.282  0.2228 -0.3119  0.3022
 1310SOL    HW115389   1.073   0.491  16.257  0.0768 -0.2450  0.8669
 1310SOL    HW215390   1.188   0.405  16.225  0.6482 -0.9765  1.3203
 1311SOL     OW15391   1.531   1.175   3.267  0.5325  0.0141  0.1135
 1311SOL    HW115392   1.545   1.107   3.333  0.0801 -0.7512 -0.5770
 1311SOL    HW215393   1.435   1.176   3.260  0.6317  1.2156 -0.8676
 1312SOL     OW15394   1.995   0.124   2.722  0.2139  0.5003 -0.2448
 1312SOL    HW115395   1.996   0.076   2.639  1.5711  0.8100 -0.3980
 1312SOL    HW215396   2.055   0.072   2.774  1.0349 -0.5812 -2.2427
 1313SOL     OW15397   0.575   2.879  17.257  0.0219 -0.3566 -0.1706
 1313SOL    HW115398   0.510   2.919  17.315  1.2730  1.6799 -0.1595
 1313SOL    HW215399   0.652   2.874  17.314  1.2536 -0.1785 -1.8010
 1314SOL     OW15400   1.525   1.211   1.178 -0.0625 -0.1767 -0.5264
 1314SOL    HW115401   1.504   1.127   1.139  2.6909 -0.2371 -1.8378
 1314SOL    HW215402   1.471   1.270   1.124  1.9035  1.3873 -0.7776
 1315SOL     OW15403   0.231   2.358  16.144 -0.1811 -0.2627 -0.1951
 1315SOL    HW115404   0.230   2.432  16.204 -1.2622 -1.7809  1.6317
 1315SOL    HW215405   0.242   2.274  16.188 -0.2366 -0.6901 -0.9891
 1316SOL     OW15406   2.822   3.067   5.137 -0.8093 -0.2250  0.0562
 1316SOL    HW115407   2.828   3.037   5.228  1.5787 -1.0916 -0.4196
 1316SOL    HW215408   2.882   3.142   5.136 -1.2263  0.1275  1.3133
 1317SOL     OW15409   1.727   2.306   7.078 -0.0042 -0.4200 -0.2145
 1317SOL    HW115410   1.757   2.388   7.040 -0.4496 -0.2131 -0.1253
 1317SOL    HW215411   1.721   2.330   7.170  0.8501  0.3836 -0.3754
 1318SOL     OW15412   3.111   1.814  16.718 -0.1012 -0.0915  0.0572
 1318SOL    HW115413   3.200   1.780  16.713 -0.0659 -0.0040  0.0897
 1318SOL    HW215414   3.062   1.733  16.710 -1.4631  0.9945 -2.5626
 1319SOL     OW15415   1.663   4.316  11.662  0.1330  0.3211  0.5514
 1319SOL    HW115416   1.710   4.349  11.585 -4.7092  1.0249 -2.1417
 1319SOL    HW215417   1.573   4.348  11.653  0.0029 -0.0076  0.6873
 1320SOL     OW15418   4.151   0.276   2.568  0.1845 -0.4063  0.2194
 1320SOL    HW115419   4.226   0.261   2.626 -0.0202  1.4482  0.9315
 1320SOL    HW215420   4.098   0.204   2.602  2.8568 -1.8166  1.4524
 1321SOL     OW15421   0.484   4.614   6.881  0.0386  0.2921 -0.2672
 1321SOL    HW115422   0.501   4.523   6.904  1.1488  0.2607 -1.2064
 1321SOL    HW215423   0.461   4.607   6.788  0.1609  2.8368 -0.5075
 1322SOL     OW15424   0.413   2.906   8.243  0.5315  0.4088 -0.6698
 1322SOL    HW115425   0.322   2.890   8.266  0.1225  2.1617 -1.0629
 1322SOL    HW215426   0.458   2.853   8.309 -0.1714  1.1909  0.4330
 1323SOL     OW15427   2.968   1.919   2.833 -0.5270  0.1575 -0.1956
 1323SOL    HW115428   3.036   1.854   2.819 -2.1551 -0.8294 -3.7544
 1323SOL    HW215429   2.947   1.913   2.926 -2.8850  2.0770 -0.6024
 1324SOL     OW15430   4.468   0.580  11.894 -0.3919  0.0855 -0.3888
 1324SOL    HW115431   4.406   0.651  11.875 -0.6312 -0.6372 -2.3533
 1324SOL    HW215432   4.512   0.567  11.810 -0.5217 -2.3975 -0.0714
 1325SOL     OW15433   0.252   3.726   4.331  0.6769  0.7364  0.0209
 1325SOL    HW115434   0.284   3.692   4.248  0.9994 -0.3518  0.5859
 1325SOL    HW215435   0.207   3.803   4.297 -1.7464 -0.5069  0.4312
 1326SOL     OW15436   1.956   0.131  11.387 -0.0699  0.4022  0.3292
 1326SOL    HW115437   1.955   0.181  11.305  0.8745 -1.1154 -0.5989
 1326SOL    HW215438   1.914   0.191  11.449 -0.8434  1.7655 -1.5165
 1327SOL     OW15439   1.790   4.532   6.641 -0.0748  0.1565 -0.1593
 1327SOL    HW115440   1.772   4.445   6.677  1.9658  0.5645  1.8490
 1327SOL    HW215441   1.715   4.557   6.587 -1.1012 -1.3592  0.5576
 1328SOL     OW15442   3.803   0.905   6.811 -0.1208 -0.4838  0.0707
 1328SOL    HW115443   3.813   0.992   6.774  0.9664  0.2224  1.9836
 1328SOL    HW215444   3.732   0.923   6.874  0.0064 -0.5004  0.2197
 1329SOL     OW15445   1.913   4.319   9.861  0.1390 -0.2389 -0.4958
 1329SOL    HW115446   1.930   4.226   9.876  0.0392 -0.1825 -0.0386
 1329SOL    HW215447   1.994   4.334   9.812  0.3800 -0.4151 -0.1468
 1330SOL     OW15448   2.855   2.877   7.865 -0.2424 -0.3165  0.3435
 1330SOL    HW115449   2.764   2.873   7.834 -0.0400  1.6204 -0.5173
 1330SOL    HW215450   2.898   2.911   7.786 -3.0721  0.1368 -1.0138
 1331SOL     OW15451   3.849   1.391   7.778 -0.4494 -0.1016  0.0777
 1331SOL    HW115452   3.924   1.436   7.816 -2.0840  1.4408  1.4617
 1331SOL    HW215453   3.821   1.359   7.864  2.0064 -3.2394 -0.2817
 1332SOL     OW15454   0.266   4.619   1.515  0.5975 -0.1069  0.0746
 1332SOL    HW115455   0.220   4.696   1.549  0.0566 -0.7755  0.8498
 1332SOL    HW215456   0.193   4.578   1.468 -1.0463  0.3763  2.2018
 1333SOL     OW15457   4.656   2.890  11.907 -0.4968  0.0743  0.3219
 1333SOL    HW115458   4.720   2.826  11.878 -0.3302 -0.4318  1.8220
 1333SOL    HW215459   4.580   2.832  11.896 -1.0214  0.9845 -0.9038
 1334SOL     OW15460   1.508   3.285  12.161  0.1340 -0.1649  0.4956
 1334SOL    HW115461   1.443   3.353  12.141 -1.3562 -1.3944  1.1261
 1334SOL    HW215462   1.552   3.335  12.229  0.9096  2.2952 -1.7896
 1335SOL     OW15463   3.613   0.156   4.489 -0.1674  0.1632 -0.6646
 1335SOL    HW115464   3.561   0.091   4.537 -0.7307  0.9625 -0.1900
 1335SOL    HW215465   3.701   0.139   4.520 -0.3252 -0.6494 -0.6585
 1336SOL     OW15466   2.052   3.396   4.943  0.1046  0.6114  0.2659
 1336SOL    HW115467   2.080   3.468   4.999  1.1402  2.1482 -2.2175
 1336SOL    HW215468   1.961   3.372   4.963 -0.6097  1.9047 -1.4157
 1337SOL     OW15469   1.320   4.099   2.908 -0.2464  0.2549 -0.3246
 1337SOL    HW115470   1.319   4.189   2.876 -0.7047 -0.6201 -2.7130
 1337SOL    HW215471   1.383   4.060   2.848  0.4320  2.1211 -0.8221
 1338SOL     OW15472   3.856   3.045  11.221  0.5547 -0.2393  0.5178
 1338SOL    HW115473   3.922   2.976  11.228  0.6869 -0.0962  0.7012
 1338SOL    HW215474   3.795   3.020  11.291  2.0374 -2.1156  1.1288
 1339SOL     OW15475   2.410   0.661  13.448  0.4373 -1.2658 -0.5218
 1339SOL    HW115476   2.382   0.717  13.376  0.6973 -1.1717 -0.5476
 1339SOL    HW215477   2.338   0.683  13.507 -0.4924 -0.7571 -1.8656
 1340SOL     OW15478   2.389   0.922   6.229 -0.3145  0.0132  0.4000
 1340SOL    HW115479   2.425   0.985   6.166  0.6512 -1.7854 -0.8523
 1340SOL    HW215480   2.427   0.836   6.208 -1.7174 -1.1443  2.5912
 1341SOL     OW15481   4.544   2.269   1.658 -0.2250 -0.7892 -0.0431
 1341SOL    HW115482   4.512   2.331   1.592  1.9089  1.1729  0.7559
 1341SOL    HW215483   4.462   2.220   1.657 -0.6221 -0.1385  2.8266
 1342SOL     OW15484   1.485   4.167   6.291  0.0780  0.1665 -0.1662
 1342SOL    HW115485   1.549   4.100   6.266 -0.5013 -0.6042  0.4300
 1342SOL    HW215486   1.470   4.205   6.204 -0.9205  0.5735  0.1897
 1343SOL     OW15487   2.666   0.312   3.302  0.2938  0.5621  0.2235
 1343SOL    HW115488   2.590   0.296   3.246 -0.7106  0.8016  1.4995
 1343SOL    HW215489   2.623   0.311   3.388  0.7152 -0.2535  0.4176
 1344SOL     OW15490   3.055   2.014   5.970  0.3441  0.0523 -0.1865
 1344SOL    HW115491   3.088   1.999   6.059  0.4123 -2.6650 -0.6650
 1344SOL    HW215492   3.018   2.101   5.981  0.3168 -0.0090  0.2323
 1345SOL     OW15493   3.086   0.982  13.947 -0.2632 -0.1575 -0.1393
 1345SOL    HW115494   3.099   1.065  13.992 -0.9998 -0.3126  0.3605
 1345SOL    HW215495   3.126   0.919  14.008 -3.0433 -0.3213  1.5176
 1346SOL     OW15496   4.309   0.254  10.087  0.3939  0.1395  0.0439
 1346SOL    HW115497   4.369   0.248  10.013 -0.4365  1.2283 -0.7131
 1346SOL    HW215498   4.300   0.161  10.107  1.1131 -0.0611 -0.5398
 1347SOL     OW15499   1.908   2.372   3.558  0.2701 -0.0091  0.0927
 1347SOL    HW115500   1.925   2.378   3.464 -0.5973  0.0393 -0.0589
 1347SOL    HW215501   1.887   2.279   3.565 -0.7446  0.1743 -0.5978
 1348SOL     OW15502   1.567   4.472  17.373  0.7358  0.5761  0.1694
 1348SOL    HW115503   1.548   4.562  17.399 -0.7315  0.9847 -2.2493
 1348SOL    HW215504   1.580   4.490  17.280 -0.3856  0.2909 -0.0522
 1349SOL     OW15505   1.759   0.930   9.931  0.1406 -0.5137 -0.3155
 1349SOL    HW115506   1.699   0.890   9.995  3.9998 -3.6403  1.3668
 1349SOL    HW215507   1.846   0.919   9.969 -0.5902 -0.5847  1.3738
 1350SOL     OW15508   4.273   2.047  11.377 -0.1326  0.1461  0.6715
 1350SOL    HW115509   4.261   2.100  11.298  0.1061 -0.0872  0.4778
 1350SOL    HW215510   4.256   2.110  11.447  0.6728  1.2024 -0.0910
 1351SOL     OW15511   2.327   2.768  17.668 -0.1566  0.4399  0.6170
 1351SOL    HW115512   2.275   2.788   0.049 -2.7645 -0.2537 -0.9626
 1351SOL    HW215513   2.367   2.853  17.655 -0.9122  0.9437  1.5547
 1352SOL     OW15514   2.368   1.998  17.653 -0.4450  0.0410  0.4373
 1352SOL    HW115515   2.288   1.967  17.610  0.4005  1.2428 -2.0052
 1352SOL    HW215516   2.389   1.933   0.023 -0.9520 -1.1335 -0.5508
 1353SOL     OW15517   2.192   0.082   4.384  0.2940  0.1723 -0.0735
 1353SOL    HW115518   2.103   0.106   4.358 -0.2752 -0.1506  1.5667
 1353SOL    HW215519   2.240   0.123   4.312 -3.1510  1.9787 -1.3285
 1354SOL     OW15520   3.560   1.206   4.565 -0.8744 -0.0288  0.2195
 1354SOL    HW115521   3.551   1.296   4.534 -1.5585  0.2830  1.2998
 1354SOL    HW215522   3.615   1.219   4.642  1.3547  0.4902 -1.4661
 1355SOL     OW15523   0.226   2.732   5.302  0.4911  0.1243  0.1191
 1355SOL    HW115524   0.277   2.721   5.382 -2.2057  0.7039  1.9105
 1355SOL    HW215525   0.291   2.768   5.242 -0.2403  0.4059 -0.4914
 1356SOL     OW15526   1.818   0.205   8.722 -0.1459 -0.5397 -0.3582
 1356SOL    HW115527   1.880   0.209   8.649 -0.7049 -1.5952 -0.8957
 1356SOL    HW215528   1.827   0.112   8.745  0.3469 -0.3196  0.3147
 1357SOL     OW15529   3.067   0.546   2.445 -0.0047  0.7698  0.6643
 1357SOL    HW115530   3.086   0.459   2.409 -0.7244  2.3036 -3.3387
 1357SOL    HW215531   3.001   0.514   2.506  1.1278  0.2335  1.6087
 1358SOL     OW15532   0.606   1.574   3.394 -0.3617  0.0073 -0.5669
 1358SOL    HW115533   0.528   1.622   3.363  0.1254 -1.0151 -3.4167
 1358SOL    HW215534   0.656   1.639   3.443 -0.3749  0.0570 -0.6194
 1359SOL     OW15535   1.445   3.548  16.009  0.1907  0.1391 -0.4502
 1359SOL    HW115536   1.511   3.614  16.030  0.9429 -0.3447 -1.3085
 1359SOL    HW215537   1.449   3.552  15.913 -0.3793 -2.0477 -0.5750
 1360SOL     OW15538   0.126   2.287   3.467  0.3083 -0.0555  0.3139
 1360SOL    HW115539   0.038   2.279   3.503 -0.3632  2.5420 -0.7234
 1360SOL    HW215540   0.149   2.199   3.438  0.1934 -0.9059  2.7958
 1361SOL     OW15541   3.138   3.118   0.521 -0.6555 -0.1108  0.0535
 1361SOL    HW115542   3.172   3.054   0.584  0.1481  1.2268  0.9744
 1361SOL    HW215543   3.048   3.089   0.507 -0.1021 -1.2617 -1.1583
 1362SOL     OW15544   0.263   4.588   4.944 -0.1218  0.1405  0.3422
 1362SOL    HW115545   0.323   4.639   4.890 -0.6581 -1.3465 -1.6392
 1362SOL    HW215546   0.307   4.503   4.949 -2.7451 -1.1770  1.6707
 1363SOL     OW15547   2.872   0.036  15.386  0.2384  0.4072 -0.3747
 1363SOL    HW115548   2.779   0.055  15.378  0.3128  1.1104  0.4405
 1363SOL    HW215549   2.874   4.679  15.335 -0.2931 -0.1495  0.4871
 1364SOL     OW15550   0.305   3.504   5.427 -1.0029 -0.7112 -0.1604
 1364SOL    HW115551   0.228   3.448   5.439 -0.9718 -0.4402  1.2197
 1364SOL    HW215552   0.339   3.461   5.348 -0.2734 -0.1575 -0.1415
 1365SOL     OW15553   3.396   3.998  15.367 -0.2446  0.5051 -0.2724
 1365SOL    HW115554   3.328   4.000  15.434  0.6836 -0.0311  0.6950
 1365SOL    HW215555   3.347   3.994  15.285 -0.0790  0.3281 -0.3640
 1366SOL     OW15556   1.706   1.497   9.422 -0.1479  0.1772  0.1704
 1366SOL    HW115557   1.680   1.443   9.497 -0.2684 -0.4929 -0.3541
 1366SOL    HW215558   1.704   1.578   9.472  2.3957  0.5597 -0.3287
 1367SOL     OW15559   3.107   1.029   8.373  0.0170 -0.0440  0.3123
 1367SOL    HW115560   3.021   1.003   8.406 -0.1789 -1.6271 -1.4625
 1367SOL    HW215561   3.107   0.984   8.289  0.1825  0.3599  0.0970
 1368SOL     OW15562   4.659   2.816  15.723 -0.3731 -0.4027 -0.0435
 1368SOL    HW115563   0.023   2.852  15.733 -0.7173 -0.0541  1.6747
 1368SOL    HW215564   4.674   2.735  15.673  1.4948 -0.7901  1.1679
 1369SOL     OW15565   4.711   0.479   4.735  0.0446 -0.6033  0.2404
 1369SOL    HW115566   4.663   0.528   4.802 -0.6565  1.3883 -1.6891
 1369SOL    HW215567   0.066   0.448   4.780 -0.1050  0.4784  1.2272
 1370SOL     OW15568   2.991   4.614   1.792 -0.1467 -0.7867  0.1292
 1370SOL    HW115569   3.063   4.566   1.750  0.7567  1.2200 -0.6689
 1370SOL    HW215570   2.962   4.568   1.870  1.8264 -1.6080  0.3763
 1371SOL     OW15571   2.559   0.937   7.589  0.0288  0.0690 -0.5176
 1371SOL    HW115572   2.592   0.880   7.520 -1.0743  1.2059 -1.9809
 1371SOL    HW215573   2.618   0.927   7.664 -1.9959 -0.0478  1.0459
 1372SOL     OW15574   0.239   1.761  17.630  0.4790 -0.0665 -0.0774
 1372SOL    HW115575   0.240   1.852  17.599 -2.0374  0.3881  1.1516
 1372SOL    HW215576   0.326   1.722  17.621 -0.0047 -1.2012  0.2650
 1373SOL     OW15577   1.775   1.616   5.131  0.6477  0.3379 -0.5095
 1373SOL    HW115578   1.778   1.655   5.218  1.9430 -0.6056 -0.1515
 1373SOL    HW215579   1.726   1.681   5.079  2.8136 -0.2803 -3.2884
 1374SOL     OW15580   3.717   0.173   2.276 -0.0871  0.3882 -0.1041
 1374SOL    HW115581   3.776   0.170   2.352 -0.6936  0.9526  0.3909
 1374SOL    HW215582   3.775   0.207   2.208  0.0532 -0.6581 -0.5154
 1375SOL     OW15583   0.336   0.062  16.580  0.2064 -0.0787 -0.8012
 1375SOL    HW115584   0.354   0.124  16.510 -0.4228 -1.6040 -2.2909
 1375SOL    HW215585   0.423   0.026  16.594 -0.1728 -1.2710 -1.6024
 1376SOL     OW15586   3.728   1.362   8.010  0.3766  0.4680  0.6915
 1376SOL    HW115587   3.786   1.412   8.068  0.6695 -2.5913  3.0485
 1376SOL    HW215588   3.689   1.431   7.956  1.3729  1.0961  0.7797
 1377SOL     OW15589   1.596   0.120  11.403 -0.4905  0.3544 -0.0126
 1377SOL    HW115590   1.642   0.204  11.406 -0.8234  0.6146 -2.5897
 1377SOL    HW215591   1.588   0.106  11.309 -0.4035 -3.4579  0.5453
 1378SOL     OW15592   1.875   0.994   6.414  1.0326 -0.2000 -0.1800
 1378SOL    HW115593   1.958   0.978   6.369  0.7990  0.7274 -0.9359
 1378SOL    HW215594   1.837   0.907   6.426  2.3181 -0.6728  0.4889
 1379SOL     OW15595   2.377   3.629   6.439  0.0764 -0.2156 -0.0897
 1379SOL    HW115596   2.282   3.628   6.424 -0.5310 -0.6685  3.8060
 1379SOL    HW215597   2.388   3.713   6.484 -2.0147  1.3195 -2.3994
 1380SOL     OW15598   1.092   3.212  12.281  0.0616 -0.2838 -0.0792
 1380SOL    HW115599   1.056   3.150  12.345 -1.4663 -0.5753 -1.2186
 1380SOL    HW215600   1.184   3.187  12.285 -0.2237 -1.2439  0.5080
 1381SOL     OW15601   1.037   4.201  15.839 -0.0459 -0.9327 -0.2250
 1381SOL    HW115602   0.966   4.264  15.824  0.2862 -0.0223  2.0067
 1381SOL    HW215603   0.999   4.153  15.913 -1.5064  0.4561 -0.0422
 1382SOL     OW15604   0.893   0.649   0.153 -0.2713  0.0452 -0.4159
 1382SOL    HW115605   0.951   0.679   0.084 -0.4610 -2.3921 -1.6245
 1382SOL    HW215606   0.810   0.688   0.124 -0.3649 -0.2572 -0.5542
 1383SOL     OW15607   2.834   0.255   1.863 -0.1468  0.0751  0.1503
 1383SOL    HW115608   2.810   0.342   1.893  2.1579  0.7944 -0.1078
 1383SOL    HW215609   2.842   0.270   1.768  2.1556  0.9722  0.4964
 1384SOL     OW15610   3.235   0.760  12.423  0.3396  0.3293  0.2306
 1384SOL    HW115611   3.307   0.697  12.416  0.2229  0.2732 -0.4132
 1384SOL    HW215612   3.289   0.826  12.468  1.7618 -1.2025  0.7883
 1385SOL     OW15613   4.154   3.818   9.068  0.1680 -0.1307 -0.7887
 1385SOL    HW115614   4.219   3.879   9.102 -0.2200 -0.6267  0.8241
 1385SOL    HW215615   4.081   3.872   9.038  0.3354  1.5850  1.9705
 1386SOL     OW15616   4.668   3.822   4.366  0.3946  0.0438  0.0989
 1386SOL    HW115617   4.611   3.876   4.311 -1.2340 -0.3117  1.4079
 1386SOL    HW215618   4.705   3.889   4.423 -2.6032  0.2787  1.8272
 1387SOL     OW15619   4.497   2.558   1.953  0.3574  0.1288 -0.4285
 1387SOL    HW115620   4.419   2.572   1.900 -0.6829 -2.2046  0.4683
 1387SOL    HW215621   4.508   2.646   1.990  2.1417 -0.4962  0.5089
 1388SOL     OW15622   3.573   0.068  10.308  0.0660 -0.3802 -0.2675
 1388SOL    HW115623   3.587   0.159  10.282 -0.7480  0.1135  1.0172
 1388SOL    HW215624   3.535   0.030  10.229 -1.2775  0.6268 -0.1155
 1389SOL     OW15625   3.124   3.604   0.342 -1.0158  0.2152  0.5588
 1389SOL    HW115626   3.151   3.612   0.434  1.7806 -0.9474 -0.1746
 1389SOL    HW215627   3.134   3.695   0.316 -2.0143  0.5236  1.2131
 1390SOL     OW15628   3.729   1.584   7.603 -0.2751  0.5051  0.8597
 1390SOL    HW115629   3.767   1.503   7.636 -1.1160 -0.7538 -1.2866
 1390SOL    HW215630   3.734   1.565   7.510  0.9649  1.7412  0.6671
 1391SOL     OW15631   0.716   0.678   7.568 -0.5193  0.2675 -0.0190
 1391SOL    HW115632   0.736   0.652   7.658 -3.0310 -2.4297 -0.2128
 1391SOL    HW215633   0.642   0.623   7.543  1.4064 -1.7812 -1.2012
 1392SOL     OW15634   3.190   0.819   1.042 -0.4381  0.1060 -0.0152
 1392SOL    HW115635   3.137   0.772   0.978 -0.7065  2.2751 -1.3767
 1392SOL    HW215636   3.206   0.750   1.107 -1.8268  0.7057  0.9644
 1393SOL     OW15637   0.758   1.031   0.690 -0.8907 -0.4428 -0.2532
 1393SOL    HW115638   0.824   1.093   0.658 -0.6748 -1.0380 -0.9617
 1393SOL    HW215639   0.685   1.061   0.637 -0.5338 -1.2131 -1.1953
 1394SOL     OW15640   4.257   3.239   7.291 -0.3739  0.1437  0.3799
 1394SOL    HW115641   4.287   3.155   7.327 -0.5647 -0.4852 -0.9486
 1394SOL    HW215642   4.332   3.297   7.307 -0.1272  0.1607 -0.8693
 1395SOL     OW15643   4.322   4.368  12.087  0.0251 -0.1343 -0.4858
 1395SOL    HW115644   4.409   4.405  12.102 -0.0838 -0.4555  0.9218
 1395SOL    HW215645   4.296   4.359  11.995 -0.7299 -1.6159 -0.1324
 1396SOL     OW15646   3.260   0.095   6.719 -0.1236 -0.3503 -0.2717
 1396SOL    HW115647   3.225   0.007   6.734  1.3077 -0.8876 -0.1441
 1396SOL    HW215648   3.188   0.131   6.666  0.3881  0.3804 -0.4704
 1397SOL     OW15649   0.776   3.687   7.081 -0.2710  0.1272 -0.1938
 1397SOL    HW115650   0.689   3.648   7.079 -0.4590  0.5344  0.0150
 1397SOL    HW215651   0.820   3.621   7.134  0.5994  1.2225  0.4539
 1398SOL     OW15652   1.053   4.682   7.436  1.0421 -0.1131  0.3917
 1398SOL    HW115653   1.139   4.693   7.396  0.3848 -1.2068 -1.3371
 1398SOL    HW215654   1.065   4.596   7.477 -1.6549 -0.3240  0.7305
 1399SOL     OW15655   3.329   2.120   8.941 -0.5325  0.2346 -0.1528
 1399SOL    HW115656   3.300   2.210   8.923  0.0504  0.6862  1.1687
 1399SOL    HW215657   3.289   2.106   9.027 -1.5783  0.5704 -0.5856
 1400SOL     OW15658   2.171   2.951  14.077 -0.7184 -0.2127 -0.1728
 1400SOL    HW115659   2.084   2.919  14.098 -0.1036  0.5821  3.5282
 1400SOL    HW215660   2.204   2.992  14.157  0.0475  1.3852 -1.2817
 1401SOL     OW15661   2.304   0.218   4.162  0.1118  0.0825 -0.7887
 1401SOL    HW115662   2.216   0.254   4.153 -0.3975 -0.7672  0.8439
 1401SOL    HW215663   2.364   0.293   4.167  1.7199 -1.1780 -1.1380
 1402SOL     OW15664   0.791   1.546  11.452  0.0869 -0.1981 -0.1504
 1402SOL    HW115665   0.830   1.460  11.440 -0.5928 -0.6684  0.9023
 1402SOL    HW215666   0.858   1.587  11.507  0.2114 -0.1901 -0.3085
 1403SOL     OW15667   4.641   0.750   1.583 -0.1725  0.2202  0.3712
 1403SOL    HW115668   4.673   0.677   1.530  2.0217  0.3985  1.4392
 1403SOL    HW215669   4.612   0.696   1.656  0.2770  1.3846  1.4118
 1404SOL     OW15670   0.121   3.333   2.063 -0.6540 -0.4753  0.8640
 1404SOL    HW115671   0.153   3.244   2.048  0.8439  0.3604 -0.9143
 1404SOL    HW215672   0.200   3.388   2.068 -0.4003 -0.8507  1.0104
 1405SOL     OW15673   1.819   3.995   7.905  0.4948 -0.4747 -0.1308
 1405SOL    HW115674   1.798   4.075   7.954  1.3835 -0.8040  0.7832
 1405SOL    HW215675   1.912   4.012   7.891 -0.1358  0.9128 -2.7599
 1406SOL     OW15676   0.731   3.544   7.427 -0.8168  0.1465 -0.0409
 1406SOL    HW115677   0.707   3.454   7.450 -0.9236  0.0959 -0.3408
 1406SOL    HW215678   0.781   3.528   7.347 -1.1702  1.8932 -0.6171
 1407SOL     OW15679   2.725   3.914   5.494 -0.1162  0.1019  0.0511
 1407SOL    HW115680   2.685   3.946   5.413  1.0731  2.3271  0.3238
 1407SOL    HW215681   2.785   3.987   5.514  0.1872 -0.4760  1.2720
 1408SOL     OW15682   1.501   3.079   9.502 -0.0374 -0.2940 -0.0207
 1408SOL    HW115683   1.550   3.161   9.511  0.8254 -0.8372  0.2124
 1408SOL    HW215684   1.420   3.094   9.550  0.0538  0.0922  0.0089
 1409SOL     OW15685   0.574   1.238  14.772  0.1732 -0.5427 -0.3293
 1409SOL    HW115686   0.591   1.321  14.727 -0.9202 -0.5386 -0.7134
 1409SOL    HW215687   0.639   1.184  14.727 -0.4705 -0.5899 -1.1917
 1410SOL     OW15688   0.682   3.955   5.343 -0.2566 -0.0261 -0.7779
 1410SOL    HW115689   0.771   3.922   5.325 -0.4837 -1.1096  0.0903
 1410SOL    HW215690   0.634   3.874   5.360 -0.4471 -0.1120 -1.6916
 1411SOL     OW15691   1.595   2.546  12.162  0.5510 -0.0493  0.4024
 1411SOL    HW115692   1.540   2.600  12.105 -0.6806 -1.9260 -0.1645
 1411SOL    HW215693   1.676   2.552  12.110 -0.7021  1.1424 -1.4117
 1412SOL     OW15694   0.758   4.559   6.663 -0.3396 -0.3144 -0.1578
 1412SOL    HW115695   0.724   4.643   6.695  0.5961  0.7502 -1.9206
 1412SOL    HW215696   0.696   4.494   6.695 -0.8231  0.6021  0.7864
 1413SOL     OW15697   3.232   4.449   1.963 -0.3294 -0.1728 -0.0155
 1413SOL    HW115698   3.143   4.423   1.940  1.0303 -2.5902 -2.5437
 1413SOL    HW215699   3.228   4.524   2.023 -2.6376  0.2996 -0.7532
 1414SOL     OW15700   2.089   4.543  11.032  1.2135 -0.0117  0.0825
 1414SOL    HW115701   2.156   4.509  11.092  2.7014  1.8786 -0.5122
 1414SOL    HW215702   2.147   4.596  10.978 -0.1970  1.8810  0.4210
 1415SOL     OW15703   0.966   2.296   7.799  0.5640 -0.7836 -0.7764
 1415SOL    HW115704   0.990   2.315   7.889  0.1626  0.1108 -0.8583
 1415SOL    HW215705   0.921   2.378   7.777 -0.6370 -1.9685 -2.7771
 1416SOL     OW15706   2.801   3.193   6.017  0.2879 -0.0803  0.4671
 1416SOL    HW115707   2.857   3.261   5.978 -0.1726  0.9684  1.6191
 1416SOL    HW215708   2.778   3.240   6.097 -0.8309  0.7804 -0.3538
 1417SOL     OW15709   3.272   1.392  15.617 -0.0171  0.1111  0.7036
 1417SOL    HW115710   3.232   1.306  15.604  0.1639  0.1482 -0.0856
 1417SOL    HW215711   3.275   1.423  15.526  0.7353 -0.7599  0.4365
 1418SOL     OW15712   2.541   0.910   4.282 -0.2928  0.3192  0.0164
 1418SOL    HW115713   2.458   0.891   4.238  0.2522  2.2276 -1.8185
 1418SOL    HW215714   2.562   0.824   4.319  0.2807  0.1125 -0.8101
 1419SOL     OW15715   1.827   3.355  11.078  0.0652 -0.1684 -0.3501
 1419SOL    HW115716   1.904   3.367  11.134 -0.1198  0.4649 -0.2331
 1419SOL    HW215717   1.771   3.299  11.132 -1.3406 -0.5445 -2.2284
 1420SOL     OW15718   1.199   3.640  15.942  0.5753  0.3105 -0.7552
 1420SOL    HW115719   1.203   3.606  15.852 -0.0984  0.7787 -0.9616
 1420SOL    HW215720   1.280   3.599  15.971 -0.7862 -0.9778  1.1861
 1421SOL     OW15721   1.003   2.275   5.714  0.2845 -0.7830  0.7280
 1421SOL    HW115722   0.971   2.275   5.804 -0.3369 -0.5331  0.5085
 1421SOL    HW215723   0.943   2.339   5.676 -0.1474 -2.4482 -1.3581
 1422SOL     OW15724   1.015   2.796   0.691 -0.0618  0.2517  0.4829
 1422SOL    HW115725   0.940   2.843   0.730  0.3384  1.4972 -0.2567
 1422SOL    HW215726   1.009   2.840   0.606 -0.9397  2.1750  1.5326
 1423SOL     OW15727   0.400   2.091   6.714 -0.5225  0.1714 -0.4495
 1423SOL    HW115728   0.456   2.023   6.674 -1.2399  0.0193 -1.1835
 1423SOL    HW215729   0.454   2.170   6.707  1.6348 -1.3696 -1.6281
 1424SOL     OW15730   0.332   2.898   1.088 -0.1105 -0.0135 -0.1375
 1424SOL    HW115731   0.333   2.814   1.042 -0.8463  0.6208 -1.3139
 1424SOL    HW215732   0.238   2.903   1.101 -0.1420  1.3535 -0.8309
 1425SOL     OW15733   1.845   3.783   5.096 -0.6303 -0.2347  0.1266
 1425SOL    HW115734   1.821   3.759   5.007  0.9309 -1.7171  0.0950
 1425SOL    HW215735   1.934   3.749   5.102 -0.7884 -0.6148  0.3651
 1426SOL     OW15736   1.274   3.680  16.327 -0.5607 -0.0042 -0.3787
 1426SOL    HW115737   1.252   3.635  16.408 -1.4066  1.3245  0.1321
 1426SOL    HW215738   1.343   3.618  16.301 -1.9299 -1.4218 -0.6548
 1427SOL     OW15739   3.310   0.554  16.371  0.1745 -0.1677 -0.5625
 1427SOL    HW115740   3.337   0.466  16.396  2.1623  0.9420  1.1858
 1427SOL    HW215741   3.393   0.602  16.369 -0.2093  0.4893 -0.8071
 1428SOL     OW15742   3.635   2.870  11.977  0.1954 -0.6135  0.0531
 1428SOL    HW115743   3.669   2.925  12.048 -0.9556  0.2722 -0.0741
 1428SOL    HW215744   3.698   2.798  11.970 -0.1572 -0.7304 -1.9856
 1429SOL     OW15745   1.849   3.053   7.203  0.4289 -0.0263  0.0898
 1429SOL    HW115746   1.895   3.026   7.283  0.3176  0.9137  0.4740
 1429SOL    HW215747   1.923   3.032   7.147  1.1080 -0.9458  1.3193
 1430SOL     OW15748   0.091   2.242   9.151  0.2552 -0.2571 -0.2811
 1430SOL    HW115749   0.152   2.219   9.081 -2.8705 -0.5979 -2.8618
 1430SOL    HW215750   0.052   2.320   9.112  0.7272 -0.4961 -1.2283
 1431SOL     OW15751   0.135   4.050   6.668  0.1821  0.0266  0.0954
 1431SOL    HW115752   0.078   3.988   6.714  0.8279 -1.4674 -1.1150
 1431SOL    HW215753   0.136   4.011   6.581 -0.4253 -0.2016  0.1922
 1432SOL     OW15754   2.564   1.376  14.352  0.2355  0.4764  0.4183
 1432SOL    HW115755   2.641   1.419  14.390  0.7289 -0.7901  0.8668
 1432SOL    HW215756   2.596   1.358  14.263 -2.6598 -0.6921 -0.3978
 1433SOL     OW15757   1.605   2.888   8.226 -0.2471  0.0153  0.7196
 1433SOL    HW115758   1.547   2.914   8.297 -2.7494 -0.1160 -1.2550
 1433SOL    HW215759   1.542   2.899   8.155  0.1225 -1.6801  0.1445
 1434SOL     OW15760   4.598   3.047   4.804 -0.7035 -0.1605  0.0826
 1434SOL    HW115761   4.677   3.037   4.751 -0.5256  0.2451  0.2757
 1434SOL    HW215762   4.642   3.083   4.881  0.3086 -1.9475  0.3522
 1435SOL     OW15763   0.451   3.466   6.164 -0.0720  0.3924  0.2198
 1435SOL    HW115764   0.481   3.553   6.191  0.2042 -0.1518  1.6775
 1435SOL    HW215765   0.422   3.491   6.076  1.5006  0.9684 -0.1450
 1436SOL     OW15766   0.063   0.743   9.563 -0.6689  0.4302  0.3306
 1436SOL    HW115767   0.090   0.653   9.584 -0.5042  0.5887  0.7933
 1436SOL    HW215768   0.066   0.781   9.651  3.0112 -0.4291  0.5980
 1437SOL     OW15769   2.985   1.373  12.014 -0.5914  0.4816 -0.5717
 1437SOL    HW115770   3.040   1.329  11.949  0.7462  1.4577 -0.0996
 1437SOL    HW215771   3.036   1.449  12.040  1.8311 -1.6416  0.9075
 1438SOL     OW15772   0.315   1.191   9.363  0.4852 -0.1410 -0.1322
 1438SOL    HW115773   0.246   1.253   9.339  0.9726  0.7020  0.6785
 1438SOL    HW215774   0.265   1.110   9.377  0.1707  0.0176 -0.3394
 1439SOL     OW15775   4.303   2.506   2.227 -0.6150  0.2770  0.5541
 1439SOL    HW115776   4.239   2.530   2.160 -1.6235 -1.0119  1.0691
 1439SOL    HW215777   4.269   2.421   2.255  1.5042 -1.0191 -0.7882
 1440SOL     OW15778   0.398   2.732   8.947  0.2745  0.0707 -0.0342
 1440SOL    HW115779   0.357   2.745   9.032 -0.9899 -1.5273 -0.4007
 1440SOL    HW215780   0.377   2.639   8.936  3.4776 -0.8529  1.5290
 1441SOL     OW15781   0.590   2.796   7.335 -0.1719 -0.0023 -0.5842
 1441SOL    HW115782   0.628   2.790   7.423 -0.8964  1.1500 -0.1870
 1441SOL    HW215783   0.667   2.781   7.281  0.4737 -1.7166  0.8197
 1442SOL     OW15784   3.809   3.761  11.085  0.5242  0.0430 -0.2582
 1442SOL    HW115785   3.763   3.834  11.043 -1.1877  0.4683  2.4069
 1442SOL    HW215786   3.759   3.747  11.165 -0.3733  0.9387 -0.6709
 1443SOL     OW15787   0.634   2.450   7.872 -0.0499  0.1116 -0.1717
 1443SOL    HW115788   0.678   2.524   7.831  0.0285 -1.3375 -2.6704
 1443SOL    HW215789   0.550   2.459   7.827 -1.1927 -0.9431  1.7346
 1444SOL     OW15790   4.637   1.422   9.454 -0.2060 -0.2863 -0.9574
 1444SOL    HW115791   4.692   1.496   9.430 -1.3251  0.9865  0.4151
 1444SOL    HW215792   4.558   1.451   9.408 -0.9151 -1.7019 -0.6494
 1445SOL     OW15793   2.590   0.078  12.575  0.0643 -0.2945  0.4870
 1445SOL    HW115794   2.523   0.069  12.507  1.3293  1.3520 -0.9767
 1445SOL    HW215795   2.613   4.711  12.592  1.4587  0.1766  1.1485
 1446SOL     OW15796   4.571   2.800   9.018  0.1670 -0.8295 -0.1488
 1446SOL    HW115797   4.591   2.729   9.079 -0.7589  0.4077  1.6059
 1446SOL    HW215798   4.659   2.829   8.994  0.8025 -2.9000 -0.2729
 1447SOL     OW15799   2.310   2.908   1.750  0.4566 -0.5382 -0.3555
 1447SOL    HW115800   2.223   2.945   1.750  0.4603 -0.5445  1.1742
 1447SOL    HW215801   2.302   2.823   1.707  0.8265 -0.8843  0.2515
 1448SOL     OW15802   1.053   3.969  13.807 -0.1315  0.0798 -0.2959
 1448SOL    HW115803   1.016   3.989  13.721 -1.6491  0.7899  0.5147
 1448SOL    HW215804   1.132   4.022  13.814 -0.8495  1.1398 -0.2807
 1449SOL     OW15805   2.106   1.210   7.773 -0.5272 -0.0819 -0.2102
 1449SOL    HW115806   2.012   1.214   7.786 -0.9771 -2.9121 -2.5678
 1449SOL    HW215807   2.128   1.193   7.864  0.4125  0.0038 -0.4175
 1450SOL     OW15808   3.727   2.939   7.732  0.2177 -0.2710  0.8211
 1450SOL    HW115809   3.742   3.033   7.723 -0.0298 -0.1031  2.1560
 1450SOL    HW215810   3.763   2.923   7.819  1.2683  0.2419  0.4843
 1451SOL     OW15811   4.268   4.364   9.106  0.6441 -0.0205  0.7454
 1451SOL    HW115812   4.196   4.403   9.155 -0.5368 -2.2162  0.7524
 1451SOL    HW215813   4.318   4.314   9.170  1.4072 -0.1322  0.0627
 1452SOL     OW15814   1.014   0.697   9.828 -0.4342  0.0762  0.4611
 1452SOL    HW115815   0.961   0.622   9.855 -0.7695 -0.0355 -0.4932
 1452SOL    HW215816   1.099   0.654   9.825 -0.5476 -0.0071 -1.9921
 1453SOL     OW15817   4.671   4.107   3.570 -0.0543  0.1441  0.0028
 1453SOL    HW115818   4.678   4.094   3.664 -3.2680  1.4184  0.4161
 1453SOL    HW215819   4.721   4.037   3.528 -1.2682 -0.5148 -0.3495
 1454SOL     OW15820   1.697   0.274  10.878 -0.3050  0.0598 -0.1757
 1454SOL    HW115821   1.713   0.181  10.895  0.8331  0.1966 -0.5134
 1454SOL    HW215822   1.621   0.280  10.820  1.1587 -0.4897 -2.1451
 1455SOL     OW15823   0.720   3.680   5.234 -0.5332  0.1644  0.6589
 1455SOL    HW115824   0.731   3.744   5.164 -0.2422  0.5652  1.0682
 1455SOL    HW215825   0.632   3.700   5.267 -0.0282  3.3795  0.0877
 1456SOL     OW15826   3.225   4.605   6.154  0.2211 -0.2799 -0.2052
 1456SOL    HW115827   3.177   4.682   6.124 -1.8296 -1.3406  0.3572
 1456SOL    HW215828   3.291   4.602   6.084 -1.1508  0.2881 -1.5133
 1457SOL     OW15829   0.344   2.741   5.037 -0.1882 -0.1127 -0.3994
 1457SOL    HW115830   0.339   2.827   4.994 -0.3356  0.2975  0.4426
 1457SOL    HW215831   0.265   2.700   5.003 -0.6767  1.0973 -0.7069
 1458SOL     OW15832   3.168   3.073  10.302 -0.0716  0.4034  0.2926
 1458SOL    HW115833   3.191   2.982  10.285 -1.0395  0.3239 -0.6573
 1458SOL    HW215834   3.073   3.058  10.298  0.1099 -0.5384 -0.5885
 1459SOL     OW15835   3.310   3.856   3.463  0.6519  0.9899 -0.1206
 1459SOL    HW115836   3.223   3.816   3.458 -0.0228  2.5374 -0.5433
 1459SOL    HW215837   3.296   3.897   3.549  0.0158  0.9011 -0.1775
 1460SOL     OW15838   4.581   4.408   5.871  0.4905  0.1095 -0.6873
 1460SOL    HW115839   4.612   4.333   5.922  0.2820 -1.0978 -2.3305
 1460SOL    HW215840   4.610   4.484   5.922  0.8813 -1.0888  0.8564
 1461SOL     OW15841   3.207   2.366   4.676  0.0914  0.1264  0.0508
 1461SOL    HW115842   3.184   2.447   4.721  1.4398 -0.0051  0.9753
 1461SOL    HW215843   3.194   2.304   4.747  0.5425  0.3504  0.3248
 1462SOL     OW15844   4.325   1.972   6.557  0.0602  0.0313  0.1345
 1462SOL    HW115845   4.295   1.996   6.645 -2.8483  0.3977 -0.9723
 1462SOL    HW215846   4.244   1.952   6.510 -0.0236  0.6536  0.0184
 1463SOL     OW15847   0.582   0.101   6.283 -0.4391  0.2222 -0.0475
 1463SOL    HW115848   0.508   0.069   6.335 -0.7826  1.8616  0.4602
 1463SOL    HW215849   0.593   0.194   6.304  0.0046 -0.0051  0.7414
 1464SOL     OW15850   1.311   1.912  13.084  0.5957 -0.9258  0.4469
 1464SOL    HW115851   1.349   1.961  13.158 -0.6073  0.9589 -0.1834
 1464SOL    HW215852   1.218   1.921  13.106  1.0427  0.8238  1.6164
 1465SOL     OW15853   1.600   3.289   6.070  0.0777  0.7296 -0.4825
 1465SOL    HW115854   1.575   3.365   6.121 -1.7940 -0.2611  0.0882
 1465SOL    HW215855   1.602   3.325   5.981 -0.5384  2.7520  0.3399
 1466SOL     OW15856   3.449   1.922  17.615  0.0922  0.3839  0.0918
 1466SOL    HW115857   3.440   2.000  17.561 -0.0839  0.9624  0.9633
 1466SOL    HW215858   3.355   1.913  17.625  0.1548 -0.5167 -0.0939
 1467SOL     OW15859   4.043   3.626   3.037  0.2531 -0.1352 -0.5108
 1467SOL    HW115860   4.062   3.605   2.945 -2.0327 -3.9914 -0.1117
 1467SOL    HW215861   4.046   3.538   3.074  0.6479 -1.1796 -3.0183
 1468SOL     OW15862   2.299   1.499   0.312 -0.1887  0.3520  0.0739
 1468SOL    HW115863   2.247   1.578   0.326 -0.7773  0.0546 -0.4787
 1468SOL    HW215864   2.245   1.454   0.248  0.7989 -1.7030  0.6776
 1469SOL     OW15865   3.239   0.313   1.217  0.0233 -0.0007  0.0532
 1469SOL    HW115866   3.145   0.321   1.235  0.2082  1.0362  0.6040
 1469SOL    HW215867   3.256   0.407   1.205 -0.4292  0.3045  1.8451
 1470SOL     OW15868   0.352   3.117   6.534 -0.0628 -0.3707 -0.1846
 1470SOL    HW115869   0.393   3.047   6.585 -1.4778 -0.2436  1.1249
 1470SOL    HW215870   0.399   3.104   6.452 -1.0993  0.7560 -0.9535
 1471SOL     OW15871   2.490   3.290   8.859 -0.5883  0.0483 -0.1921
 1471SOL    HW115872   2.420   3.326   8.804 -1.0507  1.8113  1.5736
 1471SOL    HW215873   2.432   3.233   8.910 -1.2632 -0.1662 -1.2026
 1472SOL     OW15874   2.864   3.819   4.814  0.4013 -0.2957  0.8501
 1472SOL    HW115875   2.835   3.789   4.901 -2.5669 -0.8229 -0.3175
 1472SOL    HW215876   2.879   3.913   4.823 -3.9493  0.4811  0.2030
 1473SOL     OW15877   2.932   1.209   7.126  0.2195 -0.2493 -0.1219
 1473SOL    HW115878   3.016   1.208   7.080  0.5433  0.5664  0.4577
 1473SOL    HW215879   2.951   1.273   7.195  1.6065  0.4122 -1.1140
 1474SOL     OW15880   1.060   3.239   1.546  0.1073  0.0859  0.0992
 1474SOL    HW115881   1.047   3.268   1.637  0.4428  1.4950 -0.2978
 1474SOL    HW215882   1.080   3.315   1.492  0.2008  0.0792  0.1255
 1475SOL     OW15883   2.018   0.074   9.144  0.3364  0.3445  0.0722
 1475SOL    HW115884   1.935   0.052   9.185 -1.1700  0.5421 -2.8400
 1475SOL    HW215885   2.055   4.709   9.149 -0.4806 -0.0823 -1.3730
 1476SOL     OW15886   3.165   4.516   6.394 -0.7631  0.1988  0.2582
 1476SOL    HW115887   3.212   4.589   6.434  0.7801 -2.1091  2.6379
 1476SOL    HW215888   3.169   4.538   6.301  0.9517  1.1147  0.5602
 1477SOL     OW15889   3.402   1.678   0.666  0.2696  0.0885 -0.0012
 1477SOL    HW115890   3.378   1.768   0.689 -0.5257 -1.2732  4.3466
 1477SOL    HW215891   3.317   1.642   0.641  1.2568 -1.5312 -1.0214
 1478SOL     OW15892   2.467   4.398  11.382  0.4749 -0.7091  0.3108
 1478SOL    HW115893   2.380   4.409  11.344  2.0044  1.5748 -2.5461
 1478SOL    HW215894   2.496   4.489  11.390  2.3910 -1.3473  0.7432
 1479SOL     OW15895   3.635   1.065  10.551  0.3692 -0.1434 -0.3668
 1479SOL    HW115896   3.587   0.983  10.533  0.3078 -0.2505  0.3037
 1479SOL    HW215897   3.567   1.124  10.584  0.1257 -0.0629 -1.0066
 1480SOL     OW15898   1.940   4.114   0.015 -0.1739  0.2817 -0.1746
 1480SOL    HW115899   2.017   4.099  17.656 -1.3406  0.2393 -1.7662
 1480SOL    HW215900   1.979   4.129   0.101 -0.2199 -2.7286  0.3721
 1481SOL     OW15901   0.116   1.202   2.953  0.0331 -0.3162  0.4992
 1481SOL    HW115902   0.177   1.209   3.026 -0.1586 -0.4544  0.6727
 1481SOL    HW215903   0.100   1.108   2.942  1.6431 -0.6033  0.6720
 1482SOL     OW15904   1.281   3.689  17.607 -0.3718 -0.1106  0.0083
 1482SOL    HW115905   1.210   3.623  17.606  0.4447 -0.9648 -2.0825
 1482SOL    HW215906   1.238   3.763  17.649 -1.2279 -0.2444 -0.6121
 1483SOL     OW15907   1.988   4.407  16.221  0.0067  0.3619  0.3161
 1483SOL    HW115908   1.978   4.391  16.315  0.8427  4.3748  1.0909
 1483SOL    HW215909   2.083   4.394  16.215 -0.3949 -2.0547 -1.0185
 1484SOL     OW15910   1.002   0.428   8.579 -0.2248 -0.2685 -0.1417
 1484SOL    HW115911   1.055   0.419   8.658  0.5743  0.1984 -0.6239
 1484SOL    HW215912   1.046   0.501   8.535  1.0400 -1.8959 -1.5590
 1485SOL     OW15913   3.618   3.934   2.344  0.2088  0.2829 -0.0267
 1485SOL    HW115914   3.679   3.911   2.274 -0.2620  0.5808 -0.5258
 1485SOL    HW215915   3.587   3.848   2.372  1.4543 -0.0591  0.3389
 1486SOL     OW15916   2.907   3.837   6.710 -0.4237 -0.1570 -0.1787
 1486SOL    HW115917   2.831   3.889   6.734 -0.2161 -0.5025  1.2372
 1486SOL    HW215918   2.978   3.899   6.694  0.6467 -1.3282  0.0089
 1487SOL     OW15919   2.850   3.781  17.096 -0.4728 -0.8829  0.3103
 1487SOL    HW115920   2.942   3.793  17.120 -0.6129  1.0697 -0.1609
 1487SOL    HW215921   2.803   3.847  17.147  1.1345  0.2299  0.3367
 1488SOL     OW15922   1.586   2.827   5.661  0.3937  0.2950  0.0928
 1488SOL    HW115923   1.509   2.771   5.675  1.3489 -1.0935 -0.2267
 1488SOL    HW215924   1.654   2.759   5.665 -0.8534 -1.0540 -1.3432
 1489SOL     OW15925   0.387   1.213   5.469  0.2032  0.2532 -0.0138
 1489SOL    HW115926   0.313   1.178   5.519 -1.0843  0.2506 -1.9545
 1489SOL    HW215927   0.446   1.139   5.482  0.4686  0.6901  1.3047
 1490SOL     OW15928   1.620   0.530   7.171 -0.2023  0.3503  0.8616
 1490SOL    HW115929   1.646   0.587   7.099 -0.5924 -0.6374 -0.0481
 1490SOL    HW215930   1.706   0.537   7.214  0.9432 -1.5946 -1.1202
 1491SOL     OW15931   3.803   0.067   9.504 -0.0233  0.0544  0.4473
 1491SOL    HW115932   3.792   0.054   9.409 -3.3363  1.9179  0.5505
 1491SOL    HW215933   3.803   4.697   9.521 -1.1140 -0.1195 -0.5169
 1492SOL     OW15934   4.596   3.657   6.919 -0.1677  0.1648  0.3378
 1492SOL    HW115935   4.625   3.641   7.009 -2.1925  0.4652  1.0439
 1492SOL    HW215936   4.616   3.574   6.876  2.0382  0.7457  0.2284
 1493SOL     OW15937   3.800   0.014  16.482 -0.6216  0.2060 -0.1174
 1493SOL    HW115938   3.736   4.675  16.517  0.4487 -0.3547  0.8320
 1493SOL    HW215939   3.859   0.033  16.555  1.4567 -0.3705 -1.6584
 1494SOL     OW15940   4.375   4.134   7.010 -0.1129  0.4518 -0.6494
 1494SOL    HW115941   4.413   4.105   7.094 -1.3392  0.1399 -0.2060
 1494SOL    HW215942   4.399   4.059   6.955  0.9623  0.1215  0.2626
 1495SOL     OW15943   4.190   2.307  17.204  0.4059 -0.1289  0.3877
 1495SOL    HW115944   4.122   2.312  17.137  1.7746  1.5967 -0.8655
 1495SOL    HW215945   4.236   2.226  17.184 -0.0994 -0.2588 -0.2303
 1496SOL     OW15946   3.934   1.226   7.557  0.2924  0.4019 -0.0191
 1496SOL    HW115947   3.988   1.159   7.599  0.6461  0.4112 -0.4674
 1496SOL    HW215948   3.907   1.282   7.630  2.6450  0.9266  0.4609
 1497SOL     OW15949   3.788   1.174   3.764  0.3502  0.5249 -0.0185
 1497SOL    HW115950   3.760   1.161   3.855 -0.5494 -0.9589 -0.5169
 1497SOL    HW215951   3.876   1.205   3.785 -0.0187  0.7221  1.2441
 1498SOL     OW15952   3.733   4.617   4.634  0.2792 -0.0252 -0.1396
 1498SOL    HW115953   3.652   4.668   4.634 -2.0397 -3.7465 -0.4279
 1498SOL    HW215954   3.799   4.684   4.653  0.9373 -0.6512 -0.2105
 1499SOL     OW15955   3.906   0.716   0.840 -0.1909  0.1157 -0.5213
 1499SOL    HW115956   3.971   0.677   0.899 -2.5498 -2.7948  0.1598
 1499SOL    HW215957   3.914   0.810   0.856 -1.4684  0.2305 -0.6005
 1500SOL     OW15958   4.106   3.730   7.939 -0.6295 -0.0065 -0.4822
 1500SOL    HW115959   4.142   3.775   7.862 -0.9103 -0.0246 -0.6241
 1500SOL    HW215960   4.118   3.798   8.005 -1.3942  1.7864 -2.2023
 1501SOL     OW15961   1.774   3.758   7.364  0.2946 -0.3533 -0.8474
 1501SOL    HW115962   1.757   3.839   7.316  2.1865 -0.0108 -0.9439
 1501SOL    HW215963   1.691   3.732   7.404  1.1396  1.1044  1.8384
 1502SOL     OW15964   0.511   0.669   8.146  0.1023  0.0721  0.2590
 1502SOL    HW115965   0.440   0.624   8.099 -0.2897 -1.7795  2.5965
 1502SOL    HW215966   0.461   0.739   8.188 -0.2608 -0.8543  1.3708
 1503SOL     OW15967   2.494   1.884   8.712 -0.5496 -0.2502 -0.6520
 1503SOL    HW115968   2.506   1.875   8.807 -2.0421  1.6743 -0.2863
 1503SOL    HW215969   2.525   1.975   8.713 -0.4159 -0.2903 -1.1803
 1504SOL     OW15970   1.881   1.683   5.893  0.1586 -0.1168  0.1739
 1504SOL    HW115971   1.839   1.715   5.972  1.0040 -0.3413  0.7185
 1504SOL    HW215972   1.839   1.735   5.824 -1.2922 -2.1836 -0.4790
 1505SOL     OW15973   2.208   1.099  14.122  0.3700  0.1757  0.3271
 1505SOL    HW115974   2.157   1.020  14.105 -0.0377  0.4747  0.1589
 1505SOL    HW215975   2.285   1.064  14.167  1.8271  0.4356 -1.9761
 1506SOL     OW15976   1.995   2.628   1.002 -0.2156 -0.0315 -0.2457
 1506SOL    HW115977   1.921   2.576   0.969  0.7029 -1.0913 -0.6060
 1506SOL    HW215978   2.020   2.679   0.926 -1.6623  0.9518 -0.0649
 1507SOL     OW15979   2.704   1.805  13.139  0.5672 -0.3077 -0.3285
 1507SOL    HW115980   2.780   1.771  13.188 -0.7604  0.9202  2.5570
 1507SOL    HW215981   2.715   1.897  13.160  0.0564  0.1575 -2.0888
 1508SOL     OW15982   3.041   2.927   5.871 -0.2726 -0.2849  0.3009
 1508SOL    HW115983   2.956   2.945   5.831 -0.0010  0.2402 -0.0433
 1508SOL    HW215984   3.039   2.981   5.950  0.0142 -3.5885  2.6045
 1509SOL     OW15985   2.509   3.964   1.496 -0.2980 -0.1046 -0.1163
 1509SOL    HW115986   2.512   3.870   1.481  1.1808  0.1849 -1.5577
 1509SOL    HW215987   2.417   3.972   1.522 -0.0518 -0.4844  0.8727
 1510SOL     OW15988   3.377   3.481  16.712 -0.2036  0.4573 -0.0547
 1510SOL    HW115989   3.290   3.477  16.752 -1.2494 -1.6096 -2.5377
 1510SOL    HW215990   3.401   3.570  16.736  0.7023  0.1553  0.1556
 1511SOL     OW15991   4.704   3.224   7.320 -0.1070 -0.0605  0.4691
 1511SOL    HW115992   4.661   3.290   7.374 -0.9217  1.1878 -1.6596
 1511SOL    HW215993   4.634   3.202   7.257  0.0017  1.4851 -0.2025
 1512SOL     OW15994   0.417   2.426   2.711 -0.1983  0.9007 -0.7456
 1512SOL    HW115995   0.475   2.432   2.635 -1.0359  0.1199 -1.4483
 1512SOL    HW215996   0.363   2.354   2.680  1.2880 -0.3142 -0.4840
 1513SOL     OW15997   3.108   3.283   9.610  0.2395  0.2493 -0.5173
 1513SOL    HW115998   3.115   3.267   9.704  1.3255 -0.1636 -0.6650
 1513SOL    HW215999   3.192   3.248   9.579 -0.7004 -1.4164 -1.1577
 1514SOL     OW16000   2.414   4.353   6.033 -0.6258  0.3963  0.1486
 1514SOL    HW116001   2.470   4.311   5.968  1.9476 -0.4962  2.9214
 1514SOL    HW216002   2.440   4.441   6.007  1.2077 -0.3525 -0.5840
 1515SOL     OW16003   2.687   3.157   4.787  0.6606  0.1972 -0.2556
 1515SOL    HW116004   2.606   3.148   4.737  0.6864  0.7255 -0.3947
 1515SOL    HW216005   2.730   3.081   4.748 -1.2649 -1.6131  1.1982
 1516SOL     OW16006   2.878   3.650  11.149  0.2178  0.4727 -0.0722
 1516SOL    HW116007   2.808   3.610  11.201  1.5029 -0.9658  0.5746
 1516SOL    HW216008   2.839   3.624  11.066 -0.7237  1.4976  0.0591
 1517SOL     OW16009   0.774   0.099   7.811 -0.2904 -0.3220 -0.6694
 1517SOL    HW116010   0.799   0.115   7.901 -0.8838  2.7988 -1.0617
 1517SOL    HW216011   0.861   0.087   7.773  0.2646 -1.1029  0.8701
 1518SOL     OW16012   2.690   2.201  10.618  0.1481  0.2848  0.1343
 1518SOL    HW116013   2.755   2.154  10.566  0.8366  1.2586  0.1124
 1518SOL    HW216014   2.627   2.221  10.549 -0.8557  1.5127  1.4143
 1519SOL     OW16015   1.233   3.456   2.609  0.1493  0.8793 -0.5693
 1519SOL    HW116016   1.190   3.469   2.525  0.8013  2.0824 -0.7275
 1519SOL    HW216017   1.285   3.536   2.623 -1.6471  1.7849  0.8604
 1520SOL     OW16018   1.947   2.718   0.742 -0.2657 -0.6881  0.0163
 1520SOL    HW116019   1.857   2.724   0.710 -0.1425 -2.6561 -0.7221
 1520SOL    HW216020   1.967   2.633   0.702 -0.1741  0.6274 -2.6805
 1521SOL     OW16021   3.241   1.667   8.349  0.1045  0.3608  0.2019
 1521SOL    HW116022   3.179   1.733   8.379 -1.4192 -0.7666 -0.4882
 1521SOL    HW216023   3.189   1.592   8.322  0.6371 -0.4416  1.3833
 1522SOL     OW16024   2.770   2.018   5.024 -0.1080  0.1666 -0.0056
 1522SOL    HW116025   2.783   1.989   4.933 -1.0987  3.0264 -1.0643
 1522SOL    HW216026   2.690   1.974   5.052  0.8273 -2.0584 -0.8035
 1523SOL     OW16027   0.393   3.060   0.171 -0.5899  0.6241 -0.0325
 1523SOL    HW116028   0.341   3.140   0.180  1.3368  2.0950 -1.9828
 1523SOL    HW216029   0.404   3.069   0.076  2.2684  1.4710  0.3875
 1524SOL     OW16030   4.410   1.988   7.655  0.3195  0.3954 -0.0950
 1524SOL    HW116031   4.349   1.992   7.581  1.9113 -0.3672 -1.4521
 1524SOL    HW216032   4.362   1.933   7.717  0.0579  2.8136  1.8481
 1525SOL     OW16033   1.851   2.286  17.507  0.3752 -0.0839  0.2854
 1525SOL    HW116034   1.868   2.193  17.492 -2.5985 -0.5325 -0.2355
 1525SOL    HW216035   1.852   2.280  17.602  1.1656 -0.4117  0.2577
 1526SOL     OW16036   3.970   0.717  16.277 -0.0825  0.2916  0.5511
 1526SOL    HW116037   4.052   0.681  16.311 -0.7878 -0.1566  1.7951
 1526SOL    HW216038   3.912   0.654  16.321 -0.2986  0.8956  1.1280
 1527SOL     OW16039   3.815   4.301   1.186 -0.0978  0.3868 -0.7112
 1527SOL    HW116040   3.897   4.329   1.144  0.9806 -0.9615  0.4813
 1527SOL    HW216041   3.848   4.254   1.262 -1.1466  0.0823 -0.4535
 1528SOL     OW16042   2.167   1.887   4.177  0.2370  0.0314 -0.1413
 1528SOL    HW116043   2.207   1.974   4.187  3.2104 -1.4037  0.5051
 1528SOL    HW216044   2.171   1.861   4.269  1.4251  1.1726  0.1277
 1529SOL     OW16045   3.993   2.697   8.501  0.2643 -0.0402 -0.4900
 1529SOL    HW116046   3.990   2.745   8.418  0.0391 -0.2874 -0.6281
 1529SOL    HW216047   4.082   2.719   8.528  0.1954 -0.1987 -0.1303
 1530SOL     OW16048   1.250   1.111   2.166 -0.0526  0.2520 -0.3242
 1530SOL    HW116049   1.229   1.155   2.248 -2.5710 -0.5848 -0.5075
 1530SOL    HW216050   1.195   1.032   2.167  0.0624  0.1631 -1.4357
 1531SOL     OW16051   3.305   0.075   8.274 -0.3441 -0.6174  0.1558
 1531SOL    HW116052   3.346   0.161   8.274  1.7385 -1.6133  0.5345
 1531SOL    HW216053   3.366   0.032   8.335 -0.4766  1.1616  1.5566
 1532SOL     OW16054   3.675   1.631  13.038 -0.0264 -0.2193  0.0649
 1532SOL    HW116055   3.739   1.686  12.991  1.0543  0.4404  2.3208
 1532SOL    HW216056   3.598   1.679  13.007 -0.4085 -0.0955  1.2250
 1533SOL     OW16057   3.304   0.875   3.928 -0.2635 -0.2274  0.3087
 1533SOL    HW116058   3.236   0.830   3.877  1.0924  0.8409 -2.4675
 1533SOL    HW216059   3.343   0.796   3.964  1.4065 -0.9933 -3.1664
 1534SOL     OW16060   1.518   1.134   1.442  0.2483  0.0441 -0.0144
 1534SOL    HW116061   1.566   1.213   1.464  0.8439  0.3187 -2.3347
 1534SOL    HW216062   1.494   1.156   1.352  1.4923 -1.0497 -0.6206
 1535SOL     OW16063   2.867   3.921   1.606  0.6838 -0.3786  0.5777
 1535SOL    HW116064   2.860   3.829   1.579 -1.4531  0.5411 -2.0011
 1535SOL    HW216065   2.948   3.946   1.562 -0.7113 -0.2270 -1.8840
 1536SOL     OW16066   0.187   2.675   8.606 -0.3579 -0.1900 -0.3113
 1536SOL    HW116067   0.252   2.737   8.572  0.5876  0.3334  2.5028
 1536SOL    HW216068   0.109   2.720   8.574 -0.2278 -0.6792 -1.3284
 1537SOL     OW16069   0.527   0.731   2.223  0.1043  0.2323 -0.1598
 1537SOL    HW116070   0.617   0.765   2.224  1.1149 -2.4319  0.5627
 1537SOL    HW216071   0.480   0.798   2.174 -1.5512  0.4791  1.7750
 1538SOL     OW16072   1.009   0.844   9.619 -0.4068  0.2662 -0.2681
 1538SOL    HW116073   1.013   0.780   9.690 -3.2461  1.1214  0.6345
 1538SOL    HW216074   0.915   0.861   9.616 -0.4644  0.3439  2.1005
 1539SOL     OW16075   2.701   0.504  13.657  0.9655 -0.4397 -0.2749
 1539SOL    HW116076   2.707   0.574  13.591 -1.1830  0.1175  0.1243
 1539SOL    HW216077   2.665   0.440  13.596 -0.1492  1.3078 -1.4697
 1540SOL     OW16078   0.275   0.164   3.635 -0.8787  0.2811 -0.0560
 1540SOL    HW116079   0.286   0.138   3.544  0.8381 -1.4350  0.6196
 1540SOL    HW216080   0.358   0.212   3.644 -0.9770  0.3158  0.7229
 1541SOL     OW16081   3.625   3.407  10.980 -0.4554 -0.0836  0.1770
 1541SOL    HW116082   3.681   3.463  10.926  0.3986 -1.4974 -0.3788
 1541SOL    HW216083   3.540   3.415  10.937  0.3470  3.2815 -0.7822
 1542SOL     OW16084   4.042   4.156   5.361  0.1711  0.1942  0.1097
 1542SOL    HW116085   4.049   4.080   5.305  2.6257  0.2225  0.3602
 1542SOL    HW216086   3.987   4.208   5.302  0.3245 -0.2045 -0.3797
 1543SOL     OW16087   2.468   1.487   0.507  0.6122  0.0118 -0.0606
 1543SOL    HW116088   2.490   1.580   0.514 -0.9479  0.4707 -1.0924
 1543SOL    HW216089   2.408   1.485   0.432 -0.2367  2.7754  0.5436
 1544SOL     OW16090   0.391   4.005   5.551  0.0571 -0.1327 -0.3836
 1544SOL    HW116091   0.414   4.093   5.581 -3.4798  0.3960  0.8358
 1544SOL    HW216092   0.316   3.978   5.605 -0.2193  2.2774  0.4219
 1545SOL     OW16093   3.864   0.708   5.626  0.6029  0.6158  0.2989
 1545SOL    HW116094   3.900   0.795   5.612  0.2881  0.9211  1.4297
 1545SOL    HW216095   3.772   0.716   5.602  0.6292  3.2290  1.1040
 1546SOL     OW16096   1.797   2.567   6.940  0.5488 -0.0005 -0.3175
 1546SOL    HW116097   1.735   2.610   6.999  1.2546  0.6824 -0.0801
 1546SOL    HW216098   1.800   2.628   6.867 -0.1041  0.0793 -0.2793
 1547SOL     OW16099   1.998   3.808   5.399  0.2944  0.4995  0.4488
 1547SOL    HW116100   2.064   3.742   5.375  0.3972  1.3876 -1.6291
 1547SOL    HW216101   1.970   3.768   5.482 -1.0837 -0.3948 -0.4569
 1548SOL     OW16102   2.711   2.736   3.233 -0.4607  0.2316  0.1204
 1548SOL    HW116103   2.707   2.826   3.200  2.5950  0.3730  0.0907
 1548SOL    HW216104   2.693   2.746   3.327 -3.0124  0.9235 -0.4332
 1549SOL     OW16105   3.261   3.515   6.864  0.2560 -0.4198 -0.5651
 1549SOL    HW116106   3.241   3.429   6.902  0.4561 -0.4846 -0.6068
 1549SOL    HW216107   3.355   3.526   6.857  0.2646  1.1002  2.0449
 1550SOL     OW16108   4.629   3.614  14.072  0.1756  0.1894 -0.3502
 1550SOL    HW116109   4.628   3.521  14.094 -1.4903  0.3718  0.2846
 1550SOL    HW216110   4.539   3.625  14.041 -0.9607 -0.5977  2.7277
 1551SOL     OW16111   2.274   4.483   8.930 -0.1313  0.4930 -0.4368
 1551SOL    HW116112   2.370   4.483   8.932 -0.0978 -2.2262 -1.4370
 1551SOL    HW216113   2.262   4.556   8.870  1.2964  0.8072 -0.3229
 1552SOL     OW16114   3.487   0.111   5.612 -0.1337  0.6006 -0.8181
 1552SOL    HW116115   3.435   0.073   5.542  1.4071  1.6519 -2.5216
 1552SOL    HW216116   3.538   0.175   5.563  1.1165  1.4509  1.5741
 1553SOL     OW16117   1.755   1.151   1.719  0.1061  0.1212  0.2845
 1553SOL    HW116118   1.775   1.159   1.813  0.0658 -2.0385  0.4902
 1553SOL    HW216119   1.662   1.172   1.722 -0.2769 -1.7559  1.5177
 1554SOL     OW16120   0.052   1.935   4.908 -0.2217  0.2875 -0.0724
 1554SOL    HW116121   0.089   2.001   4.849  1.2643  1.8156  2.5164
 1554SOL    HW216122   4.702   1.906   4.854 -0.2887 -1.3585  0.9146
 1555SOL     OW16123   1.396   4.253   4.318 -0.0725 -0.5294 -0.0559
 1555SOL    HW116124   1.481   4.228   4.352  0.5114  0.6278 -0.6696
 1555SOL    HW216125   1.355   4.278   4.402  0.2345  0.1413 -0.1064
 1556SOL     OW16126   3.731   2.978   0.440  0.2231 -0.3145 -0.5801
 1556SOL    HW116127   3.676   3.005   0.513 -0.5048 -0.7686 -0.9503
 1556SOL    HW216128   3.801   2.941   0.494  0.5981  1.1353 -0.0911
 1557SOL     OW16129   2.767   0.950   1.655  0.4315  0.1768  0.1434
 1557SOL    HW116130   2.804   0.871   1.692 -1.3121 -0.7647 -0.1052
 1557SOL    HW216131   2.746   0.911   1.570 -1.4989 -0.3933  0.8710
 1558SOL     OW16132   2.407   1.183   5.089 -0.0447 -0.3948  0.2060
 1558SOL    HW116133   2.446   1.270   5.086 -2.5309  0.7406  0.4742
 1558SOL    HW216134   2.346   1.193   5.015 -0.7842  4.1225  1.4275
 1559SOL     OW16135   1.820   2.490   2.234 -0.0462  0.0353  0.4595
 1559SOL    HW116136   1.867   2.407   2.229  0.6992  0.3566  2.1816
 1559SOL    HW216137   1.758   2.471   2.305 -0.1807  1.7899  0.8111
 1560SOL     OW16138   3.362   1.129  10.557  0.1844  0.9983 -0.0767
 1560SOL    HW116139   3.336   1.104  10.469 -0.6317  0.3496  0.3457
 1560SOL    HW216140   3.312   1.067  10.611 -0.1098  0.4881 -0.9351
 1561SOL     OW16141   2.443   3.679   4.192 -0.2631 -0.4890 -0.2314
 1561SOL    HW116142   2.512   3.744   4.206  0.5035 -1.6444  1.3993
 1561SOL    HW216143   2.481   3.612   4.135  0.9526  0.9986 -1.1651
 1562SOL     OW16144   2.889   4.639   0.369 -0.1444 -0.1990  0.2699
 1562SOL    HW116145   2.908   0.008   0.352 -0.7135  0.1827  1.8281
 1562SOL    HW216146   2.868   4.643   0.462  1.3310  2.3055  0.5107
 1563SOL     OW16147   3.772   3.936   8.901  1.0303  0.0967 -0.3024
 1563SOL    HW116148   3.696   3.959   8.955  0.5381 -0.1202 -0.9068
 1563SOL    HW216149   3.849   3.940   8.957  0.1009 -0.7896  1.0254
 1564SOL     OW16150   2.651   1.546   1.171  0.6582  0.2383  0.1311
 1564SOL    HW116151   2.695   1.492   1.106 -1.0966 -2.2534  1.0230
 1564SOL    HW216152   2.644   1.484   1.244 -2.9598 -1.1016 -1.4024
 1565SOL     OW16153   0.404   1.988   7.852 -0.9338  0.2539 -0.0343
 1565SOL    HW116154   0.489   2.011   7.814 -0.7272 -0.2671  0.1068
 1565SOL    HW216155   0.359   2.072   7.843 -1.0553  0.5405  3.5394
 1566SOL     OW16156   4.613   2.714   6.262 -0.4530  0.0783 -0.0562
 1566SOL    HW116157   4.700   2.730   6.298 -0.0382  1.1595 -1.5372
 1566SOL    HW216158   4.630   2.620   6.254 -0.7341 -0.0484  0.8410
 1567SOL     OW16159   1.009   1.667   5.700 -0.1933  0.2927  0.1379
 1567SOL    HW116160   0.954   1.697   5.628  1.0189 -0.7531 -1.2117
 1567SOL    HW216161   1.093   1.695   5.663  0.5929 -0.3607  1.4107
 1568SOL     OW16162   4.159   3.371   4.303  0.0948  0.1963 -0.3643
 1568SOL    HW116163   4.130   3.424   4.377 -0.6520 -3.0748  1.6645
 1568SOL    HW216164   4.253   3.372   4.324 -0.5428  3.2820  2.2832
 1569SOL     OW16165   4.265   1.367  17.226 -0.3524  0.3946  0.2459
 1569SOL    HW116166   4.318   1.324  17.294 -1.8355  1.3854  2.0429
 1569SOL    HW216167   4.256   1.457  17.258 -1.4859  0.6315 -0.7739
 1570SOL     OW16168   1.757   4.324   5.909 -0.4359  0.5530 -0.0515
 1570SOL    HW116169   1.686   4.263   5.885 -1.4317  1.9026 -0.5413
 1570SOL    HW216170   1.813   4.285   5.841 -1.0552 -2.4403  1.1237
 1571SOL     OW16171   0.399   1.108   5.088  0.0814  0.0023 -0.1511
 1571SOL    HW116172   0.351   1.043   5.139 -0.7794 -1.6931 -3.1309
 1571SOL    HW216173   0.469   1.056   5.049  0.8836  1.1413 -0.2309
 1572SOL     OW16174   3.522   4.191  15.783 -0.2582 -0.5251 -0.0245
 1572SOL    HW116175   3.590   4.250  15.816 -0.3725 -0.0578 -0.6281
 1572SOL    HW216176   3.514   4.210  15.690  1.7712 -1.9420 -0.4916
 1573SOL     OW16177   3.683   2.003   6.733  0.6224  0.4850  0.0549
 1573SOL    HW116178   3.691   1.908   6.742  0.7586  0.4776 -0.1332
 1573SOL    HW216179   3.602   2.005   6.681  0.5407 -0.4249  0.1470
 1574SOL     OW16180   0.208   0.205  17.220 -0.0816  0.8517  0.1026
 1574SOL    HW116181   0.226   0.139  17.153  1.9875  1.7518 -0.2549
 1574SOL    HW216182   0.279   0.188  17.283  1.3145 -0.4790 -1.8168
 1575SOL     OW16183   3.381   0.742   9.519 -0.1325 -0.1176 -0.1707
 1575SOL    HW116184   3.338   0.820   9.484 -0.3042 -0.3085 -0.3812
 1575SOL    HW216185   3.358   0.751   9.612  1.6798  1.6130  0.1017
 1576SOL     OW16186   4.518   2.859   7.714 -0.3300  0.0208 -0.3727
 1576SOL    HW116187   4.593   2.869   7.656 -0.3624 -1.5568 -0.6842
 1576SOL    HW216188   4.550   2.899   7.795 -1.3658  0.7390 -0.3141
 1577SOL     OW16189   1.976   0.674  10.198  0.1459  0.1366  0.6528
 1577SOL    HW116190   2.012   0.667  10.286  1.3150 -0.7985  0.0875
 1577SOL    HW216191   1.955   0.581  10.189  1.1924 -0.0011 -0.4116
 1578SOL     OW16192   3.174   3.583  14.346 -0.5088  0.0528  0.3375
 1578SOL    HW116193   3.218   3.640  14.409  0.4265 -1.3286  0.9142
 1578SOL    HW216194   3.210   3.623  14.267 -3.0444 -0.6121 -1.1771
 1579SOL     OW16195   0.684   3.801   3.304  0.1253  0.2053  0.0853
 1579SOL    HW116196   0.633   3.726   3.274 -0.4972  1.3899 -1.8438
 1579SOL    HW216197   0.610   3.852   3.339 -0.0302  0.0569 -0.0284
 1580SOL     OW16198   2.050   1.843   1.638 -0.3987 -0.1615  0.1825
 1580SOL    HW116199   2.086   1.918   1.686  1.0854 -1.5025  1.2217
 1580SOL    HW216200   2.106   1.765   1.642  0.1393  0.2323  0.3191
 1581SOL     OW16201   1.857   2.095   1.965 -0.1669  0.5827 -0.2238
 1581SOL    HW116202   1.873   2.143   1.883 -3.6585  2.0334 -0.0400
 1581SOL    HW216203   1.846   2.002   1.950 -1.1318  1.0151 -2.2520
 1582SOL     OW16204   3.819   1.879   3.385 -0.2612 -0.3684 -0.4333
 1582SOL    HW116205   3.810   1.784   3.387 -3.2830 -0.0758  0.5438
 1582SOL    HW216206   3.756   1.888   3.313  0.2243 -1.5866 -1.0020
 1583SOL     OW16207   4.032   1.914  11.418 -0.2591  0.1973  0.1510
 1583SOL    HW116208   4.080   1.868  11.486  2.8350  2.7158 -0.3186
 1583SOL    HW216209   4.099   1.979  11.395  1.6856 -1.5620  0.9326
 1584SOL     OW16210   0.986   1.434   1.956 -0.6212  0.4051  0.0884
 1584SOL    HW116211   0.898   1.397   1.960  0.2272 -1.7620 -0.9187
 1584SOL    HW216212   1.041   1.359   1.979 -0.9583 -0.3134 -1.4617
 1585SOL     OW16213   1.351   2.615   9.094  0.3022 -0.2211 -0.1041
 1585SOL    HW116214   1.414   2.606   9.166 -1.3677 -1.5552  1.1773
 1585SOL    HW216215   1.361   2.705   9.062  2.2275 -1.0499 -1.8737
 1586SOL     OW16216   3.515   1.086   2.417 -0.4193  0.1160  0.6764
 1586SOL    HW116217   3.518   1.027   2.342  1.6290 -0.3748  1.1367
 1586SOL    HW216218   3.524   1.019   2.484 -0.7285  0.7950  1.3996
 1587SOL     OW16219   4.486   2.564   8.023  0.3613 -0.1070  0.1531
 1587SOL    HW116220   4.464   2.535   8.112 -0.1455 -0.1478  0.0126
 1587SOL    HW216221   4.510   2.480   7.985  1.4467  0.3268 -0.1303
 1588SOL     OW16222   3.595   0.308   6.496  0.2849 -0.2552 -0.0008
 1588SOL    HW116223   3.589   0.297   6.591  0.0828  1.4294  0.1867
 1588SOL    HW216224   3.680   0.267   6.481  0.4070  0.7958 -2.1593
 1589SOL     OW16225   4.425   1.512   4.513 -0.4880 -0.1714 -0.1192
 1589SOL    HW116226   4.398   1.604   4.514  0.1602  0.0219 -0.6620
 1589SOL    HW216227   4.450   1.512   4.606 -0.2112  0.1441 -0.1933
 1590SOL     OW16228   2.300   0.243   8.298 -0.3879  0.2454 -0.1258
 1590SOL    HW116229   2.384   0.288   8.311 -0.0539 -0.3682 -0.1828
 1590SOL    HW216230   2.239   0.304   8.257 -0.4093 -0.4958 -1.1841
 1591SOL     OW16231   0.320   3.964   7.903 -0.2895  0.3130 -0.3192
 1591SOL    HW116232   0.285   4.035   7.850  3.0325  0.0229 -2.8844
 1591SOL    HW216233   0.243   3.915   7.932 -0.3209  1.8256  2.2506
 1592SOL     OW16234   1.847   2.420  13.380 -0.4342  0.4064 -0.6652
 1592SOL    HW116235   1.811   2.423  13.291  0.7633  0.5095 -1.1593
 1592SOL    HW216236   1.822   2.505  13.414  2.2433  1.5415 -1.5171
 1593SOL     OW16237   1.230   3.710   4.549 -0.2067 -0.2392  0.3672
 1593SOL    HW116238   1.191   3.786   4.593 -2.1182 -1.6997  1.1858
 1593SOL    HW216239   1.213   3.638   4.610 -1.8238 -1.3347 -1.4097
 1594SOL     OW16240   2.476   1.630   2.051 -0.2015 -0.1791 -0.3339
 1594SOL    HW116241   2.519   1.708   2.017 -0.7412 -0.1651 -0.9949
 1594SOL    HW216242   2.537   1.606   2.120  0.9023  3.3357 -0.0861
 1595SOL     OW16243   2.861   2.051  10.465  0.0635 -0.3639  0.0526
 1595SOL    HW116244   2.885   2.106  10.391 -0.2711  0.3626  0.4893
 1595SOL    HW216245   2.808   1.983  10.423 -1.4504  0.3735  0.7560
 1596SOL     OW16246   4.534   0.119  12.090 -0.0085  0.2193 -0.3879
 1596SOL    HW116247   4.615   0.099  12.137  0.7141  1.7422 -0.9827
 1596SOL    HW216248   4.563   0.195  12.039  1.4907  0.1520  0.3786
 1597SOL     OW16249   3.716   1.018   7.654  0.5217 -0.7541 -0.6231
 1597SOL    HW116250   3.805   0.987   7.669  0.8642  0.4646 -0.1545
 1597SOL    HW216251   3.720   1.009   7.559  0.6134  0.6563 -0.7553
 1598SOL     OW16252   3.532   3.152   4.503 -0.1681  0.6615  0.3543
 1598SOL    HW116253   3.553   3.156   4.409 -0.5640  2.9068  0.3585
 1598SOL    HW216254   3.464   3.219   4.507 -0.2346  0.7293 -1.5123
 1599SOL     OW16255   2.527   2.387   6.812  0.4786 -0.4762  0.0488
 1599SOL    HW116256   2.522   2.453   6.881 -0.2787 -0.1837 -0.2924
 1599SOL    HW216257   2.452   2.408   6.758 -0.3650 -3.2307  0.1179
 1600SOL     OW16258   0.317   3.041   5.909  0.3772 -0.1873 -0.2829
 1600SOL    HW116259   0.228   3.076   5.907  0.9164  0.9854 -3.1798
 1600SOL    HW216260   0.306   2.953   5.875 -1.5530  0.1803 -0.6100
 1601SOL     OW16261   3.698   3.610   7.679 -0.4580  0.4122  0.5208
 1601SOL    HW116262   3.609   3.575   7.665 -0.3925  0.4366  0.0209
 1601SOL    HW216263   3.747   3.533   7.650  1.4058  1.8943 -0.1989
 1602SOL     OW16264   4.226   3.901   3.316  0.4007 -0.3856 -0.2364
 1602SOL    HW116265   4.235   3.806   3.307  1.0407 -0.0267 -3.3702
 1602SOL    HW216266   4.307   3.924   3.362  1.7525 -0.5935 -2.5154
 1603SOL     OW16267   1.400   1.777  12.836 -0.3455 -0.2458  0.8490
 1603SOL    HW116268   1.363   1.820  12.914  0.1312  0.2466  0.8016
 1603SOL    HW216269   1.483   1.824  12.844 -0.8934  1.1559 -1.7215
 1604SOL     OW16270   3.904   3.131   7.627 -0.0653  0.4235 -0.3480
 1604SOL    HW116271   3.967   3.147   7.697  0.4022  0.5264 -0.7957
 1604SOL    HW216272   3.889   3.224   7.608 -1.4259  0.0473 -1.0793
 1605SOL     OW16273   1.982   2.372   7.705 -0.0855 -0.5404  0.1057
 1605SOL    HW116274   2.033   2.307   7.754 -2.0238 -2.1082  0.0222
 1605SOL    HW216275   2.055   2.420   7.665  0.6172  0.3485  2.4210
 1606SOL     OW16276   3.613   1.998   0.117 -0.0477 -0.1946  0.2142
 1606SOL    HW116277   3.561   2.055   0.173  1.7769  0.3422  1.3764
 1606SOL    HW216278   3.535   1.957   0.080 -0.9055  1.3878  0.2920
 1607SOL     OW16279   0.148   0.879   3.899 -0.5114 -0.0649  0.7167
 1607SOL    HW116280   0.083   0.857   3.966 -0.2339  0.4975  1.1673
 1607SOL    HW216281   0.146   0.797   3.850 -0.8537  0.0921  0.4668
 1608SOL     OW16282   3.552   2.453   8.171  0.3127 -0.2269 -0.6038
 1608SOL    HW116283   3.547   2.546   8.151  0.2977 -0.0059  0.4038
 1608SOL    HW216284   3.504   2.427   8.092  0.4803  0.6812 -1.0104
 1609SOL     OW16285   0.500   2.797  10.359  0.0630 -0.2029 -0.6610
 1609SOL    HW116286   0.578   2.758  10.320 -1.3238 -0.8370 -2.7827
 1609SOL    HW216287   0.451   2.715  10.372 -3.9966  1.9491 -2.2824
 1610SOL     OW16288   1.594   2.661   9.221  0.4345 -0.0291 -0.2776
 1610SOL    HW116289   1.661   2.633   9.283  0.8618 -0.8105 -1.0905
 1610SOL    HW216290   1.642   2.657   9.138 -0.9720 -0.0929 -1.0999
 1611SOL     OW16291   4.598   2.470   6.957 -0.2674  0.2615  0.3776
 1611SOL    HW116292   4.688   2.475   6.923 -0.0607 -1.2113  0.6984
 1611SOL    HW216293   4.564   2.393   6.911 -0.2858  1.5722 -1.8229
 1612SOL     OW16294   1.016   2.054  17.274 -0.3483 -0.1497  0.1825
 1612SOL    HW116295   1.057   1.973  17.304  2.5176  0.5802 -1.6573
 1612SOL    HW216296   0.950   2.060  17.342  0.9933 -1.4618  1.6163
 1613SOL     OW16297   4.129   1.047   8.907  0.0840  0.0421 -0.2198
 1613SOL    HW116298   4.044   1.003   8.912 -0.1466  0.6415  1.2321
 1613SOL    HW216299   4.168   1.022   8.990  0.9540 -1.3184 -1.0469
 1614SOL     OW16300   1.279   1.934   4.000 -0.1171 -0.5390 -0.3167
 1614SOL    HW116301   1.344   1.973   4.058 -1.6963  1.2057  0.2671
 1614SOL    HW216302   1.242   2.010   3.955 -0.1607 -0.4062 -0.0546
 1615SOL     OW16303   0.315   3.166   2.361  0.0377  0.5375 -0.3586
 1615SOL    HW116304   0.247   3.230   2.342 -1.9607 -2.1892 -2.5057
 1615SOL    HW216305   0.391   3.195   2.310  0.4492 -1.5956 -0.9853
 1616SOL     OW16306   0.568   1.886  16.808 -0.5557  0.0218 -0.4724
 1616SOL    HW116307   0.509   1.927  16.745 -2.7170 -1.3415  0.6320
 1616SOL    HW216308   0.521   1.804  16.827 -1.7144  0.5453 -1.1187
 1617SOL     OW16309   2.282   4.245   6.782 -0.1513  0.0915  0.0253
 1617SOL    HW116310   2.355   4.272   6.838 -0.5943  0.6890  0.3093
 1617SOL    HW216311   2.323   4.207   6.704 -0.9441  1.6079 -1.1255
 1618SOL     OW16312   1.958   0.180   4.261  0.6774  0.3739 -0.4234
 1618SOL    HW116313   1.886   0.243   4.256 -0.5519 -0.8640  1.5603
 1618SOL    HW216314   1.949   0.123   4.184  0.3011 -0.4936  0.2575
 1619SOL     OW16315   4.310   0.006   0.046  0.0549 -0.3031 -0.2294
 1619SOL    HW116316   4.336   4.661   0.107  1.5678  1.2059  0.8298
 1619SOL    HW216317   4.391   0.056   0.044  0.2440 -0.5335  1.5539
 1620SOL     OW16318   4.342   2.750  10.371 -0.1895 -0.2728  0.2581
 1620SOL    HW116319   4.386   2.669  10.398  4.5247  2.5781  1.1380
 1620SOL    HW216320   4.298   2.778  10.451 -1.7116  1.0838 -1.0668
 1621SOL     OW16321   0.721   0.345   6.305  0.1074  0.2346  0.6825
 1621SOL    HW116322   0.700   0.381   6.391  0.9009 -2.1613  1.8933
 1621SOL    HW216323   0.798   0.291   6.324 -0.5903 -1.4140 -1.1477
 1622SOL     OW16324   2.911   0.212   8.833  0.4090 -0.3657  0.2017
 1622SOL    HW116325   2.959   0.232   8.753  0.6936  1.9053  0.9362
 1622SOL    HW216326   2.960   0.137   8.869 -1.1150 -1.0961  0.7558
 1623SOL     OW16327   1.475   2.398  10.057  0.1054  0.1275 -0.3869
 1623SOL    HW116328   1.380   2.401  10.071 -0.0636 -0.1615 -1.4816
 1623SOL    HW216329   1.479   2.453   9.979 -1.6149  1.6887  0.6022
 1624SOL     OW16330   3.181   3.503   4.270  0.1526 -0.4116  0.0978
 1624SOL    HW116331   3.174   3.471   4.180  1.2579 -1.7926  0.5172
 1624SOL    HW216332   3.091   3.528   4.293  0.6660  1.0337  0.5658
 1625SOL     OW16333   4.342   4.310  16.726 -0.1250 -0.3738 -0.4383
 1625SOL    HW116334   4.378   4.253  16.794 -0.4810 -0.0570  0.0178
 1625SOL    HW216335   4.412   4.306  16.660  0.0529 -0.0304 -0.2744
 1626SOL     OW16336   3.090   3.523   2.570  0.0644 -0.2225  0.5927
 1626SOL    HW116337   3.032   3.540   2.497 -0.4547 -1.2949  0.7605
 1626SOL    HW216338   3.082   3.430   2.588  1.0465 -0.6944 -1.4182
 1627SOL     OW16339   4.516   2.819   2.880  0.1236 -0.8524  0.3258
 1627SOL    HW116340   4.488   2.728   2.885  1.1348 -1.2801 -1.7989
 1627SOL    HW216341   4.573   2.819   2.803  0.5598 -0.8086  0.6432
 1628SOL     OW16342   3.395   2.495   9.036  0.0414 -0.1124 -0.5435
 1628SOL    HW116343   3.429   2.424   9.090  2.5414  1.1419 -0.4573
 1628SOL    HW216344   3.409   2.570   9.093 -0.9369  0.5299 -1.1398
 1629SOL     OW16345   2.198   2.035  16.923 -0.6957  0.3096 -0.0048
 1629SOL    HW116346   2.148   1.985  16.858 -0.2782 -0.5603  0.3521
 1629SOL    HW216347   2.234   2.107  16.872 -0.2128  0.1990  0.1845
 1630SOL     OW16348   3.616   4.261   8.846 -0.0792  0.1309  0.2611
 1630SOL    HW116349   3.569   4.339   8.873  1.0892  0.5974  0.9579
 1630SOL    HW216350   3.652   4.254   8.935  2.3867 -0.1704 -0.7546
 1631SOL     OW16351   0.966   1.456   6.542 -0.0715  0.2489 -0.1195
 1631SOL    HW116352   1.036   1.501   6.589 -1.6605  3.4021 -0.8093
 1631SOL    HW216353   0.998   1.366   6.529  2.7376  1.1012  0.7339
 1632SOL     OW16354   4.444   3.870   6.937 -0.6562 -0.2195 -0.0313
 1632SOL    HW116355   4.509   3.800   6.939 -0.1323  0.2748  0.2247
 1632SOL    HW216356   4.428   3.867   6.842  0.6755  1.0971 -0.3045
 1633SOL     OW16357   1.220   3.637   5.016 -0.2640 -0.2121  0.3594
 1633SOL    HW116358   1.263   3.579   5.080  1.2335  1.3516  0.7526
 1633SOL    HW216359   1.295   3.672   4.969  0.1388 -0.3852  0.8727
 1634SOL     OW16360   1.081   3.767   6.118 -0.4073 -0.3539  0.3265
 1634SOL    HW116361   1.108   3.768   6.026 -0.5467  1.1799  0.3091
 1634SOL    HW216362   1.080   3.672   6.131 -0.6601 -0.2508  1.0340
 1635SOL     OW16363   2.281   1.743  15.794 -0.1703 -0.0352  0.3778
 1635SOL    HW116364   2.275   1.652  15.821  0.3778 -0.0167  0.5548
 1635SOL    HW216365   2.372   1.756  15.767 -1.1080 -0.6619 -3.0698
 1636SOL     OW16366   1.745   1.129   8.643  0.2944 -0.6311  0.0138
 1636SOL    HW116367   1.742   1.204   8.584  0.3468 -0.5671  0.0938
 1636SOL    HW216368   1.836   1.101   8.640  0.7342  0.8389  0.0280
 1637SOL     OW16369   0.440   0.896   6.546 -0.1492 -0.0625  0.6837
 1637SOL    HW116370   0.517   0.844   6.570  1.7067  2.7009  0.7115
 1637SOL    HW216371   0.395   0.823   6.504  3.8353 -2.0877 -0.1383
 1638SOL     OW16372   0.552   3.447   2.360  0.2225  0.2385 -0.4512
 1638SOL    HW116373   0.579   3.533   2.393  2.1986  0.0257 -1.4852
 1638SOL    HW216374   0.540   3.402   2.443  0.5098 -1.9869 -1.6214
 1639SOL     OW16375   1.782   4.040  13.935  0.0546 -0.0337 -0.0356
 1639SOL    HW116376   1.748   4.043  14.025 -1.9019  1.4902 -0.8100
 1639SOL    HW216377   1.872   4.011  13.947 -0.0876 -0.5346 -0.1569
 1640SOL     OW16378   0.812   4.031   5.742  0.1036 -0.7288  0.4436
 1640SOL    HW116379   0.838   4.111   5.695 -0.0119 -0.8107  0.2400
 1640SOL    HW216380   0.885   4.016   5.802 -0.5694 -0.1797  1.4006
 1641SOL     OW16381   4.137   2.144   7.856  0.2222  0.2307  0.0638
 1641SOL    HW116382   4.174   2.055   7.856  0.0738  0.1631  1.1355
 1641SOL    HW216383   4.128   2.154   7.951 -1.1260 -1.5056  0.1263
 1642SOL     OW16384   0.678   1.930   9.529  0.1899 -0.0102  0.1986
 1642SOL    HW116385   0.685   1.863   9.461  0.9588  0.3214 -0.0591
 1642SOL    HW216386   0.772   1.928   9.547  0.2762 -0.9425 -0.3501
 1643SOL     OW16387   1.407   4.018   8.013 -0.1729  0.1312  0.0669
 1643SOL    HW116388   1.416   4.109   8.040  0.5495 -0.4264  1.7220
 1643SOL    HW216389   1.499   3.999   8.029 -0.6409 -2.5550 -0.3800
 1644SOL     OW16390   0.605   1.053   2.164  0.2153 -0.4532  0.1742
 1644SOL    HW116391   0.519   1.012   2.154  0.3618 -0.4905 -0.9299
 1644SOL    HW216392   0.661   0.996   2.112  0.8371  1.0421 -0.8071
 1645SOL     OW16393   0.952   3.160   7.037  0.2518  0.2145  0.1013
 1645SOL    HW116394   0.946   3.245   6.993 -1.0506 -1.0451 -2.1294
 1645SOL    HW216395   1.045   3.140   7.024 -0.1128  1.4968 -4.4835
 1646SOL     OW16396   0.131   1.633   6.168 -0.0360 -0.4819  0.1568
 1646SOL    HW116397   0.151   1.637   6.261  3.6812 -1.1719 -0.5903
 1646SOL    HW216398   0.197   1.695   6.137 -1.0123  0.3700 -0.2390
 1647SOL     OW16399   3.602   0.738   5.545 -0.2542 -0.6409  0.1700
 1647SOL    HW116400   3.543   0.678   5.590 -0.0860 -1.2042 -0.3609
 1647SOL    HW216401   3.569   0.815   5.590 -1.2766 -1.2709  0.4864
 1648SOL     OW16402   2.227   3.818   0.576 -0.4760  0.2942  0.6892
 1648SOL    HW116403   2.211   3.825   0.670 -2.0649 -1.4431  0.5474
 1648SOL    HW216404   2.234   3.907   0.541  1.3726 -0.0934  0.0887
 1649SOL     OW16405   0.367   0.823  11.721  0.2571  0.0145 -0.4470
 1649SOL    HW116406   0.327   0.742  11.752 -2.1150  1.6758  0.8124
 1649SOL    HW216407   0.326   0.851  11.639 -0.2837 -0.4626 -0.3424
 1650SOL     OW16408   0.933   4.289  10.290  0.7815 -0.2339 -1.0713
 1650SOL    HW116409   0.847   4.298  10.250 -0.5443  2.7599  2.3918
 1650SOL    HW216410   0.943   4.199  10.321  1.4436  0.4944  0.8235
 1651SOL     OW16411   0.591   0.823   6.983  0.0407 -0.0237  0.5379
 1651SOL    HW116412   0.605   0.851   6.892  0.1499  1.9431  1.1476
 1651SOL    HW216413   0.548   0.902   7.015 -0.6576 -0.3363  0.3583
 1652SOL     OW16414   0.140   2.903  17.439  0.0749  0.6509  0.1656
 1652SOL    HW116415   0.089   2.940  17.367 -0.7653 -0.9630 -0.0637
 1652SOL    HW216416   0.147   2.808  17.424 -2.5247  0.6612 -1.0254
 1653SOL     OW16417   1.848   4.549   9.052  0.0070 -0.1920 -0.0899
 1653SOL    HW116418   1.801   4.602   9.117 -0.6273 -0.2140 -0.5319
 1653SOL    HW216419   1.934   4.541   9.095  0.5055 -0.2314 -1.0971
 1654SOL     OW16420   1.722   4.233  13.738 -0.1182  0.3172 -0.3570
 1654SOL    HW116421   1.670   4.196  13.666  1.4768  1.2158 -1.9891
 1654SOL    HW216422   1.744   4.152  13.784  2.3587  1.5981  0.6726
 1655SOL     OW16423   3.853   4.304   2.518  0.0672  0.0042 -0.1471
 1655SOL    HW116424   3.850   4.230   2.456 -0.9996  0.2677 -0.4036
 1655SOL    HW216425   3.945   4.303   2.546 -0.0629  0.6130  0.2997
 1656SOL     OW16426   0.653   1.837   5.988 -0.1276 -0.1255 -0.2759
 1656SOL    HW116427   0.629   1.763   5.933  0.4649  0.4580 -1.3283
 1656SOL    HW216428   0.695   1.794   6.062 -0.8228  1.7353  1.1969
 1657SOL     OW16429   3.071   2.968   7.360  0.1007 -0.6921 -0.0913
 1657SOL    HW116430   2.992   2.981   7.307  0.9815  0.8873 -1.0013
 1657SOL    HW216431   3.078   2.873   7.368  0.4806 -0.7614 -1.1590
 1658SOL     OW16432   2.197   2.224  17.473 -0.2258 -0.0092  0.1553
 1658SOL    HW116433   2.288   2.201  17.456 -0.1089  1.5442 -1.3843
 1658SOL    HW216434   2.205   2.223  17.568 -1.3983 -3.8823  0.2083
 1659SOL     OW16435   0.703   3.052   0.982  0.3782 -0.2778 -0.7221
 1659SOL    HW116436   0.789   3.040   1.023  0.2827  0.8181 -0.2008
 1659SOL    HW216437   0.683   2.960   0.967 -1.7331  0.2406 -1.0365
 1660SOL     OW16438   3.904   2.861   5.210  0.9231 -0.3950 -0.0060
 1660SOL    HW116439   3.898   2.870   5.305  0.2194 -1.3563  0.0361
 1660SOL    HW216440   3.980   2.803   5.207 -0.9097 -2.6682 -2.4459
 1661SOL     OW16441   4.709   2.265  12.009 -0.1115  0.0452 -0.4535
 1661SOL    HW116442   4.636   2.203  12.004 -0.3398  0.2672  0.1937
 1661SOL    HW216443   4.720   2.272  12.104 -1.8108  3.4338 -0.5102
 1662SOL     OW16444   0.662   1.927   6.840  0.2324 -0.0243 -0.1271
 1662SOL    HW116445   0.661   1.988   6.766  0.2017  0.8230  0.5668
 1662SOL    HW216446   0.749   1.950   6.874 -0.1146  0.5679  0.3566
 1663SOL     OW16447   0.129   0.629   7.486 -0.1118 -0.2855 -0.4462
 1663SOL    HW116448   0.083   0.641   7.403 -0.4104 -3.9826 -0.8204
 1663SOL    HW216449   0.191   0.702   7.485 -0.5645  0.0637 -1.8343
 1664SOL     OW16450   2.021   3.545   8.862 -0.2232 -0.6974 -0.0562
 1664SOL    HW116451   2.082   3.487   8.816  0.2843  0.1797 -0.4822
 1664SOL    HW216452   2.020   3.610   8.792 -1.0007 -0.0843  0.5271
 1665SOL     OW16453   3.500   0.073   7.177 -0.3269  0.1314 -0.0623
 1665SOL    HW116454   3.575   0.013   7.172 -1.7385 -1.7247  0.9667
 1665SOL    HW216455   3.544   0.156   7.193  0.6478 -0.1992 -1.0436
 1666SOL     OW16456   0.964   4.518   8.346  0.2386 -0.1085  0.5362
 1666SOL    HW116457   1.020   4.457   8.297  4.1807  1.3774  3.1741
 1666SOL    HW216458   0.970   4.470   8.429  0.2551  1.8622  1.6821
 1667SOL     OW16459   3.683   3.831   9.797 -0.0798 -0.0291  0.2936
 1667SOL    HW116460   3.738   3.822   9.719 -0.6712  2.2128 -0.3747
 1667SOL    HW216461   3.739   3.891   9.844  0.0357 -0.6185  0.9102
 1668SOL     OW16462   3.310   0.853   1.904 -0.5490 -0.3266 -0.0381
 1668SOL    HW116463   3.226   0.850   1.949 -0.7862 -1.4735 -0.5652
 1668SOL    HW216464   3.276   0.836   1.816 -1.6479  4.2904 -0.4774
 1669SOL     OW16465   3.138   1.584   3.023  0.5831 -0.3838 -0.5247
 1669SOL    HW116466   3.225   1.556   2.994  1.0686 -0.0160  0.6017
 1669SOL    HW216467   3.080   1.567   2.949  2.1759  0.8168 -2.0465
 1670SOL     OW16468   3.162   1.333   4.887  0.2208 -0.0774  0.2718
 1670SOL    HW116469   3.178   1.288   4.971 -0.7641 -1.8804 -0.5170
 1670SOL    HW216470   3.182   1.268   4.820 -2.5200  0.9423 -1.5220
 1671SOL     OW16471   0.808   4.452   6.010  0.4782  0.1986  0.1833
 1671SOL    HW116472   0.806   4.502   5.928  0.5376 -0.9581 -0.5289
 1671SOL    HW216473   0.860   4.511   6.064  0.2053 -0.2145  0.8933
 1672SOL     OW16474   4.170   0.123   4.936 -0.1026 -0.3677  0.0299
 1672SOL    HW116475   4.193   0.103   4.846 -4.1027 -1.3770 -0.7526
 1672SOL    HW216476   4.085   0.167   4.936 -0.6330 -1.4012  1.1619
 1673SOL     OW16477   4.230   1.601   5.158 -0.3897  0.5720  0.5721
 1673SOL    HW116478   4.308   1.623   5.209 -0.9804  3.3971  0.2083
 1673SOL    HW216479   4.228   1.505   5.166 -0.3408  0.4386 -0.9214
 1674SOL     OW16480   1.111   3.306  17.407  0.3994  0.5526 -0.1371
 1674SOL    HW116481   1.170   3.231  17.400 -0.2727  0.0105  0.1372
 1674SOL    HW216482   1.036   3.266  17.364  0.4991  0.6871 -0.4396
 1675SOL     OW16483   4.107   3.703  10.706  0.2644 -0.4050  0.6224
 1675SOL    HW116484   4.085   3.611  10.691  2.7864 -0.4188 -3.0358
 1675SOL    HW216485   4.042   3.740  10.647  1.6855  0.8955 -0.1243
 1676SOL     OW16486   2.202   2.744   0.781  0.1407  0.3411  0.3954
 1676SOL    HW116487   2.232   2.834   0.765  1.7897 -0.5148 -1.3941
 1676SOL    HW216488   2.110   2.742   0.755  0.4191  0.9457 -0.6630
 1677SOL     OW16489   4.658   4.711   6.737 -0.2700 -0.7996  0.2092
 1677SOL    HW116490   4.716   0.055   6.769  0.0183 -0.7831 -0.3533
 1677SOL    HW216491   4.604   4.688   6.814 -0.1300 -0.8286  0.2980
 1678SOL     OW16492   1.988   3.847  12.565 -0.4146 -0.3609 -0.0030
 1678SOL    HW116493   1.947   3.934  12.566 -1.8861 -1.0465 -0.2500
 1678SOL    HW216494   2.029   3.856  12.479  1.6420 -0.9925  0.9237
 1679SOL     OW16495   4.140   0.540  15.294 -0.1258  1.2213 -0.1965
 1679SOL    HW116496   4.147   0.534  15.389 -1.5583  2.7195 -0.0022
 1679SOL    HW216497   4.065   0.487  15.265  1.1192 -0.8585  0.3688
 1680SOL     OW16498   2.993   3.370   3.586  0.6810 -0.1874  0.6757
 1680SOL    HW116499   2.998   3.277   3.608  0.5624 -0.2656  0.3750
 1680SOL    HW216500   3.021   3.373   3.494 -0.9262 -0.2977  0.1744
 1681SOL     OW16501   2.751   0.075   6.790  0.1741 -0.5834  0.1330
 1681SOL    HW116502   2.779   0.155   6.746 -0.4588 -0.0308  0.7362
 1681SOL    HW216503   2.697   0.046   6.716  0.1918 -0.2306 -0.0169
 1682SOL     OW16504   4.516   4.497   4.864  0.6266  0.3016 -0.0351
 1682SOL    HW116505   4.567   4.576   4.882  0.7397  0.8300 -2.7598
 1682SOL    HW216506   4.428   4.534   4.871  0.8393  0.7387  0.3412
 1683SOL     OW16507   4.520   2.969   6.254 -0.1476 -0.1987 -0.3345
 1683SOL    HW116508   4.541   2.876   6.262 -3.2980 -0.7059  2.0880
 1683SOL    HW216509   4.497   2.981   6.346 -0.5070 -0.7860 -0.3511
 1684SOL     OW16510   3.166   4.049   4.255 -0.3159 -0.3808 -0.1063
 1684SOL    HW116511   3.159   4.052   4.351 -1.0673 -1.3372 -0.1327
 1684SOL    HW216512   3.260   4.043   4.242 -0.1991  0.9367  0.1589
 1685SOL     OW16513   2.565   0.269  11.438  0.0218 -0.5383 -0.1931
 1685SOL    HW116514   2.617   0.276  11.518  2.1878  0.6283 -1.7038
 1685SOL    HW216515   2.480   0.233  11.461 -0.3654 -0.4746 -1.5017
 1686SOL     OW16516   1.387   0.678  16.208 -0.8659  0.1671 -0.5056
 1686SOL    HW116517   1.339   0.611  16.255  0.4023 -0.2878  0.1318
 1686SOL    HW216518   1.319   0.746  16.205 -2.1948 -1.2143 -1.5135
 1687SOL     OW16519   0.512   3.064  10.377 -0.4005 -0.1057 -0.3077
 1687SOL    HW116520   0.514   2.968  10.377 -0.0240 -0.0953 -1.3989
 1687SOL    HW216521   0.595   3.068  10.330 -0.6272  0.7029 -0.6277
 1688SOL     OW16522   0.385   2.124   8.194  0.7802 -0.3802  0.4562
 1688SOL    HW116523   0.429   2.058   8.248  0.2497  0.1659  1.5719
 1688SOL    HW216524   0.453   2.155   8.134 -0.4487 -0.7194 -1.1015
 1689SOL     OW16525   1.547   0.588   2.759 -0.5096 -0.1110 -0.0614
 1689SOL    HW116526   1.592   0.540   2.828  0.7955  1.5389  0.2411
 1689SOL    HW216527   1.592   0.672   2.758  3.7040 -2.3902  1.3059
 1690SOL     OW16528   3.289   2.445  15.228 -0.2292  0.4771  0.6018
 1690SOL    HW116529   3.205   2.448  15.181 -0.7088  1.6494  1.5158
 1690SOL    HW216530   3.342   2.500  15.171  1.6265 -0.4261  1.4613
 1691SOL     OW16531   4.289   2.024   2.043 -0.4804 -0.3531 -0.2807
 1691SOL    HW116532   4.252   2.112   2.052  1.6527  0.6469 -1.3725
 1691SOL    HW216533   4.381   2.047   2.043 -0.0342 -2.0930 -0.7915
 1692SOL     OW16534   1.316   2.239  12.474  0.1186  0.1344 -0.0886
 1692SOL    HW116535   1.363   2.322  12.467  0.8097 -0.1509  1.1652
 1692SOL    HW216536   1.365   2.188  12.538 -0.5272  0.8861  1.0035
 1693SOL     OW16537   0.591   1.374   5.445  0.9798  0.5280  0.2311
 1693SOL    HW116538   0.608   1.357   5.352 -2.3733  0.0127 -0.3155
 1693SOL    HW216539   0.506   1.331   5.456  0.2729  2.0320  0.7829
 1694SOL     OW16540   4.586   0.704   6.953  0.2730  0.7729  0.6930
 1694SOL    HW116541   4.680   0.686   6.952 -0.2934 -2.1574 -0.0669
 1694SOL    HW216542   4.558   0.670   7.037  1.5422 -1.7910  0.0581
 1695SOL     OW16543   3.119   1.573   4.307  0.4560  0.0581  0.3211
 1695SOL    HW116544   3.104   1.581   4.401 -1.7750 -0.0044 -0.0182
 1695SOL    HW216545   3.208   1.540   4.314 -0.1773 -1.3874  1.5937
 1696SOL     OW16546   0.209   0.455   1.681 -0.3044  0.2013 -0.0311
 1696SOL    HW116547   0.208   0.403   1.761 -0.5902  1.4772  0.7940
 1696SOL    HW216548   0.287   0.509   1.688 -0.0478 -0.1915  0.1400
 1697SOL     OW16549   3.542   2.262   8.356 -0.5453 -0.1564 -0.1355
 1697SOL    HW116550   3.571   2.185   8.308  1.5248  0.4697  0.1044
 1697SOL    HW216551   3.547   2.332   8.291  1.2281 -2.3174 -2.3335
 1698SOL     OW16552   1.890   2.983   8.730  0.0255  0.2003  0.4455
 1698SOL    HW116553   1.900   3.058   8.789 -3.0535  0.8640  0.1249
 1698SOL    HW216554   1.917   2.914   8.790 -0.3612 -0.4476 -0.1330
 1699SOL     OW16555   1.280   1.090  14.598  0.2677  1.1028  0.4458
 1699SOL    HW116556   1.313   1.103  14.509 -3.0054  0.7780 -0.8154
 1699SOL    HW216557   1.337   1.021  14.632 -0.6891 -1.6345 -3.4142
 1700SOL     OW16558   4.225   3.681  16.391  0.5084  1.0053 -0.4092
 1700SOL    HW116559   4.264   3.685  16.478  2.3941  1.1889 -1.2408
 1700SOL    HW216560   4.255   3.761  16.347  0.5990  0.7941 -0.7311
 1701SOL     OW16561   3.738   0.887  11.546  0.1130  0.4071 -0.0357
 1701SOL    HW116562   3.728   0.982  11.553 -0.4975  0.3140  0.4108
 1701SOL    HW216563   3.730   0.862  11.454 -0.5931  0.0208  0.1277
 1702SOL     OW16564   1.479   4.575   5.667  0.1236  0.5862  0.4328
 1702SOL    HW116565   1.487   4.483   5.641 -0.2549  1.3415 -2.3632
 1702SOL    HW216566   1.391   4.573   5.705 -0.3168 -0.5740 -0.6414
 1703SOL     OW16567   2.133   0.104  11.595  0.8358  0.3563 -0.3243
 1703SOL    HW116568   2.095   0.098  11.507  0.5787  0.4030 -0.2168
 1703SOL    HW216569   2.080   0.042  11.645 -1.6120  2.4381 -0.3680
 1704SOL     OW16570   2.094   1.535   5.199  0.2386  0.0226 -0.3297
 1704SOL    HW116571   2.169   1.539   5.140  1.7536  2.0825  1.7437
 1704SOL    HW216572   2.020   1.569   5.149  0.7219  1.1256 -0.2854
 1705SOL     OW16573   3.791   4.609   6.016  0.2460 -0.3082 -0.5456
 1705SOL    HW116574   3.876   4.590   5.977  1.2895  0.5475  1.2906
 1705SOL    HW216575   3.744   4.651   5.944 -0.8408 -1.2637 -0.3863
 1706SOL     OW16576   2.788   0.969   7.738  0.4040  0.4034  0.6806
 1706SOL    HW116577   2.883   0.961   7.744  0.4844 -1.0832 -2.1859
 1706SOL    HW216578   2.793   1.065   7.741 -1.8616  0.5039  1.4692
 1707SOL     OW16579   0.450   1.567  15.333  0.0692  0.8743 -0.0473
 1707SOL    HW116580   0.434   1.528  15.247 -0.4441 -0.4473  0.6461
 1707SOL    HW216581   0.413   1.510  15.400  0.6002 -0.5307 -0.9529
 1708SOL     OW16582   2.133   3.953  16.453 -0.1856  0.0985 -0.1633
 1708SOL    HW116583   2.185   3.874  16.468 -0.0280  0.9909  3.9767
 1708SOL    HW216584   2.072   3.934  16.382  1.4431  0.3716 -1.6304
 1709SOL     OW16585   1.099   0.790   4.565  0.5364  0.2361  0.5642
 1709SOL    HW116586   1.121   0.857   4.629  1.1515  0.0442  0.5557
 1709SOL    HW216587   1.141   0.713   4.602 -3.2948 -1.8832  0.4863
 1710SOL     OW16588   1.131   3.054  14.565 -0.1822  0.1019 -0.2430
 1710SOL    HW116589   1.159   3.145  14.574 -1.2655  0.5727 -1.6542
 1710SOL    HW216590   1.069   3.055  14.492 -0.9525 -1.0571  0.3947
 1711SOL     OW16591   2.518   3.511   6.144  0.0418 -0.2543  0.0126
 1711SOL    HW116592   2.525   3.523   6.050 -1.5571 -0.0422 -0.0662
 1711SOL    HW216593   2.545   3.603   6.153  0.9966 -0.3136 -2.1757
 1712SOL     OW16594   4.066   0.881   1.253 -0.3298  0.2230  0.5539
 1712SOL    HW116595   3.976   0.912   1.259 -0.2908  0.3719  0.3851
 1712SOL    HW216596   4.107   0.962   1.220 -1.2839 -0.9789 -3.6232
 1713SOL     OW16597   0.554   3.628   7.920 -0.2323 -0.0897 -0.3474
 1713SOL    HW116598   0.648   3.637   7.938 -0.4796  0.3380  0.7506
 1713SOL    HW216599   0.547   3.610   7.826  1.6421 -1.5177 -0.2189
 1714SOL     OW16600   4.244   0.982   4.603  0.1967  0.0430 -0.0590
 1714SOL    HW116601   4.324   0.932   4.592 -1.1084 -1.8478 -0.9040
 1714SOL    HW216602   4.225   0.947   4.690 -1.6683 -1.4591 -1.0702
 1715SOL     OW16603   3.178   2.481  11.128  0.2601  0.9497 -0.3916
 1715SOL    HW116604   3.092   2.496  11.166  0.6201  0.6149  0.5421
 1715SOL    HW216605   3.180   2.386  11.122  0.5553  1.0376 -1.6506
 1716SOL     OW16606   2.588   4.585   6.048  0.1398  0.0312 -0.1419
 1716SOL    HW116607   2.669   4.550   6.011 -0.9904 -1.4537 -1.1978
 1716SOL    HW216608   2.578   4.652   5.980  0.4959  3.1536  2.8637
 1717SOL     OW16609   1.166   1.296   2.685  0.3040  0.2166 -0.7751
 1717SOL    HW116610   1.195   1.290   2.776 -0.2786  0.1053 -0.5981
 1717SOL    HW216611   1.071   1.300   2.694  0.0923  1.1387 -3.4628
 1718SOL     OW16612   0.143   3.962   7.081  0.2264  0.4392  0.0488
 1718SOL    HW116613   0.069   4.007   7.122 -0.1163 -0.8690  0.8758
 1718SOL    HW216614   0.194   3.948   7.161  1.3917 -0.5350 -0.8498
 1719SOL     OW16615   4.346   2.915  16.090  0.1266  0.5461 -0.2467
 1719SOL    HW116616   4.326   2.869  16.009 -0.1014  0.2788 -0.0361
 1719SOL    HW216617   4.430   2.954  16.063  0.3207 -0.6687 -1.4275
 1720SOL     OW16618   2.290   2.150   4.305  0.0725 -0.2504  0.5506
 1720SOL    HW116619   2.239   2.229   4.324 -1.2524 -0.8746 -0.4239
 1720SOL    HW216620   2.285   2.108   4.391 -1.7084 -0.8665  0.1388
 1721SOL     OW16621   2.660   4.352   6.410  0.3123  0.1773  0.7279
 1721SOL    HW116622   2.694   4.378   6.325  1.8623  1.2896  1.6898
 1721SOL    HW216623   2.566   4.352   6.391  0.1928  0.7761  1.3218
 1722SOL     OW16624   1.862   1.224   5.401 -0.1998 -0.3731 -0.0932
 1722SOL    HW116625   1.865   1.129   5.409  0.7200 -0.2328  1.2131
 1722SOL    HW216626   1.813   1.225   5.319  0.0522  0.0213 -0.2379
 1723SOL     OW16627   3.333   1.648  16.651 -0.3876 -0.0541  0.2376
 1723SOL    HW116628   3.403   1.700  16.691 -2.3866  2.8480 -0.0965
 1723SOL    HW216629   3.356   1.559  16.680 -0.6924  0.8964  3.4694
 1724SOL     OW16630   3.041   0.149   6.586 -0.2679 -0.0009  0.2178
 1724SOL    HW116631   2.945   0.148   6.590 -0.4504  0.9658 -3.8680
 1724SOL    HW216632   3.068   0.107   6.504 -1.0331  0.8060 -0.4562
 1725SOL     OW16633   2.403   2.327  16.415 -0.4634 -0.7431 -0.1504
 1725SOL    HW116634   2.475   2.282  16.369  0.3681  0.5445 -0.1196
 1725SOL    HW216635   2.359   2.249  16.447 -2.3535  0.6530  0.6473
 1726SOL     OW16636   2.063   3.591  16.106 -0.5288  0.2206 -0.4288
 1726SOL    HW116637   2.093   3.510  16.067 -2.1604  0.2560 -1.7749
 1726SOL    HW216638   2.001   3.561  16.173 -0.4274 -0.9251 -0.8645
 1727SOL     OW16639   4.698   3.089   5.129  0.8704 -0.6430 -1.0068
 1727SOL    HW116640   4.606   3.087   5.157  1.1574 -0.9050 -0.0591
 1727SOL    HW216641   4.706   3.183   5.112 -0.2860 -0.0748  1.5186
 1728SOL     OW16642   1.707   3.881   5.339  0.1572 -0.3481 -0.0476
 1728SOL    HW116643   1.789   3.857   5.297  0.0959 -1.7716  0.6190
 1728SOL    HW216644   1.643   3.869   5.268 -1.6567  0.6919  1.4132
 1729SOL     OW16645   4.006   2.043   1.615  0.6195 -0.4289 -0.0643
 1729SOL    HW116646   4.056   1.977   1.663 -0.6820 -1.3671  0.0201
 1729SOL    HW216647   4.074   2.093   1.571 -2.1470  0.8740 -2.8723
 1730SOL     OW16648   4.427   3.959  17.113  0.2486 -0.1408 -0.0038
 1730SOL    HW116649   4.475   3.974  17.195  1.6901  2.4731 -1.3194
 1730SOL    HW216650   4.355   3.905  17.146 -1.3640  0.7071 -2.0921
 1731SOL     OW16651   0.868   3.113  11.220  0.3069 -0.7160 -0.0870
 1731SOL    HW116652   0.830   3.041  11.270  0.9738 -2.1972 -1.7051
 1731SOL    HW216653   0.842   3.080  11.134 -0.3485  1.0644 -0.5681
 1732SOL     OW16654   0.261   0.870   5.136 -0.6696 -0.1662  0.1585
 1732SOL    HW116655   0.198   0.861   5.208 -1.8587 -1.7722 -1.0801
 1732SOL    HW216656   0.296   0.781   5.136 -0.7838 -0.2167  1.7451
 1733SOL     OW16657   0.015   2.458   3.756 -0.3265  0.1249  0.0730
 1733SOL    HW116658   0.006   2.370   3.792  1.1035 -1.4220 -3.3322
 1733SOL    HW216659   4.652   2.460   3.714 -0.2301 -1.1976 -0.1926
 1734SOL     OW16660   0.287   1.542   6.670 -0.4966 -0.5226  0.1015
 1734SOL    HW116661   0.231   1.592   6.728  0.3116 -0.7160  1.0554
 1734SOL    HW216662   0.333   1.485   6.732 -0.1084 -0.4085 -0.0778
 1735SOL     OW16663   1.253   0.693  14.751  0.5458  0.2696 -0.2433
 1735SOL    HW116664   1.302   0.771  14.723 -1.0949  1.0590 -0.9146
 1735SOL    HW216665   1.214   0.671  14.666  1.1201 -1.3371 -0.0841
 1736SOL     OW16666   4.082   1.165   2.877  0.1183 -0.0024  0.2949
 1736SOL    HW116667   4.066   1.142   2.786 -1.5694  2.0505  0.0705
 1736SOL    HW216668   4.175   1.183   2.874  0.4161 -1.9636 -1.9966
 1737SOL     OW16669   1.412   2.141   8.958 -0.2276 -0.4347  0.0492
 1737SOL    HW116670   1.376   2.228   8.938  1.1961 -0.0309 -0.7610
 1737SOL    HW216671   1.479   2.162   9.023 -1.0330 -0.0850  0.7692
 1738SOL     OW16672   1.385   4.179  12.719 -0.3092 -0.1623 -0.7973
 1738SOL    HW116673   1.351   4.176  12.809  1.4119  0.9201 -0.1062
 1738SOL    HW216674   1.479   4.161  12.726 -0.3517 -0.8446 -1.9420
 1739SOL     OW16675   1.243   1.456  15.284  0.3104 -0.1165  0.5077
 1739SOL    HW116676   1.279   1.377  15.323 -3.6298 -1.3449  1.5768
 1739SOL    HW216677   1.156   1.464  15.322  0.0492  2.4280 -0.6044
 1740SOL     OW16678   3.511   3.998   3.344  0.8405  0.7340 -0.5963
 1740SOL    HW116679   3.565   3.998   3.423 -1.0009  0.2158  0.6732
 1740SOL    HW216680   3.444   3.934   3.368  0.2715  0.9072 -1.7482
 1741SOL     OW16681   0.396   1.736   6.160 -0.2650 -0.0361 -0.0248
 1741SOL    HW116682   0.406   1.828   6.135  0.2118 -0.4856 -1.4860
 1741SOL    HW216683   0.433   1.690   6.085  0.4914  2.9867 -1.5170
 1742SOL     OW16684   4.257   3.816   1.448 -0.1688  0.6898 -0.1274
 1742SOL    HW116685   4.219   3.821   1.360  1.1088  1.2004 -0.6406
 1742SOL    HW216686   4.183   3.788   1.502  0.9125  1.6810  1.8516
 1743SOL     OW16687   1.732   2.336  15.472 -0.0448  0.5458 -0.0566
 1743SOL    HW116688   1.664   2.276  15.442 -1.6085  0.8522  2.8976
 1743SOL    HW216689   1.807   2.303  15.422 -1.5090  0.0588 -1.9434
 1744SOL     OW16690   1.036   4.483   6.710  0.6575  1.3503  0.0088
 1744SOL    HW116691   1.031   4.429   6.631  0.0502  1.3155  0.0687
 1744SOL    HW216692   0.951   4.527   6.703 -0.8176 -1.6130 -0.8849
 1745SOL     OW16693   3.667   4.373   6.102 -0.4026 -0.0109 -0.9608
 1745SOL    HW116694   3.678   4.461   6.065 -0.2832  0.7230  0.8330
 1745SOL    HW216695   3.760   4.364   6.122 -0.2988  1.5713 -0.7149
 1746SOL     OW16696   2.318   1.227   5.956  0.3366  0.2432 -0.2843
 1746SOL    HW116697   2.276   1.288   6.016  1.0815 -1.9410  2.4391
 1746SOL    HW216698   2.343   1.293   5.891 -1.2329  0.6067 -0.5126
 1747SOL     OW16699   2.009   3.065   5.251 -0.4579  0.5100  0.2990
 1747SOL    HW116700   2.008   3.054   5.346  1.8275 -0.3029  0.2366
 1747SOL    HW216701   1.922   3.031   5.231 -0.8866  0.9267  1.4284
 1748SOL     OW16702   0.283   0.047   8.478  0.0986 -0.3993  0.3342
 1748SOL    HW116703   0.307   4.720   8.401  0.3207 -1.2508  0.9556
 1748SOL    HW216704   0.370   0.085   8.493 -0.2164  0.5599 -0.2815
 1749SOL     OW16705   0.114   4.044   1.577  0.0276 -0.0982 -0.0763
 1749SOL    HW116706   0.056   3.968   1.583  0.9309 -0.6822  1.4261
 1749SOL    HW216707   0.064   4.103   1.521  1.1500  0.3536 -0.6218
 1750SOL     OW16708   0.129   4.218   1.310  0.0955 -0.1858  0.2702
 1750SOL    HW116709   0.153   4.294   1.258  0.0900 -1.6227 -1.8208
 1750SOL    HW216710   0.189   4.225   1.385 -0.5622 -0.8025  0.8549
 1751SOL     OW16711   3.685   1.517   5.486 -0.5041 -0.3945 -0.0856
 1751SOL    HW116712   3.674   1.612   5.483 -1.2161 -0.4527  0.8677
 1751SOL    HW216713   3.651   1.492   5.572  1.6207 -0.4129  0.7473
 1752SOL     OW16714   1.832   3.838   9.816  0.1276  0.2309 -0.2930
 1752SOL    HW116715   1.774   3.786   9.761 -0.6177  0.5212  0.2160
 1752SOL    HW216716   1.788   3.919   9.841 -0.1638  0.3174 -1.0857
 1753SOL     OW16717   3.265   2.625  13.023  0.8264 -0.0196  0.0583
 1753SOL    HW116718   3.306   2.540  13.005 -0.8541 -0.1963 -2.9130
 1753SOL    HW216719   3.283   2.666  12.939  2.6667 -0.4884  0.2210
 1754SOL     OW16720   3.182   3.838   0.811 -0.5388  0.0340 -0.2372
 1754SOL    HW116721   3.194   3.758   0.760  0.9533  0.7872 -1.0755
 1754SOL    HW216722   3.180   3.906   0.743 -0.4873 -0.0825 -0.3536
 1755SOL     OW16723   2.956   4.382   9.076  0.0290 -0.3944 -0.0421
 1755SOL    HW116724   2.925   4.365   9.165  2.4112  0.1290  0.8985
 1755SOL    HW216725   3.051   4.386   9.092  0.2455 -0.4010 -1.3039
 1756SOL     OW16726   1.414   0.471   4.873 -0.6274 -0.0055  0.4414
 1756SOL    HW116727   1.404   0.544   4.812 -0.3042  2.1884  3.0611
 1756SOL    HW216728   1.354   0.487   4.945  1.5479  0.2882  2.1686
 1757SOL     OW16729   0.161   2.667  15.237  0.4503  0.8466 -0.3390
 1757SOL    HW116730   0.255   2.650  15.234  0.3911  0.6207 -0.9390
 1757SOL    HW216731   0.131   2.591  15.188  0.3153  0.2218  0.7134
 1758SOL     OW16732   0.575   1.938   9.812  0.1821  0.4233  0.5056
 1758SOL    HW116733   0.577   1.922   9.718  3.2271  1.0779  0.4730
 1758SOL    HW216734   0.482   1.920   9.831 -0.4135  2.4702 -0.4703
 1759SOL     OW16735   1.943   1.219  14.020 -0.2920 -0.5089  0.0747
 1759SOL    HW116736   2.029   1.221  14.062 -1.6360  1.8176  2.7024
 1759SOL    HW216737   1.883   1.190  14.089  0.1375  1.1477  1.1171
 1760SOL     OW16738   1.014   0.454  10.041 -0.4842 -0.0538 -0.0146
 1760SOL    HW116739   1.015   0.363  10.014  3.1493 -0.0165  0.0025
 1760SOL    HW216740   0.925   0.475  10.014 -0.4567 -0.8470 -0.7221
 1761SOL     OW16741   1.186   0.063   6.113  0.2979 -0.1908  0.1703
 1761SOL    HW116742   1.274   0.086   6.085  1.3216 -1.3147  2.3937
 1761SOL    HW216743   1.192   0.057   6.209  0.7831  3.3328  0.3436
 1762SOL     OW16744   0.775   4.165  13.878 -0.4191  0.4764  0.1628
 1762SOL    HW116745   0.826   4.098  13.923 -2.2957 -0.1421  1.3607
 1762SOL    HW216746   0.816   4.247  13.905 -0.2843  0.4680 -0.0212
 1763SOL     OW16747   2.623   0.174  17.519  0.3005 -0.1895  0.5185
 1763SOL    HW116748   2.566   0.155  17.594  1.9720 -0.6509  1.6569
 1763SOL    HW216749   2.572   0.238  17.469  0.4475 -1.7812 -1.6832
 1764SOL     OW16750   4.157   2.338  13.038  0.1974 -0.5538  0.8830
 1764SOL    HW116751   4.242   2.377  13.058  0.8567 -1.5724  0.0893
 1764SOL    HW216752   4.192   2.259  12.997  1.7344  0.4406  0.2599
 1765SOL     OW16753   4.057   3.212   3.403 -0.2572 -0.0760 -0.8886
 1765SOL    HW116754   4.016   3.128   3.423 -0.2343  0.4940  1.5877
 1765SOL    HW216755   4.051   3.203   3.308  0.2320  0.9255 -1.0136
 1766SOL     OW16756   4.152   1.692   2.492 -0.3049  0.9993 -0.0676
 1766SOL    HW116757   4.147   1.666   2.584 -0.7526  0.4517 -0.2492
 1766SOL    HW216758   4.110   1.611   2.462  0.1755  1.3992 -1.8205
 1767SOL     OW16759   1.603   3.351   1.596 -0.1089 -0.1107 -0.5514
 1767SOL    HW116760   1.631   3.341   1.505  0.5335 -1.3275 -0.2202
 1767SOL    HW216761   1.691   3.375   1.627 -0.2159  0.7732 -0.9182
 1768SOL     OW16762   1.005   3.466  12.599 -0.3331  0.3018 -0.3689
 1768SOL    HW116763   0.931   3.484  12.541 -0.4779  1.3878  0.1446
 1768SOL    HW216764   1.015   3.549  12.647 -2.4698 -0.0626  0.7030
 1769SOL     OW16765   1.803   4.436   5.241  0.3624  0.3742 -0.3413
 1769SOL    HW116766   1.884   4.385   5.236 -0.1111 -0.1545 -2.4146
 1769SOL    HW216767   1.840   4.523   5.258  0.6292  0.6794 -2.5080
 1770SOL     OW16768   2.911   0.535  12.066 -0.0737 -0.1591 -0.2049
 1770SOL    HW116769   2.877   0.448  12.045  1.6883 -0.5992 -1.1465
 1770SOL    HW216770   2.831   0.587  12.057 -2.1673 -2.9399  2.0756
 1771SOL     OW16771   1.369   3.635   1.365  0.2245 -0.6078 -0.0398
 1771SOL    HW116772   1.281   3.656   1.334  0.3845 -2.0545 -1.4235
 1771SOL    HW216773   1.409   3.603   1.285  0.2178  0.2097 -0.3672
 1772SOL     OW16774   0.845   2.934  17.085 -0.5245  0.2826 -0.0627
 1772SOL    HW116775   0.819   2.862  17.027  0.8323 -1.0545  0.9643
 1772SOL    HW216776   0.756   2.947  17.118  0.1719 -0.1372  1.9949
 1773SOL     OW16777   1.753   0.296   7.836  0.2519  0.2874 -0.3664
 1773SOL    HW116778   1.796   0.286   7.921 -1.1464 -2.8211 -0.0249
 1773SOL    HW216779   1.731   0.205   7.815  0.8143  0.3125 -1.0904
 1774SOL     OW16780   3.723   4.334   9.095 -0.3233 -0.6196  0.7082
 1774SOL    HW116781   3.771   4.263   9.136 -0.1553  0.8487  3.0532
 1774SOL    HW216782   3.753   4.417   9.133 -0.3438  0.8580 -2.4029
 1775SOL     OW16783   0.002   2.407   8.754  0.0725  0.4176 -0.5056
 1775SOL    HW116784   0.046   2.340   8.702  2.4470  1.2563  0.4462
 1775SOL    HW216785   4.636   2.376   8.742  0.8397 -2.3114  0.6862
 1776SOL     OW16786   1.055   3.862   8.364 -0.3896 -0.4410  0.2167
 1776SOL    HW116787   1.051   3.911   8.282  4.5886 -0.3899 -0.0301
 1776SOL    HW216788   0.997   3.789   8.346 -2.7153  1.0155  1.7086
 1777SOL     OW16789   4.644   2.346  11.689 -0.8073  0.2593 -0.3614
 1777SOL    HW116790   4.704   2.354  11.615  0.9219  0.6497  1.0879
 1777SOL    HW216791   4.606   2.262  11.661 -0.6249  0.2377 -0.5429
 1778SOL     OW16792   1.223   4.344  10.564 -0.3683  0.3647 -0.1103
 1778SOL    HW116793   1.302   4.330  10.617 -0.3073  0.1034 -0.2675
 1778SOL    HW216794   1.194   4.433  10.582 -1.8847 -0.3634  1.0488
 1779SOL     OW16795   0.842   0.388   4.581 -0.0089  0.5491 -0.0951
 1779SOL    HW116796   0.849   0.342   4.497 -0.6277 -3.4735  2.0917
 1779SOL    HW216797   0.931   0.418   4.601  0.3296 -1.4239  1.3276
 1780SOL     OW16798   2.318   4.463  15.740 -0.2750 -0.3225  0.4337
 1780SOL    HW116799   2.308   4.411  15.660 -3.0631  2.7921 -1.2146
 1780SOL    HW216800   2.407   4.495  15.749 -0.4287 -0.2011  1.5581
 1781SOL     OW16801   2.953   3.407   6.395  0.0614  0.1377 -0.4179
 1781SOL    HW116802   2.928   3.497   6.417  0.0931 -0.4115  1.8703
 1781SOL    HW216803   2.869   3.379   6.359 -0.0453 -0.5289  0.3342
 1782SOL     OW16804   3.078   1.201   6.093  0.0032  0.6968 -0.3694
 1782SOL    HW116805   3.086   1.146   6.172 -1.2115 -1.3957 -1.6789
 1782SOL    HW216806   3.056   1.284   6.135 -2.4862 -0.1317 -0.0077
 1783SOL     OW16807   1.528   2.451  12.402  0.0611 -0.7095 -0.3978
 1783SOL    HW116808   1.603   2.487  12.450  0.1231  1.1186 -1.8817
 1783SOL    HW216809   1.555   2.491  12.319  2.4707  0.9242  1.1663
 1784SOL     OW16810   1.747   1.503   7.886  0.2151  0.3677  0.1261
 1784SOL    HW116811   1.792   1.573   7.933  1.7634 -1.3604  1.2467
 1784SOL    HW216812   1.661   1.496   7.928  0.7626  0.5165  1.2823
 1785SOL     OW16813   0.748   0.952   7.652  0.0624  0.0185 -0.2672
 1785SOL    HW116814   0.729   0.869   7.608 -1.5782 -0.0586  0.5845
 1785SOL    HW216815   0.722   0.945   7.744 -0.3470 -1.8381 -0.5138
 1786SOL     OW16816   3.439   1.627   8.516  0.7900  0.5432 -0.2012
 1786SOL    HW116817   3.414   1.544   8.556 -1.2113  1.3010  0.0940
 1786SOL    HW216818   3.364   1.642   8.459  0.3564 -2.0694 -0.2898
 1787SOL     OW16819   2.819   1.156   5.326  0.5130  0.1838 -0.3177
 1787SOL    HW116820   2.903   1.199   5.345  1.0301 -1.5579  1.2292
 1787SOL    HW216821   2.810   1.102   5.404  1.0797  0.5745  0.0185
 1788SOL     OW16822   1.424   3.738   4.897  0.4032 -0.1996 -0.2898
 1788SOL    HW116823   1.464   3.663   4.852  2.4113 -0.3090  1.6784
 1788SOL    HW216824   1.434   3.806   4.830  1.9840  0.4035  0.5640
 1789SOL     OW16825   1.019   0.576  17.265  0.2421  0.1778 -0.0544
 1789SOL    HW116826   0.960   0.502  17.276  0.0195  0.7085  2.3201
 1789SOL    HW216827   1.097   0.543  17.219 -1.1150 -2.2208 -0.6334
 1790SOL     OW16828   2.093   4.541   9.149 -0.2972  0.0891 -0.1120
 1790SOL    HW116829   2.151   4.527   9.074 -0.6752 -0.6211 -0.2662
 1790SOL    HW216830   2.168   4.565   9.203 -0.6550 -1.1349  0.9367
 1791SOL     OW16831   3.886   2.760   3.200 -0.0784  0.5869 -0.1527
 1791SOL    HW116832   3.829   2.783   3.127  1.0298  0.5528 -1.0316
 1791SOL    HW216833   3.970   2.752   3.155  0.0231  1.8402 -0.1964
 1792SOL     OW16834   3.634   2.098   8.136  0.0161  0.6170  0.2597
 1792SOL    HW116835   3.692   2.083   8.062  0.0776 -0.7117  0.5871
 1792SOL    HW216836   3.552   2.126   8.094 -1.5110 -1.5383  1.7643
 1793SOL     OW16837   3.617   1.511   4.502  0.4210 -0.0455  0.0339
 1793SOL    HW116838   3.688   1.529   4.440 -1.7907 -0.3839 -2.6472
 1793SOL    HW216839   3.634   1.575   4.571  2.5758  0.7878 -1.2772
 1794SOL     OW16840   1.482   0.853   2.866 -0.4031 -0.0131  0.0459
 1794SOL    HW116841   1.509   0.867   2.956 -0.4614 -0.1872  0.0914
 1794SOL    HW216842   1.395   0.892   2.875  0.0731  1.6107 -2.2318
 1795SOL     OW16843   2.401   3.907   9.868  0.1615 -0.1559 -0.1786
 1795SOL    HW116844   2.334   3.913   9.800 -0.0918  1.0395  0.1672
 1795SOL    HW216845   2.341   3.900   9.943  0.5166  1.8363  0.3012
 1796SOL     OW16846   1.873   3.755  12.283 -0.1798 -0.4536 -0.2049
 1796SOL    HW116847   1.966   3.777  12.279 -0.2409 -0.3162 -0.8527
 1796SOL    HW216848   1.826   3.838  12.276 -2.2056 -1.5202  0.6027
 1797SOL     OW16849   3.056   3.260   6.622 -0.0929 -0.7231 -0.1141
 1797SOL    HW116850   3.029   3.317   6.550  0.6050  1.5013  1.3861
 1797SOL    HW216851   3.130   3.219   6.579 -0.5919 -1.7614  0.0277
 1798SOL     OW16852   1.620   3.430  12.383 -0.1683 -0.6940  0.0470
 1798SOL    HW116853   1.680   3.385  12.442  0.1393  2.0804  1.8748
 1798SOL    HW216854   1.572   3.475  12.452  1.0509  0.5152  0.1237
 1799SOL     OW16855   4.644   0.816   9.354  0.0457  0.0843 -0.3659
 1799SOL    HW116856   4.688   0.758   9.292  0.0430  1.2682 -1.4686
 1799SOL    HW216857   4.679   0.784   9.437  1.0348 -0.8056 -1.1192
 1800SOL     OW16858   2.291   3.382   5.361  0.2201  0.2271  0.4617
 1800SOL    HW116859   2.363   3.355   5.419 -0.8087 -0.1893  1.5401
 1800SOL    HW216860   2.328   3.353   5.278  3.0726  3.7267  0.4949
 1801SOL     OW16861   1.984   2.919   9.872  0.0316 -0.0033  0.0561
 1801SOL    HW116862   2.048   2.926   9.801  0.5216  1.2511  0.6110
 1801SOL    HW216863   1.928   2.850   9.838  2.1630 -1.0794 -1.2297
 1802SOL     OW16864   2.061   3.566  13.889  0.5266 -0.1074 -0.3036
 1802SOL    HW116865   2.085   3.645  13.841  1.1448 -1.2021 -1.7966
 1802SOL    HW216866   2.143   3.520  13.904  1.0692  1.3326  1.0456
 1803SOL     OW16867   3.581   1.346   1.075 -0.1813 -0.8364  0.5252
 1803SOL    HW116868   3.506   1.375   1.023  0.2793  1.8209  1.3463
 1803SOL    HW216869   3.566   1.380   1.162 -1.1655 -0.6667  0.2843
 1804SOL     OW16870   1.326   3.978   1.323  0.2914 -0.2661  0.3613
 1804SOL    HW116871   1.281   4.007   1.402 -1.1065 -0.0544 -0.5189
 1804SOL    HW216872   1.266   3.910   1.293 -0.8429  0.3732  1.1753
 1805SOL     OW16873   4.041   0.734   3.848 -0.3792  0.6041  0.2844
 1805SOL    HW116874   4.013   0.644   3.864 -0.3022  0.5298 -0.0094
 1805SOL    HW216875   4.013   0.747   3.757 -1.5538 -3.2425  0.0975
 1806SOL     OW16876   4.374   1.636  10.005  0.1224 -0.1770  0.2070
 1806SOL    HW116877   4.423   1.644  10.087 -0.2039 -3.8718  0.7861
 1806SOL    HW216878   4.433   1.575   9.960 -0.5190 -0.3078 -0.4705
 1807SOL     OW16879   0.213   1.162  16.347 -0.0630 -0.6341 -0.0653
 1807SOL    HW116880   0.279   1.210  16.397 -0.7911 -1.2781  1.5423
 1807SOL    HW216881   0.180   1.104  16.416 -1.7374 -0.6956 -0.9120
 1808SOL     OW16882   0.291   3.095   1.755 -0.1576  0.2761 -0.2340
 1808SOL    HW116883   0.316   3.013   1.711  0.3389  0.4682 -0.3039
 1808SOL    HW216884   0.324   3.152   1.685 -2.2406  1.2422 -0.4330
 1809SOL     OW16885   1.674   2.258  13.526  0.3474  0.3936  0.6158
 1809SOL    HW116886   1.731   2.323  13.485 -0.2600  1.2913  1.1754
 1809SOL    HW216887   1.588   2.291  13.500  0.6248  0.5003 -0.1722
 1810SOL     OW16888   0.355   4.561   5.227 -0.1767  0.2906 -0.2931
 1810SOL    HW116889   0.366   4.467   5.241 -0.7680  0.7307  3.2827
 1810SOL    HW216890   0.297   4.561   5.151 -1.7514 -1.6530  0.9257
 1811SOL     OW16891   0.423   0.987   3.172 -0.5385 -0.4506  0.2048
 1811SOL    HW116892   0.488   0.937   3.220  2.0570  2.1393 -0.6345
 1811SOL    HW216893   0.373   0.921   3.124  0.9913 -1.3381 -0.1733
 1812SOL     OW16894   1.981   2.897   7.687  0.1796 -0.1706 -0.1663
 1812SOL    HW116895   1.956   2.934   7.771 -1.1638  0.2578 -0.7499
 1812SOL    HW216896   2.024   2.817   7.715  1.0632 -0.4096 -2.1865
 1813SOL     OW16897   3.550   2.532   0.600 -0.1036  0.1226 -0.4173
 1813SOL    HW116898   3.627   2.520   0.545  0.8988  1.0683  0.7939
 1813SOL    HW216899   3.523   2.616   0.564 -2.5723 -0.4844  0.0084
 1814SOL     OW16900   3.055   4.509   5.071  0.1224 -0.2471  0.0673
 1814SOL    HW116901   3.028   4.564   4.997  0.0580  0.0045  0.2806
 1814SOL    HW216902   3.122   4.453   5.031  1.1191  1.2554 -0.3651
 1815SOL     OW16903   0.579   2.618   8.232 -0.1778  0.1138 -0.3507
 1815SOL    HW116904   0.544   2.531   8.252  0.5427 -0.0424  0.2376
 1815SOL    HW216905   0.619   2.610   8.145  1.0777 -0.9436  0.3153
 1816SOL     OW16906   1.543   2.106   9.280 -0.2639  0.4502 -0.0635
 1816SOL    HW116907   1.517   2.160   9.354 -0.6244 -0.4294  0.4427
 1816SOL    HW216908   1.587   2.176   9.232  0.2409  1.5642  2.0359
 1817SOL     OW16909   2.684   2.954   5.396 -0.1440 -0.9629  0.0911
 1817SOL    HW116910   2.713   2.896   5.466  3.5700  0.8229 -0.0267
 1817SOL    HW216911   2.694   3.032   5.451  0.3564 -1.6642  0.9900
 1818SOL     OW16912   2.214   3.172   2.975 -0.0231  0.4585 -0.0511
 1818SOL    HW116913   2.293   3.136   2.935 -0.0715 -1.4964  1.6068
 1818SOL    HW216914   2.241   3.264   2.979  1.2614  0.1085 -0.8340
 1819SOL     OW16915   3.733   2.412   0.319 -0.4467  0.4918 -0.1222
 1819SOL    HW116916   3.658   2.464   0.291  0.4855  1.3526 -1.0008
 1819SOL    HW216917   3.801   2.480   0.319 -0.4108  0.4366 -3.5373
 1820SOL     OW16918   0.336   1.637  12.435 -0.0436  0.1051 -0.8284
 1820SOL    HW116919   0.294   1.561  12.395 -1.1684 -0.5059  1.5073
 1820SOL    HW216920   0.257   1.678  12.469  0.3091 -0.6631  0.9135
 1821SOL     OW16921   4.503   1.660   0.125 -0.3978  0.1604  0.0519
 1821SOL    HW116922   4.561   1.736   0.123 -2.1769  1.5382  0.7157
 1821SOL    HW216923   4.452   1.666   0.205 -0.5034 -1.0088  0.0643
 1822SOL     OW16924   1.837   3.096  15.168 -0.3156  0.3266 -0.8053
 1822SOL    HW116925   1.771   3.034  15.198  0.8253 -1.6794 -2.4313
 1822SOL    HW216926   1.839   3.086  15.073  1.1619  1.0446 -0.8573
 1823SOL     OW16927   3.414   3.393   4.666  0.1906 -0.2224 -0.3877
 1823SOL    HW116928   3.375   3.366   4.582 -1.7445  1.4245 -0.0335
 1823SOL    HW216929   3.435   3.313   4.714 -0.4705 -1.5359 -2.2598
 1824SOL     OW16930   0.106   0.632   6.948 -0.6821 -0.4200  0.3403
 1824SOL    HW116931   0.150   0.673   6.873 -1.1847 -1.2149 -0.3832
 1824SOL    HW216932   0.156   0.674   7.018 -0.7360  1.3334 -0.6610
 1825SOL     OW16933   4.351   2.254   6.165  0.1488 -0.3504 -0.2921
 1825SOL    HW116934   4.359   2.288   6.076 -0.9771  0.5934 -0.0363
 1825SOL    HW216935   4.443   2.229   6.174  0.0928 -0.2722  0.5320
 1826SOL     OW16936   2.013   3.777   6.127 -0.1838 -0.3629 -0.0200
 1826SOL    HW116937   2.038   3.699   6.077 -2.6142 -1.1336 -0.0482
 1826SOL    HW216938   2.049   3.761   6.214  1.0691  0.8282 -0.3281
 1827SOL     OW16939   1.405   4.257   9.596 -0.2086  0.6968  0.3056
 1827SOL    HW116940   1.497   4.280   9.612  0.0612  0.1559 -0.4905
 1827SOL    HW216941   1.363   4.332   9.553 -1.0380  1.1077  1.8421
 1828SOL     OW16942   0.559   2.187   3.350  0.0096  0.1963  0.2268
 1828SOL    HW116943   0.512   2.148   3.424 -1.6258 -2.4383 -2.2199
 1828SOL    HW216944   0.638   2.134   3.345 -0.0606  0.0030  1.2184
 1829SOL     OW16945   3.419   1.688   8.075 -0.0370 -0.2274 -0.2264
 1829SOL    HW116946   3.355   1.754   8.050 -0.1939 -1.0139 -1.8640
 1829SOL    HW216947   3.400   1.692   8.169 -1.0280  0.4015 -0.4601
 1830SOL     OW16948   2.166   4.564   5.236 -0.0595 -0.3798 -0.0222
 1830SOL    HW116949   2.163   4.560   5.141  0.6433 -2.8901  0.0519
 1830SOL    HW216950   2.244   4.618   5.243 -0.0914 -0.2474 -0.7408
 1831SOL     OW16951   3.634   3.138   6.894 -0.1556  0.2885 -0.1819
 1831SOL    HW116952   3.720   3.179   6.896 -0.2991  0.5868 -0.0628
 1831SOL    HW216953   3.603   3.140   6.985  1.4256 -1.2583  0.3838
 1832SOL     OW16954   0.251   2.576   8.256 -0.4974 -0.0482 -0.2497
 1832SOL    HW116955   0.229   2.491   8.219  1.3253 -0.6356 -0.0091
 1832SOL    HW216956   0.335   2.545   8.290 -1.5318 -1.1415  1.2764
 1833SOL     OW16957   3.740   1.745   1.394  0.0949 -0.7568  0.1073
 1833SOL    HW116958   3.781   1.828   1.371 -0.9434 -0.3057 -0.1387
 1833SOL    HW216959   3.680   1.757   1.467  1.9149  0.6996  1.3478
 1834SOL     OW16960   4.402   0.561   3.283 -0.2350 -0.7735  0.0754
 1834SOL    HW116961   4.397   0.656   3.290 -0.4446 -0.8293  0.6401
 1834SOL    HW216962   4.310   0.547   3.261 -0.3924  1.1483 -0.5236
 1835SOL     OW16963   3.427   2.654   1.495 -0.2160 -1.0083  0.2546
 1835SOL    HW116964   3.411   2.588   1.428 -2.1314  0.3992 -0.6879
 1835SOL    HW216965   3.413   2.738   1.453  1.1374 -0.9350 -0.0419
 1836SOL     OW16966   3.808   0.930  14.018  0.3699  0.1828  0.3321
 1836SOL    HW116967   3.891   0.888  13.995 -0.1400  0.5905 -2.2274
 1836SOL    HW216968   3.834   0.981  14.095  0.4469  2.8955 -1.4934
 1837SOL     OW16969   3.923   3.103   7.261  0.3329 -0.2396 -0.4033
 1837SOL    HW116970   3.979   3.087   7.337 -3.2409 -2.8377  1.6642
 1837SOL    HW216971   3.839   3.084   7.302 -0.3128  1.3593 -0.9890
 1838SOL     OW16972   1.448   2.798   9.734  0.3555 -0.0737 -0.0739
 1838SOL    HW116973   1.362   2.832   9.709  0.7400  0.7469 -0.2996
 1838SOL    HW216974   1.496   2.873   9.771 -2.0495  0.5308  1.8645
 1839SOL     OW16975   3.397   4.061   9.705  0.2432 -0.3180 -0.4397
 1839SOL    HW116976   3.322   4.119   9.715  2.1678  2.4380 -2.1367
 1839SOL    HW216977   3.359   3.989   9.654 -0.4489 -1.2891  1.3941
 1840SOL     OW16978   1.069   1.831   1.699  0.3204  0.2860 -0.1518
 1840SOL    HW116979   1.016   1.760   1.736  2.4184 -1.5097 -0.6198
 1840SOL    HW216980   1.156   1.790   1.704 -0.0573 -0.5265 -0.2063
 1841SOL     OW16981   0.860   3.078  17.569 -0.2465 -0.9865 -0.0995
 1841SOL    HW116982   0.931   3.052  17.510  0.2778 -1.8940  0.9381
 1841SOL    HW216983   0.793   3.084  17.501 -1.4946  1.3806  1.3234
 1842SOL     OW16984   1.004   1.596   4.545 -0.2112 -0.2853  0.3296
 1842SOL    HW116985   0.992   1.689   4.568  2.6864  0.6332 -1.9944
 1842SOL    HW216986   1.099   1.591   4.541 -0.2353  0.7859 -1.5564
 1843SOL     OW16987   3.477   0.095   2.312  0.2307  0.0998 -0.5577
 1843SOL    HW116988   3.462   0.001   2.302  2.2223 -0.3631  0.6630
 1843SOL    HW216989   3.572   0.106   2.306  0.2018 -0.0692 -1.2196
 1844SOL     OW16990   1.452   2.007   5.571 -0.7321 -0.2531 -0.3620
 1844SOL    HW116991   1.465   1.990   5.664  0.5155  0.6313 -0.3828
 1844SOL    HW216992   1.373   2.060   5.582 -0.5737  0.2470 -1.5713
 1845SOL     OW16993   3.111   0.366   3.814 -0.1156 -0.3896 -0.3538
 1845SOL    HW116994   3.101   0.355   3.909 -1.6146 -1.7772 -0.6573
 1845SOL    HW216995   3.070   0.451   3.798 -0.4819 -0.5796 -0.4201
 1846SOL     OW16996   4.167   0.962  16.986 -0.3187 -0.2708 -0.1672
 1846SOL    HW116997   4.235   0.936  16.923 -1.3327  0.4994 -1.5908
 1846SOL    HW216998   4.178   1.057  16.990  2.7982 -0.4979 -3.1478
 1847SOL     OW16999   0.081   2.985   3.782  0.2206 -0.6840  0.4843
 1847SOL    HW117000   0.101   2.995   3.689  0.8484  2.3469  0.9228
 1847SOL    HW217001   0.153   2.929   3.809  3.8323  3.8900  0.2708
 1848SOL     OW17002   3.334   3.825   2.517  0.4554  0.1326  0.3816
 1848SOL    HW117003   3.299   3.903   2.473 -1.9808 -0.2469  1.7036
 1848SOL    HW217004   3.422   3.857   2.542  1.3148 -0.0764 -2.3784
 1849SOL     OW17005   3.672   1.607   8.642  0.9336 -0.4170 -1.0639
 1849SOL    HW117006   3.586   1.612   8.600 -0.5174 -0.3809  1.8839
 1849SOL    HW217007   3.731   1.623   8.569  1.4485  1.2358 -0.2793
 1850SOL     OW17008   3.880   0.142   4.651  0.1613 -0.1334  0.3400
 1850SOL    HW117009   3.899   0.182   4.737  0.2126  0.6503 -0.0330
 1850SOL    HW217010   3.891   0.223   4.601 -2.6808  0.7038  1.0844
 1851SOL     OW17011   2.244   0.123   6.415 -0.0448  0.2049  0.4776
 1851SOL    HW117012   2.239   0.036   6.456  1.2773 -0.8610 -1.6341
 1851SOL    HW217013   2.266   0.097   6.326 -2.9404  3.5032 -1.1620
 1852SOL     OW17014   1.766   3.579   3.373  0.5244 -0.4422  0.0068
 1852SOL    HW117015   1.794   3.585   3.464  1.9596 -0.0354 -0.4533
 1852SOL    HW217016   1.801   3.498   3.335  0.2536  0.4674 -2.2085
 1853SOL     OW17017   3.381   2.354   4.428  0.8464 -0.0514 -0.0868
 1853SOL    HW117018   3.362   2.412   4.354  0.4637 -0.3705 -0.2424
 1853SOL    HW217019   3.476   2.351   4.416  0.6596 -1.1740 -1.3135
 1854SOL     OW17020   3.990   1.638   3.802  0.2844 -0.4208  0.1298
 1854SOL    HW117021   4.032   1.715   3.840 -1.3922  0.8506 -0.5479
 1854SOL    HW217022   3.965   1.686   3.722  0.4297  1.4992  1.2387
 1855SOL     OW17023   0.982   3.621   2.810  0.4643 -0.4053  0.6903
 1855SOL    HW117024   0.984   3.542   2.756 -0.5472  0.1696 -0.1847
 1855SOL    HW217025   1.076   3.637   2.822  0.7991 -0.9293 -1.2329
 1856SOL     OW17026   1.062   4.008   6.857  0.0335  0.2725  0.2531
 1856SOL    HW117027   1.026   3.969   6.937  0.8219 -0.2124  0.3758
 1856SOL    HW217028   1.155   4.014   6.880  1.0103 -2.7803 -2.8840
 1857SOL     OW17029   3.597   3.384   8.687  0.2881  0.2563  0.0382
 1857SOL    HW117030   3.551   3.315   8.639  0.2820  0.1682  0.1708
 1857SOL    HW217031   3.646   3.428   8.617  1.3548 -1.8727 -0.5366
 1858SOL     OW17032   4.482   3.347   7.056 -0.6083  0.0918  0.8656
 1858SOL    HW117033   4.405   3.403   7.046 -1.1980 -0.5855  1.5958
 1858SOL    HW217034   4.532   3.412   7.105  0.2135  0.6879 -0.7788
 1859SOL     OW17035   0.167   2.234  17.288 -0.2962  0.0298 -0.1133
 1859SOL    HW117036   0.253   2.275  17.292 -0.2940  0.1086 -0.9186
 1859SOL    HW217037   0.106   2.307  17.290  0.7868  0.8874  1.4337
 1860SOL     OW17038   3.328   3.675  10.709  0.1883  0.5985 -0.1190
 1860SOL    HW117039   3.354   3.592  10.749  2.7028  1.2469 -0.4251
 1860SOL    HW217040   3.369   3.663  10.623 -0.4190  2.2173 -0.6216
 1861SOL     OW17041   0.177   1.470   2.695  0.4015 -0.2695  0.3100
 1861SOL    HW117042   0.114   1.446   2.763  1.1537 -2.2258  0.3205
 1861SOL    HW217043   0.169   1.566   2.699  0.4745 -0.2749  0.5886
 1862SOL     OW17044   3.851   4.533   9.506 -0.0585 -0.4906 -0.0036
 1862SOL    HW117045   3.868   4.474   9.580 -0.6784  1.5816  1.7843
 1862SOL    HW217046   3.943   4.558   9.495  0.0390  0.4817  2.8591
 1863SOL     OW17047   4.535   4.084   1.342  0.1741 -0.0982  0.4304
 1863SOL    HW117048   4.588   4.119   1.270  0.7207 -0.6421  0.5679
 1863SOL    HW217049   4.573   4.142   1.408 -3.2469  0.8465  1.5835
 1864SOL     OW17050   3.281   0.697   2.320  0.2585  0.0875  0.2725
 1864SOL    HW117051   3.299   0.673   2.229 -1.4699 -1.2397  0.2832
 1864SOL    HW217052   3.203   0.650   2.350 -1.4661  3.2114  0.7151
 1865SOL     OW17053   4.020   1.487   2.383  0.0066 -0.2005 -0.1989
 1865SOL    HW117054   4.093   1.424   2.375  0.1228 -0.2226  1.0425
 1865SOL    HW217055   3.989   1.496   2.293  0.3425  0.0608 -0.2899
 1866SOL     OW17056   4.660   2.596   5.987 -0.1082  0.2904  0.0939
 1866SOL    HW117057   4.591   2.662   5.995 -1.2647 -1.0500  1.3823
 1866SOL    HW217058   4.618   2.535   5.926  0.0644  0.2432  0.0230
 1867SOL     OW17059   2.877   2.503   1.435  0.0725  0.5399  0.5246
 1867SOL    HW117060   2.867   2.448   1.358  0.2601 -1.9832  2.2961
 1867SOL    HW217061   2.798   2.556   1.427  0.0049  0.1208 -1.4649
 1868SOL     OW17062   2.596   2.254   4.590  0.2958 -0.5954 -0.0401
 1868SOL    HW117063   2.586   2.224   4.499  0.5128  2.4959 -1.0657
 1868SOL    HW217064   2.561   2.179   4.639  3.8918 -2.1166  0.1538
 1869SOL     OW17065   0.561   2.951   3.753 -0.0426  0.5480 -0.0024
 1869SOL    HW117066   0.591   2.932   3.842  1.9145  0.7025 -0.6142
 1869SOL    HW217067   0.634   2.922   3.698 -0.1889  0.3155 -0.0722
 1870SOL     OW17068   0.803   1.544   8.377  0.4969  0.1334 -0.1246
 1870SOL    HW117069   0.757   1.597   8.442  0.6861  0.7833 -0.5198
 1870SOL    HW217070   0.761   1.459   8.390 -0.3890  0.5476 -0.2958
 1871SOL     OW17071   0.005   3.594   4.226  0.5955 -0.2572 -0.1554
 1871SOL    HW117072   4.720   3.675   4.276 -2.0637 -0.3549 -0.4527
 1871SOL    HW217073   4.684   3.625   4.147  1.3117 -1.1806 -0.9239
 1872SOL     OW17074   0.647   4.505   4.956 -0.2796  0.0599 -0.6614
 1872SOL    HW117075   0.623   4.417   4.984  0.0930  0.3343  0.5400
 1872SOL    HW217076   0.599   4.560   5.020  2.1120  1.9895 -0.5300
 1873SOL     OW17077   1.849   4.270  11.058 -0.1771 -0.7529  0.4627
 1873SOL    HW117078   1.859   4.348  11.112 -1.0159  0.9329 -1.7955
 1873SOL    HW217079   1.839   4.191  11.111 -0.5071 -1.3595 -0.5055
 1874SOL     OW17080   2.292   2.506   3.896 -0.1349  0.2070 -0.1252
 1874SOL    HW117081   2.211   2.554   3.879 -2.1188 -3.3442 -0.6606
 1874SOL    HW217082   2.333   2.578   3.945 -4.3085  1.1272  1.9524
 1875SOL     OW17083   1.914   2.232   2.229  0.8090  0.3037 -0.2016
 1875SOL    HW117084   1.893   2.200   2.141  0.0779 -1.4015  0.5873
 1875SOL    HW217085   2.007   2.211   2.238  1.0911  2.1693  1.2906
 1876SOL     OW17086   2.589   4.646   3.050  0.2134  0.5465 -0.1737
 1876SOL    HW117087   2.604   4.631   3.143  0.2923 -0.1152 -0.2941
 1876SOL    HW217088   2.547   4.561   3.038  0.7297  0.5281 -1.8452
 1877SOL     OW17089   2.893   2.931   8.415  0.0400  0.0042 -0.2999
 1877SOL    HW117090   2.902   3.018   8.378 -1.8882 -1.0971 -3.3453
 1877SOL    HW217091   2.923   2.880   8.340  1.8889  1.5472 -0.6102
 1878SOL     OW17092   2.119   2.552   7.111  0.4462 -0.3661 -0.3369
 1878SOL    HW117093   2.061   2.494   7.061  0.7413 -1.7979  0.9698
 1878SOL    HW217094   2.061   2.573   7.185 -0.1828  1.7213 -1.4342
 1879SOL     OW17095   1.473   4.718   7.408  0.0836 -0.7014  0.5980
 1879SOL    HW117096   1.408   0.061   7.430 -0.6265 -0.3356 -2.5956
 1879SOL    HW217097   1.520   0.028   7.331 -1.7434 -0.1013 -0.2516
 1880SOL     OW17098   0.901   4.323   5.358 -0.0480  0.4322 -0.7092
 1880SOL    HW117099   0.966   4.369   5.306 -0.4367  0.6608 -0.9947
 1880SOL    HW217100   0.827   4.338   5.299 -0.7830  1.3302  0.4195
 1881SOL     OW17101   3.134   2.201   4.862 -0.3439  0.0172  0.2193
 1881SOL    HW117102   3.167   2.178   4.949  0.3796  0.7655  0.1371
 1881SOL    HW217103   3.047   2.160   4.867 -1.4669  2.2778 -0.9104
 1882SOL     OW17104   1.832   1.167   4.483 -0.2301  0.4042 -0.5306
 1882SOL    HW117105   1.854   1.090   4.535 -1.4925  0.6410  0.3549
 1882SOL    HW217106   1.848   1.235   4.548 -0.4505  0.3337 -0.4027
 1883SOL     OW17107   2.374   2.889   2.055 -0.1428 -0.4151 -0.0036
 1883SOL    HW117108   2.353   2.881   1.962  0.6735 -0.7802 -0.1498
 1883SOL    HW217109   2.353   2.983   2.057  1.2556 -0.1212  0.3424
 1884SOL     OW17110   2.995   2.760   4.612  0.1098  0.5420 -0.2431
 1884SOL    HW117111   3.062   2.725   4.670  0.6190  1.7230 -0.1137
 1884SOL    HW217112   2.996   2.855   4.624 -1.1853  0.3897  1.0678
 1885SOL     OW17113   2.910   2.931  15.794 -0.0771 -0.5157  0.3400
 1885SOL    HW117114   2.980   2.980  15.752 -2.0538  0.7530 -1.4235
 1885SOL    HW217115   2.956   2.860  15.840 -0.6870 -0.5882  0.8490
 1886SOL     OW17116   0.837   0.707   1.563  0.1662  0.0194 -0.2532
 1886SOL    HW117117   0.889   0.671   1.635 -2.5993 -1.2344  1.1123
 1886SOL    HW217118   0.752   0.706   1.608 -1.5719 -1.4098 -3.5096
 1887SOL     OW17119   0.896   1.418  15.652  0.2916 -0.2890 -0.2492
 1887SOL    HW117120   0.802   1.436  15.647  0.9193  3.0278  0.2972
 1887SOL    HW217121   0.931   1.408  15.563  2.3203  1.7251  0.3329
 1888SOL     OW17122   4.531   3.570   4.823  0.3030  0.6246 -0.5717
 1888SOL    HW117123   4.601   3.507   4.810 -0.1903  0.0588 -0.4900
 1888SOL    HW217124   4.550   3.637   4.756  3.0816 -0.4677 -0.8648
 1889SOL     OW17125   4.579   1.150   7.468  0.1694  0.2266 -0.3250
 1889SOL    HW117126   4.605   1.160   7.559  2.1143  2.3825 -1.1178
 1889SOL    HW217127   4.552   1.059   7.481  0.7857  0.0052 -0.5583
 1890SOL     OW17128   3.754   2.560   8.482  0.1432 -0.5703  0.6801
 1890SOL    HW117129   3.832   2.611   8.504  0.6362 -0.4424 -1.3876
 1890SOL    HW217130   3.785   2.479   8.440  1.6697 -1.5074  3.6129
 1891SOL     OW17131   0.420   3.891   3.386  0.0285  0.3223 -0.3588
 1891SOL    HW117132   0.430   3.974   3.433 -1.2200  0.1872  0.1389
 1891SOL    HW217133   0.438   3.829   3.457  0.4694  0.5234 -0.2949
 1892SOL     OW17134   4.120   2.094   8.125  0.8567  0.0642  0.5261
 1892SOL    HW117135   4.206   2.053   8.114  0.3298 -0.6636 -0.8640
 1892SOL    HW217136   4.066   2.020   8.154 -0.1274  0.5566 -0.0657
 1893SOL     OW17137   2.901   3.416   5.571 -0.0570  0.3988 -0.1427
 1893SOL    HW117138   2.866   3.504   5.561  1.7697  0.9311 -1.9940
 1893SOL    HW217139   2.978   3.439   5.624 -0.6437 -1.1008  1.3591
 1894SOL     OW17140   4.073   3.081   6.806 -0.5042  0.5179 -0.3683
 1894SOL    HW117141   4.103   3.067   6.896 -1.0573 -1.0143 -0.4155
 1894SOL    HW217142   4.148   3.051   6.756 -0.2609  1.5829 -0.6335
 1895SOL     OW17143   3.525   3.715   1.229  0.6444 -0.5592 -0.1493
 1895SOL    HW117144   3.617   3.724   1.205  0.5965 -1.7811 -0.8126
 1895SOL    HW217145   3.490   3.673   1.150 -2.2707  0.3250  0.6810
 1896SOL     OW17146   3.263   0.392   7.212  0.4295 -0.3037 -0.5487
 1896SOL    HW117147   3.220   0.472   7.243  0.1508  0.3303 -2.5487
 1896SOL    HW217148   3.216   0.348   7.141 -0.1958 -1.4486  0.5994
 1897SOL     OW17149   0.452   3.790  16.647 -0.0758 -0.0597  0.6131
 1897SOL    HW117150   0.384   3.746  16.699  0.3625  0.4124  1.5794
 1897SOL    HW217151   0.464   3.728  16.575  2.4482  1.0842  0.0463
 1898SOL     OW17152   2.421   2.340   3.179 -0.2795 -0.1932  0.1107
 1898SOL    HW117153   2.422   2.290   3.097 -0.5213  1.2600 -0.7892
 1898SOL    HW217154   2.356   2.409   3.165 -0.2170 -0.1025  0.2655
 1899SOL     OW17155   2.768   0.588   6.413 -0.8385  0.0553 -0.2069
 1899SOL    HW117156   2.859   0.577   6.442 -0.2291  1.2119 -1.6566
 1899SOL    HW217157   2.755   0.496   6.390 -1.8817  0.1348  0.0976
 1900SOL     OW17158   1.804   4.363   2.290 -0.3991  0.4243 -0.2840
 1900SOL    HW117159   1.892   4.382   2.257 -0.3612 -1.0399 -1.0223
 1900SOL    HW217160   1.739   4.412   2.239 -1.1086  1.1425  1.3132
 1901SOL     OW17161   0.133   1.880   0.833 -0.6580 -0.5990 -0.2846
 1901SOL    HW117162   0.051   1.871   0.881 -1.3385  1.4447 -1.0647
 1901SOL    HW217163   0.184   1.813   0.878  3.0447  0.7793 -2.4712
 1902SOL     OW17164   4.395   3.376  15.234 -0.7292 -0.9176 -0.4545
 1902SOL    HW117165   4.378   3.466  15.260 -1.7762 -1.0905 -0.5643
 1902SOL    HW217166   4.348   3.323  15.298  0.7684  1.3504  2.5075
 1903SOL     OW17167   1.348   2.676  12.505  0.6168 -0.0342 -0.6321
 1903SOL    HW117168   1.360   2.583  12.484  0.0619 -0.4670  0.9537
 1903SOL    HW217169   1.380   2.719  12.426  1.3189  0.2407 -0.1951
 1904SOL     OW17170   1.086   3.512  17.590  0.0077 -0.6218 -0.3311
 1904SOL    HW117171   1.084   3.458  17.511  3.2776  0.6883 -1.3219
 1904SOL    HW217172   1.113   3.451  17.659  3.1758  0.6622 -0.4606
 1905SOL     OW17173   1.331   1.548   9.025 -0.1397  0.4785  0.4842
 1905SOL    HW117174   1.333   1.609   9.099 -0.1967  2.7256 -1.3706
 1905SOL    HW217175   1.366   1.470   9.070 -0.9251 -0.8898 -1.2902
 1906SOL     OW17176   0.910   2.747  13.666 -0.1914 -0.7796 -0.0991
 1906SOL    HW117177   0.963   2.801  13.608 -0.7301  1.0196  1.0724
 1906SOL    HW217178   0.855   2.710  13.597 -0.4442  1.6897 -1.2279
 1907SOL     OW17179   1.771   4.472  11.419  0.5545 -0.5947 -0.4035
 1907SOL    HW117180   1.861   4.459  11.447 -0.5697  0.0283  3.4156
 1907SOL    HW217181   1.776   4.477  11.323  0.1340 -1.1159 -0.4543
 1908SOL     OW17182   2.159   1.261   5.650 -0.0445 -0.0153 -0.0381
 1908SOL    HW117183   2.142   1.298   5.564 -1.1511  1.5605  0.8654
 1908SOL    HW217184   2.128   1.335   5.702 -1.2519 -1.9060  1.9499
 1909SOL     OW17185   4.352   2.157   2.436  0.1891 -0.0187  0.3680
 1909SOL    HW117186   4.352   2.063   2.417  0.6713  0.1001 -0.2433
 1909SOL    HW217187   4.426   2.162   2.497  0.2898 -1.1609  0.3414
 1910SOL     OW17188   1.300   1.172   9.112  0.1387 -0.5828  0.2745
 1910SOL    HW117189   1.281   1.178   9.206 -1.6345  0.4496 -0.1439
 1910SOL    HW217190   1.388   1.210   9.102 -0.7821  1.6243  0.5316
 1911SOL     OW17191   0.015   4.343   8.409  0.5994 -0.2204 -0.4859
 1911SOL    HW117192   0.062   4.263   8.433  0.0266 -0.5942 -0.6182
 1911SOL    HW217193   4.667   4.316   8.351 -0.4167 -0.4077  0.8587
 1912SOL     OW17194   0.233   1.122   4.015 -0.1476 -0.3108 -0.0699
 1912SOL    HW117195   0.324   1.141   3.990 -1.0941 -0.0564 -3.3681
 1912SOL    HW217196   0.210   1.044   3.965  0.2714  1.0765 -2.4134
 1913SOL     OW17197   2.186   4.457  14.005  0.2391  0.1257  0.1039
 1913SOL    HW117198   2.271   4.499  13.994 -0.0394  0.7245  0.2566
 1913SOL    HW217199   2.210   4.367  14.027 -1.1712 -0.1748  0.4288
 1914SOL     OW17200   2.384   4.509  17.488 -0.6725  0.4826  0.7181
 1914SOL    HW117201   2.466   4.460  17.478 -2.1860 -1.6236 -1.3298
 1914SOL    HW217202   2.320   4.438  17.495  0.5995 -0.6882  0.4646
 1915SOL     OW17203   0.788   3.997  11.547 -0.0041  0.6512  0.5624
 1915SOL    HW117204   0.864   4.020  11.601  0.6496 -0.3199  0.0502
 1915SOL    HW217205   0.779   4.077  11.495  0.3411 -0.9939 -2.0173
 1916SOL     OW17206   3.022   3.956  15.213  0.4434 -0.6603  0.0776
 1916SOL    HW117207   3.107   3.981  15.178 -0.5549  0.9457 -1.1939
 1916SOL    HW217208   3.005   4.012  15.289 -1.8516  1.0323 -1.6816
 1917SOL     OW17209   4.669   1.421   1.980  0.2065  0.2031 -0.6444
 1917SOL    HW117210   4.597   1.422   1.917 -2.1737  0.1194  2.0785
 1917SOL    HW217211   4.675   1.516   1.994  0.1564  0.0016  0.7919
 1918SOL     OW17212   2.438   2.150   8.633 -0.6778 -0.0046  0.1226
 1918SOL    HW117213   2.432   2.182   8.723 -0.7718 -0.4426  0.2764
 1918SOL    HW217214   2.446   2.224   8.574 -0.0552  0.1219  0.3673
 1919SOL     OW17215   0.138   0.105  10.026 -0.0233 -0.2444  0.0794
 1919SOL    HW117216   0.220   0.109  10.075 -1.4074  1.9555  2.2142
 1919SOL    HW217217   0.123   0.197  10.006  1.6889  0.5896  2.6419
 1920SOL     OW17218   1.811   2.148   8.986 -0.3079  0.5679  0.4095
 1920SOL    HW117219   1.887   2.148   8.928 -0.5978  0.0701  0.0291
 1920SOL    HW217220   1.756   2.076   8.954  0.3321  0.1141  0.3435
 1921SOL     OW17221   3.351   1.571   9.677  0.7150 -0.0338 -0.5894
 1921SOL    HW117222   3.311   1.568   9.764  3.1074 -2.2267  0.4211
 1921SOL    HW217223   3.383   1.661   9.674 -1.9064  1.0318  2.7194
 1922SOL     OW17224   0.195   4.081   2.508  0.5081 -0.8985 -0.5933
 1922SOL    HW117225   0.115   4.029   2.502  1.2630 -2.0433 -0.6659
 1922SOL    HW217226   0.185   4.150   2.442 -0.6176  0.8159  1.3487
 1923SOL     OW17227   4.030   0.236   1.741 -0.4702  0.4433  0.9943
 1923SOL    HW117228   4.121   0.207   1.752 -0.1633  1.2481  0.6220
 1923SOL    HW217229   4.003   0.201   1.656  0.5165  0.2893  0.7438
 1924SOL     OW17230   2.201   0.936   4.679 -0.0346  0.4273  0.4240
 1924SOL    HW117231   2.289   0.960   4.710  1.0553 -1.9759 -0.7527
 1924SOL    HW217232   2.218   0.853   4.635  0.2175  0.4777  0.4259
 1925SOL     OW17233   4.523   3.295   7.929 -0.4369  0.0607  0.3756
 1925SOL    HW117234   4.575   3.289   8.008 -0.4211 -1.3120  0.2608
 1925SOL    HW217235   4.459   3.226   7.942  0.3625 -0.6420  0.5907
 1926SOL     OW17236   2.570   0.582   3.594  0.5005  0.0845  0.1684
 1926SOL    HW117237   2.541   0.631   3.517  0.5476  1.2124  0.8679
 1926SOL    HW217238   2.620   0.508   3.561 -0.3291 -0.8339  0.9746
 1927SOL     OW17239   4.576   1.846   0.565 -0.1295 -0.1867  0.1207
 1927SOL    HW117240   4.555   1.905   0.493  0.5860  0.1462  0.1897
 1927SOL    HW217241   4.566   1.761   0.521 -0.8031 -1.5059  2.8097
 1928SOL     OW17242   0.148   3.940   4.164  0.0713  0.2588 -0.2871
 1928SOL    HW117243   0.066   3.928   4.116  0.1962 -0.1034 -0.4144
 1928SOL    HW217244   0.162   4.034   4.171  0.0937  0.2710 -0.4784
 1929SOL     OW17245   0.937   4.699   3.368  0.3918 -0.5602  0.2472
 1929SOL    HW117246   0.925   0.027   3.288  0.1850 -1.2074 -0.1436
 1929SOL    HW217247   0.912   4.613   3.334  1.4645 -0.9944  0.5536
 1930SOL     OW17248   4.098   0.758   6.054 -0.2202 -0.4622  0.2025
 1930SOL    HW117249   4.022   0.734   6.001  0.8227  0.5812 -1.7791
 1930SOL    HW217250   4.141   0.673   6.045  2.3291  0.8184  0.5192
 1931SOL     OW17251   2.345   1.832   9.882  0.2887  0.1656  0.2772
 1931SOL    HW117252   2.328   1.757   9.938  1.7867 -0.3826  0.0080
 1931SOL    HW217253   2.270   1.828   9.824  0.5727  2.4794 -0.2481
 1932SOL     OW17254   4.609   1.931  14.101  0.0853 -0.2010  1.0469
 1932SOL    HW117255   4.612   2.020  14.137 -0.2097  0.2087  0.0791
 1932SOL    HW217256   4.598   1.876  14.178 -1.8503 -1.1196  0.0950
 1933SOL     OW17257   0.252   3.971  11.604  0.3750  0.6686 -0.0069
 1933SOL    HW117258   0.237   4.062  11.629  0.5648  0.0593  2.3889
 1933SOL    HW217259   0.341   3.958  11.573  0.0790 -0.1916 -0.5121
 1934SOL     OW17260   4.587   1.668  12.668 -0.6240 -0.2103 -0.0572
 1934SOL    HW117261   4.667   1.717  12.651 -0.7241 -0.0400 -0.0354
 1934SOL    HW217262   4.622   1.591  12.712 -1.9818 -0.2420  0.9770
 1935SOL     OW17263   3.491   4.075   7.229  0.1504  0.4020  0.0747
 1935SOL    HW117264   3.452   4.092   7.143 -1.9025  0.7238  1.0810
 1935SOL    HW217265   3.498   3.982   7.208 -1.4476  0.5536 -1.1848
 1936SOL     OW17266   0.150   0.962   4.406  0.0616  0.1959  0.0555
 1936SOL    HW117267   0.199   0.990   4.483 -1.6914 -0.1258  1.2688
 1936SOL    HW217268   0.136   1.043   4.357  1.2364 -1.0279 -2.3416
 1937SOL     OW17269   4.249   3.651   8.877 -0.4467 -0.0489 -0.6393
 1937SOL    HW117270   4.190   3.710   8.924  0.8621  0.5390  0.2874
 1937SOL    HW217271   4.299   3.612   8.949  2.0343  1.8275 -1.3516
 1938SOL     OW17272   3.371   3.498   7.173  0.6366 -0.3467  0.4570
 1938SOL    HW117273   3.338   3.584   7.200 -0.7056 -0.4569 -0.8153
 1938SOL    HW217274   3.461   3.510   7.141  0.3684  1.9997  0.5610
 1939SOL     OW17275   4.094   0.829  10.880  0.2561 -0.2673  0.2255
 1939SOL    HW117276   4.136   0.879  10.950 -0.1329 -0.0497  0.3020
 1939SOL    HW217277   4.047   0.895  10.829  0.7104 -0.3242 -0.2674
 1940SOL     OW17278   0.126   0.659   2.322 -0.0936  0.8808 -0.2567
 1940SOL    HW117279   0.210   0.704   2.319  0.5202 -0.2840 -0.2535
 1940SOL    HW217280   0.075   0.699   2.251 -1.5058 -0.4088  0.0274
 1941SOL     OW17281   3.412   1.923   2.883 -0.0989 -0.2928  0.0608
 1941SOL    HW117282   3.410   1.850   2.944  0.7243  0.8126  1.4183
 1941SOL    HW217283   3.344   1.892   2.824  0.3579  0.8978 -1.0975
 1942SOL     OW17284   4.631   0.952   2.720  0.4956  0.3557  0.6766
 1942SOL    HW117285   4.569   0.936   2.649 -0.8956  0.2062  1.9309
 1942SOL    HW217286   4.671   1.030   2.681 -0.0222  0.1100 -0.3326
 1943SOL     OW17287   3.812   0.671   1.648  0.3413  0.6232  0.0347
 1943SOL    HW117288   3.893   0.672   1.597  0.5328 -1.1686  0.3207
 1943SOL    HW217289   3.767   0.595   1.614 -0.9377  0.9993  0.8728
 1944SOL     OW17290   2.122   1.228   3.623 -0.0644  0.1301 -0.2945
 1944SOL    HW117291   2.112   1.162   3.691  0.0820 -0.4557 -0.8471
 1944SOL    HW217292   2.197   1.182   3.586  1.1102 -0.2846  2.6351
 1945SOL     OW17293   0.683   3.755   6.381 -0.4227  0.3372 -0.6376
 1945SOL    HW117294   0.618   3.809   6.427 -0.6170 -1.0423  0.6979
 1945SOL    HW217295   0.640   3.757   6.296 -0.1776 -3.2002 -0.8263
 1946SOL     OW17296   0.214   3.785  17.251  0.2361  0.7674  0.1964
 1946SOL    HW117297   0.172   3.858  17.205 -0.6173  0.8701  1.1302
 1946SOL    HW217298   0.170   3.717  17.200  2.3018 -0.6084  0.2651
 1947SOL     OW17299   2.775   3.118   2.880  0.4463 -0.1049 -0.4795
 1947SOL    HW117300   2.864   3.151   2.868 -0.1381  1.0460 -1.7486
 1947SOL    HW217301   2.789   3.024   2.889 -1.2658 -0.3358 -0.2218
 1948SOL     OW17302   1.978   3.679   3.907  0.1937  0.3134  0.3758
 1948SOL    HW117303   2.049   3.615   3.900  0.9870  1.4915 -2.0764
 1948SOL    HW217304   1.941   3.664   3.994  0.0510  0.2539  0.3040
 1949SOL     OW17305   3.683   1.274   5.047  0.0459 -0.3560 -0.2270
 1949SOL    HW117306   3.700   1.368   5.047  0.0668 -0.3597 -0.2026
 1949SOL    HW217307   3.665   1.261   5.140 -1.5324 -1.3963 -0.6904
 1950SOL     OW17308   1.785   1.350   4.251 -0.3269 -0.2940 -0.0144
 1950SOL    HW117309   1.779   1.293   4.327  0.0569 -1.3084 -0.7437
 1950SOL    HW217310   1.823   1.428   4.292 -2.0546  1.2628 -1.3994
 1951SOL     OW17311   0.807   2.148  10.836 -0.1765  0.1965 -0.5103
 1951SOL    HW117312   0.736   2.203  10.803 -0.7726 -0.2370  0.0695
 1951SOL    HW217313   0.854   2.147  10.752  1.7869  0.0850  0.5698
 1952SOL     OW17314   0.939   0.609   5.409  0.5272 -0.4251 -0.1011
 1952SOL    HW117315   0.929   0.572   5.321  1.5471  0.3805 -0.5605
 1952SOL    HW217316   1.020   0.659   5.401 -0.2202  0.7966 -0.1311
 1953SOL     OW17317   3.806   4.111   6.685  0.2235  0.3101 -0.9864
 1953SOL    HW117318   3.877   4.090   6.746  0.3806 -1.1899 -1.6718
 1953SOL    HW217319   3.734   4.082   6.740 -0.4420  0.2474 -1.9018
 1954SOL     OW17320   4.017   3.466  10.864  0.2313  0.0202 -0.4539
 1954SOL    HW117321   4.040   3.374  10.853  0.0544 -0.2050  1.1164
 1954SOL    HW217322   3.993   3.482  10.772 -1.1253 -0.7025 -0.2331
 1955SOL     OW17323   3.092   0.176  15.322  0.2618 -0.7960 -0.1944
 1955SOL    HW117324   3.003   0.142  15.337  0.1346 -0.1008  0.6971
 1955SOL    HW217325   3.146   0.108  15.363 -2.3114 -1.4092  2.2071
 1956SOL     OW17326   0.453   1.053   7.048 -0.5243 -0.5953  0.0654
 1956SOL    HW117327   0.405   1.118   7.100  1.1954 -0.6990  1.7640
 1956SOL    HW217328   0.452   1.105   6.967  0.3362  1.4218  1.3564
 1957SOL     OW17329   3.855   0.950   9.169 -0.3959 -0.8697 -0.0386
 1957SOL    HW117330   3.916   0.887   9.206 -2.0531 -1.8238  1.0783
 1957SOL    HW217331   3.874   0.923   9.080  1.5940  1.8634 -0.4425
 1958SOL     OW17332   2.530   3.202   7.095  0.1495 -0.1723 -0.0295
 1958SOL    HW117333   2.478   3.123   7.111  0.2090 -0.4553 -1.2615
 1958SOL    HW217334   2.464   3.270   7.083  0.5682  0.0840 -0.9015
 1959SOL     OW17335   4.259   2.290   0.660 -0.0921  0.1292  0.2228
 1959SOL    HW117336   4.272   2.292   0.755 -0.1938  0.0506  0.2384
 1959SOL    HW217337   4.349   2.304   0.631 -0.0908  0.0399  0.1851
 1960SOL     OW17338   3.827   2.895  10.931 -0.5307  0.3659  0.2342
 1960SOL    HW117339   3.814   2.989  10.925 -1.1296  0.2851  0.2957
 1960SOL    HW217340   3.824   2.857  10.843 -0.9089  0.8695  0.0336
 1961SOL     OW17341   2.811   2.510   2.103 -0.2781  0.7212 -0.1673
 1961SOL    HW117342   2.896   2.551   2.120  0.6254 -1.0759 -0.3127
 1961SOL    HW217343   2.749   2.575   2.135 -0.4655  1.3494 -1.8232
 1962SOL     OW17344   0.927   4.212   5.029 -0.8505 -0.3824  0.0687
 1962SOL    HW117345   0.969   4.295   5.054 -0.3527 -0.1186 -1.6664
 1962SOL    HW217346   0.886   4.229   4.944  0.5569  0.7597 -0.3817
 1963SOL     OW17347   0.985   4.445   8.801  0.0211 -0.1713  0.4644
 1963SOL    HW117348   0.898   4.482   8.819  0.0815  0.4996 -0.6405
 1963SOL    HW217349   0.952   4.374   8.745 -0.7077  0.5544 -0.0223
 1964SOL     OW17350   3.983   0.785  15.468  0.2652 -0.3874  0.2374
 1964SOL    HW117351   4.043   0.850  15.430  1.2627 -1.5423 -0.1616
 1964SOL    HW217352   4.015   0.768  15.557  1.3507  0.2546 -0.0348
 1965SOL     OW17353   1.702   1.122   7.371 -0.2670  0.4306 -0.1857
 1965SOL    HW117354   1.680   1.082   7.455  0.3871  1.9501  0.7281
 1965SOL    HW217355   1.794   1.137   7.393 -0.4729  0.5705  0.5814
 1966SOL     OW17356   3.146   2.930   3.197  0.3289 -0.2990  0.3376
 1966SOL    HW117357   3.160   2.871   3.271  0.9031 -2.5544 -1.5363
 1966SOL    HW217358   3.079   2.984   3.238 -1.8952 -2.2543 -0.7688
 1967SOL     OW17359   2.426   2.862  16.035  0.1340  0.6334 -0.7197
 1967SOL    HW117360   2.506   2.900  16.000  0.5403 -0.9825 -1.5290
 1967SOL    HW217361   2.389   2.933  16.087 -3.4015  0.1974 -2.5984
 1968SOL     OW17362   0.745   1.763   9.343  0.1916 -0.1528  0.0183
 1968SOL    HW117363   0.702   1.690   9.389 -0.1738 -0.7345 -1.2607
 1968SOL    HW217364   0.764   1.710   9.266 -0.4590 -0.4536  0.0627
 1969SOL     OW17365   2.228   1.792   9.156 -0.6145  0.1403  0.8318
 1969SOL    HW117366   2.167   1.747   9.214  1.2717 -0.2247  2.5478
 1969SOL    HW217367   2.304   1.734   9.156 -1.3422 -0.7869 -1.6842
 1970SOL     OW17368   1.994   1.182   1.952 -0.2803  0.2685  0.4122
 1970SOL    HW117369   2.035   1.165   2.037 -0.4709 -0.9877  0.2544
 1970SOL    HW217370   1.906   1.198   1.986 -1.1014 -3.0237 -0.1899
 1971SOL     OW17371   3.582   1.512   1.326  0.0233 -0.6112  0.0785
 1971SOL    HW117372   3.626   1.594   1.348  0.6337 -0.7743 -0.5184
 1971SOL    HW217373   3.599   1.459   1.404  2.6206  1.6163  1.0523
 1972SOL     OW17374   1.300   0.409   8.334  0.4314  0.0994 -0.0235
 1972SOL    HW117375   1.223   0.465   8.322  0.4751 -0.2603 -1.9133
 1972SOL    HW217376   1.345   0.437   8.255  0.0778  1.1625  0.1525
 1973SOL     OW17377   4.459   2.657   2.572  0.2415  0.2151 -0.0547
 1973SOL    HW117378   4.515   2.579   2.575  4.0189  2.9965  2.2571
 1973SOL    HW217379   4.520   2.729   2.591 -1.0680  1.4027 -0.3185
 1974SOL     OW17380   4.098   3.190   4.084  0.1236  0.4571  0.3965
 1974SOL    HW117381   4.188   3.157   4.093  0.0858  0.1011 -0.5238
 1974SOL    HW217382   4.099   3.258   4.151 -0.5131 -1.2944  2.1522
 1975SOL     OW17383   3.733   3.859  17.313 -0.9140  0.1413 -0.3864
 1975SOL    HW117384   3.768   3.908  17.388 -2.3064 -1.4020  1.2364
 1975SOL    HW217385   3.810   3.820  17.271 -1.1105  1.0579 -1.6024
 1976SOL     OW17386   0.965   1.142   7.357 -0.1493 -0.2552  0.4966
 1976SOL    HW117387   1.028   1.173   7.292  1.2743 -0.7882  1.6023
 1976SOL    HW217388   0.959   1.054   7.320  0.4218 -0.1980  0.2695
 1977SOL     OW17389   2.870   0.398   3.565 -0.1581  0.3414  0.1465
 1977SOL    HW117390   2.898   0.313   3.598 -0.1567  0.4057  0.3136
 1977SOL    HW217391   2.869   0.457   3.641 -0.8081  1.7389 -0.9559
 1978SOL     OW17392   4.156   2.745   8.861  0.1814  0.1824 -0.0082
 1978SOL    HW117393   4.183   2.837   8.860 -0.5124  0.3904  1.0727
 1978SOL    HW217394   4.122   2.735   8.772 -1.9879 -2.1816  1.0803
 1979SOL     OW17395   4.217   2.101  12.051  0.3566 -0.3395 -0.7859
 1979SOL    HW117396   4.285   2.128  11.990  1.4505  1.2728  1.1391
 1979SOL    HW217397   4.262   2.091  12.135 -0.3563 -3.5213 -0.7912
 1980SOL     OW17398   4.640   4.020  13.188 -0.3975 -0.0505 -0.2381
 1980SOL    HW117399   4.584   3.951  13.154  0.8731 -1.1162 -0.1400
 1980SOL    HW217400   4.692   3.961  13.243  0.4520  1.1902  0.3001
 1981SOL     OW17401   2.585   1.730   5.648 -0.1714  0.3839 -0.3492
 1981SOL    HW117402   2.625   1.680   5.719  0.3833  2.3722  0.7116
 1981SOL    HW217403   2.539   1.659   5.603 -0.3999  0.4464 -0.2141
 1982SOL     OW17404   3.146   0.584   1.379 -0.5250 -0.3774  0.4911
 1982SOL    HW117405   3.126   0.660   1.433 -1.3137  0.8642 -1.5785
 1982SOL    HW217406   3.054   0.569   1.356 -0.6568 -0.3519  1.0147
 1983SOL     OW17407   1.441   1.085   5.875 -0.0944 -0.8971 -0.4153
 1983SOL    HW117408   1.363   1.137   5.853  1.8282  2.6253  1.2059
 1983SOL    HW217409   1.482   1.139   5.941 -3.2403  2.0332 -0.8297
 1984SOL     OW17410   1.670   4.157   0.370  0.2351  0.7951  0.3473
 1984SOL    HW117411   1.638   4.202   0.292  1.4323  0.3459 -0.3989
 1984SOL    HW217412   1.667   4.064   0.348 -3.5918  0.6204  1.6001
 1985SOL     OW17413   3.630   3.747  11.321  0.0162 -0.3517  0.3510
 1985SOL    HW117414   3.540   3.775  11.306 -0.0879 -0.4871  0.7248
 1985SOL    HW217415   3.626   3.655  11.297 -0.1260 -0.8972  2.4261
 1986SOL     OW17416   0.707   0.601  15.630 -0.1252 -0.1598 -0.7364
 1986SOL    HW117417   0.618   0.570  15.642 -0.0739  0.1209  0.3877
 1986SOL    HW217418   0.733   0.631  15.717  3.2767 -1.0550 -1.4424
 1987SOL     OW17419   3.026   2.056   5.120  0.1354  0.2178 -0.1774
 1987SOL    HW117420   3.041   1.963   5.101 -2.0832  0.1091 -1.3594
 1987SOL    HW217421   2.930   2.056   5.124  0.0967  0.9985 -1.2211
 1988SOL     OW17422   1.937   4.703   3.635 -0.0533 -0.3317  0.0714
 1988SOL    HW117423   1.851   0.018   3.651  1.8501  3.8455  0.1263
 1988SOL    HW217424   1.923   4.617   3.675  0.6581  0.4123  1.9248
 1989SOL     OW17425   1.840   0.876   3.546  0.0988 -0.5775  0.1841
 1989SOL    HW117426   1.891   0.889   3.626 -0.9680  2.5368  0.3493
 1989SOL    HW217427   1.911   0.883   3.482 -0.9285  0.3367 -0.8404
 1990SOL     OW17428   4.635   4.254  16.547 -0.0388  0.0523  0.2193
 1990SOL    HW117429   4.612   4.164  16.525  0.3760 -0.0890  0.3611
 1990SOL    HW217430   0.006   4.260  16.561  0.6996  1.9556 -5.5970
 1991SOL     OW17431   4.219   1.541   2.785 -0.0917  0.2702  0.3441
 1991SOL    HW117432   4.154   1.496   2.732  1.6402 -2.7576  0.7998
 1991SOL    HW217433   4.299   1.495   2.759  0.7898  0.0258  3.4777
 1992SOL     OW17434   1.385   3.498   6.724  0.6073 -0.1017 -0.6537
 1992SOL    HW117435   1.460   3.442   6.702  0.8532 -0.6490  1.6219
 1992SOL    HW217436   1.417   3.561   6.788  2.0585 -0.3545 -1.1227
 1993SOL     OW17437   1.247   1.276   2.938  0.0221  0.4734  0.7312
 1993SOL    HW117438   1.192   1.321   3.002 -2.0571  1.2523 -1.6173
 1993SOL    HW217439   1.332   1.316   2.952  0.5592 -0.4752  0.1753
 1994SOL     OW17440   1.772   3.583   7.138  0.6342 -0.1495  0.0675
 1994SOL    HW117441   1.692   3.539   7.168  1.0835  0.6830  2.5031
 1994SOL    HW217442   1.782   3.629   7.222  1.9745 -0.5729  0.1454
 1995SOL     OW17443   0.117   4.211   4.187 -0.2892 -0.4128  0.3018
 1995SOL    HW117444   0.157   4.238   4.270 -0.5773 -0.9420  0.6108
 1995SOL    HW217445   0.195   4.221   4.132 -1.7632 -0.6008 -1.8167
 1996SOL     OW17446   2.171   2.494   7.550  0.6888  0.3031  0.6591
 1996SOL    HW117447   2.192   2.572   7.499  0.8577 -0.3079 -0.2032
 1996SOL    HW217448   2.190   2.429   7.483  0.3956  1.4344 -0.5175
 1997SOL     OW17449   3.085   4.250   5.362  0.8934  0.1011 -0.1358
 1997SOL    HW117450   3.099   4.173   5.306 -0.3030 -1.3222  1.5114
 1997SOL    HW217451   3.142   4.228   5.436 -0.6119 -0.6396  0.8180
 1998SOL     OW17452   2.241   2.253   3.890  0.3905 -0.4597  0.2827
 1998SOL    HW117453   2.301   2.226   3.960  1.8011  1.4096 -0.2004
 1998SOL    HW217454   2.260   2.347   3.886 -0.9222 -0.1513  1.2526
 1999SOL     OW17455   3.683   1.161   3.499  0.2750  0.4216 -0.2900
 1999SOL    HW117456   3.722   1.155   3.586  1.0694 -2.3251 -0.8630
 1999SOL    HW217457   3.621   1.227   3.532 -1.2169 -1.2878  0.2872
 2000SOL     OW17458   4.329   4.354   3.518 -0.5778 -0.1145 -0.4973
 2000SOL    HW117459   4.416   4.341   3.480 -0.6560 -0.8783 -0.4124
 2000SOL    HW217460   4.349   4.421   3.583 -2.9844 -0.2452  0.3979
 2001SOL     OW17461   2.157   2.628   2.462  0.1845  0.0462  0.1336
 2001SOL    HW117462   2.206   2.546   2.452 -0.9781 -0.7925  1.4076
 2001SOL    HW217463   2.220   2.691   2.428 -0.6326 -0.4256 -2.3053
 2002SOL     OW17464   1.812   1.630   4.247 -0.3240 -0.2800  0.5197
 2002SOL    HW117465   1.738   1.614   4.189  1.3454  0.3170 -1.7776
 2002SOL    HW217466   1.774   1.703   4.297  2.1142  2.3406 -1.4561
 2003SOL     OW17467   1.240   3.491  14.006  0.1345 -0.1395 -0.0419
 2003SOL    HW117468   1.191   3.470  14.085  0.9714 -0.4909  0.3761
 2003SOL    HW217469   1.289   3.571  14.028  1.7842 -0.9475 -0.7915
 2004SOL     OW17470   3.227   4.438   9.085  0.2323 -0.0937  0.6385
 2004SOL    HW117471   3.298   4.452   9.147  2.3128 -0.3382 -1.7077
 2004SOL    HW217472   3.215   4.526   9.051 -1.6225 -0.4358  0.3950
 2005SOL     OW17473   2.256   2.560   3.135  0.0387  0.1948  0.2461
 2005SOL    HW117474   2.274   2.624   3.066  1.5890 -1.1572 -0.6024
 2005SOL    HW217475   2.205   2.611   3.198  0.8035 -1.8104  2.4749
 2006SOL     OW17476   2.349   0.679   5.137 -0.1485 -0.5102 -0.4788
 2006SOL    HW117477   2.358   0.767   5.173  0.4372 -1.3004  1.3129
 2006SOL    HW217478   2.360   0.699   5.044 -1.5119  2.5268  0.0236
 2007SOL     OW17479   2.864   0.046  12.444  0.2518  0.0487  0.3376
 2007SOL    HW117480   2.771   0.028  12.452  0.4105 -2.1605 -2.6484
 2007SOL    HW217481   2.871   0.132  12.402  1.5573 -0.6239 -0.8336
 2008SOL     OW17482   0.934   1.994   1.432 -0.0197  0.4616  0.2112
 2008SOL    HW117483   0.869   2.060   1.451  1.6982  2.1888  0.0726
 2008SOL    HW217484   0.949   2.014   1.339 -1.1580 -1.5765 -0.4233
 2009SOL     OW17485   0.807   1.228   5.843 -0.4131  0.1427 -0.3640
 2009SOL    HW117486   0.806   1.205   5.750  0.8574 -0.3934 -0.2549
 2009SOL    HW217487   0.862   1.306   5.838  0.9308 -0.9047 -1.9570
 2010SOL     OW17488   1.285   0.542   5.102  0.1393  0.2058  0.1154
 2010SOL    HW117489   1.365   0.593   5.112  0.4054  0.0459 -1.2731
 2010SOL    HW217490   1.286   0.512   5.193 -2.4766 -1.0122 -0.2532
 2011SOL     OW17491   3.478   0.886  13.749 -0.2066  0.1014 -0.6951
 2011SOL    HW117492   3.531   0.913  13.825 -1.7601  0.8181  0.1328
 2011SOL    HW217493   3.398   0.938  13.752 -1.2574 -1.5820  0.4535
 2012SOL     OW17494   4.240   0.865   4.195  0.0717  0.2191 -0.1100
 2012SOL    HW117495   4.277   0.861   4.107 -0.4395 -0.6764 -0.2889
 2012SOL    HW217496   4.296   0.921   4.248 -1.8162  2.6725 -0.7083
 2013SOL     OW17497   0.744   1.784   4.750 -1.0842 -0.0976  0.2125
 2013SOL    HW117498   0.791   1.838   4.814 -0.0435 -1.4622  0.5937
 2013SOL    HW217499   0.736   1.704   4.803  0.2129  0.1096  0.7258
 2014SOL     OW17500   4.137   2.738   5.332 -0.7525 -0.0330 -0.5308
 2014SOL    HW117501   4.228   2.711   5.319 -0.7466 -0.9185  1.3775
 2014SOL    HW217502   4.114   2.679   5.404  2.3123  2.6438  2.6761
 2015SOL     OW17503   0.983   1.522   2.847 -0.0079  0.4222  0.1102
 2015SOL    HW117504   1.009   1.594   2.904  0.1578 -1.1746  2.0560
 2015SOL    HW217505   0.971   1.463   2.922  0.4971  0.2666  0.0657
 2016SOL     OW17506   4.331   1.739   9.229 -0.2912  0.1778  0.3370
 2016SOL    HW117507   4.362   1.671   9.290  0.3161 -0.8500 -1.1341
 2016SOL    HW217508   4.251   1.698   9.197 -1.4076  0.2542  3.0008
 2017SOL     OW17509   0.816   0.150   1.904 -0.6348  0.0963 -0.3817
 2017SOL    HW117510   0.733   0.110   1.932  0.1749 -0.4240  1.2317
 2017SOL    HW217511   0.815   0.230   1.957  0.6816  0.1128 -0.3893
 2018SOL     OW17512   1.399   2.048  13.326  0.0167  0.0285  0.7048
 2018SOL    HW117513   1.446   2.008  13.399  0.2230 -1.4710 -0.2514
 2018SOL    HW217514   1.388   2.134  13.367 -1.0771 -1.0458  2.6818
 2019SOL     OW17515   0.812   4.510  12.320 -0.6745 -0.5949  0.4132
 2019SOL    HW117516   0.834   4.418  12.334  0.3367 -0.2894  0.7802
 2019SOL    HW217517   0.837   4.527  12.229  0.9706  1.4358  1.2312
 2020SOL     OW17518   4.720   3.254   3.491 -0.3771  0.0545 -0.1097
 2020SOL    HW117519   0.032   3.280   3.576 -3.2096  0.0888  1.0897
 2020SOL    HW217520   0.066   3.294   3.439 -0.5695  0.4168 -0.0944
 2021SOL     OW17521   2.678   0.004   3.901  0.2051 -0.6399  0.4133
 2021SOL    HW117522   2.639   0.084   3.866 -1.1549 -1.7690 -0.6409
 2021SOL    HW217523   2.765   0.003   3.863 -2.1007  0.7453 -4.9142
 2022SOL     OW17524   2.203   0.576   8.412 -0.3632 -0.0116 -0.0387
 2022SOL    HW117525   2.202   0.526   8.331  0.9969 -0.5029  0.2396
 2022SOL    HW217526   2.110   0.593   8.400  0.0177  0.0882 -2.8393
 2023SOL     OW17527   3.651   2.906   2.287 -0.1957 -0.3950 -0.3645
 2023SOL    HW117528   3.739   2.871   2.294 -0.7166 -1.8181 -1.0178
 2023SOL    HW217529   3.607   2.843   2.230  0.1141 -0.7341 -0.2244
 2024SOL     OW17530   4.544   0.706   3.860 -0.0270 -0.3459  0.2058
 2024SOL    HW117531   4.476   0.772   3.856  1.3378  0.9979 -0.9050
 2024SOL    HW217532   4.570   0.710   3.768 -0.3834  1.5245  0.1952
 2025SOL     OW17533   3.263   0.202   4.211  0.1374  0.6273 -0.1570
 2025SOL    HW117534   3.270   0.108   4.231 -0.1803  0.8013  0.7363
 2025SOL    HW217535   3.349   0.235   4.235  0.9925 -1.4924 -0.2601
 2026SOL     OW17536   1.680   2.722   2.127 -0.3257 -0.0171 -0.4806
 2026SOL    HW117537   1.601   2.707   2.076 -0.4200 -2.8411  0.4675
 2026SOL    HW217538   1.713   2.633   2.137  0.6375  0.5298  1.2688
 2027SOL     OW17539   2.776   0.210  16.833  0.2396  0.1106  0.1762
 2027SOL    HW117540   2.776   0.137  16.896 -3.6820  2.1931  2.5376
 2027SOL    HW217541   2.825   0.166  16.763  3.1829 -0.6422  2.7179
 2028SOL     OW17542   3.966   0.133   5.882  0.1038  0.2914  0.1303
 2028SOL    HW117543   3.992   0.182   5.804 -2.1950 -1.1188 -1.5106
 2028SOL    HW217544   3.888   0.089   5.850  2.2826 -0.4625 -4.0906
 2029SOL     OW17545   0.852   0.313   6.981 -0.0810 -0.0040 -0.3580
 2029SOL    HW117546   0.764   0.294   6.949 -0.4712 -1.2295  1.4008
 2029SOL    HW217547   0.880   0.230   7.020  0.3339  0.0474 -0.5520
 2030SOL     OW17548   2.813   3.742  15.411  0.3551 -0.2497  0.2972
 2030SOL    HW117549   2.761   3.669  15.376  0.5285 -1.5894  2.8353
 2030SOL    HW217550   2.893   3.734  15.360 -0.1465 -0.9762 -0.3839
 2031SOL     OW17551   1.370   1.165   8.631  0.3514  0.8119  0.4937
 2031SOL    HW117552   1.379   1.074   8.603 -2.5598  1.6438 -3.0753
 2031SOL    HW217553   1.279   1.185   8.607  0.4074 -0.8738 -1.1234
 2032SOL     OW17554   1.717   2.805   4.584  0.3548  0.3541  0.0409
 2032SOL    HW117555   1.678   2.877   4.536 -0.6224  0.2541  0.6802
 2032SOL    HW217556   1.789   2.846   4.632  0.1870 -1.5542  1.9507
 2033SOL     OW17557   2.250   0.823   1.199  0.1025  0.7216 -0.2520
 2033SOL    HW117558   2.182   0.888   1.217 -1.5890 -0.8417 -0.9177
 2033SOL    HW217559   2.330   0.866   1.226  0.5576 -0.2389 -0.0548
 2034SOL     OW17560   3.281   1.454   6.859 -0.4392 -0.8377 -0.2361
 2034SOL    HW117561   3.361   1.420   6.899  0.1243 -0.7312 -1.2667
 2034SOL    HW217562   3.287   1.542   6.895  0.0140 -0.6560 -0.7581
 2035SOL     OW17563   4.438   4.074   5.594  0.4790  0.1086 -0.1774
 2035SOL    HW117564   4.440   3.984   5.560 -1.3081 -0.4363  1.1925
 2035SOL    HW217565   4.521   4.110   5.564  1.0329  1.0713  2.5324
 2036SOL     OW17566   2.691   3.848   7.042 -0.2834  0.1146  0.5588
 2036SOL    HW117567   2.714   3.841   7.134  3.2692 -1.2215 -0.4314
 2036SOL    HW217568   2.750   3.781   7.006 -0.2096  0.1776  0.5624
 2037SOL     OW17569   4.567   3.637  10.049  0.2378  0.2945  0.6101
 2037SOL    HW117570   4.607   3.705   9.996  0.5019 -0.4718 -0.1854
 2037SOL    HW217571   4.637   3.593  10.098  1.6954  1.5462 -0.3407
 2038SOL     OW17572   4.608   4.679  10.738 -0.2524 -0.2301  0.1542
 2038SOL    HW117573   4.641   4.704  10.824  1.8179 -2.9209  0.1291
 2038SOL    HW217574   4.529   0.006  10.724  0.7473  0.9991 -0.9988
 2039SOL     OW17575   1.493   3.866   8.634 -0.5240  0.4371  0.0026
 2039SOL    HW117576   1.422   3.817   8.593 -0.1865 -1.2382  1.4036
 2039SOL    HW217577   1.462   3.956   8.644 -0.2159  0.4719  0.6855
 2040SOL     OW17578   1.099   4.545   8.051  0.2648  0.2608 -0.0337
 2040SOL    HW117579   1.147   4.627   8.039 -2.3384  1.6859 -0.6071
 2040SOL    HW217580   1.161   4.474   8.031 -0.4680 -0.3277 -0.2123
 2041SOL     OW17581   1.003   0.155   9.060 -0.1396  0.2424 -0.4559
 2041SOL    HW117582   1.068   0.140   9.128 -0.7627 -0.9021 -0.1117
 2041SOL    HW217583   1.020   0.075   9.009  0.3344 -0.2472  0.4770
 2042SOL     OW17584   2.120   0.531   2.480  0.4696  0.6944  0.4180
 2042SOL    HW117585   2.190   0.595   2.494  0.5363  1.0201 -1.5428
 2042SOL    HW217586   2.096   0.557   2.392  0.7858  0.0441  0.1381
 2043SOL     OW17587   2.805   3.206   7.636 -0.2633  0.2427  0.6902
 2043SOL    HW117588   2.724   3.154   7.635 -1.0058  1.3813  1.6578
 2043SOL    HW217589   2.803   3.229   7.729 -1.0557  0.5329  0.6036
 2044SOL     OW17590   0.943   3.389  10.511 -0.4619 -0.2452  0.0918
 2044SOL    HW117591   0.935   3.330  10.436 -0.7588  1.4598 -1.2122
 2044SOL    HW217592   0.900   3.468  10.478  1.0555  0.6664  0.3092
 2045SOL     OW17593   4.111   1.208   3.884 -0.1645 -0.2059 -0.3405
 2045SOL    HW117594   4.202   1.232   3.900 -0.7035  0.2472  2.0048
 2045SOL    HW217595   4.087   1.279   3.823 -0.7331 -0.2960 -0.2258
 2046SOL     OW17596   2.237   2.051   6.683  0.1702  0.2851  0.2406
 2046SOL    HW117597   2.177   1.977   6.672  0.0713  0.3464  0.3611
 2046SOL    HW217598   2.287   2.035   6.763  0.5445 -0.4846 -0.1472
 2047SOL     OW17599   2.837   3.163   8.667 -0.4233 -0.4042 -0.8781
 2047SOL    HW117600   2.862   3.186   8.577  1.7974  1.7365  0.3036
 2047SOL    HW217601   2.810   3.072   8.654 -1.2705 -0.1708 -0.7776
 2048SOL     OW17602   2.824   2.683   0.511 -0.0896  0.0136  0.5417
 2048SOL    HW117603   2.840   2.623   0.583  0.7915 -0.0563  0.2887
 2048SOL    HW217604   2.919   2.695   0.504  0.1056 -1.9867 -0.2616
 2049SOL     OW17605   2.224   1.126   7.536  0.3624  0.4899  0.1642
 2049SOL    HW117606   2.252   1.035   7.526  0.9308  0.7839 -0.9324
 2049SOL    HW217607   2.188   1.132   7.624 -2.4562 -0.1819 -0.9379
 2050SOL     OW17608   2.919   3.372  17.338 -0.3234  0.0870 -0.1792
 2050SOL    HW117609   2.824   3.371  17.332 -0.3031  0.4254 -0.5750
 2050SOL    HW217610   2.932   3.402  17.428  0.7893  0.1470 -0.3552
 2051SOL     OW17611   2.094   2.959   3.394 -0.2268  0.1219 -0.3123
 2051SOL    HW117612   2.188   2.974   3.406 -0.1759 -0.8054  0.4841
 2051SOL    HW217613   2.084   2.972   3.300  0.8399  1.4359 -0.2292
 2052SOL     OW17614   3.130   0.851   1.460 -0.2870  0.6878 -1.1963
 2052SOL    HW117615   3.221   0.877   1.444  0.1086 -0.5027 -0.9354
 2052SOL    HW217616   3.073   0.894   1.396 -1.0827  2.1360  0.5174
 2053SOL     OW17617   1.669   4.499   1.761  0.0881 -0.3740 -0.3427
 2053SOL    HW117618   1.744   4.476   1.707 -0.6936 -0.9992 -1.1617
 2053SOL    HW217619   1.615   4.543   1.695  1.5281 -0.5489 -1.6486
 2054SOL     OW17620   0.110   4.554  16.477  0.9474  0.4833  0.0813
 2054SOL    HW117621   0.111   4.531  16.385 -0.6971  1.5883 -0.2156
 2054SOL    HW217622   0.070   4.640  16.467  1.3961  0.2982 -3.0618
 2055SOL     OW17623   1.494   2.294  16.654  0.9548 -0.5095  0.3243
 2055SOL    HW117624   1.407   2.332  16.671  0.6441 -0.5229 -1.2569
 2055SOL    HW217625   1.543   2.344  16.719  0.1690 -2.1638  2.1654
 2056SOL     OW17626   1.948   4.210   0.297 -0.5637  1.1532  0.1308
 2056SOL    HW117627   1.856   4.225   0.279 -0.7243  1.2639  1.0328
 2056SOL    HW217628   1.967   4.269   0.370 -0.5323  1.4107 -0.0861
 2057SOL     OW17629   4.354   4.069   7.367 -0.1888  0.4870 -0.0304
 2057SOL    HW117630   4.360   4.050   7.461 -1.4726 -3.3253 -0.7362
 2057SOL    HW217631   4.325   4.159   7.354  1.5093  1.1289  0.6553
 2058SOL     OW17632   3.203   2.109   0.481 -0.5922 -0.3170 -0.0655
 2058SOL    HW117633   3.252   2.047   0.535  1.2557 -0.0325 -1.4109
 2058SOL    HW217634   3.268   2.178   0.470 -0.0729 -0.1431  4.1143
 2059SOL     OW17635   0.788   3.586   3.000  0.5841  0.1662 -0.5015
 2059SOL    HW117636   0.750   3.672   2.982  1.1604  0.6017  0.3426
 2059SOL    HW217637   0.874   3.585   2.958  1.1476  0.9616  0.6385
 2060SOL     OW17638   4.230   1.448  10.273 -0.0002  0.0799 -0.3621
 2060SOL    HW117639   4.281   1.506  10.330  0.4587 -0.5928 -0.0788
 2060SOL    HW217640   4.158   1.507  10.253 -0.1417  0.1721  0.4261
 2061SOL     OW17641   3.190   0.361  16.165 -0.4289 -0.2762 -0.3586
 2061SOL    HW117642   3.190   0.270  16.194 -0.8840  0.2809  1.3945
 2061SOL    HW217643   3.284   0.379  16.170 -0.0812 -2.0569 -0.3237
 2062SOL     OW17644   1.842   0.703  17.531 -0.0710 -0.4564 -0.6104
 2062SOL    HW117645   1.800   0.740  17.609  1.7797 -0.1061  0.2096
 2062SOL    HW217646   1.887   0.778  17.493  0.0383 -0.5139 -0.5939
 2063SOL     OW17647   2.178   1.429   6.102 -0.2720  0.3097 -0.4060
 2063SOL    HW117648   2.111   1.424   6.034 -0.0439  0.8437 -0.6706
 2063SOL    HW217649   2.118   1.437   6.176  0.5414  0.1925  0.2592
 2064SOL     OW17650   1.300   4.018  15.793 -0.4701  0.2907 -0.3684
 2064SOL    HW117651   1.361   3.945  15.783  1.2399  1.5058  1.2147
 2064SOL    HW217652   1.359   4.091  15.813 -0.3800  0.7733 -2.3993
 2065SOL     OW17653   1.796   1.838   5.694  0.0805  0.1919 -0.1850
 2065SOL    HW117654   1.740   1.801   5.626  2.3616  0.3607 -2.1651
 2065SOL    HW217655   1.869   1.871   5.641  0.3875 -1.7884 -0.9984
 2066SOL     OW17656   0.199   4.329   0.681  0.0530 -0.5063 -0.0500
 2066SOL    HW117657   0.250   4.305   0.758  2.3235 -1.1467 -1.7209
 2066SOL    HW217658   0.221   4.421   0.691 -1.6525 -0.1270  0.1023
 2067SOL     OW17659   0.772   1.248   5.032  0.8418  0.5273 -0.3811
 2067SOL    HW117660   0.865   1.266   5.044  1.1054  0.2595 -2.1498
 2067SOL    HW217661   0.765   1.209   4.946 -1.3993  0.6474 -0.2675
 2068SOL     OW17662   0.768   3.255   8.721  0.7917  0.0367  0.2226
 2068SOL    HW117663   0.742   3.163   8.716 -1.1700  0.5226  1.3732
 2068SOL    HW217664   0.860   3.247   8.749  1.2960  3.2834 -0.5569
 2069SOL     OW17665   1.361   4.341   2.761  0.0556 -0.1019 -0.4059
 2069SOL    HW117666   1.346   4.313   2.671 -0.1942 -0.4344 -0.2591
 2069SOL    HW217667   1.451   4.371   2.752 -0.7706  2.7954  0.9198
 2070SOL     OW17668   0.438   3.353   8.657 -0.1538  0.2333  0.2877
 2070SOL    HW117669   0.403   3.355   8.746 -1.0629  3.5287 -0.1522
 2070SOL    HW217670   0.494   3.430   8.662  1.7776 -1.0392 -1.8565
 2071SOL     OW17671   3.950   2.691   4.603  0.0357 -0.2095  0.2047
 2071SOL    HW117672   4.039   2.667   4.578  0.0781  0.6546 -0.4351
 2071SOL    HW217673   3.899   2.709   4.525  1.1219  0.1447 -0.4160
 2072SOL     OW17674   3.496   2.566   0.285 -0.2031  0.0276 -0.5297
 2072SOL    HW117675   3.441   2.506   0.234 -0.9275 -0.1638  0.4932
 2072SOL    HW217676   3.431   2.633   0.306 -1.6618 -1.2985 -0.8180
 2073SOL     OW17677   2.804   0.367   9.298 -0.1547 -0.3447  0.1435
 2073SOL    HW117678   2.840   0.388   9.212 -0.7940  1.6783  0.3686
 2073SOL    HW217679   2.719   0.328   9.276  0.4205 -2.1882  1.2768
 2074SOL     OW17680   2.126   2.056   9.154  0.3516 -0.2374 -0.1451
 2074SOL    HW117681   2.185   1.982   9.165  0.4987  0.2264  2.0733
 2074SOL    HW217682   2.050   2.012   9.116  0.8355 -0.2464 -1.1174
 2075SOL     OW17683   3.553   0.163   7.468 -0.4280  0.5245 -0.2564
 2075SOL    HW117684   3.475   0.182   7.521  0.0704  0.6113  0.4467
 2075SOL    HW217685   3.547   0.227   7.397  2.4777  0.4300 -0.5605
 2076SOL     OW17686   1.491   2.483   2.911 -0.2247  0.5981 -0.6753
 2076SOL    HW117687   1.517   2.575   2.916 -2.1230  1.1120 -0.6032
 2076SOL    HW217688   1.488   2.463   3.005  2.8576  0.1101 -0.6752
 2077SOL     OW17689   2.754   4.451   6.806 -0.3759  0.6419 -0.1390
 2077SOL    HW117690   2.826   4.388   6.800 -0.0888  0.9831 -0.3191
 2077SOL    HW217691   2.765   4.498   6.723  0.3316  0.4199 -0.1679
 2078SOL     OW17692   3.333   2.222   2.798  0.0531  0.2950  0.3190
 2078SOL    HW117693   3.263   2.238   2.861  0.0930  0.4486  0.3271
 2078SOL    HW217694   3.384   2.158   2.847  1.1400  0.2208 -0.8921
 2079SOL     OW17695   2.841   4.670   4.455 -0.5063 -0.1110 -0.1829
 2079SOL    HW117696   2.930   4.704   4.443 -0.5506  0.2579  0.5134
 2079SOL    HW217697   2.786   0.020   4.430 -0.7476  0.3360  1.6939
 2080SOL     OW17698   0.708   2.336  14.105  0.1313  0.0380  0.5956
 2080SOL    HW117699   0.660   2.290  14.036 -1.9113 -0.5927  2.4465
 2080SOL    HW217700   0.645   2.371  14.167 -1.7044  2.6028 -2.7046
 2081SOL     OW17701   2.071   1.587   8.933 -0.2519 -0.1277  0.4027
 2081SOL    HW117702   2.127   1.596   8.856  0.8743 -0.9627  1.1250
 2081SOL    HW217703   2.122   1.532   8.992 -1.5245 -1.4963  0.2512
 2082SOL     OW17704   4.149   3.684   6.216  0.3911  0.1399  0.5258
 2082SOL    HW117705   4.134   3.766   6.170 -1.7777  0.7528  2.3768
 2082SOL    HW217706   4.150   3.632   6.135  2.3725 -1.1375  1.3565
 2083SOL     OW17707   3.113   4.121  16.427  0.3996  0.0324 -0.0833
 2083SOL    HW117708   3.200   4.137  16.391 -0.4401  3.0843 -0.7318
 2083SOL    HW217709   3.125   4.031  16.457 -0.9413 -0.4110 -0.8705
 2084SOL     OW17710   2.987   3.717   7.625  0.2000 -0.0613 -0.1133
 2084SOL    HW117711   3.079   3.726   7.600  0.7869 -2.8393  1.0814
 2084SOL    HW217712   2.959   3.748   7.539  2.0121  1.1780 -0.2823
 2085SOL     OW17713   3.224   3.110   7.098  0.0453 -0.3931 -0.2645
 2085SOL    HW117714   3.163   3.181   7.113 -0.4940 -0.7887 -0.6086
 2085SOL    HW217715   3.221   3.065   7.183  2.4566  0.6481  0.3795
 2086SOL     OW17716   3.347   0.751  12.747 -0.0591 -0.1066  0.7787
 2086SOL    HW117717   3.400   0.801  12.685  0.5228 -1.6499  0.0321
 2086SOL    HW217718   3.423   0.707  12.785 -1.7527 -2.4178  1.5149
 2087SOL     OW17719   1.227   4.270   1.612  0.4985  0.4652 -0.2365
 2087SOL    HW117720   1.134   4.291   1.603 -0.0065  0.4186  4.9386
 2087SOL    HW217721   1.235   4.296   1.703 -1.4885 -0.3602  0.1686
 2088SOL     OW17722   3.199   0.019   2.397  0.3826 -0.1556 -0.0714
 2088SOL    HW117723   3.290   0.025   2.427  0.2077  2.9810 -0.1363
 2088SOL    HW217724   3.202   4.669   2.336 -1.3304  0.6830 -1.1788
 2089SOL     OW17725   2.298   3.637   4.612 -0.2307  0.3431  0.0657
 2089SOL    HW117726   2.340   3.586   4.542 -0.2195 -1.5682  1.4766
 2089SOL    HW217727   2.315   3.586   4.691  0.4590  1.2160  0.4937
 2090SOL     OW17728   1.943   1.343   5.973 -0.0051 -0.1392 -0.1234
 2090SOL    HW117729   1.864   1.349   6.025  0.4699 -0.7015  0.6591
 2090SOL    HW217730   1.911   1.286   5.903 -1.2829  1.1845 -0.6022
 2091SOL     OW17731   3.150   4.435   3.667  0.4392  0.3137  0.3471
 2091SOL    HW117732   3.170   4.502   3.602 -0.4371  0.1056 -0.1424
 2091SOL    HW217733   3.193   4.467   3.746  0.1814  1.3139  0.0788
 2092SOL     OW17734   3.860   1.158   9.724  0.8233  0.1103 -0.1505
 2092SOL    HW117735   3.902   1.232   9.768 -1.8561  0.7775  1.3401
 2092SOL    HW217736   3.803   1.117   9.789  1.0251  0.2702  0.1312
 2093SOL     OW17737   1.865   0.568   5.936  0.6357 -0.2364  0.0137
 2093SOL    HW117738   1.865   0.640   5.999 -2.8095 -0.1739 -0.0723
 2093SOL    HW217739   1.778   0.582   5.898 -0.1673  1.8114  2.5791
 2094SOL     OW17740   1.731   4.163  10.070  0.5511 -0.1237 -0.1268
 2094SOL    HW117741   1.811   4.117  10.097 -0.8336 -1.2090  2.0963
 2094SOL    HW217742   1.765   4.252  10.070 -0.1243  0.1334 -0.4810
 2095SOL     OW17743   2.592   1.475   8.230 -0.2286  0.3623  0.2927
 2095SOL    HW117744   2.656   1.409   8.255 -1.2813  0.0563  2.1854
 2095SOL    HW217745   2.538   1.489   8.308 -1.3315 -0.7606 -0.2872
 2096SOL     OW17746   3.634   4.520  15.427  0.4238  0.5216 -0.0938
 2096SOL    HW117747   3.717   4.565  15.442  1.1473 -0.1317 -2.0628
 2096SOL    HW217748   3.645   4.474  15.343  1.8707  0.4377  0.1390
 2097SOL     OW17749   0.253   1.945   4.524  0.1626 -0.7307  0.3686
 2097SOL    HW117750   0.209   1.864   4.548  2.4381 -1.8248  0.8608
 2097SOL    HW217751   0.283   1.918   4.437  0.0956 -0.5593  0.2918
 2098SOL     OW17752   0.643   2.787   1.178  0.5110 -0.0051 -0.5689
 2098SOL    HW117753   0.670   2.696   1.188  2.4528  0.6959  0.5889
 2098SOL    HW217754   0.611   2.777   1.088  0.7774  0.7356 -0.7491
 2099SOL     OW17755   3.563   1.212  12.960  0.0725 -0.4967  0.2410
 2099SOL    HW117756   3.613   1.256  12.890 -0.1014 -1.9353 -0.7941
 2099SOL    HW217757   3.562   1.284  13.022  2.1001  0.5611 -0.9323
 2100SOL     OW17758   4.344   1.214   7.366  0.2815  0.2418  0.2825
 2100SOL    HW117759   4.338   1.303   7.400 -1.3361  1.2160 -2.5325
 2100SOL    HW217760   4.439   1.210   7.379 -0.2353 -0.3579  3.7038
 2101SOL     OW17761   4.507   2.806  10.642 -0.1559 -0.0979  0.6139
 2101SOL    HW117762   4.414   2.817  10.621 -0.7238  0.8139  3.6209
 2101SOL    HW217763   4.502   2.794  10.737 -0.1954 -1.5561  0.4342
 2102SOL     OW17764   4.398   2.685   5.376 -1.2388  0.0695 -0.8368
 2102SOL    HW117765   4.493   2.698   5.373 -1.1534 -0.3910 -0.1264
 2102SOL    HW217766   4.393   2.701   5.470  0.7748  3.3149 -1.2827
 2103SOL     OW17767   2.838   0.916   3.030  0.3094  0.4541 -0.0639
 2103SOL    HW117768   2.806   0.949   2.946  0.7768  2.6496  0.6427
 2103SOL    HW217769   2.900   0.850   2.998 -2.4302 -2.4035  0.5672
 2104SOL     OW17770   3.398   2.927  14.752 -0.1993 -0.0193  0.2887
 2104SOL    HW117771   3.464   2.859  14.739 -0.4576 -0.0913 -0.6240
 2104SOL    HW217772   3.359   2.898  14.835  0.6015  2.9926  1.6972
 2105SOL     OW17773   3.306   3.526   3.976  0.1619  0.3543 -0.2724
 2105SOL    HW117774   3.323   3.509   3.883 -1.8383  0.2718 -0.6131
 2105SOL    HW217775   3.322   3.621   3.977 -0.1859  0.3723  4.7800
 2106SOL     OW17776   1.777   4.272  16.660  0.2537  0.3347  0.3233
 2106SOL    HW117777   1.845   4.297  16.597  0.6191  0.4414  0.7611
 2106SOL    HW217778   1.710   4.234  16.603 -0.6288  0.1091  1.5246
 2107SOL     OW17779   0.233   4.416   1.066  0.3052 -0.0884  0.2811
 2107SOL    HW117780   0.245   4.339   1.011  0.5077 -0.2210  0.5111
 2107SOL    HW217781   0.321   4.455   1.069 -0.0815  0.7714  0.4651
 2108SOL     OW17782   4.188   3.165   6.241  0.6925 -0.5806  0.4768
 2108SOL    HW117783   4.191   3.203   6.153 -2.2105 -1.3210  0.0656
 2108SOL    HW217784   4.221   3.238   6.293 -0.2529  0.3893 -0.2795
 2109SOL     OW17785   3.521   1.820  13.491 -0.5374  0.6430  0.2936
 2109SOL    HW117786   3.513   1.745  13.433  0.7672  1.8199 -1.3949
 2109SOL    HW217787   3.495   1.774  13.571  0.7044 -1.6467 -0.6531
 2110SOL     OW17788   1.048   1.464   1.699 -0.3746  0.2635 -0.2586
 2110SOL    HW117789   1.016   1.452   1.788 -1.1180 -1.1736 -0.7154
 2110SOL    HW217790   1.120   1.525   1.713 -0.0217 -0.2807  0.2990
 2111SOL     OW17791   4.535   3.898  10.996 -0.0075 -0.3034 -0.0454
 2111SOL    HW117792   4.480   3.866  10.924 -1.1778  1.2032  0.1813
 2111SOL    HW217793   4.502   3.980  11.034  1.3103  0.7219 -1.1510
 2112SOL     OW17794   0.167   3.331   7.138 -0.0089 -0.4054  0.0033
 2112SOL    HW117795   0.133   3.278   7.211  1.9438 -0.3759  0.9431
 2112SOL    HW217796   0.256   3.346   7.170 -0.4355  0.4814  0.7956
 2113SOL     OW17797   2.579   2.474   5.056 -0.4095  0.2192 -0.1582
 2113SOL    HW117798   2.663   2.465   5.012  0.7304 -0.1536  2.0920
 2113SOL    HW217799   2.522   2.460   4.981  0.0636  1.4472 -0.7420
 2114SOL     OW17800   1.373   2.794  17.178  0.0581 -0.3820 -0.0080
 2114SOL    HW117801   1.353   2.788  17.271  1.4345 -1.2490  0.2284
 2114SOL    HW217802   1.317   2.864  17.145 -1.3714 -0.5611  2.0860
 2115SOL     OW17803   3.673   1.785   3.153 -0.1220  0.0969 -0.0036
 2115SOL    HW117804   3.620   1.706   3.164  1.1780 -0.9804 -1.5883
 2115SOL    HW217805   3.740   1.765   3.088 -0.2512 -1.4906  0.3460
 2116SOL     OW17806   3.581   1.364  17.025 -0.1158  0.3725  0.4067
 2116SOL    HW117807   3.559   1.346  17.117 -3.1113  1.8627 -0.0157
 2116SOL    HW217808   3.555   1.282  16.984  1.0718  0.2067 -0.0082
 2117SOL     OW17809   3.621   4.151   7.455 -0.0541 -0.4394  0.2460
 2117SOL    HW117810   3.570   4.143   7.375  0.6720 -2.8677  0.0286
 2117SOL    HW217811   3.681   4.225   7.441  0.0241 -0.3425  1.1016
 2118SOL     OW17812   2.326   3.304   5.109 -0.0693  0.0976  0.0825
 2118SOL    HW117813   2.417   3.278   5.095  0.6719  2.5457  0.4533
 2118SOL    HW217814   2.276   3.234   5.067  2.3619 -1.3167 -0.4926
 2119SOL     OW17815   4.562   1.296   8.172  0.5606 -0.3125  0.4933
 2119SOL    HW117816   4.610   1.280   8.254  1.7936  0.0525 -0.1601
 2119SOL    HW217817   4.485   1.244   8.196  0.7214 -0.5662  0.4623
 2120SOL     OW17818   4.621   1.290   5.864  0.3126  0.1360  0.2991
 2120SOL    HW117819   4.639   1.265   5.955  0.8175 -1.5413 -0.2604
 2120SOL    HW217820   4.692   1.353   5.852  0.7478 -0.6041 -1.0410
 2121SOL     OW17821   3.063   1.354  10.735  0.2486  0.2111 -0.5817
 2121SOL    HW117822   3.104   1.282  10.783 -1.0168 -0.8017 -1.0027
 2121SOL    HW217823   2.977   1.315  10.715 -0.3706  0.8525  0.8556
 2122SOL     OW17824   1.684   1.281  16.712  0.2716  0.2129  0.2939
 2122SOL    HW117825   1.589   1.266  16.707  0.9856 -3.8808 -1.5313
 2122SOL    HW217826   1.684   1.375  16.729 -0.0174  0.6130 -1.8834
 2123SOL     OW17827   4.023   0.643   7.229  0.1803 -0.4072 -0.1265
 2123SOL    HW117828   3.989   0.590   7.157  0.2296 -1.8220  0.8914
 2123SOL    HW217829   4.085   0.694   7.177 -1.2047  0.8969 -0.4935
 2124SOL     OW17830   0.573   1.311   2.503 -0.3340 -0.1027 -0.7824
 2124SOL    HW117831   0.557   1.315   2.597  0.3516 -2.8330 -0.5285
 2124SOL    HW217832   0.597   1.403   2.501 -0.0935 -0.1368  0.6824
 2125SOL     OW17833   3.160   3.052   5.625  0.2191 -0.5507 -0.1530
 2125SOL    HW117834   3.135   3.123   5.684 -0.4392 -1.6105  0.8462
 2125SOL    HW217835   3.156   2.973   5.679  0.1502 -1.1591 -1.0514
 2126SOL     OW17836   2.564   3.403   3.881  0.7093  0.1924 -0.1644
 2126SOL    HW117837   2.612   3.411   3.963  0.2191  3.2176 -0.1792
 2126SOL    HW217838   2.475   3.386   3.913  1.4149  1.0432  2.2051
 2127SOL     OW17839   0.374   3.407   1.933 -0.4406 -0.4563 -0.2969
 2127SOL    HW117840   0.418   3.398   1.848 -0.2714  0.2239 -0.2812
 2127SOL    HW217841   0.411   3.330   1.977  0.6132  1.5156  2.2492
 2128SOL     OW17842   3.224   0.506   9.488  0.0427 -0.2974  0.1247
 2128SOL    HW117843   3.293   0.564   9.519 -0.1556 -0.1747  0.3350
 2128SOL    HW217844   3.184   0.551   9.414 -2.0383 -0.5433  1.0928
 2129SOL     OW17845   1.204   2.167   9.151  0.0601 -0.1512 -0.0767
 2129SOL    HW117846   1.137   2.203   9.092 -0.1770  0.4829  0.5847
 2129SOL    HW217847   1.268   2.151   9.082 -0.9596  1.8498 -1.5054
 2130SOL     OW17848   0.046   0.416   7.201  0.0984  0.2930 -1.1337
 2130SOL    HW117849   0.044   0.502   7.159  1.0568  0.6018 -0.5371
 2130SOL    HW217850   4.694   0.375   7.159  0.8942 -1.7930 -0.5382
 2131SOL     OW17851   4.318   3.337   1.096  0.2933  0.0582 -0.4015
 2131SOL    HW117852   4.383   3.407   1.098  0.8632 -0.4547 -0.8341
 2131SOL    HW217853   4.277   3.359   1.012  2.4608  1.3249 -1.1297
 2132SOL     OW17854   3.265   1.995   6.184 -0.1654  0.0896 -0.0727
 2132SOL    HW117855   3.211   1.918   6.202  0.1881 -0.7351 -2.5250
 2132SOL    HW217856   3.338   1.986   6.244 -1.0482 -2.1813  0.6858
 2133SOL     OW17857   2.788   4.174   9.671 -0.8744 -0.1753 -1.1282
 2133SOL    HW117858   2.847   4.111   9.629 -0.5779 -0.4942 -0.2367
 2133SOL    HW217859   2.851   4.213   9.732 -3.8353  0.3252  1.6042
 2134SOL     OW17860   3.177   4.671   2.083 -0.2189 -0.1197  0.1370
 2134SOL    HW117861   3.172   4.723   2.003 -0.9876 -0.7099 -0.2003
 2134SOL    HW217862   3.084   4.651   2.089  0.3616 -2.4385  1.6223
 2135SOL     OW17863   4.222   4.516  16.397 -0.5099 -0.4431 -0.7030
 2135SOL    HW117864   4.239   4.535  16.489  0.8524 -0.1583 -1.0086
 2135SOL    HW217865   4.266   4.590  16.355 -0.6641  0.9790  1.6904
 2136SOL     OW17866   1.250   4.677   2.762 -0.3840  0.1529 -0.0160
 2136SOL    HW117867   1.163   4.710   2.786 -2.5473 -4.1166 -1.7862
 2136SOL    HW217868   1.304   0.026   2.791 -0.7017 -0.0707  1.1236
 2137SOL     OW17869   4.334   4.670   6.487  0.1299 -0.4971  0.0813
 2137SOL    HW117870   4.388   4.591   6.486  0.6681 -0.1028 -2.8075
 2137SOL    HW217871   4.407   0.008   6.484 -0.4827  0.2059 -0.6923
 2138SOL     OW17872   2.550   2.702   9.415  0.4830 -0.0032 -0.3664
 2138SOL    HW117873   2.516   2.779   9.369 -1.9613 -1.6422 -1.3097
 2138SOL    HW217874   2.638   2.728   9.441 -1.4178  2.5429  3.4476
 2139SOL     OW17875   1.052   2.248  10.696 -0.7786  0.2045  0.0578
 2139SOL    HW117876   1.017   2.336  10.688  1.1832  1.2523  2.9019
 2139SOL    HW217877   1.114   2.260  10.767  0.4659 -1.5581 -0.7094
 2140SOL     OW17878   0.670   0.893  13.786  0.3756 -0.1984  0.9205
 2140SOL    HW117879   0.641   0.836  13.857  1.5237  1.9567  3.1452
 2140SOL    HW217880   0.765   0.885  13.795  0.2514 -1.6551  0.9602
 2141SOL     OW17881   1.463   4.586   7.675 -0.5191  0.1324 -0.1785
 2141SOL    HW117882   1.467   4.615   7.766  3.8617  0.2887 -0.4207
 2141SOL    HW217883   1.489   4.653   7.612 -1.5788  0.9907  0.3066
 2142SOL     OW17884   2.256   1.939  12.416 -0.2119  0.1468  0.2332
 2142SOL    HW117885   2.271   1.861  12.361 -1.0965 -0.2480  0.5553
 2142SOL    HW217886   2.179   1.958  12.362  0.5323 -1.3423 -1.3821
 2143SOL     OW17887   3.519   4.700   3.788  0.1333  0.2627 -0.3943
 2143SOL    HW117888   3.482   0.030   3.719  0.8922  0.4257 -0.6722
 2143SOL    HW217889   3.478   4.617   3.765 -2.0551  0.5190  2.5603
 2144SOL     OW17890   3.236   2.651   1.698 -0.3483  0.5162  0.4390
 2144SOL    HW117891   3.169   2.590   1.669 -0.5706  0.2633  1.4814
 2144SOL    HW217892   3.308   2.615   1.647  1.3511  3.0955  0.9821
 2145SOL     OW17893   4.720   1.554  10.074  0.3446  0.3520  0.3675
 2145SOL    HW117894   4.658   1.591  10.137 -0.5198  0.1243 -0.3413
 2145SOL    HW217895   0.053   1.513  10.138 -0.3540 -1.4902 -0.1879
 2146SOL     OW17896   0.686   4.306  16.085 -0.2030  1.1162 -0.1089
 2146SOL    HW117897   0.709   4.266  16.169  1.5548  0.2592 -0.9820
 2146SOL    HW217898   0.772   4.325  16.047  0.0862 -0.5948 -0.2775
 2147SOL     OW17899   1.045   1.980  16.098  0.1331 -0.7308 -0.1578
 2147SOL    HW117900   1.123   1.931  16.073  0.4320 -0.4445  0.2082
 2147SOL    HW217901   1.077   2.070  16.096  0.9658 -1.0023  0.8727
 2148SOL     OW17902   1.274   0.575   0.601 -0.3612  0.0872  0.2236
 2148SOL    HW117903   1.180   0.589   0.608 -0.3960 -0.4027  0.7513
 2148SOL    HW217904   1.292   0.585   0.507 -1.5990  1.5910  0.1611
 2149SOL     OW17905   4.380   1.029   5.898  0.2899 -0.0837 -0.8404
 2149SOL    HW117906   4.389   1.095   5.829  1.7359  0.2067 -0.3731
 2149SOL    HW217907   4.467   1.021   5.938 -0.3713  3.7135  1.4557
 2150SOL     OW17908   3.324   3.283   8.362  0.1724  0.2430  0.0959
 2150SOL    HW117909   3.286   3.339   8.431 -0.5478  0.0911 -0.1758
 2150SOL    HW217910   3.252   3.259   8.304  0.5544 -1.6249  0.4204
 2151SOL     OW17911   4.367   0.840  11.793  0.5993 -0.4315  0.2286
 2151SOL    HW117912   4.381   0.879  11.707  0.2057  0.9470  0.7837
 2151SOL    HW217913   4.404   0.908  11.850 -1.3811  1.4777 -0.7687
 2152SOL     OW17914   1.204   0.917   7.667  0.7176 -0.4295 -0.5936
 2152SOL    HW117915   1.119   0.956   7.686  0.8371 -0.2969 -0.3277
 2152SOL    HW217916   1.183   0.876   7.583  0.7044  1.2007 -1.3810
 2153SOL     OW17917   2.355   1.902   7.357  0.4196  0.6947  0.5412
 2153SOL    HW117918   2.270   1.897   7.312  0.8522  1.7562 -0.3809
 2153SOL    HW217919   2.418   1.890   7.286 -0.2106 -2.9163  0.6075
 2154SOL     OW17920   3.815   3.442   9.865 -0.3645 -0.0633  0.3668
 2154SOL    HW117921   3.878   3.430   9.936  0.9235 -1.1819 -0.9770
 2154SOL    HW217922   3.810   3.358   9.819 -3.2127  1.7181 -2.5872
 2155SOL     OW17923   0.881   4.191  14.195  0.6490  0.1738 -0.5413
 2155SOL    HW117924   0.963   4.192  14.245  1.8415  1.1739 -2.5081
 2155SOL    HW217925   0.900   4.125  14.129 -2.2792 -0.9020 -0.2818
 2156SOL     OW17926   1.202   3.591   7.624  0.5605  0.0924 -0.2157
 2156SOL    HW117927   1.244   3.639   7.695  0.2063  4.1810 -2.7331
 2156SOL    HW217928   1.118   3.634   7.609  0.2188 -0.3838  0.3310
 2157SOL     OW17929   1.584   3.822   1.371  0.1367 -0.3773  0.2570
 2157SOL    HW117930   1.548   3.739   1.339  0.4231 -0.4420  0.0940
 2157SOL    HW217931   1.511   3.882   1.355  1.5354  0.6881 -2.2493
 2158SOL     OW17932   0.072   3.049   3.253 -0.7406 -0.2028  0.1965
 2158SOL    HW117933   0.153   3.099   3.263 -0.3752 -0.3257 -2.0544
 2158SOL    HW217934   0.092   3.032   3.161  1.0271  3.0988 -0.0271
 2159SOL     OW17935   2.320   1.852   5.522 -0.0825  0.2733 -0.7384
 2159SOL    HW117936   2.295   1.768   5.560  1.9807  0.1120  0.2574
 2159SOL    HW217937   2.282   1.916   5.583 -2.1297 -1.8117  0.1656
 2160SOL     OW17938   3.534   1.325  15.220  0.3618  0.2621 -0.0110
 2160SOL    HW117939   3.538   1.324  15.125  0.3349 -0.2622 -0.0062
 2160SOL    HW217940   3.443   1.353  15.233  0.0151 -0.6492 -0.5322
 2161SOL     OW17941   1.078   2.594   5.295 -0.1741 -0.1436 -0.3702
 2161SOL    HW117942   1.150   2.627   5.348 -0.8939 -1.2125  1.2791
 2161SOL    HW217943   1.103   2.613   5.205  2.6365 -1.8910  0.0396
 2162SOL     OW17944   1.614   1.905   4.625 -0.3782  0.2902  0.3702
 2162SOL    HW117945   1.664   1.970   4.674 -0.3306  0.7997 -0.3620
 2162SOL    HW217946   1.536   1.945   4.586 -1.0987  0.1337  1.6690
 2163SOL     OW17947   4.666   3.552   6.228 -0.3816 -0.4371 -0.7721
 2163SOL    HW117948   0.016   3.569   6.286  0.7624 -2.8307 -1.5182
 2163SOL    HW217949   4.707   3.589   6.150  0.8408 -2.2176 -0.9766
 2164SOL     OW17950   0.045   3.998  17.122 -0.3384 -0.1446  0.7638
 2164SOL    HW117951   4.712   4.011  17.198 -2.8763  0.9440 -1.3324
 2164SOL    HW217952   4.708   3.966  17.056  0.0466  1.4256 -0.3475
 2165SOL     OW17953   2.245   2.193   6.446  0.0982 -0.4659 -0.7838
 2165SOL    HW117954   2.152   2.187   6.426  0.2947  0.1199 -1.8114
 2165SOL    HW217955   2.243   2.138   6.525 -0.1857  1.7663  0.7716
 2166SOL     OW17956   0.541   3.647   2.558 -0.3757 -0.0162  0.7647
 2166SOL    HW117957   0.510   3.600   2.635 -1.1510 -1.2513 -0.3016
 2166SOL    HW217958   0.618   3.695   2.591  0.1026 -0.3922  0.1943
 2167SOL     OW17959   3.291   2.377   0.165 -0.3266 -1.4023 -0.5831
 2167SOL    HW117960   3.200   2.380   0.194 -0.1720 -0.0564 -0.2656
 2167SOL    HW217961   3.288   2.387   0.070 -0.5258 -1.0278 -0.5354
 2168SOL     OW17962   0.625   3.156   4.561 -0.2709  0.8522 -0.3394
 2168SOL    HW117963   0.684   3.135   4.634  1.2447  0.6319 -1.6281
 2168SOL    HW217964   0.636   3.085   4.498  1.5431  1.0031 -0.2080
 2169SOL     OW17965   1.973   4.635  11.689  0.2445  0.2878  0.0057
 2169SOL    HW117966   2.005   4.648  11.778  0.0028  0.5464  0.0567
 2169SOL    HW217967   1.883   4.662  11.704  0.2631  0.1335  0.3756
 2170SOL     OW17968   2.531   1.637   4.150  0.4927 -0.0646 -0.7639
 2170SOL    HW117969   2.521   1.608   4.241  0.9461  0.8602 -0.4303
 2170SOL    HW217970   2.626   1.648   4.150  0.3944  0.6997 -0.0464
 2171SOL     OW17971   0.663   3.823   4.988 -0.1057 -0.2485 -0.1723
 2171SOL    HW117972   0.737   3.883   4.979 -1.2116  1.3283  1.2279
 2171SOL    HW217973   0.594   3.863   4.933 -0.4467 -1.7249 -0.8070
 2172SOL     OW17974   3.622   2.786   1.691 -0.6340  0.1519  0.0305
 2172SOL    HW117975   3.599   2.721   1.625  1.1251  1.7976 -2.2053
 2172SOL    HW217976   3.539   2.825   1.719 -0.9469 -0.1850 -0.4394
 2173SOL     OW17977   1.874   0.031   4.871 -0.4049 -0.4208 -0.0304
 2173SOL    HW117978   1.926   0.096   4.918  0.6054 -0.5731 -0.9422
 2173SOL    HW217979   1.933   4.721   4.804  0.2886 -0.3565  0.5419
 2174SOL     OW17980   2.878   3.339   4.874 -1.0345 -0.2335  0.0060
 2174SOL    HW117981   2.856   3.249   4.851 -0.7858 -0.9239  2.4844
 2174SOL    HW217982   2.847   3.383   4.794 -0.0122  0.6671  0.1158
 2175SOL     OW17983   4.556   0.219   2.962  0.0871 -0.0391  0.2379
 2175SOL    HW117984   4.541   0.206   3.056 -1.3295 -0.2102 -0.0127
 2175SOL    HW217985   4.464   0.202   2.940  0.1475 -1.3981  1.0625
 2176SOL     OW17986   4.418   3.262   1.892 -0.1181 -0.5284 -0.2095
 2176SOL    HW117987   4.430   3.244   1.985  0.0607 -0.8828 -0.3060
 2176SOL    HW217988   4.499   3.268   1.841  0.1909  0.2532  0.3694
 2177SOL     OW17989   2.743   0.091   2.054 -0.5878  0.1037  0.3807
 2177SOL    HW117990   2.649   0.105   2.067 -0.0109  0.8322  3.7798
 2177SOL    HW217991   2.754   0.159   1.987  0.6224  1.0690  1.5510
 2178SOL     OW17992   2.297   2.556  16.282 -0.2885  0.3454 -0.2339
 2178SOL    HW117993   2.378   2.607  16.284 -0.9366  1.4144 -1.2506
 2178SOL    HW217994   2.324   2.469  16.311  0.7140  0.3407 -1.1874
 2179SOL     OW17995   2.787   2.748   2.253 -0.3565  0.5631 -0.5012
 2179SOL    HW117996   2.731   2.752   2.176 -1.0752 -0.4252 -0.0229
 2179SOL    HW217997   2.875   2.777   2.228  0.5106 -1.7550 -0.0632
 2180SOL     OW17998   0.693   2.602  16.690  0.2337 -0.5534  0.2393
 2180SOL    HW117999   0.611   2.554  16.705  0.1946 -0.2865  0.9090
 2180SOL    HW218000   0.743   2.530  16.653  4.3814  2.3156  0.2843
 2181SOL     OW18001   3.462   1.402  14.969  0.7099 -0.0262 -0.2069
 2181SOL    HW118002   3.452   1.494  14.992  0.3407 -0.1617  0.1601
 2181SOL    HW218003   3.392   1.403  14.904  0.8183  1.2268 -0.3009
 2182SOL     OW18004   0.604   0.272   6.960  0.1551  0.3253 -0.0415
 2182SOL    HW118005   0.550   0.339   6.917 -0.8485 -0.3673  0.1406
 2182SOL    HW218006   0.595   0.279   7.055  0.8903  0.6357  0.0010
 2183SOL     OW18007   3.841   3.278   4.383  0.3136  0.1734  0.0924
 2183SOL    HW118008   3.870   3.281   4.475 -2.9586 -1.6355  1.1699
 2183SOL    HW218009   3.898   3.346   4.348 -0.9799  1.4675  0.5235
 2184SOL     OW18010   1.608   1.592   2.501  0.4960  0.2847 -0.0013
 2184SOL    HW118011   1.690   1.579   2.453 -0.3305  0.5976 -1.4925
 2184SOL    HW218012   1.634   1.601   2.593  0.1260  2.3005 -0.0924
 2185SOL     OW18013   4.561   2.339  14.744  0.1913  0.1033  0.0599
 2185SOL    HW118014   4.605   2.317  14.826 -2.2907 -0.5076  1.2261
 2185SOL    HW218015   4.469   2.334  14.771 -0.0647 -1.9996 -1.1727
 2186SOL     OW18016   1.770   4.556   1.310 -0.1624  0.4088 -0.1999
 2186SOL    HW118017   1.717   4.547   1.231 -2.3514  0.6717  1.2346
 2186SOL    HW218018   1.785   4.649   1.292  3.4759 -0.3442 -1.1381
 2187SOL     OW18019   3.680   2.039  17.512  0.5943 -0.4041 -0.1435
 2187SOL    HW118020   3.765   2.042  17.555 -0.8010 -0.3972  2.6001
 2187SOL    HW218021   3.621   2.002  17.578 -0.2641  0.1142 -0.6156
 2188SOL     OW18022   4.437   2.351   0.451 -0.0808 -0.2946  0.2676
 2188SOL    HW118023   4.441   2.255   0.446 -1.6965 -0.4071  1.3422
 2188SOL    HW218024   4.528   2.368   0.426 -0.4517  1.9147  0.4037
 2189SOL     OW18025   4.071   1.665   5.671 -0.5769 -0.5924  0.5775
 2189SOL    HW118026   4.057   1.716   5.751 -0.7153 -0.3325  0.3865
 2189SOL    HW218027   4.027   1.581   5.684 -3.3382  0.7232 -0.1467
 2190SOL     OW18028   2.218   1.643   7.653 -0.0188 -0.4005  0.0237
 2190SOL    HW118029   2.305   1.619   7.619 -0.0112 -0.2511 -0.0578
 2190SOL    HW218030   2.204   1.570   7.713  2.0177 -0.9341 -0.1403
 2191SOL     OW18031   3.602   2.357   3.584 -0.5134 -0.1128  0.0492
 2191SOL    HW118032   3.639   2.376   3.498  0.2626 -2.3296 -0.1132
 2191SOL    HW218033   3.643   2.433   3.624 -0.0669 -0.3382  0.0210
 2192SOL     OW18034   0.886   1.076   5.409  0.5299 -0.5151 -0.1221
 2192SOL    HW118035   0.924   0.995   5.443  0.5721 -0.5639 -0.2843
 2192SOL    HW218036   0.814   1.043   5.354 -1.0129 -1.3411  2.3867
 2193SOL     OW18037   3.374   1.486   4.861  0.2430 -0.4515  0.0483
 2193SOL    HW118038   3.386   1.392   4.873  0.5078 -0.3728  0.4060
 2193SOL    HW218039   3.280   1.480   4.876  0.7405 -2.6017  2.1163
 2194SOL     OW18040   1.708   3.235  15.420  0.3560  0.1027  0.1059
 2194SOL    HW118041   1.685   3.147  15.450 -0.2976  0.0084 -0.6827
 2194SOL    HW218042   1.786   3.224  15.365  0.3912 -0.4362  0.2648
 2195SOL     OW18043   4.284   1.290   2.467  0.0628 -0.5822  0.1451
 2195SOL    HW118044   4.274   1.301   2.561 -1.9111  0.0383 -0.1444
 2195SOL    HW218045   4.345   1.360   2.444  0.5835 -1.4450 -1.1780
 2196SOL     OW18046   0.723   3.858   7.641  0.4118  0.6418  0.0023
 2196SOL    HW118047   0.753   3.919   7.709  1.2575 -2.0644  2.0933
 2196SOL    HW218048   0.752   3.898   7.560  1.2494  2.1071  1.0387
 2197SOL     OW18049   3.162   0.609   5.728  0.2520  0.1218 -0.3251
 2197SOL    HW118050   3.127   0.632   5.814  0.7402 -0.3587  0.0027
 2197SOL    HW218051   3.095   0.553   5.689 -0.0635 -0.4835  1.0965
 2198SOL     OW18052   3.839   4.124   1.994  0.5010  0.2318  0.4228
 2198SOL    HW118053   3.896   4.121   2.071  1.1903  1.7461 -0.0491
 2198SOL    HW218054   3.892   4.103   1.917  0.7476 -0.0120  0.6593
 2199SOL     OW18055   3.731   3.829   8.630 -0.2017 -0.3286 -0.1299
 2199SOL    HW118056   3.797   3.871   8.687  0.6491 -0.9525 -0.6530
 2199SOL    HW218057   3.713   3.749   8.680 -3.1368 -1.0576 -2.4355
 2200SOL     OW18058   0.923   4.290   7.748 -0.4451 -0.1273  0.0472
 2200SOL    HW118059   0.896   4.335   7.667 -1.6307  0.7214  0.8965
 2200SOL    HW218060   0.923   4.358   7.816 -0.6031  0.8721 -0.9383
 2201SOL     OW18061   0.694   4.490   4.699 -0.0406 -1.0923 -0.4867
 2201SOL    HW118062   0.735   4.405   4.713  0.4142 -1.3264 -3.1929
 2201SOL    HW218063   0.678   4.518   4.789  0.6925  1.1376 -1.0627
 2202SOL     OW18064   2.978   3.972  11.798  0.2538  0.3122 -0.5875
 2202SOL    HW118065   3.002   4.065  11.791 -0.5765  0.3935 -2.5257
 2202SOL    HW218066   3.025   3.942  11.875  1.1813  0.7765 -0.9598
 2203SOL     OW18067   3.911   2.963   3.418  0.3882  0.3966 -0.0535
 2203SOL    HW118068   3.930   2.895   3.483  0.3094  0.4022 -0.0239
 2203SOL    HW218069   3.917   2.914   3.337 -0.5617 -0.1527  0.2072
 2204SOL     OW18070   3.214   1.421  10.442 -0.2413  0.6888 -0.4721
 2204SOL    HW118071   3.138   1.403  10.497  0.0535  0.2518 -0.2042
 2204SOL    HW218072   3.278   1.433  10.512  0.3261 -0.1759 -0.8442
 2205SOL     OW18073   4.258   1.531   7.041 -0.0999  0.3520  0.2593
 2205SOL    HW118074   4.256   1.464   6.973  1.1478  0.1162  0.4556
 2205SOL    HW218075   4.352   1.543   7.047  0.0692 -1.2314  0.7246
 2206SOL     OW18076   0.402   0.278   5.778  0.3912 -0.2123 -0.0326
 2206SOL    HW118077   0.380   0.278   5.684 -0.7084 -0.6404  0.2225
 2206SOL    HW218078   0.478   0.336   5.775  0.4526 -0.3117 -0.5862
 2207SOL     OW18079   1.435   3.035  15.021 -0.3579  0.4723  0.4959
 2207SOL    HW118080   1.353   3.084  15.021  0.6784  2.1891  1.5037
 2207SOL    HW218081   1.488   3.112  15.002  0.2022 -0.0773 -0.2001
 2208SOL     OW18082   0.771   1.580   2.213 -0.0577 -0.7890 -0.1582
 2208SOL    HW118083   0.730   1.537   2.138 -1.3935 -0.1718  0.2197
 2208SOL    HW218084   0.859   1.600   2.180  0.0727  2.0666  1.9147
 2209SOL     OW18085   3.524   0.727   1.801  0.0408  0.0049 -0.0988
 2209SOL    HW118086   3.461   0.786   1.843  1.8913  1.4346  0.6476
 2209SOL    HW218087   3.471   0.648   1.807  0.2777 -0.1204  0.2708
 2210SOL     OW18088   2.389   1.114   7.079 -0.1445  0.6283 -0.0548
 2210SOL    HW118089   2.477   1.148   7.059 -0.8743  2.3825 -0.2508
 2210SOL    HW218090   2.411   1.046   7.143  1.5581  2.4971  1.3329
 2211SOL     OW18091   1.384   2.832   9.400 -0.0587 -0.0464  0.5580
 2211SOL    HW118092   1.456   2.787   9.356  0.4960 -0.5264  1.9722
 2211SOL    HW218093   1.433   2.900   9.447 -1.1565  1.0789  0.0759
 2212SOL     OW18094   0.785   0.097   7.442  1.5294 -0.0644 -1.0591
 2212SOL    HW118095   0.828   0.012   7.437 -0.0767 -0.8114 -2.0483
 2212SOL    HW218096   0.851   0.130   7.504  1.1787  0.6058 -1.0436
 2213SOL     OW18097   2.815   1.901   6.317 -0.5312 -0.0225  0.5461
 2213SOL    HW118098   2.778   1.812   6.323 -0.8536  0.1527  1.1726
 2213SOL    HW218099   2.744   1.943   6.269 -1.5095 -1.2939  0.8735
 2214SOL     OW18100   1.612   0.529   7.856 -0.0424 -0.3670  0.6101
 2214SOL    HW118101   1.637   0.437   7.844  0.1073 -0.0477 -1.5290
 2214SOL    HW218102   1.701   0.564   7.855  0.6641 -2.0957  3.5560
 2215SOL     OW18103   4.022   4.031   8.979  0.2487  0.3904 -0.4010
 2215SOL    HW118104   4.024   4.022   8.884 -5.5341 -2.5397 -0.2691
 2215SOL    HW218105   4.071   4.113   8.981  0.8549 -0.0046  1.7092
 2216SOL     OW18106   4.627   0.160  13.865  0.2486  0.4678  0.8062
 2216SOL    HW118107   4.685   0.208  13.806  0.8578 -0.3597  0.7386
 2216SOL    HW218108   4.680   0.084  13.887 -1.1191 -0.0876  2.1521
 2217SOL     OW18109   3.942   2.383  16.748 -0.1323  0.0434 -0.0287
 2217SOL    HW118110   3.871   2.336  16.705 -0.5336  0.7426 -0.1355
 2217SOL    HW218111   3.957   2.464  16.699 -0.8709  0.2668  0.1098
 2218SOL     OW18112   1.312   4.611   3.233 -0.1813  0.0323 -0.1012
 2218SOL    HW118113   1.345   4.549   3.168 -0.6622 -0.8573  0.5078
 2218SOL    HW218114   1.244   4.565   3.283 -0.0590 -1.1846 -1.0653
 2219SOL     OW18115   3.680   0.962   1.901 -0.1178  0.0178  0.1858
 2219SOL    HW118116   3.608   1.006   1.945  0.0487  1.3186 -0.8454
 2219SOL    HW218117   3.757   1.005   1.938 -0.0263 -0.1900  0.2333
 2220SOL     OW18118   4.698   4.673   5.358 -0.5295  0.2215 -0.2605
 2220SOL    HW118119   4.669   4.584   5.335  2.0035 -0.9730  1.2291
 2220SOL    HW218120   4.642   0.004   5.302 -0.9064 -1.3036 -1.3873
 2221SOL     OW18121   0.959   2.002   0.704  0.6085 -0.5175  0.1469
 2221SOL    HW118122   0.992   2.073   0.649  0.7278  0.5002  1.5276
 2221SOL    HW218123   0.953   1.931   0.641  0.2380  0.0875 -0.5011
 2222SOL     OW18124   1.504   4.518   4.455 -0.0302  0.3337 -0.1702
 2222SOL    HW118125   1.558   4.597   4.463  0.3323 -0.0847  1.4893
 2222SOL    HW218126   1.560   4.464   4.399 -0.4949 -0.4013  0.0724
 2223SOL     OW18127   4.228   1.496  13.151 -0.0653 -0.1220  0.0767
 2223SOL    HW118128   4.242   1.439  13.227 -0.9099  0.8395  0.9549
 2223SOL    HW218129   4.145   1.460  13.120 -0.1555 -0.2112  0.4200
 2224SOL     OW18130   4.374   2.022   1.195 -0.1158  0.5612  0.1089
 2224SOL    HW118131   4.459   2.028   1.239 -0.0108 -3.0745  0.4132
 2224SOL    HW218132   4.396   2.005   1.104 -2.3846  1.9732 -0.6945
 2225SOL     OW18133   0.931   3.348   4.643 -0.0472 -0.3023 -0.2114
 2225SOL    HW118134   0.970   3.422   4.690 -1.0003 -0.4435  0.7928
 2225SOL    HW218135   0.853   3.381   4.598  1.4283 -0.3839 -2.8482
 2226SOL     OW18136   3.772   3.512   8.477 -0.3964 -0.6039  0.1372
 2226SOL    HW118137   3.718   3.470   8.410  1.8413  0.2436 -2.1834
 2226SOL    HW218138   3.787   3.592   8.426  1.8483  0.7001  2.8402
 2227SOL     OW18139   0.733   4.590   6.387  0.2869  0.1167 -0.2716
 2227SOL    HW118140   0.699   4.572   6.475 -1.0861  1.5838 -0.4962
 2227SOL    HW218141   0.704   4.679   6.368 -1.9401 -0.7372 -0.9168
 2228SOL     OW18142   0.126   2.805   8.876  0.1858  0.0257 -0.2893
 2228SOL    HW118143   0.216   2.804   8.910  0.0851 -0.1428 -0.0293
 2228SOL    HW218144   0.139   2.747   8.801 -1.4650  0.4288 -0.8820
 2229SOL     OW18145   3.082   0.642   9.307 -0.2824  0.2814  0.5634
 2229SOL    HW118146   3.044   0.611   9.225 -2.2140  1.6363  0.9543
 2229SOL    HW218147   3.039   0.727   9.313 -0.5198  0.3153 -1.8136
 2230SOL     OW18148   0.988   4.174   2.852 -0.3968 -0.0658  1.1385
 2230SOL    HW118149   1.021   4.182   2.942  0.6670 -1.5135  0.8723
 2230SOL    HW218150   1.028   4.093   2.821 -1.7066  0.3223 -1.4982
 2231SOL     OW18151   0.048   0.080   2.301  0.4154 -0.2196  0.0568
 2231SOL    HW118152   0.084   0.081   2.390 -0.3348 -0.0602  0.3628
 2231SOL    HW218153   0.126   0.077   2.246  0.9231 -0.5436  0.7917
 2232SOL     OW18154   0.419   4.529  11.899  0.2403  0.0699  0.3390
 2232SOL    HW118155   0.470   4.475  11.960 -1.8636 -1.5002  0.7131
 2232SOL    HW218156   0.327   4.519  11.925 -0.0986  1.9897 -0.1135
 2233SOL     OW18157   0.092   0.325  13.761 -0.1865 -0.4230 -0.3665
 2233SOL    HW118158   0.162   0.342  13.698  1.8468 -1.1147  1.6977
 2233SOL    HW218159   0.124   0.371  13.839 -1.0818 -0.0015 -0.2522
 2234SOL     OW18160   1.145   3.083   3.744  0.1831  0.1848  0.2818
 2234SOL    HW118161   1.166   2.992   3.721  0.7646  0.4952 -0.4052
 2234SOL    HW218162   1.063   3.068   3.792 -1.4428 -0.0649 -2.5924
 2235SOL     OW18163   1.430   1.966   4.244  0.4790 -0.4259 -0.9369
 2235SOL    HW118164   1.443   2.040   4.304  1.5760 -2.1380  0.9236
 2235SOL    HW218165   1.348   1.937   4.283 -0.3614  2.5816 -0.4704
 2236SOL     OW18166   1.651   2.238   5.163  0.2468 -0.3268  0.2274
 2236SOL    HW118167   1.669   2.297   5.090 -1.2232  1.3813  1.2565
 2236SOL    HW218168   1.719   2.173   5.145  1.0824  0.7739 -0.5778
 2237SOL     OW18169   1.777   2.061   4.816 -0.0080 -0.3989  0.1425
 2237SOL    HW118170   1.758   2.152   4.793  0.0669 -0.6750 -1.0136
 2237SOL    HW218171   1.781   2.062   4.911 -0.0755  0.5327  0.1348
 2238SOL     OW18172   4.254   4.468   1.433  0.6067 -0.0810  0.1670
 2238SOL    HW118173   4.265   4.502   1.344 -0.7193 -1.4522 -0.5168
 2238SOL    HW218174   4.330   4.503   1.480  0.3654  1.7161 -0.7569
 2239SOL     OW18175   2.169   4.453  15.960  0.0864 -0.2837 -0.2796
 2239SOL    HW118176   2.233   4.466  15.890  0.9302 -3.2391 -0.0368
 2239SOL    HW218177   2.092   4.491  15.918  1.2955  1.7138 -0.6643
 2240SOL     OW18178   1.481   0.275  17.110 -0.0688 -0.5102  0.5265
 2240SOL    HW118179   1.512   0.189  17.138  0.3324 -1.0493 -1.6337
 2240SOL    HW218180   1.476   0.317  17.196  0.1914 -3.1938  1.8425
 2241SOL     OW18181   2.196   0.856   7.972 -0.2346 -0.3302  0.0205
 2241SOL    HW118182   2.279   0.904   7.971 -0.4385  0.0565  1.2559
 2241SOL    HW218183   2.139   0.928   7.946 -0.0555  0.9067  3.0727
 2242SOL     OW18184   3.719   4.432   4.448 -0.4878 -0.1511 -0.4046
 2242SOL    HW118185   3.701   4.501   4.512 -2.3454 -1.7654  0.8195
 2242SOL    HW218186   3.808   4.444   4.414 -0.7240  2.4818 -0.0940
 2243SOL     OW18187   0.646   1.089  13.588 -0.3593  0.3649  0.0719
 2243SOL    HW118188   0.625   1.053  13.674 -3.9626  1.4198 -0.3688
 2243SOL    HW218189   0.666   1.178  13.617  0.6739 -0.4757  1.9305
 2244SOL     OW18190   1.049   0.086   5.064 -0.1010  0.5636 -0.8123
 2244SOL    HW118191   1.135   0.044   5.067  0.9853  2.7453 -1.6905
 2244SOL    HW218192   1.052   0.120   4.975  0.2249  1.2444 -0.5392
 2245SOL     OW18193   1.772   4.321   0.927  0.1247  0.0353  0.1192
 2245SOL    HW118194   1.736   4.348   0.842  1.1692  0.7406 -0.0865
 2245SOL    HW218195   1.757   4.399   0.980  1.8095 -0.0060  0.6369
 2246SOL     OW18196   2.330   2.587   4.599 -0.2667 -0.3038 -0.3703
 2246SOL    HW118197   2.240   2.561   4.617 -1.3773  2.0479 -2.6172
 2246SOL    HW218198   2.333   2.672   4.644 -1.7096  0.5743 -1.9278
 2247SOL     OW18199   0.380   3.071   8.546 -0.3042 -0.4652  0.1085
 2247SOL    HW118200   0.394   3.165   8.554 -1.7043 -0.4246  2.1324
 2247SOL    HW218201   0.440   3.070   8.471  0.4593 -0.1140  0.7071
 2248SOL     OW18202   1.207   1.607   0.554  0.2407  1.2331  0.2662
 2248SOL    HW118203   1.218   1.664   0.630 -0.0172  1.0272  0.4545
 2248SOL    HW218204   1.287   1.628   0.506  0.3795  0.5216  0.1831
 2249SOL     OW18205   3.868   0.387   6.785  0.0019 -0.0512 -0.0295
 2249SOL    HW118206   3.950   0.421   6.750  0.5327 -1.8536 -0.5271
 2249SOL    HW218207   3.880   0.298   6.750 -0.8550 -0.7807  1.5471
 2250SOL     OW18208   3.290   0.300   2.644 -0.0902 -0.0210 -0.0046
 2250SOL    HW118209   3.203   0.306   2.685 -0.1142  1.2871 -0.2573
 2250SOL    HW218210   3.278   0.328   2.554 -0.0614 -0.6819 -0.2127
 2251SOL     OW18211   4.089   3.091   2.851  0.6299 -0.4286  0.0177
 2251SOL    HW118212   4.078   3.174   2.806  0.6061  0.1251  1.0600
 2251SOL    HW218213   4.142   3.056   2.779 -1.2575 -0.1213 -1.5151
 2252SOL     OW18214   3.338   3.314   1.324 -0.4128 -0.4321 -0.5213
 2252SOL    HW118215   3.387   3.276   1.250  0.5608 -1.1736  0.5077
 2252SOL    HW218216   3.406   3.346   1.382 -0.0984 -1.3584 -0.3668
 2253SOL     OW18217   1.364   4.219   4.792  0.5220 -0.1991 -0.7145
 2253SOL    HW118218   1.307   4.169   4.851  1.6408  0.7109  1.1514
 2253SOL    HW218219   1.424   4.147   4.773 -0.4058 -1.7399  2.1369
 2254SOL     OW18220   0.983   1.048   7.763  1.0642 -0.0153 -0.0376
 2254SOL    HW118221   0.905   0.995   7.746  1.3112 -0.4177  0.0620
 2254SOL    HW218222   0.958   1.097   7.842 -1.6631 -1.8843  0.2828
 2255SOL     OW18223   3.669   0.268   3.789 -0.1139  0.7129 -0.1437
 2255SOL    HW118224   3.673   0.260   3.884  2.7099  2.2906 -0.1285
 2255SOL    HW218225   3.631   0.183   3.767 -0.8209  1.0773 -0.3352
 2256SOL     OW18226   3.301   3.816   6.412 -0.4411  0.0107 -0.6785
 2256SOL    HW118227   3.266   3.759   6.481 -2.8503  1.8412 -0.3873
 2256SOL    HW218228   3.354   3.757   6.359  0.4592  2.6514 -2.7229
 2257SOL     OW18229   1.194   2.956   7.505  0.1571  0.0044 -0.0640
 2257SOL    HW118230   1.222   3.026   7.447 -0.2572  1.6124  1.6586
 2257SOL    HW218231   1.144   3.000   7.574 -0.2776 -1.3495  0.4806
 2258SOL     OW18232   2.700   4.152   3.614 -1.0164  0.1480  0.7663
 2258SOL    HW118233   2.621   4.100   3.598 -1.9492  1.5508  0.8078
 2258SOL    HW218234   2.739   4.146   3.527 -0.5995 -0.0187  0.9620
 2259SOL     OW18235   4.276   0.424   4.023 -0.4943 -0.2948 -0.7417
 2259SOL    HW118236   4.278   0.368   4.101  0.5991 -2.2471 -2.1908
 2259SOL    HW218237   4.370   0.442   4.018 -0.7692  1.0290 -1.0535
 2260SOL     OW18238   2.242   3.023   4.806 -0.3621 -0.1395 -0.6652
 2260SOL    HW118239   2.182   3.082   4.852 -1.4478 -0.7610 -1.2872
 2260SOL    HW218240   2.281   2.980   4.882 -1.4921  2.8292  1.6304
 2261SOL     OW18241   0.211   0.571   8.715  0.6968  0.2199  0.2313
 2261SOL    HW118242   0.282   0.556   8.778  0.0477  1.6468  1.3119
 2261SOL    HW218243   0.245   0.533   8.634  1.0202 -1.4371  1.1324
 2262SOL     OW18244   3.855   0.203   6.476  0.5711  0.1188 -0.6428
 2262SOL    HW118245   3.923   0.259   6.437  1.3559  1.5704  2.8222
 2262SOL    HW218246   3.872   0.133   6.412  1.3911  1.4573 -1.8822
 2263SOL     OW18247   2.287   0.370   3.192  0.1247  0.3919 -0.2567
 2263SOL    HW118248   2.370   0.335   3.162 -0.8482 -1.7679 -0.4102
 2263SOL    HW218249   2.260   0.399   3.105 -0.8236 -1.1735 -0.4805
 2264SOL     OW18250   0.198   1.077   6.437 -0.7742 -0.5458  0.2003
 2264SOL    HW118251   0.290   1.053   6.445 -0.5901 -0.2032 -0.9119
 2264SOL    HW218252   0.207   1.165   6.472  3.9281 -0.7849 -0.4070
 2265SOL     OW18253   0.146   1.002  16.102 -0.0323 -0.6288  0.2503
 2265SOL    HW118254   0.155   1.066  16.173 -0.7881 -0.7956  0.5005
 2265SOL    HW218255   0.241   1.002  16.093 -0.1277  0.1509 -0.7837
 2266SOL     OW18256   1.047   2.025   8.221 -0.3224 -0.6963  0.8506
 2266SOL    HW118257   0.978   1.998   8.281  1.6525 -1.2470  2.8998
 2266SOL    HW218258   1.084   2.096   8.274  0.8935  0.0836 -1.0655
 2267SOL     OW18259   4.055   2.110   7.232  0.2132  0.0240  0.0267
 2267SOL    HW118260   4.017   2.026   7.258 -1.6812  0.0093 -2.7135
 2267SOL    HW218261   4.000   2.174   7.277  1.2909  1.5886 -0.8727
 2268SOL     OW18262   1.835   3.544  16.320  0.5004 -0.1514  0.5557
 2268SOL    HW118263   1.811   3.459  16.356  1.0361 -0.9644 -1.0238
 2268SOL    HW218264   1.784   3.609  16.368  1.4880  1.6477 -0.8305
 2269SOL     OW18265   3.044   1.125   6.621  0.2941  0.0130  0.0809
 2269SOL    HW118266   3.037   1.162   6.533 -1.8752 -0.3121  0.1345
 2269SOL    HW218267   3.013   1.193   6.681 -0.0269  1.9829 -2.3211
 2270SOL     OW18268   0.908   1.955   4.244 -0.4867 -0.1241 -0.2902
 2270SOL    HW118269   0.871   1.905   4.318 -1.0554  1.1116  0.2641
 2270SOL    HW218270   0.843   2.024   4.254 -0.7346 -0.5062  0.7910
 2271SOL     OW18271   1.536   0.929  16.105  0.1080  0.0330  0.4234
 2271SOL    HW118272   1.454   0.956  16.146 -1.2948 -0.8757 -1.7642
 2271SOL    HW218273   1.518   0.953  16.014 -2.7707 -0.7724  0.7776
 2272SOL     OW18274   0.042   3.400   7.664  0.5191  0.2194  0.1967
 2272SOL    HW118275   0.116   3.454   7.693  1.5594 -0.2226 -1.6205
 2272SOL    HW218276   0.043   3.334   7.733  2.5478  2.3773  2.2535
 2273SOL     OW18277   2.682   0.988  14.655  0.0129 -0.3851  0.0991
 2273SOL    HW118278   2.750   1.037  14.701 -0.7322 -0.7942  1.6298
 2273SOL    HW218279   2.614   0.983  14.722 -0.9274 -1.4773 -0.9119
 2274SOL     OW18280   2.037   0.361   5.689  0.5175 -0.4376 -0.3459
 2274SOL    HW118281   1.962   0.396   5.640  2.0349  1.3781 -1.4009
 2274SOL    HW218282   2.098   0.435   5.685  1.0666 -0.8386  0.5724
 2275SOL     OW18283   2.443   2.145   4.068 -0.2457 -0.1446  0.0685
 2275SOL    HW118284   2.411   2.142   4.158 -1.2464 -0.5538 -0.2895
 2275SOL    HW218285   2.446   2.050   4.056  2.1154 -0.1089  0.4443
 2276SOL     OW18286   3.911   0.643   9.585  0.7505 -0.4532 -0.3091
 2276SOL    HW118287   3.831   0.675   9.542  0.9278  1.9282  1.0968
 2276SOL    HW218288   3.911   0.686   9.671 -2.7814 -0.7681 -0.1691
 2277SOL     OW18289   4.354   2.132  12.303  0.3318 -0.5492  0.0954
 2277SOL    HW118290   4.428   2.192  12.305 -0.3506  0.2337  1.1836
 2277SOL    HW218291   4.282   2.191  12.323  0.4317 -0.3442 -0.1552
 2278SOL     OW18292   0.763   0.120   5.735  0.4621  0.1184 -0.0511
 2278SOL    HW118293   0.748   0.107   5.641 -2.7693 -0.2298  0.5279
 2278SOL    HW218294   0.810   0.203   5.726 -1.1078  1.0878  0.7530
 2279SOL     OW18295   2.725   1.762   1.309 -0.1010  0.1823 -0.4652
 2279SOL    HW118296   2.707   1.679   1.267  0.0470 -0.3002  0.4218
 2279SOL    HW218297   2.819   1.767   1.292  0.6638 -3.6940  2.8460
 2280SOL     OW18298   4.412   3.330  14.692  0.8897 -0.3930 -0.3354
 2280SOL    HW118299   4.420   3.241  14.658 -0.0966 -0.9980  1.0250
 2280SOL    HW218300   4.393   3.313  14.784  0.6882 -0.2972 -0.3599
 2281SOL     OW18301   1.347   0.481   5.369  0.0430 -0.2959 -0.3608
 2281SOL    HW118302   1.354   0.436   5.453  1.3044  1.7287  0.6157
 2281SOL    HW218303   1.373   0.572   5.385  0.1247 -0.1703 -1.1759
 2282SOL     OW18304   1.408   2.455   6.976 -0.1753 -0.0172  0.2872
 2282SOL    HW118305   1.422   2.377   7.029  1.8552  0.5814  0.6335
 2282SOL    HW218306   1.482   2.504   7.012  0.6178 -0.3720 -0.8527
 2283SOL     OW18307   4.600   3.149   6.685 -0.5687  0.4935  0.3881
 2283SOL    HW118308   4.601   3.206   6.762  0.4063  1.4743 -0.3432
 2283SOL    HW218309   4.663   3.190   6.626 -0.9357 -0.0526 -0.3682
 2284SOL     OW18310   2.135   4.644  16.906  0.4193  0.2866  0.3029
 2284SOL    HW118311   2.209   4.670  16.960  0.5029 -0.6506  0.6418
 2284SOL    HW218312   2.113   4.558  16.943  0.2951  0.7292  1.2359
 2285SOL     OW18313   0.988   0.327   6.037  0.0403 -0.0937 -0.8296
 2285SOL    HW118314   1.027   0.241   6.050  0.3674  0.1244 -0.3578
 2285SOL    HW218315   0.894   0.312   6.051 -0.0446  0.3481 -0.9109
 2286SOL     OW18316   3.557   3.455   4.118  0.5593 -0.3474 -0.9627
 2286SOL    HW118317   3.615   3.472   4.043  1.2896  0.2696 -0.2548
 2286SOL    HW218318   3.472   3.478   4.080  0.3461  0.8187  0.2480
 2287SOL     OW18319   1.294   3.331   1.884  0.1635 -0.0247 -0.0310
 2287SOL    HW118320   1.237   3.369   1.817  0.3320 -1.7361 -1.1439
 2287SOL    HW218321   1.357   3.282   1.831  1.2423 -0.0799  1.2994
 2288SOL     OW18322   1.678   2.624  13.549 -0.1178  0.0053 -0.2277
 2288SOL    HW118323   1.604   2.650  13.493  1.3047  1.1664 -1.5849
 2288SOL    HW218324   1.681   2.708  13.595 -2.9005  0.4855 -0.9394
 2289SOL     OW18325   1.540   0.846   0.066 -0.1462  0.3490  0.7875
 2289SOL    HW118326   1.528   0.908   0.138  1.7335  2.0391 -0.3569
 2289SOL    HW218327   1.623   0.804   0.084  0.1032  1.0298  1.2410
 2290SOL     OW18328   0.513   3.577   7.100 -0.2531  0.9363  0.1604
 2290SOL    HW118329   0.492   3.495   7.144  2.3369 -0.0423 -0.4012
 2290SOL    HW218330   0.501   3.556   7.008 -1.1085  1.6703  0.1011
 2291SOL     OW18331   0.197   2.025   7.648 -0.3443 -0.3395 -0.2002
 2291SOL    HW118332   0.107   2.051   7.628 -1.0280 -2.5136  0.0847
 2291SOL    HW218333   0.228   2.106   7.689 -0.4324 -1.2139  1.6203
 2292SOL     OW18334   3.991   0.238  14.467 -0.0641  0.3653 -0.7563
 2292SOL    HW118335   4.051   0.250  14.541  0.0195 -1.0205 -0.6000
 2292SOL    HW218336   3.990   0.143  14.456  2.8961  0.3349 -0.8507
 2293SOL     OW18337   3.563   0.668  16.373  0.1312 -0.1743  0.3228
 2293SOL    HW118338   3.608   0.736  16.422 -0.1183  1.6101 -1.9234
 2293SOL    HW218339   3.589   0.706  16.289 -0.5615 -0.6835 -0.1228
 2294SOL     OW18340   0.448   2.737   5.976  0.2249  0.2720  0.0107
 2294SOL    HW118341   0.484   2.764   6.060  1.3593 -4.9688  1.2597
 2294SOL    HW218342   0.354   2.741   5.990  0.1856  0.0579 -0.1831
 2295SOL     OW18343   4.248   4.681  17.457 -1.1407  0.3436 -0.4312
 2295SOL    HW118344   4.327   4.693  17.404 -2.5246 -1.2030 -2.8705
 2295SOL    HW218345   4.286   4.681  17.545  1.1536  1.2815 -1.4346
 2296SOL     OW18346   4.541   1.945   7.124  0.4622 -1.0182 -0.1236
 2296SOL    HW118347   4.636   1.936   7.124  0.2439 -3.5091  0.0801
 2296SOL    HW218348   4.531   2.038   7.142 -1.6171 -1.6629  2.1291
 2297SOL     OW18349   4.033   1.642  10.809  0.2390 -0.0474  0.3230
 2297SOL    HW118350   3.991   1.627  10.894 -2.3171 -0.3044 -0.9727
 2297SOL    HW218351   4.044   1.736  10.814  3.1587 -0.4565  1.2854
 2298SOL     OW18352   0.463   1.124   9.102  0.0495  0.0026 -0.0729
 2298SOL    HW118353   0.547   1.169   9.101 -0.1662  0.4271  1.0865
 2298SOL    HW218354   0.437   1.137   9.193  1.9311  1.3961  0.2507
 2299SOL     OW18355   4.252   0.718   1.372  0.4690  0.5371  0.0401
 2299SOL    HW118356   4.316   0.695   1.305 -1.6643 -2.4701 -0.9499
 2299SOL    HW218357   4.195   0.777   1.324  0.3259  1.8515  1.8140
 2300SOL     OW18358   4.479   3.752   6.193 -0.2309  0.0518  0.2235
 2300SOL    HW118359   4.498   3.759   6.099 -0.5992 -0.7685  0.0851
 2300SOL    HW218360   4.493   3.659   6.207 -1.5301 -0.2826 -0.6751
 2301SOL     OW18361   0.909   0.201   3.125  0.5762 -0.0933  0.2017
 2301SOL    HW118362   0.898   0.274   3.186 -0.2892  0.9699 -1.2291
 2301SOL    HW218363   0.818   0.177   3.110 -0.1671  2.0916  1.1684
 2302SOL     OW18364   0.890   4.439   7.111 -0.1848  0.2700 -0.0442
 2302SOL    HW118365   0.959   4.451   7.176  1.1005  0.8038 -1.5242
 2302SOL    HW218366   0.934   4.449   7.027  0.9076 -0.5843  0.4286
 2303SOL     OW18367   0.990   2.166  11.053  0.6361  0.2686 -0.1604
 2303SOL    HW118368   0.935   2.142  10.977  1.9579 -0.8742 -0.7574
 2303SOL    HW218369   0.917   2.192  11.110  1.1273  2.0915 -0.3801
 2304SOL     OW18370   3.169   2.149   1.468 -0.0238  0.4597  0.1708
 2304SOL    HW118371   3.163   2.135   1.562  0.4469  0.2822  0.1755
 2304SOL    HW218372   3.264   2.148   1.460 -0.0555 -0.5946 -0.0964
 2305SOL     OW18373   2.446   3.304  16.079  0.0206 -0.4217  0.1736
 2305SOL    HW118374   2.475   3.395  16.073 -2.7601  0.3555 -1.8993
 2305SOL    HW218375   2.375   3.301  16.014  1.2719 -1.5217 -1.1464
 2306SOL     OW18376   0.423   4.369  16.456 -0.4772  0.3937  0.0929
 2306SOL    HW118377   0.429   4.338  16.366  0.3397 -0.6764  0.5221
 2306SOL    HW218378   0.373   4.449  16.437 -1.2813 -0.2698 -0.6107
 2307SOL     OW18379   2.961   3.364   8.845  0.4177 -0.1829 -0.2715
 2307SOL    HW118380   2.875   3.407   8.848  1.4934  1.8149  2.0146
 2307SOL    HW218381   2.931   3.276   8.820 -1.5362  0.7335 -1.1052
 2308SOL     OW18382   2.377   0.653   6.187 -0.5605 -0.2178 -0.1477
 2308SOL    HW118383   2.288   0.618   6.191 -0.6517  0.2280  1.5579
 2308SOL    HW218384   2.428   0.593   6.133 -0.2117  0.5920 -0.7191
 2309SOL     OW18385   1.368   0.932  16.819  0.1836  0.7458 -0.1861
 2309SOL    HW118386   1.443   0.977  16.781  0.9198 -0.3764 -0.0648
 2309SOL    HW218387   1.316   1.000  16.862  1.6516  0.7495  1.5496
 2310SOL     OW18388   0.967   2.765   7.405  0.0929 -0.2194  0.7882
 2310SOL    HW118389   0.942   2.673   7.399  0.2322 -0.1516 -0.7934
 2310SOL    HW218390   1.060   2.769   7.430  0.2599  1.5636 -0.0533
 2311SOL     OW18391   0.063   4.498   7.980 -0.2801 -0.0917 -0.6535
 2311SOL    HW118392   0.060   4.576   7.926 -0.8468  1.4104  1.5541
 2311SOL    HW218393   4.695   4.491   8.007 -0.2057  1.1783 -0.0791
 2312SOL     OW18394   3.208   3.091   9.174 -0.5327  0.2579  0.4625
 2312SOL    HW118395   3.273   3.030   9.139 -0.1980  0.5781  0.5139
 2312SOL    HW218396   3.265   3.162   9.205  2.1690 -2.2603  1.2810
 2313SOL     OW18397   4.191   0.324   5.357 -0.4764  0.6421 -0.3082
 2313SOL    HW118398   4.219   0.245   5.310  2.0946  1.3087  0.1094
 2313SOL    HW218399   4.248   0.323   5.434  0.0315 -1.8061 -0.7214
 2314SOL     OW18400   4.717   3.826   1.710  0.4316 -0.4081  0.8827
 2314SOL    HW118401   0.029   3.753   1.658 -1.5730 -0.6978 -0.0748
 2314SOL    HW218402   4.626   3.814   1.736  0.0007 -0.8693 -0.7830
 2315SOL     OW18403   2.140   0.872   8.761 -0.0657  0.0141 -0.2140
 2315SOL    HW118404   2.114   0.940   8.700  0.2831  0.4856  0.1610
 2315SOL    HW218405   2.055   0.831   8.779 -0.0254 -0.6088 -1.4518
 2316SOL     OW18406   1.963   3.853   3.177  0.2522 -0.3017  0.2374
 2316SOL    HW118407   1.915   3.813   3.104  1.6659  1.4991 -1.6821
 2316SOL    HW218408   1.947   3.797   3.253 -3.3357  0.1175 -0.2131
 2317SOL     OW18409   4.136   0.082   7.395  0.4288  0.9976  0.3910
 2317SOL    HW118410   4.142   0.073   7.490  0.8427  0.0582  0.2826
 2317SOL    HW218411   4.214   0.131   7.369  0.8215  0.3120  0.2688
 2318SOL     OW18412   1.887   3.345   3.265 -0.5247 -0.1068 -0.2474
 2318SOL    HW118413   1.932   3.404   3.204  0.0898 -0.6508 -0.3262
 2318SOL    HW218414   1.852   3.275   3.210  1.2561 -1.0868 -0.1405
 2319SOL     OW18415   3.723   3.858   6.505  0.0228  0.1700 -0.1188
 2319SOL    HW118416   3.652   3.846   6.567 -0.1949  1.6747 -0.0616
 2319SOL    HW218417   3.769   3.932   6.546  1.3324 -1.0385  0.5863
 2320SOL     OW18418   2.757   1.512   2.180 -0.0117  0.1864 -0.3660
 2320SOL    HW118419   2.783   1.424   2.206 -0.0729 -0.0543 -1.1220
 2320SOL    HW218420   2.765   1.565   2.259 -1.6098  1.5649 -1.1021
 2321SOL     OW18421   4.217   4.258   5.602  0.1696  0.7775 -0.1778
 2321SOL    HW118422   4.166   4.239   5.524  0.3719 -0.7127  0.0506
 2321SOL    HW218423   4.292   4.201   5.586 -0.6433 -0.1573 -0.6259
 2322SOL     OW18424   2.936   0.174   6.182  0.1064  0.0727  0.1577
 2322SOL    HW118425   3.014   0.213   6.221  0.5810 -0.0138 -0.7095
 2322SOL    HW218426   2.955   0.163   6.089 -1.5720 -0.9373 -0.0706
 2323SOL     OW18427   1.113   1.611   8.398 -0.3469 -1.1879 -0.0430
 2323SOL    HW118428   1.026   1.577   8.413 -1.2761  0.8155 -0.8394
 2323SOL    HW218429   1.167   1.533   8.409  1.0246 -0.0049  1.6930
 2324SOL     OW18430   1.647   2.148   8.242 -0.4510 -0.2547  0.6256
 2324SOL    HW118431   1.601   2.186   8.167 -0.0612  1.6150  1.3356
 2324SOL    HW218432   1.582   2.087   8.275 -0.8769  0.2938  0.7963
 2325SOL     OW18433   2.896   0.081   8.007 -0.2851  0.1035  0.1319
 2325SOL    HW118434   2.975   0.118   8.048  0.4183  1.6398 -2.6358
 2325SOL    HW218435   2.883   0.006   8.065  0.4584 -0.3732 -0.3192
 2326SOL     OW18436   4.686   4.477   7.503  0.9434 -0.1703 -0.9977
 2326SOL    HW118437   0.030   4.507   7.442  0.3531  1.0058 -1.0713
 2326SOL    HW218438   4.658   4.561   7.539  0.1118 -0.8072 -0.1771
 2327SOL     OW18439   2.005   2.331   6.676  0.4449  0.0270 -0.4676
 2327SOL    HW118440   1.965   2.402   6.627  0.8345  1.3548  1.1228
 2327SOL    HW218441   2.002   2.378   6.759  0.1750  0.6799 -0.8517
 2328SOL     OW18442   1.740   2.632   7.490 -0.1880  0.0612 -0.0404
 2328SOL    HW118443   1.766   2.642   7.582  0.6559  1.7118 -0.4561
 2328SOL    HW218444   1.658   2.683   7.489  0.8168  1.6940  0.6261
 2329SOL     OW18445   2.314   0.653   2.772  0.4000  0.8392 -0.7621
 2329SOL    HW118446   2.369   0.609   2.707  0.0807  0.7975 -1.0054
 2329SOL    HW218447   2.332   0.606   2.853 -2.3405  1.2918  0.1245
 2330SOL     OW18448   0.179   2.517   2.448  0.5219  0.2116 -0.3508
 2330SOL    HW118449   0.109   2.517   2.383  0.9260  0.2207 -0.7810
 2330SOL    HW218450   0.227   2.439   2.422 -1.2348 -0.8276 -0.4941
 2331SOL     OW18451   2.241   0.563   7.447  0.8402 -0.2705  0.9561
 2331SOL    HW118452   2.218   0.649   7.482  5.7169  1.1992  0.5600
 2331SOL    HW218453   2.159   0.521   7.423  0.5563 -0.7333  2.7256
 2332SOL     OW18454   2.735   0.342   7.215 -0.0184  0.5284 -0.6659
 2332SOL    HW118455   2.650   0.362   7.176 -0.1626  0.2507 -0.4982
 2332SOL    HW218456   2.752   0.420   7.266  1.7190 -1.3130  1.5553
 2333SOL     OW18457   2.229   3.993   1.461  0.1123 -0.5776 -0.2471
 2333SOL    HW118458   2.192   4.065   1.512  0.4990 -0.1034 -0.6402
 2333SOL    HW218459   2.160   3.930   1.484  0.6656 -1.6719 -1.5999
 2334SOL     OW18460   2.763   1.085   9.046  0.7647  0.1093 -0.1427
 2334SOL    HW118461   2.673   1.053   9.035  0.2451  0.2111  3.6244
 2334SOL    HW218462   2.776   1.131   8.963 -2.1028  1.3443  0.0595
 2335SOL     OW18463   1.048   1.784   4.830  0.7150 -0.5951 -0.0020
 2335SOL    HW118464   1.061   1.844   4.756  2.6158 -2.5800 -1.2911
 2335SOL    HW218465   1.004   1.845   4.889  0.1994 -0.2784 -0.7247
 2336SOL     OW18466   1.583   3.292   2.744  0.5512  0.0581 -0.0982
 2336SOL    HW118467   1.615   3.363   2.800  1.7771  1.2392 -2.3080
 2336SOL    HW218468   1.563   3.333   2.660 -1.6605 -0.7559  0.0397
 2337SOL     OW18469   0.852   4.130   8.147  0.1987 -0.6815 -0.0996
 2337SOL    HW118470   0.759   4.139   8.171 -0.0275  0.3258 -1.3647
 2337SOL    HW218471   0.863   4.209   8.094  0.5362  0.2119  1.2944
 2338SOL     OW18472   0.114   3.464   1.766  0.4170  0.0626  0.5211
 2338SOL    HW118473   0.157   3.522   1.703 -0.5235 -0.4051 -0.5398
 2338SOL    HW218474   0.184   3.447   1.830  1.9666  1.9781 -0.6576
 2339SOL     OW18475   1.907   4.186   7.495  0.3792 -0.3648  0.0095
 2339SOL    HW118476   1.839   4.122   7.515  0.8561 -0.8216  0.1937
 2339SOL    HW218477   1.877   4.221   7.411 -2.5446 -0.5071  1.0217
 2340SOL     OW18478   2.587   1.972   7.471 -0.3258 -0.2546  0.3723
 2340SOL    HW118479   2.584   2.061   7.435 -0.1847  0.0868  1.2125
 2340SOL    HW218480   2.495   1.948   7.462 -0.0470 -1.0499 -0.2441
 2341SOL     OW18481   0.663   3.279  12.502  0.4423 -0.5699  0.0592
 2341SOL    HW118482   0.573   3.257  12.526  0.6546 -3.3771 -1.7997
 2341SOL    HW218483   0.700   3.206  12.551 -1.0289 -0.2412  1.6715
 2342SOL     OW18484   2.812   3.738   3.305 -0.3286  0.0566  0.4538
 2342SOL    HW118485   2.817   3.669   3.371  0.5453 -1.1297 -0.8403
 2342SOL    HW218486   2.845   3.693   3.227  1.1750  2.3171 -0.2061
 2343SOL     OW18487   0.131   4.405   5.681  0.4152 -0.2621  0.5931
 2343SOL    HW118488   0.047   4.405   5.727  0.2659  0.6624  0.3311
 2343SOL    HW218489   0.184   4.412   5.761 -0.8655 -0.7702  1.4881
 2344SOL     OW18490   3.540   0.360   3.285  0.0914 -0.7482  0.6058
 2344SOL    HW118491   3.476   0.393   3.349 -1.9779 -1.5553 -1.0376
 2344SOL    HW218492   3.615   0.419   3.291  0.5619 -1.0034 -3.0044
 2345SOL     OW18493   1.459   0.597   8.874 -0.1063  0.1730  0.6475
 2345SOL    HW118494   1.417   0.596   8.960 -1.5380 -1.2101 -0.0749
 2345SOL    HW218495   1.551   0.579   8.895  0.0167  2.3841  2.0161
 2346SOL     OW18496   1.926   2.408   5.159 -0.4507  0.5426 -0.6115
 2346SOL    HW118497   1.890   2.431   5.244 -0.4650  0.1208 -0.5051
 2346SOL    HW218498   1.851   2.413   5.099 -0.1971  1.4845 -0.8486
 2347SOL     OW18499   0.314   2.573   4.298  0.7388  0.7493 -0.0965
 2347SOL    HW118500   0.350   2.486   4.314  0.7763  0.9363  0.8171
 2347SOL    HW218501   0.328   2.594   4.206  0.2677  0.9043 -0.1346
 2348SOL     OW18502   0.356   4.542   7.149 -0.0133  0.2749 -0.3675
 2348SOL    HW118503   0.406   4.463   7.130 -0.5340 -0.4219  1.1746
 2348SOL    HW218504   0.436   4.595   7.148  1.0992 -1.3869  0.5756
 2349SOL     OW18505   2.696   1.815   6.841 -0.3958  0.4588 -0.2202
 2349SOL    HW118506   2.752   1.771   6.905  0.7859  2.0187 -0.1976
 2349SOL    HW218507   2.769   1.864   6.804 -0.3537 -0.2685 -1.0982
 2350SOL     OW18508   1.242   1.565  14.349 -0.4007  0.0178 -0.7368
 2350SOL    HW118509   1.183   1.623  14.301  1.4656  2.8987  0.4654
 2350SOL    HW218510   1.323   1.598  14.312  0.1020 -0.2079  0.1516
 2351SOL     OW18511   2.695   3.002   2.453  0.0387 -0.1423  0.2068
 2351SOL    HW118512   2.683   3.020   2.360  2.8289 -1.8910 -0.4862
 2351SOL    HW218513   2.638   3.067   2.494 -0.6517  0.2704 -1.3904
 2352SOL     OW18514   2.009   3.095   4.956 -0.9155 -0.2293  0.3915
 2352SOL    HW118515   2.013   3.021   5.015  1.2856  1.6615  2.6198
 2352SOL    HW218516   2.018   3.169   5.016  1.0267 -0.2720  0.1435
 2353SOL     OW18517   3.903   3.342  13.312 -0.1734  0.0234  0.3336
 2353SOL    HW118518   3.849   3.290  13.253 -0.8301 -1.2391  2.0407
 2353SOL    HW218519   3.965   3.385  13.253 -0.0395 -3.4415 -2.0289
 2354SOL     OW18520   3.816   0.940   1.185  0.7016 -0.2579  0.1140
 2354SOL    HW118521   3.780   1.026   1.210  1.6923 -0.0695  0.8804
 2354SOL    HW218522   3.736   0.889   1.175 -1.6119  3.3320  0.0790
 2355SOL     OW18523   1.486   1.907   3.717 -0.1660  0.2245  0.7972
 2355SOL    HW118524   1.543   1.879   3.645  0.7019  1.5817  0.9532
 2355SOL    HW218525   1.552   1.939   3.780 -0.0399  0.5787  0.4878
 2356SOL     OW18526   1.162   4.146   6.377  0.4075 -0.2014  0.0562
 2356SOL    HW118527   1.166   4.221   6.317 -0.4488  0.4507  0.8048
 2356SOL    HW218528   1.102   4.091   6.328 -0.2387  0.7636 -0.2313
 2357SOL     OW18529   0.264   4.197   0.918 -0.3880  0.3327 -0.3961
 2357SOL    HW118530   0.205   4.124   0.900 -0.2488  0.7117 -2.3817
 2357SOL    HW218531   0.345   4.154   0.889  0.7800  2.3791 -0.1868
 2358SOL     OW18532   0.696   0.078  12.162  0.4226 -0.1093 -0.0965
 2358SOL    HW118533   0.722   4.717  12.125 -2.8184 -0.5685 -1.3662
 2358SOL    HW218534   0.779   0.125  12.165  0.3868  0.0359 -1.1375
 2359SOL     OW18535   2.869   3.305  17.069 -0.2729  0.2648  0.4942
 2359SOL    HW118536   2.927   3.339  17.137  0.0054  0.4801  0.1506
 2359SOL    HW218537   2.823   3.384  17.042  0.2651  1.0294  1.8255
 2360SOL     OW18538   1.482   3.128   0.272 -0.5204  0.5181  0.7105
 2360SOL    HW118539   1.455   3.192   0.338 -0.3555  2.6662 -1.3132
 2360SOL    HW218540   1.417   3.062   0.295  2.1076 -2.2812  0.1149
 2361SOL     OW18541   2.883   2.848   9.376 -0.2029  0.0772  0.4393
 2361SOL    HW118542   2.846   2.917   9.431  0.5856  1.1462 -0.3861
 2361SOL    HW218543   2.976   2.855   9.398  0.2432 -0.4017 -1.3333
 2362SOL     OW18544   2.373   4.565   6.592 -0.1781 -0.0947  0.1706
 2362SOL    HW118545   2.460   4.602   6.609  0.4883 -1.8147  0.5395
 2362SOL    HW218546   2.387   4.501   6.522 -1.0726 -0.9187  0.7588
 2363SOL     OW18547   0.016   4.217   7.237 -0.1818 -0.0889  0.3868
 2363SOL    HW118548   4.723   4.283   7.304  1.6842  0.1220  0.6258
 2363SOL    HW218549   0.111   4.224   7.238 -0.1169 -0.5081 -1.5331
 2364SOL     OW18550   1.714   0.279   4.144 -0.0271 -0.0497 -0.1060
 2364SOL    HW118551   1.630   0.282   4.190  0.5071 -0.4989  0.8893
 2364SOL    HW218552   1.697   0.200   4.094 -1.2703  1.1463 -1.5593
 2365SOL     OW18553   3.101   2.090  16.751 -0.0695 -0.0916  0.4087
 2365SOL    HW118554   3.086   1.996  16.749  1.2101 -0.2830 -0.3942
 2365SOL    HW218555   3.161   2.098  16.825  2.6123  0.7475 -1.8159
 2366SOL     OW18556   0.781   0.079   5.070  0.0075 -0.3243 -0.1246
 2366SOL    HW118557   0.876   0.094   5.067 -0.2139  1.6276  2.3213
 2366SOL    HW218558   0.771   4.711   5.094  1.6577 -0.5823 -0.4160
 2367SOL     OW18559   3.680   1.195   9.065 -0.0757 -0.0053 -0.4089
 2367SOL    HW118560   3.713   1.108   9.090 -2.0601 -0.1064  1.8446
 2367SOL    HW218561   3.587   1.176   9.052  0.0535  0.3509 -1.8894
 2368SOL     OW18562   0.031   0.089   2.591 -0.5109  0.0166  0.2055
 2368SOL    HW118563   0.045   4.720   2.570 -1.1158 -1.0008  4.2662
 2368SOL    HW218564   4.660   0.090   2.601 -0.6729  1.1613 -1.4268
 2369SOL     OW18565   4.455   4.072  12.829 -0.4343  0.0098 -0.1346
 2369SOL    HW118566   4.434   4.070  12.922  0.5072 -2.0098  0.0161
 2369SOL    HW218567   4.386   4.024  12.783 -0.1410 -0.1291 -0.4300
 2370SOL     OW18568   0.333   3.498   2.195  0.1793  0.1741 -0.8695
 2370SOL    HW118569   0.420   3.476   2.230 -0.7594  0.3669  1.5864
 2370SOL    HW218570   0.362   3.524   2.107 -0.3395  1.7844 -0.5422
 2371SOL     OW18571   4.576   4.724   9.535  0.6378 -0.3681  0.1173
 2371SOL    HW118572   4.589   4.652   9.473 -2.6720  0.9054 -2.0528
 2371SOL    HW218573   4.656   0.002   9.586 -0.2139 -2.5526  1.5529
 2372SOL     OW18574   1.986   1.682  17.413 -0.5594 -0.5660  0.4108
 2372SOL    HW118575   1.911   1.738  17.429 -0.5875 -0.4852  0.0079
 2372SOL    HW218576   1.947   1.595  17.424  1.4215 -1.5686 -0.3725
 2373SOL     OW18577   4.680   2.774   8.548 -0.2194  0.5629  0.2958
 2373SOL    HW118578   4.714   2.852   8.592 -1.4343  1.1541  0.1514
 2373SOL    HW218579   4.602   2.816   8.513 -2.2551 -2.3824  1.3468
 2374SOL     OW18580   3.149   1.702   5.455 -0.4742 -0.0366  0.1388
 2374SOL    HW118581   3.175   1.664   5.539  2.0478 -2.0256 -1.5557
 2374SOL    HW218582   3.089   1.772   5.482  0.0525  0.6396 -0.4289
 2375SOL     OW18583   0.225   1.516   2.979  0.6070 -0.0210 -0.5774
 2375SOL    HW118584   0.207   1.544   2.890 -0.9812 -0.1404 -0.2990
 2375SOL    HW218585   0.152   1.554   3.029  0.0355 -2.4812  0.4918
 2376SOL     OW18586   4.530   3.725   1.332 -0.2924 -0.1073 -0.1876
 2376SOL    HW118587   4.502   3.651   1.386 -1.8484 -0.7833 -1.8892
 2376SOL    HW218588   4.480   3.795   1.376 -1.6344 -1.5820  0.6492
 2377SOL     OW18589   1.149   4.176   3.735 -0.2693  0.5098  0.3323
 2377SOL    HW118590   1.088   4.106   3.713 -1.2968  1.8168 -0.9763
 2377SOL    HW218591   1.224   4.117   3.745 -0.3799  0.0791 -1.3810
 2378SOL     OW18592   3.540   0.337   7.263  0.0077  0.6316 -0.1102
 2378SOL    HW118593   3.447   0.338   7.243 -0.2631 -0.0787  1.0702
 2378SOL    HW218594   3.553   0.431   7.274 -1.0671  0.7302  0.2834
 2379SOL     OW18595   4.190   0.558   6.858  0.1992 -0.3854 -0.1774
 2379SOL    HW118596   4.116   0.617   6.844  0.1531  0.0305  1.8149
 2379SOL    HW218597   4.266   0.611   6.834  0.0036  0.8063  1.8086
 2380SOL     OW18598   0.404   3.214   9.022 -1.3214  0.5298 -0.2282
 2380SOL    HW118599   0.393   3.308   9.012  0.6471  0.9150  1.1863
 2380SOL    HW218600   0.350   3.182   8.950 -0.0983 -0.8759 -0.5401
 2381SOL     OW18601   0.820   0.382  17.304  0.7218 -0.5783 -0.4212
 2381SOL    HW118602   0.760   0.383  17.229  0.6205 -0.3089 -0.3391
 2381SOL    HW218603   0.823   0.287  17.309 -1.5812 -0.5921  0.4624
 2382SOL     OW18604   4.692   1.041   5.709  0.5141 -0.0149 -0.0594
 2382SOL    HW118605   4.670   1.080   5.625  1.2424  0.2257 -0.1367
 2382SOL    HW218606   4.666   1.110   5.770  0.6466 -0.4628  0.5170
 2383SOL     OW18607   0.717   3.455   8.556  0.3731 -0.6986 -0.1539
 2383SOL    HW118608   0.767   3.533   8.580 -1.9050  1.5508 -2.6359
 2383SOL    HW218609   0.737   3.401   8.632  0.3210 -1.3378 -0.5888
 2384SOL     OW18610   0.615   4.376   2.861 -0.1950  0.3324 -0.1029
 2384SOL    HW118611   0.598   4.364   2.955  1.9312  1.2397  0.4006
 2384SOL    HW218612   0.526   4.356   2.831 -0.5440  1.8469 -0.0887
 2385SOL     OW18613   0.072   1.244   7.665 -0.4189  0.0877  0.0023
 2385SOL    HW118614   0.092   1.212   7.752  1.5430 -2.0103 -1.2198
 2385SOL    HW218615   0.008   1.312   7.684 -0.4167  0.3928 -1.0935
 2386SOL     OW18616   1.133   0.479   4.561  0.3946 -0.4023  0.4671
 2386SOL    HW118617   1.175   0.399   4.593  0.7925  0.1501  1.3306
 2386SOL    HW218618   1.183   0.481   4.480  3.0092 -2.3195  2.0379
 2387SOL     OW18619   0.277   3.929   6.209  0.0246  0.3300  0.0962
 2387SOL    HW118620   0.322   4.013   6.202  0.6891  0.0835  1.3974
 2387SOL    HW218621   0.187   3.958   6.223 -0.4570 -0.1848 -1.8991
 2388SOL     OW18622   0.311   4.192  17.298 -0.6099  0.5950 -0.3508
 2388SOL    HW118623   0.300   4.194  17.203 -0.0504 -0.7721 -0.4501
 2388SOL    HW218624   0.226   4.220  17.330 -0.1489 -0.2027  1.5491
 2389SOL     OW18625   2.660   2.083  10.047 -0.1993  0.2386  0.5274
 2389SOL    HW118626   2.677   2.052   9.959 -0.6242 -1.2502  0.9602
 2389SOL    HW218627   2.635   2.010  10.104  2.2199 -0.7742  0.2680
 2390SOL     OW18628   1.062   2.320  13.312 -0.5690 -0.6070 -0.8797
 2390SOL    HW118629   1.005   2.339  13.386  0.5150 -0.2510 -0.1331
 2390SOL    HW218630   1.052   2.226  13.300  0.5643 -0.5863 -2.0176
 2391SOL     OW18631   2.547   3.107   4.099  0.1998 -0.2272  0.1561
 2391SOL    HW118632   2.577   3.192   4.064  1.8222  0.5137  3.3586
 2391SOL    HW218633   2.625   3.077   4.145 -0.5760 -1.3720  0.7138
 2392SOL     OW18634   3.314   1.379   7.669  0.1746 -0.5489 -0.9465
 2392SOL    HW118635   3.249   1.351   7.734  2.0734 -1.9995  0.3305
 2392SOL    HW218636   3.363   1.442   7.722  0.5325  1.5055 -3.7500
 2393SOL     OW18637   1.447   1.952   8.631  0.4716  0.1989 -0.6692
 2393SOL    HW118638   1.405   1.896   8.565 -1.5063  1.1748 -0.2377
 2393SOL    HW218639   1.503   1.883   8.666  1.5510  0.3896 -2.0562
 2394SOL     OW18640   2.098   3.274   7.181 -0.6447  0.5061 -0.6822
 2394SOL    HW118641   2.116   3.218   7.106  2.4120 -1.1632  1.3404
 2394SOL    HW218642   2.142   3.225   7.250  0.0333  0.8436 -0.8808
 2395SOL     OW18643   0.020   3.481  15.219  0.0999  0.2697  0.0055
 2395SOL    HW118644   0.025   3.565  15.174 -3.2597 -0.3078 -1.4442
 2395SOL    HW218645   4.714   3.513  15.305 -0.2720  0.3969 -0.1717
 2396SOL     OW18646   0.378   2.589   2.220  0.7131  0.2750 -0.6824
 2396SOL    HW118647   0.465   2.577   2.182  1.1257  2.0508 -0.2815
 2396SOL    HW218648   0.338   2.503   2.234 -0.6032  0.6932 -1.9132
 2397SOL     OW18649   1.473   4.166   5.977  0.1619  0.4273 -0.2384
 2397SOL    HW118650   1.517   4.083   5.958 -1.1196  0.0399 -1.4529
 2397SOL    HW218651   1.446   4.190   5.889  1.8622 -0.4840 -1.0007
 2398SOL     OW18652   1.795   4.043   0.594 -0.7731  0.2071 -0.0039
 2398SOL    HW118653   1.870   4.073   0.646 -0.8172  1.0939 -0.4589
 2398SOL    HW218654   1.794   4.099   0.517  3.0417  1.9947  1.2396
 2399SOL     OW18655   3.299   2.357   1.830 -0.1131  0.5317  0.0895
 2399SOL    HW118656   3.251   2.419   1.884  0.4152 -0.1742  1.3594
 2399SOL    HW218657   3.234   2.336   1.763 -1.2335 -0.2692  1.4233
 2400SOL     OW18658   3.049   4.619   7.150  0.3381  0.0338 -0.1215
 2400SOL    HW118659   3.046   4.681   7.077  0.7517  1.5395  1.1449
 2400SOL    HW218660   3.062   4.680   7.222 -0.3978  0.1450 -0.0786
 2401SOL     OW18661   2.439   2.784  11.003 -0.0731 -0.2198  0.1605
 2401SOL    HW118662   2.390   2.854  11.048 -0.3644 -0.5273  0.3192
 2401SOL    HW218663   2.362   2.738  10.969  0.2170 -0.7940  0.2993
 2402SOL     OW18664   1.187   0.882   3.915 -0.4468  0.4811 -0.3448
 2402SOL    HW118665   1.245   0.956   3.899 -1.5048  1.2488 -0.5960
 2402SOL    HW218666   1.241   0.803   3.918 -0.1246  0.7342  0.5558
 2403SOL     OW18667   2.890   3.019   6.603  0.4471 -0.2505  0.4745
 2403SOL    HW118668   2.952   3.091   6.606  0.7709 -0.4491 -1.8243
 2403SOL    HW218669   2.823   3.041   6.668 -1.7050 -2.8261 -0.8818
 2404SOL     OW18670   2.734   3.359   6.244  0.1170 -0.3147 -0.1024
 2404SOL    HW118671   2.670   3.397   6.183 -0.0901  1.4165  1.1988
 2404SOL    HW218672   2.694   3.395   6.323  0.1119 -2.2120  0.7599
 2405SOL     OW18673   0.548   2.651  13.821 -0.1006  0.0183  0.3532
 2405SOL    HW118674   0.621   2.674  13.878  1.7504  0.7491 -2.3354
 2405SOL    HW218675   0.584   2.614  13.740 -0.0178  2.5383 -0.7551
 2406SOL     OW18676   1.789   2.413   2.834  0.0693  0.3159  0.1532
 2406SOL    HW118677   1.866   2.398   2.889  0.1122 -1.8437 -0.4763
 2406SOL    HW218678   1.828   2.470   2.769  0.9718 -1.5810 -0.9668
 2407SOL     OW18679   3.219   2.579   1.982  0.4205  0.1168  0.6779
 2407SOL    HW118680   3.204   2.647   1.917  2.2618  0.1879  0.3102
 2407SOL    HW218681   3.139   2.587   2.034 -0.2790  0.6556 -0.4936
 2408SOL     OW18682   4.683   2.823   2.643  0.2866 -0.3966  0.5919
 2408SOL    HW118683   0.040   2.780   2.614  0.3623 -0.2210  0.5426
 2408SOL    HW218684   4.701   2.910   2.608  0.8370 -1.3647 -1.5059
 2409SOL     OW18685   2.112   1.719  12.801 -0.0073 -0.0826  0.1908
 2409SOL    HW118686   2.082   1.639  12.757  1.3516 -0.3900 -0.1754
 2409SOL    HW218687   2.118   1.697  12.894  0.3164  0.6182  0.3296
 2410SOL     OW18688   1.141   3.663   2.393  0.4710  0.2274 -0.2760
 2410SOL    HW118689   1.051   3.630   2.394  0.0793  1.3740  3.0489
 2410SOL    HW218690   1.141   3.730   2.324 -1.1482  0.6673  0.1296
 2411SOL     OW18691   4.220   4.628   2.852 -0.9004 -0.3902 -0.5899
 2411SOL    HW118692   4.215   4.568   2.926 -2.1310  0.9270  0.3965
 2411SOL    HW218693   4.128   4.632   2.824 -0.5498  3.2107 -1.1986
 2412SOL     OW18694   2.295   2.447   2.306 -0.0412 -0.1041 -0.3603
 2412SOL    HW118695   2.375   2.437   2.358 -1.4289  2.4727  2.2510
 2412SOL    HW218696   2.262   2.362   2.276  1.5427 -1.3286  1.3610
 2413SOL     OW18697   4.052   1.016  14.266  0.0478 -0.7408 -0.0404
 2413SOL    HW118698   4.040   1.037  14.358  1.7540 -0.3715  0.0943
 2413SOL    HW218699   3.986   1.072  14.225  1.0997 -0.3693 -1.2392
 2414SOL     OW18700   1.106   4.417   4.852 -0.8733  0.0258  0.2506
 2414SOL    HW118701   1.112   4.491   4.791  2.2369 -1.4841 -1.3213
 2414SOL    HW218702   1.190   4.370   4.851 -1.0123 -0.2231 -0.0584
 2415SOL     OW18703   4.438   1.660   5.304 -0.0927 -0.0986 -0.3073
 2415SOL    HW118704   4.510   1.711   5.268 -0.4757  0.8741  0.2980
 2415SOL    HW218705   4.448   1.696   5.392 -0.6169 -1.3800  0.2833
 2416SOL     OW18706   3.495   3.369   3.238  0.4804 -0.2311 -0.2283
 2416SOL    HW118707   3.502   3.390   3.145  4.4928  1.6334  0.4739
 2416SOL    HW218708   3.477   3.455   3.276 -1.4230 -0.5043 -0.5239
 2417SOL     OW18709   0.382   3.969  16.937  0.2431  0.0365  0.0163
 2417SOL    HW118710   0.470   3.967  16.899 -1.4345 -1.7382 -3.7429
 2417SOL    HW218711   0.346   4.056  16.921 -0.5638 -0.8143 -2.7568
 2418SOL     OW18712   1.580   3.781  17.247  0.1475 -0.3193 -0.2502
 2418SOL    HW118713   1.645   3.834  17.292  1.1544 -1.5154 -0.2951
 2418SOL    HW218714   1.573   3.838  17.170 -3.4299 -1.7344 -0.9845
 2419SOL     OW18715   1.235   3.751   1.593 -0.2081  0.4199 -0.1026
 2419SOL    HW118716   1.302   3.709   1.539 -1.1589 -0.1113 -0.8740
 2419SOL    HW218717   1.235   3.841   1.560 -3.3537  0.6078  0.4119
 2420SOL     OW18718   1.606   3.429   2.370  0.3022  0.4237  0.0285
 2420SOL    HW118719   1.560   3.349   2.344  0.7426  0.0387  0.4130
 2420SOL    HW218720   1.549   3.501   2.345  1.3478  0.7105 -1.4781
 2421SOL     OW18721   3.846   1.158  16.873  0.7674 -0.2781  0.1675
 2421SOL    HW118722   3.865   1.249  16.848 -3.7871  0.5710 -0.2534
 2421SOL    HW218723   3.838   1.169  16.968  3.2659  2.0078  0.1122
 2422SOL     OW18724   0.449   3.517  12.863  0.0679 -0.0440 -0.6819
 2422SOL    HW118725   0.541   3.491  12.870  0.0400  0.6389  2.4297
 2422SOL    HW218726   0.400   3.441  12.894  0.4658 -0.8356 -2.0085
 2423SOL     OW18727   1.049   3.545   7.902  0.5657 -0.5985  0.4659
 2423SOL    HW118728   1.078   3.571   7.814  3.1547 -0.7240  1.2921
 2423SOL    HW218729   1.116   3.585   7.957 -1.1346  1.7391  0.8205
 2424SOL     OW18730   0.511   3.020   7.698 -0.4628  0.6758 -0.1080
 2424SOL    HW118731   0.497   3.109   7.730 -1.0580  0.5010  0.1126
 2424SOL    HW218732   0.499   3.016   7.604 -2.8796  1.8275  0.1672
 2425SOL     OW18733   4.274   3.769   3.027 -0.3786  0.4600  0.1298
 2425SOL    HW118734   4.238   3.857   3.031 -1.1863  0.0699  1.7104
 2425SOL    HW218735   4.193   3.718   3.021  1.0852 -1.6210 -2.3276
 2426SOL     OW18736   2.694   3.296   1.904  0.1853 -0.3236 -0.1012
 2426SOL    HW118737   2.768   3.357   1.892  0.7562 -0.9633  0.1408
 2426SOL    HW218738   2.638   3.325   1.832 -0.2571 -0.0498  0.3593
 2427SOL     OW18739   2.428   1.517   5.548  0.9819 -0.3626  0.3757
 2427SOL    HW118740   2.423   1.450   5.617 -4.2099  1.5522  1.8421
 2427SOL    HW218741   2.418   1.466   5.468 -0.4925  1.3885 -0.5684
 2428SOL     OW18742   3.520   2.872   5.759  0.0079  0.1772 -0.2141
 2428SOL    HW118743   3.586   2.922   5.808 -1.0835  1.1120  0.2894
 2428SOL    HW218744   3.467   2.837   5.830 -1.0950 -0.4678 -1.3649
 2429SOL     OW18745   0.027   1.028  17.440  0.0446  0.1567 -0.0832
 2429SOL    HW118746   4.670   1.051  17.394 -0.5286  0.5941  1.1420
 2429SOL    HW218747   0.048   1.106  17.490  1.8656 -0.8464  0.6958
 2430SOL     OW18748   2.022   3.374   5.368  0.4368 -0.1713  0.0190
 2430SOL    HW118749   2.010   3.289   5.325 -0.7265  0.7049 -1.3925
 2430SOL    HW218750   2.112   3.399   5.351  0.5882 -1.5480 -1.1984
 2431SOL     OW18751   2.038   1.769   4.577  0.0766  0.3231  0.1294
 2431SOL    HW118752   2.042   1.676   4.596  1.4982  0.0877 -1.2818
 2431SOL    HW218753   2.121   1.791   4.535 -0.6770 -0.1093 -1.6020
 2432SOL     OW18754   2.459   0.149   2.373 -0.2264 -0.3053  0.7816
 2432SOL    HW118755   2.372   0.118   2.397 -0.6928 -0.1027 -0.6457
 2432SOL    HW218756   2.514   0.071   2.369 -0.2134 -0.4100  3.0793
 2433SOL     OW18757   1.672   1.531   3.657  0.4019 -0.0208 -0.0160
 2433SOL    HW118758   1.739   1.463   3.661 -0.0676 -0.4941 -0.0852
 2433SOL    HW218759   1.714   1.580   3.586  0.4105  0.8641  0.6107
 2434SOL     OW18760   2.974   4.670  16.739  0.2697 -0.6426 -0.3036
 2434SOL    HW118761   2.949   4.687  16.830 -2.5469 -0.2549 -1.1372
 2434SOL    HW218762   2.952   4.577  16.750  0.4710 -0.5962  0.5473
 2435SOL     OW18763   3.829   2.356  15.607  0.9084 -0.2418 -0.4076
 2435SOL    HW118764   3.760   2.312  15.558  0.1629  0.7722 -0.2598
 2435SOL    HW218765   3.901   2.354  15.544 -0.5587 -1.0573 -2.0768
 2436SOL     OW18766   1.249   3.947   2.334 -0.1233  0.3630 -0.7704
 2436SOL    HW118767   1.172   3.961   2.389 -1.9086  3.4665 -4.0504
 2436SOL    HW218768   1.222   3.992   2.254  1.4583  0.9130 -1.0034
 2437SOL     OW18769   0.032   1.700   4.014 -0.1199 -0.4707  0.4364
 2437SOL    HW118770   4.704   1.768   3.971  0.5854 -1.3531 -1.8202
 2437SOL    HW218771   0.014   1.629   3.952  0.6317  0.2773 -0.6333
 2438SOL     OW18772   0.281   0.803   5.850 -0.1430 -0.2496 -0.5401
 2438SOL    HW118773   0.365   0.842   5.827  0.1811 -0.7145 -0.1404
 2438SOL    HW218774   0.294   0.792   5.944 -0.5210  1.1871 -0.3122
 2439SOL     OW18775   0.833   2.148  13.348  0.2126  0.2429  0.1239
 2439SOL    HW118776   0.903   2.109  13.401  1.0595  0.9419 -0.4933
 2439SOL    HW218777   0.762   2.093  13.381  0.5186 -1.1492 -1.5270
 2440SOL     OW18778   3.777   0.183  11.918  0.6532 -0.0594  0.4106
 2440SOL    HW118779   3.849   0.168  11.979  0.0338 -1.0677  0.9138
 2440SOL    HW218780   3.699   0.160  11.970  1.7621 -0.7809  1.7548
 2441SOL     OW18781   0.965   3.374   3.483 -0.2303  0.0134  0.3418
 2441SOL    HW118782   0.964   3.318   3.406  1.0267  1.0545 -0.4346
 2441SOL    HW218783   1.060   3.383   3.487  0.2746 -4.3196 -2.6531
 2442SOL     OW18784   3.906   1.483   7.189  0.0100 -0.3241  0.2494
 2442SOL    HW118785   3.874   1.476   7.279  2.3549 -0.7500  1.0652
 2442SOL    HW218786   3.977   1.419   7.187  0.3037  0.0615 -1.6718
 2443SOL     OW18787   2.222   2.298   3.601  0.2094 -0.1664 -0.4030
 2443SOL    HW118788   2.249   2.283   3.692  3.0868  0.6017 -1.1373
 2443SOL    HW218789   2.300   2.341   3.568  0.6764  0.2644  1.2742
 2444SOL     OW18790   3.019   4.212   1.679  0.2429 -0.1617 -0.3168
 2444SOL    HW118791   2.939   4.202   1.627  0.5430  0.2797 -0.8702
 2444SOL    HW218792   2.993   4.166   1.758  0.6971  0.7149  0.3459
 2445SOL     OW18793   1.943   3.247   7.783 -0.2937 -0.0312  0.0519
 2445SOL    HW118794   1.851   3.227   7.761  0.5860 -1.7349 -2.1874
 2445SOL    HW218795   1.949   3.200   7.866  3.8394  2.1619  0.9608
 2446SOL     OW18796   0.492   1.568   8.667  0.2168  0.0494  0.0664
 2446SOL    HW118797   0.495   1.479   8.632  0.4520  0.7158 -1.5912
 2446SOL    HW218798   0.398   1.578   8.654 -0.0059 -0.2958  1.3875
 2447SOL     OW18799   3.913   3.278   8.554  0.0814  0.7529  0.1054
 2447SOL    HW118800   3.988   3.328   8.523  1.5386 -1.8479 -0.5577
 2447SOL    HW218801   3.854   3.353   8.549 -0.4645  0.2462 -0.8922
 2448SOL     OW18802   1.757   3.839   6.918 -0.6762  0.0226  0.3212
 2448SOL    HW118803   1.845   3.862   6.950 -0.0623 -0.6337 -0.9087
 2448SOL    HW218804   1.764   3.745   6.904  0.1968  0.2105 -0.5286
 2449SOL     OW18805   3.123   4.159   7.127 -0.5157 -0.1772  0.1347
 2449SOL    HW118806   3.069   4.235   7.104 -2.4078 -1.5373  0.0822
 2449SOL    HW218807   3.206   4.171   7.081 -0.5012 -1.2585 -0.1178
 2450SOL     OW18808   1.252   1.196  16.878 -0.0164  0.0743  0.1113
 2450SOL    HW118809   1.316   1.196  16.949 -0.5726  1.0999  0.6164
 2450SOL    HW218810   1.172   1.163  16.919 -0.4952  0.6808 -0.3297
 2451SOL     OW18811   1.519   4.527   8.208 -0.1410  0.6193  0.2244
 2451SOL    HW118812   1.602   4.559   8.244  0.3826  0.4474 -0.8302
 2451SOL    HW218813   1.475   4.612   8.211 -2.9924 -0.8310 -0.0164
 2452SOL     OW18814   2.090   3.964   7.856  0.1735  0.0761  0.1601
 2452SOL    HW118815   2.114   3.873   7.842  1.8843  0.0790  3.0735
 2452SOL    HW218816   2.116   4.003   7.773  1.4272  0.4884  0.7441
 2453SOL     OW18817   3.258   0.665   0.681  0.5080  0.2718 -0.3549
 2453SOL    HW118818   3.282   0.613   0.758  2.4523  0.1166 -1.0688
 2453SOL    HW218819   3.328   0.631   0.625  0.1697 -1.2576  0.1427
 2454SOL     OW18820   3.636   1.673   5.170 -0.2281 -0.1867  0.4807
 2454SOL    HW118821   3.721   1.715   5.154 -0.7054  0.8727  0.7598
 2454SOL    HW218822   3.622   1.721   5.251  0.1172  2.7421 -1.1939
 2455SOL     OW18823   3.143   2.257   8.530  0.4807 -0.4272 -0.1607
 2455SOL    HW118824   3.224   2.251   8.582 -0.3210  0.7448  1.2116
 2455SOL    HW218825   3.162   2.278   8.439 -3.3234 -2.2263 -1.3202
 2456SOL     OW18826   3.030   1.522  15.815 -0.7404 -0.0587 -0.7616
 2456SOL    HW118827   3.118   1.560  15.820 -1.7101  2.0122  0.3724
 2456SOL    HW218828   3.052   1.430  15.833 -1.4691 -0.0155  0.3356
 2457SOL     OW18829   2.557   3.083   0.330  0.4088 -0.5630  0.0397
 2457SOL    HW118830   2.639   3.045   0.298  0.7422  0.8737 -0.8130
 2457SOL    HW218831   2.589   3.173   0.329 -0.1651 -0.3389  1.7562
 2458SOL     OW18832   4.048   1.600   9.159  0.0147 -0.1604  0.0516
 2458SOL    HW118833   4.000   1.608   9.242  0.2890 -0.0284  0.1993
 2458SOL    HW218834   3.974   1.624   9.104 -2.0689 -0.3164  2.7801
 2459SOL     OW18835   2.117   3.571  10.241 -0.3397  0.0516  0.0638
 2459SOL    HW118836   2.148   3.551  10.329  1.0699  0.1009 -0.4194
 2459SOL    HW218837   2.027   3.539  10.233  0.2134 -1.2811 -0.7709
 2460SOL     OW18838   2.317   3.581   8.430 -0.2082 -0.3219  0.1868
 2460SOL    HW118839   2.316   3.584   8.335 -1.6430 -2.0530  0.1538
 2460SOL    HW218840   2.257   3.655   8.445 -0.1072 -0.1061 -0.4816
 2461SOL     OW18841   1.588   4.503   2.196  0.4778  0.2154 -0.0581
 2461SOL    HW118842   1.512   4.463   2.239  0.6793  1.5158  1.4948
 2461SOL    HW218843   1.552   4.509   2.107  0.2383 -1.7758 -0.0953
 2462SOL     OW18844   0.375   3.344  12.524 -0.2631  0.0747 -0.3010
 2462SOL    HW118845   0.306   3.359  12.589  0.9266 -0.9124  1.1919
 2462SOL    HW218846   0.399   3.433  12.496 -0.4261 -0.0905 -0.9731
 2463SOL     OW18847   0.887   3.836   4.339 -0.0105  0.0662 -0.3980
 2463SOL    HW118848   0.872   3.841   4.245 -0.3650  2.6160 -0.2177
 2463SOL    HW218849   0.950   3.906   4.357  0.8558 -1.3114  2.0506
 2464SOL     OW18850   3.721   2.371   9.128  0.2093  0.0279 -0.2367
 2464SOL    HW118851   3.645   2.361   9.185 -0.0637  2.2829 -0.1767
 2464SOL    HW218852   3.677   2.381   9.043  2.9710 -0.9784 -1.8127
 2465SOL     OW18853   1.661   2.696   6.013  0.7257  0.0480 -0.5362
 2465SOL    HW118854   1.688   2.788   6.012 -0.9511  0.5461 -1.3907
 2465SOL    HW218855   1.633   2.680   6.103 -1.8101  0.6894 -1.1914
 2466SOL     OW18856   4.190   2.349   0.106  0.0477 -0.9509 -0.3188
 2466SOL    HW118857   4.098   2.343   0.082  0.4218 -0.3350 -1.9850
 2466SOL    HW218858   4.201   2.444   0.116  0.7289 -1.0407 -0.1884
 2467SOL     OW18859   1.790   2.632   9.411  0.1737  0.1404 -0.2321
 2467SOL    HW118860   1.752   2.715   9.439  2.1117  0.2748  2.0371
 2467SOL    HW218861   1.869   2.634   9.466 -0.7647  1.2390  1.0893
 2468SOL     OW18862   0.770   1.781  14.037 -0.2202 -0.7994 -0.3181
 2468SOL    HW118863   0.806   1.750  13.954  0.3282  0.5375 -0.5919
 2468SOL    HW218864   0.683   1.811  14.010  0.0413  2.3665  2.3348
 2469SOL     OW18865   3.319   1.250   2.173  0.7565  0.3006  0.3589
 2469SOL    HW118866   3.408   1.284   2.175  0.5879  0.6718  1.7554
 2469SOL    HW218867   3.278   1.306   2.239 -0.8823  0.1676 -0.5495
 2470SOL     OW18868   3.307   2.528   5.676  0.2390 -0.0757 -0.0533
 2470SOL    HW118869   3.371   2.551   5.609  1.1152 -0.6176  0.6005
 2470SOL    HW218870   3.282   2.442   5.645  0.7197 -0.6764  1.2038
 2471SOL     OW18871   2.523   4.301   6.907  0.0638 -0.1328  0.1200
 2471SOL    HW118872   2.592   4.359   6.875  0.0045 -1.0258 -1.6131
 2471SOL    HW218873   2.582   4.232   6.936 -0.7326 -0.9335 -0.1533
 2472SOL     OW18874   1.729   3.504   8.013  0.1114  0.5565  0.1309
 2472SOL    HW118875   1.806   3.500   8.069  0.9413  1.3250 -0.9382
 2472SOL    HW218876   1.687   3.588   8.032 -0.7174  0.0222  0.6494
 2473SOL     OW18877   0.308   0.240  12.272 -0.1431  0.2358 -0.0810
 2473SOL    HW118878   0.221   0.201  12.278  0.4407 -0.9907  0.5309
 2473SOL    HW218879   0.356   0.158  12.261  1.1697  0.8319  1.0662
 2474SOL     OW18880   2.230   1.505  11.039 -0.7385 -0.3387 -0.1229
 2474SOL    HW118881   2.148   1.517  10.990 -0.3529  0.7977 -0.4916
 2474SOL    HW218882   2.274   1.451  10.973  1.7086  1.3667  0.1316
 2475SOL     OW18883   4.349   0.133   2.743  0.5981 -0.2185  0.4814
 2475SOL    HW118884   4.313   0.044   2.747  0.6021 -0.3467 -2.3207
 2475SOL    HW218885   4.415   0.124   2.674  0.2322  0.1697  0.0736
 2476SOL     OW18886   2.678   2.909  15.928 -0.1874  0.3778  0.0118
 2476SOL    HW118887   2.664   2.992  15.973 -0.9904 -0.1320  0.6939
 2476SOL    HW218888   2.760   2.929  15.882  0.4273  1.8439  1.7288
 2477SOL     OW18889   3.146   1.150   6.910  0.6084 -0.1662 -0.1454
 2477SOL    HW118890   3.218   1.131   6.970  1.0786  1.5161 -0.1660
 2477SOL    HW218891   3.173   1.098   6.835  0.0037  0.4223 -0.7746
 2478SOL     OW18892   0.856   4.263  16.362 -0.8130  0.0355 -0.1299
 2478SOL    HW118893   0.853   4.167  16.369  2.4039 -0.1437 -1.1006
 2478SOL    HW218894   0.872   4.286  16.454 -0.8610  0.3111 -0.1915
 2479SOL     OW18895   3.477   1.191  11.818 -0.0021  0.1607 -0.3362
 2479SOL    HW118896   3.546   1.206  11.883 -0.9628  0.4099  0.6377
 2479SOL    HW218897   3.414   1.259  11.844 -0.0216  0.4598 -1.1768
 2480SOL     OW18898   1.233   0.326   0.072  0.0012 -0.7079 -0.0090
 2480SOL    HW118899   1.315   0.337   0.119  1.0766 -0.9289 -1.8313
 2480SOL    HW218900   1.174   0.382   0.123  0.9791 -0.2170  0.5722
 2481SOL     OW18901   4.227   2.717   2.730 -0.0080  0.0764  0.7197
 2481SOL    HW118902   4.296   2.657   2.700 -0.2158 -0.8489  2.0907
 2481SOL    HW218903   4.277   2.797   2.747 -1.9021  1.2741  0.6175
 2482SOL     OW18904   3.202   4.320   1.473  0.5926  0.6607  0.2182
 2482SOL    HW118905   3.170   4.401   1.433 -1.8057 -0.4024 -0.0274
 2482SOL    HW218906   3.151   4.311   1.553  2.8639 -1.6257  1.4105
 2483SOL     OW18907   3.908   0.137   7.290  0.0871  0.4202 -0.3528
 2483SOL    HW118908   3.842   0.077   7.327 -0.3828  0.7013 -0.7380
 2483SOL    HW218909   3.990   0.107   7.329 -1.6062 -2.4585  1.1015
 2484SOL     OW18910   2.958   2.437   6.427  0.0711 -0.1820 -0.2094
 2484SOL    HW118911   2.906   2.406   6.353  1.7842  1.8928 -2.2516
 2484SOL    HW218912   2.901   2.428   6.503  0.8576 -0.0953  0.3897
 2485SOL     OW18913   3.834   1.626  12.731 -0.7145 -0.5027 -0.3336
 2485SOL    HW118914   3.876   1.672  12.658 -1.7413 -0.2694 -0.7843
 2485SOL    HW218915   3.850   1.683  12.806  0.4794  0.3339 -1.2270
 2486SOL     OW18916   3.199   4.376   6.034  0.0400  0.3354 -0.5808
 2486SOL    HW118917   3.203   4.450   6.095 -1.3058  0.6744 -0.8873
 2486SOL    HW218918   3.277   4.329   6.063 -0.8447  0.6566  2.2907
 2487SOL     OW18919   4.683   3.091  10.826 -0.1108  0.2191  0.6880
 2487SOL    HW118920   4.719   3.037  10.756  0.4043  0.2132  0.9615
 2487SOL    HW218921   0.032   3.119  10.881  0.7187 -0.5282 -0.0354
 2488SOL     OW18922   3.749   0.398   3.570 -0.4561  0.3312  0.5264
 2488SOL    HW118923   3.709   0.342   3.637 -1.2932 -0.9379 -1.0334
 2488SOL    HW218924   3.671   0.423   3.522  0.4677  1.3287 -0.4381
 2489SOL     OW18925   0.167   1.709   5.331  0.8179  0.0561 -0.5083
 2489SOL    HW118926   0.133   1.684   5.245 -0.8660  2.0477 -0.4070
 2489SOL    HW218927   0.162   1.804   5.324 -0.0964  0.0314 -0.2175
 2490SOL     OW18928   3.393   3.800  11.144 -0.3758  0.0022 -0.5872
 2490SOL    HW118929   3.472   3.823  11.094  1.2521 -0.0539  1.9666
 2490SOL    HW218930   3.360   3.890  11.147 -3.4225 -1.1091 -1.0745
 2491SOL     OW18931   4.326   2.247   7.713 -0.2255  0.2843  0.1190
 2491SOL    HW118932   4.370   2.170   7.678  0.4717  1.4946 -1.6893
 2491SOL    HW218933   4.253   2.198   7.752 -0.2610 -0.0694 -0.3982
 2492SOL     OW18934   3.168   3.857   4.950 -0.1824  0.0665 -0.6285
 2492SOL    HW118935   3.221   3.794   4.902  0.6344 -0.5145  1.0371
 2492SOL    HW218936   3.103   3.806   4.998 -0.6193  0.8450 -0.4036
 2493SOL     OW18937   3.455   4.245  10.657 -0.0058 -0.3598 -0.0087
 2493SOL    HW118938   3.420   4.168  10.613 -0.5967 -1.5635  2.5730
 2493SOL    HW218939   3.398   4.320  10.638  1.5222  0.6262 -0.7340
 2494SOL     OW18940   2.689   3.621   2.496  0.4937  0.0011 -0.3716
 2494SOL    HW118941   2.724   3.588   2.413 -2.3036 -0.5946 -1.2868
 2494SOL    HW218942   2.603   3.651   2.468 -0.1332 -0.2218  1.3063
 2495SOL     OW18943   3.689   2.580   0.957  0.2271 -0.2206  1.1576
 2495SOL    HW118944   3.594   2.585   0.941  0.4659  0.1176 -0.1352
 2495SOL    HW218945   3.695   2.625   1.042 -2.0215 -0.2678  1.3486
 2496SOL     OW18946   3.603   0.050   7.785  0.1872  0.1583  0.1002
 2496SOL    HW118947   3.672   0.073   7.723  2.1791 -0.8942  1.9166
 2496SOL    HW218948   3.553   0.130   7.801 -0.4917 -0.6174  1.8529
 2497SOL     OW18949   3.461   0.872   2.593 -0.2103 -0.6471 -0.2324
 2497SOL    HW118950   3.468   0.779   2.571  0.7368 -1.3648  3.1642
 2497SOL    HW218951   3.488   0.875   2.685  0.3226  0.6247 -0.4308
 2498SOL     OW18952   1.148   2.573   0.735  0.5022 -0.7382 -0.6617
 2498SOL    HW118953   1.092   2.649   0.725  1.5127 -0.0173 -0.8631
 2498SOL    HW218954   1.085   2.503   0.715  0.3248 -0.5258 -0.8322
 2499SOL     OW18955   4.036   2.765   0.047 -0.1532  0.1708 -0.5346
 2499SOL    HW118956   3.942   2.776   0.028 -0.5438 -1.2276  0.5712
 2499SOL    HW218957   4.023   2.744   0.139 -1.5452 -0.9049 -0.9527
 2500SOL     OW18958   3.667   0.474   2.671 -0.0990 -0.0179 -0.2422
 2500SOL    HW118959   3.687   0.393   2.625  1.8956  0.1300  0.3858
 2500SOL    HW218960   3.610   0.520   2.609  0.2625  1.6302  0.6273
 2501SOL     OW18961   1.978   1.750   7.817 -0.1949  0.3179 -0.0284
 2501SOL    HW118962   1.959   1.691   7.890 -0.7101  1.3331  0.6513
 2501SOL    HW218963   2.045   1.702   7.767  0.9719  2.3182 -0.3551
 2502SOL     OW18964   3.849   1.540  15.350 -0.3475 -0.0667  0.1970
 2502SOL    HW118965   3.795   1.497  15.416  0.3530  0.4881  1.1240
 2502SOL    HW218966   3.935   1.517  15.384  0.1356  0.5860 -0.5970
 2503SOL     OW18967   4.255   3.278   8.818  0.3822 -0.7113 -0.1495
 2503SOL    HW118968   4.242   3.188   8.847  2.9659  0.0807  3.3920
 2503SOL    HW218969   4.296   3.314   8.896  0.2725 -0.7042 -0.0945
 2504SOL     OW18970   1.621   1.777   1.707 -0.0740  0.9112 -0.0761
 2504SOL    HW118971   1.565   1.700   1.716 -0.7948  1.2298 -1.7680
 2504SOL    HW218972   1.618   1.800   1.614 -0.2030 -2.3413 -0.8983
 2505SOL     OW18973   3.830   1.009   6.227 -0.0699  0.1267 -0.0410
 2505SOL    HW118974   3.889   0.937   6.204 -1.4148  0.7868 -5.5954
 2505SOL    HW218975   3.750   0.956   6.234 -1.5733  2.2413 -1.3448
 2506SOL     OW18976   3.297   0.163   8.817  0.6016 -0.0178  0.5766
 2506SOL    HW118977   3.366   0.110   8.777  0.1039 -0.7247  0.6636
 2506SOL    HW218978   3.345   0.216   8.880  0.3781 -0.2617  0.9487
 2507SOL     OW18979   1.578   3.827   5.569 -0.5029  0.2136  0.2174
 2507SOL    HW118980   1.629   3.832   5.488 -0.3706  1.4762  0.3871
 2507SOL    HW218981   1.496   3.874   5.552  0.4843  1.5673 -0.7462
 2508SOL     OW18982   1.899   0.309   0.392  0.3423 -0.3483 -0.0774
 2508SOL    HW118983   1.883   0.233   0.447  2.2610 -0.4473  0.3725
 2508SOL    HW218984   1.960   0.356   0.449  0.4695  0.9517 -1.2911
 2509SOL     OW18985   4.325   3.579  14.973  0.5063 -0.4355 -0.6640
 2509SOL    HW118986   4.288   3.499  14.936  1.6354 -1.8561  1.3184
 2509SOL    HW218987   4.418   3.562  14.958  0.0398 -1.4988 -2.3431
 2510SOL     OW18988   2.363   0.934   5.248 -0.7131 -0.6548 -0.3402
 2510SOL    HW118989   2.362   1.018   5.203 -0.5551 -0.3659  0.1911
 2510SOL    HW218990   2.365   0.965   5.338 -1.1966 -1.3338 -0.0892
 2511SOL     OW18991   2.471   3.946  13.107  0.2677  0.0635 -0.4138
 2511SOL    HW118992   2.559   3.918  13.134 -0.3335  0.4986  2.0479
 2511SOL    HW218993   2.442   3.856  13.091  2.5453 -0.5005 -1.3758
 2512SOL     OW18994   2.150   1.199   4.633  0.0402  0.4221 -0.3202
 2512SOL    HW118995   2.132   1.210   4.540 -1.4939 -1.0637 -0.1982
 2512SOL    HW218996   2.166   1.105   4.643  1.8154  0.9502  1.8416
 2513SOL     OW18997   3.857   1.750  14.991 -0.7037  0.1135  0.1376
 2513SOL    HW118998   3.798   1.762  14.917  0.6895  0.4606 -0.9037
 2513SOL    HW218999   3.828   1.672  15.038 -0.2680  0.4622  0.9950
 2514SOL     OW19000   0.194   3.021   7.185  0.0665  0.7472  0.1697
 2514SOL    HW119001   0.111   3.065   7.166 -0.4360 -1.3046 -2.2686
 2514SOL    HW219002   0.247   3.032   7.106  0.0268  0.9777  0.1761
 2515SOL     OW19003   4.492   4.541   7.876  0.5139  0.3145  0.2899
 2515SOL    HW119004   4.494   4.557   7.970 -1.3662 -3.0173  0.9017
 2515SOL    HW219005   4.399   4.553   7.859  0.6468 -0.6760 -1.1653
 2516SOL     OW19006   0.697   1.960  12.126  0.6910  0.6164  0.0071
 2516SOL    HW119007   0.711   1.876  12.170  0.4444  0.4424 -0.2456
 2516SOL    HW219008   0.670   2.017  12.198 -0.7488 -2.0292  1.5758
 2517SOL     OW19009   0.479   3.445  17.631 -0.1210  0.0081 -0.4284
 2517SOL    HW119010   0.496   3.457   0.028  4.1835  0.4928 -1.2565
 2517SOL    HW219011   0.420   3.520  17.639 -2.6168 -1.7959 -2.0296
 2518SOL     OW19012   3.483   0.143   6.865  0.0745 -0.3427  0.7348
 2518SOL    HW119013   3.454   0.224   6.906  0.3418 -0.1003  0.4355
 2518SOL    HW219014   3.405   0.113   6.817  0.2794 -0.3685  0.4172
 2519SOL     OW19015   0.338   3.239  12.885 -0.1164 -0.7919 -0.0935
 2519SOL    HW119016   0.428   3.244  12.918  0.2281  1.1019 -1.3240
 2519SOL    HW219017   0.315   3.149  12.910 -0.1522  0.0593  2.9771
 2520SOL     OW19018   1.531   0.745   7.708  0.3300  0.5763 -0.0968
 2520SOL    HW119019   1.483   0.698   7.639  0.5370  1.4928 -0.8574
 2520SOL    HW219020   1.568   0.674   7.761 -0.9240 -1.2080 -1.5760
 2521SOL     OW19021   2.819   1.326   4.951  0.2511  0.0693 -0.2902
 2521SOL    HW119022   2.881   1.363   5.013  2.1321 -4.0023  0.2673
 2521SOL    HW219023   2.852   1.377   4.877 -0.3480 -1.2903 -1.4966
 2522SOL     OW19024   0.816   2.226   7.428  0.2561  0.3120  0.3417
 2522SOL    HW119025   0.732   2.183   7.444  0.3633  1.1201  3.0108
 2522SOL    HW219026   0.852   2.162   7.366  2.1650  0.2076  1.5773
 2523SOL     OW19027   0.962   4.310   1.586  0.3983 -0.2361  0.0586
 2523SOL    HW119028   0.935   4.220   1.603  3.5560 -1.2538 -0.4445
 2523SOL    HW219029   0.928   4.355   1.664  0.6506 -1.1228  0.6748
 2524SOL     OW19030   2.836   0.800   0.146 -0.1421  0.1317 -0.3450
 2524SOL    HW119031   2.743   0.804   0.124 -0.4679  0.5804  1.1670
 2524SOL    HW219032   2.870   0.736   0.083 -1.1907 -0.3226 -0.4376
 2525SOL     OW19033   2.278   0.961   2.556 -0.0568 -0.0168 -0.2541
 2525SOL    HW119034   2.319   1.038   2.517  1.0989 -0.3649  0.2709
 2525SOL    HW219035   2.333   0.953   2.633  0.7150 -1.8522 -0.9813
 2526SOL     OW19036   4.410   1.629   2.103  0.0485  0.0368  0.3371
 2526SOL    HW119037   4.433   1.540   2.130  1.7006  0.8924  1.7553
 2526SOL    HW219038   4.471   1.688   2.147 -0.6568 -0.0852  1.4643
 2527SOL     OW19039   3.307   1.996   4.126 -0.0198 -0.1144  0.1839
 2527SOL    HW119040   3.255   1.917   4.141  0.3334 -0.4053 -0.1096
 2527SOL    HW219041   3.275   2.017   4.038  2.0962 -0.0671 -0.5859
 2528SOL     OW19042   2.500   1.131   1.522 -0.5610  0.5443  0.0188
 2528SOL    HW119043   2.425   1.072   1.528  2.6924 -3.5747  0.8161
 2528SOL    HW219044   2.501   1.171   1.609  0.0938  1.4199 -0.3948
 2529SOL     OW19045   1.216   1.849  10.226  0.1135  0.1007 -0.3769
 2529SOL    HW119046   1.300   1.868  10.184  1.3875 -1.5759  1.4583
 2529SOL    HW219047   1.181   1.780  10.170 -0.0660 -0.2214  0.1370
 2530SOL     OW19048   0.285   2.372   5.595  0.2715  0.2440 -0.5185
 2530SOL    HW119049   0.212   2.350   5.538 -0.3586  0.8968  0.0450
 2530SOL    HW219050   0.351   2.380   5.525  1.5367 -2.7634  0.3657
 2531SOL     OW19051   0.351   0.683   7.245 -0.0836  0.0854 -0.4086
 2531SOL    HW119052   0.350   0.740   7.322  1.0471 -0.6886  0.1803
 2531SOL    HW219053   0.297   0.733   7.184 -0.0370 -1.2514 -1.5317
 2532SOL     OW19054   0.891   1.835  11.474  0.4367 -0.1210  0.2031
 2532SOL    HW119055   0.800   1.865  11.473  0.6048  0.4236  2.8317
 2532SOL    HW219056   0.916   1.828  11.382 -0.8411 -0.5325 -0.1166
 2533SOL     OW19057   1.240   0.402  17.359 -0.1192  0.0897  0.3266
 2533SOL    HW119058   1.270   0.469  17.297  0.6154 -0.1326  0.4402
 2533SOL    HW219059   1.319   0.386  17.411  0.8291  2.2259 -0.4401
 2534SOL     OW19060   2.531   4.003  11.755 -0.5272 -0.5829 -0.2242
 2534SOL    HW119061   2.469   3.958  11.698 -0.8085 -0.3264 -0.1236
 2534SOL    HW219062   2.614   3.959  11.737 -0.8667 -1.1254 -0.4889
 2535SOL     OW19063   0.161   1.355   4.935  0.3158  0.0409 -0.2249
 2535SOL    HW119064   0.249   1.319   4.926  1.5987  3.3898 -1.2161
 2535SOL    HW219065   0.123   1.339   4.849  0.4595  2.1400 -0.6827
 2536SOL     OW19066   0.815   3.488  12.423 -0.1527  0.3864 -0.1315
 2536SOL    HW119067   0.755   3.545  12.374  2.2259  1.4714 -1.7833
 2536SOL    HW219068   0.762   3.409  12.435 -0.3563  0.4655 -0.4991
 2537SOL     OW19069   3.248   4.046   3.026 -0.0440  0.1738 -0.2365
 2537SOL    HW119070   3.269   4.090   2.944  1.2905 -0.9766 -0.4976
 2537SOL    HW219071   3.340   4.043   3.053 -0.7928  0.4869  2.3728
 2538SOL     OW19072   2.610   3.279   3.590 -0.6209 -0.0413  0.3705
 2538SOL    HW119073   2.634   3.341   3.659  0.7945  1.4230 -1.4537
 2538SOL    HW219074   2.625   3.337   3.515  0.5014  0.2429  0.8255
 2539SOL     OW19075   2.803   1.092   4.409 -0.0628 -0.0221  0.2933
 2539SOL    HW119076   2.805   1.008   4.455 -1.6410 -0.4753 -0.4520
 2539SOL    HW219077   2.894   1.096   4.379 -0.0638 -2.7998 -0.0726
 2540SOL     OW19078   3.502   2.541   7.868 -0.0699 -0.3064 -0.1219
 2540SOL    HW119079   3.464   2.623   7.838 -2.0991 -1.0490  0.4350
 2540SOL    HW219080   3.427   2.483   7.885  1.4305 -2.0748  0.4840
 2541SOL     OW19081   1.869   1.722  16.474 -0.0569  0.4475  0.5127
 2541SOL    HW119082   1.946   1.731  16.530  0.4067  1.9870 -0.3939
 2541SOL    HW219083   1.867   1.807  16.430 -4.2777 -0.9435 -2.0969
 2542SOL     OW19084   1.513   2.690  12.709  0.3786  0.0709 -0.6030
 2542SOL    HW119085   1.431   2.661  12.749  0.8721 -0.2595  0.1634
 2542SOL    HW219086   1.500   2.675  12.615  0.2441 -3.6028 -0.0080
 2543SOL     OW19087   2.580   0.836   0.114  0.0835  0.5066 -0.7404
 2543SOL    HW119088   2.511   0.901   0.101  0.2278  0.9301  0.7078
 2543SOL    HW219089   2.533   0.772   0.166  1.1591  1.1614  1.0320
 2544SOL     OW19090   0.914   3.366  11.285  0.4071 -0.2359 -0.3679
 2544SOL    HW119091   0.928   3.401  11.197 -1.0027 -1.4059 -1.0596
 2544SOL    HW219092   0.904   3.271  11.275  0.4748 -0.3794  0.9378
 2545SOL     OW19093   2.499   2.453   4.787 -0.7874  0.4805 -0.2799
 2545SOL    HW119094   2.540   2.378   4.745 -0.8437 -0.8352  1.9729
 2545SOL    HW219095   2.445   2.489   4.717 -1.1477  1.8992  0.7202
 2546SOL     OW19096   1.751   4.062  16.833  0.0531 -0.5690 -0.1542
 2546SOL    HW119097   1.841   4.032  16.818  1.3052  2.6123  0.9924
 2546SOL    HW219098   1.754   4.144  16.785  0.0121 -0.1213  0.6127
 2547SOL     OW19099   3.756   4.277   5.009  0.3671 -0.1580 -0.0147
 2547SOL    HW119100   3.780   4.231   4.929 -0.5212 -2.4905  1.0581
 2547SOL    HW219101   3.697   4.343   4.972  0.7504  0.3133  0.2010
 2548SOL     OW19102   2.680   2.805   3.505  0.4164 -0.2971 -0.1125
 2548SOL    HW119103   2.600   2.768   3.542  0.0715  1.7935  1.2085
 2548SOL    HW219104   2.746   2.769   3.564  0.8590 -0.9512 -0.9975
 2549SOL     OW19105   1.968   1.879   4.958  0.1320 -0.2907  0.4223
 2549SOL    HW119106   2.004   1.791   4.967  1.0451 -0.0118 -0.5071
 2549SOL    HW219107   2.018   1.901   4.879  1.8648 -0.1447  1.5530
 2550SOL     OW19108   0.546   4.567   7.565  0.2963  0.2794  0.5018
 2550SOL    HW119109   0.555   4.477   7.597  0.6876  0.9733  2.3182
 2550SOL    HW219110   0.451   4.579   7.575  0.3810  0.3299  1.2895
 2551SOL     OW19111   4.163   0.961  15.394  0.2114 -0.3720 -0.5020
 2551SOL    HW119112   4.243   1.005  15.423 -0.2773  0.1339  0.0661
 2551SOL    HW219113   4.104   1.036  15.391 -0.6219 -1.0303 -0.8218
 2552SOL     OW19114   4.411   0.696   6.731  0.0827 -0.3779 -0.0013
 2552SOL    HW119115   4.438   0.760   6.665 -2.3525 -1.8150 -2.4169
 2552SOL    HW219116   4.486   0.700   6.790  0.1897 -0.1971 -0.1491
 2553SOL     OW19117   0.097   3.031   7.758  0.3587  0.0847  0.4140
 2553SOL    HW119118   0.159   2.958   7.763  0.9472  0.4985 -0.9132
 2553SOL    HW219119   0.118   3.051   7.667  1.4811 -0.5191  0.5387
 2554SOL     OW19120   4.055   3.078   9.721  0.2555 -0.4667 -0.8545
 2554SOL    HW119121   4.126   3.029   9.678 -0.4181 -0.5039 -1.9116
 2554SOL    HW219122   4.089   3.097   9.808  1.4110  1.3340 -1.6961
 2555SOL     OW19123   3.092   1.055  11.402 -0.4133  0.0021 -0.2339
 2555SOL    HW119124   3.105   0.984  11.464  2.8414  1.1904  0.4419
 2555SOL    HW219125   3.175   1.099  11.382 -0.0617 -0.2172  0.7372
 2556SOL     OW19126   1.073   4.005   2.541 -0.3152  0.9621  0.0320
 2556SOL    HW119127   0.992   3.973   2.502 -0.0451  0.3901 -0.0651
 2556SOL    HW219128   1.069   3.974   2.632 -0.5279  2.4320  0.5158
 2557SOL     OW19129   4.475   1.814   5.823 -0.7317  0.1313 -0.3659
 2557SOL    HW119130   4.474   1.754   5.898  0.3160  0.5606 -0.0133
 2557SOL    HW219131   4.455   1.895   5.870  0.7381  0.4366 -0.2718
 2558SOL     OW19132   0.684   2.722  14.171  0.2020  0.0742 -0.0778
 2558SOL    HW119133   0.719   2.714  14.082  3.5006 -2.8559  1.5193
 2558SOL    HW219134   0.604   2.774  14.160 -0.9744 -1.0949  2.9778
 2559SOL     OW19135   0.900   2.440   8.278  0.0706  0.3305  0.1402
 2559SOL    HW119136   0.898   2.478   8.366 -0.2757 -0.3750  0.4381
 2559SOL    HW219137   0.881   2.347   8.291  0.9106  0.0966 -0.2442
 2560SOL     OW19138   0.611   4.575   5.305 -0.0914 -0.4002  0.2225
 2560SOL    HW119139   0.598   4.483   5.325 -1.7226 -0.5937 -1.7628
 2560SOL    HW219140   0.523   4.591   5.272  0.3457  0.9036 -0.3400
 2561SOL     OW19141   2.997   3.289   5.108 -0.1975 -0.1424 -0.6078
 2561SOL    HW119142   2.959   3.311   5.023  0.8943 -1.5145 -1.4450
 2561SOL    HW219143   3.074   3.237   5.087  1.4026  2.3561 -0.9561
 2562SOL     OW19144   2.106   0.790   7.529 -0.4210 -0.0108 -0.1257
 2562SOL    HW119145   2.133   0.812   7.439  1.3322  0.1447  0.4428
 2562SOL    HW219146   2.183   0.773   7.583 -1.7743  1.9936  2.4022
 2563SOL     OW19147   1.044   0.698   1.734  0.4265 -0.0499 -0.0084
 2563SOL    HW119148   1.090   0.704   1.650  1.8273 -0.1290  0.7718
 2563SOL    HW219149   1.090   0.762   1.787  2.5218 -0.7545 -0.9881
 2564SOL     OW19150   4.174   3.496  14.686 -0.2186  0.2346 -0.2117
 2564SOL    HW119151   4.233   3.421  14.676  0.8349  1.0378 -0.0893
 2564SOL    HW219152   4.106   3.470  14.624 -0.4692  1.6461 -0.5266
 2565SOL     OW19153   3.918   3.573   3.431 -0.6721 -0.5425  0.5461
 2565SOL    HW119154   3.897   3.497   3.377 -0.7763  0.2796 -0.5839
 2565SOL    HW219155   3.885   3.637   3.368  0.9567 -0.9126 -0.6920
 2566SOL     OW19156   2.965   2.775   3.072  0.0740 -0.1151 -0.3885
 2566SOL    HW119157   2.940   2.802   2.984 -0.8250  1.8397  0.4615
 2566SOL    HW219158   3.031   2.837   3.103  1.8895 -0.9429 -2.6170
 2567SOL     OW19159   1.216   2.732   2.265 -0.2546  0.3901  0.0089
 2567SOL    HW119160   1.123   2.749   2.249 -0.1388  2.3924  1.5729
 2567SOL    HW219161   1.226   2.651   2.214 -0.8622 -1.2783  2.5169
 2568SOL     OW19162   2.413   1.179   8.147  0.3438  0.5359 -0.1890
 2568SOL    HW119163   2.415   1.148   8.057  1.9197  1.2514 -0.4016
 2568SOL    HW219164   2.493   1.146   8.190 -1.2209 -2.9004  0.0671
 2569SOL     OW19165   2.191   1.996   2.911 -0.1737  0.1776 -0.2102
 2569SOL    HW119166   2.246   2.071   2.890  0.4438  0.2467  1.6991
 2569SOL    HW219167   2.130   1.984   2.837  1.8474 -0.2083 -1.8127
 2570SOL     OW19168   2.343   2.102   9.891 -0.7157 -0.5044 -0.5527
 2570SOL    HW119169   2.335   2.007   9.881  1.8591 -0.8279  0.4951
 2570SOL    HW219170   2.278   2.130   9.955  2.5523  0.3873  2.4040
 2571SOL     OW19171   4.603   3.705   5.682 -0.1584  0.3692  0.0206
 2571SOL    HW119172   4.555   3.715   5.600  3.0482 -0.8899 -2.0404
 2571SOL    HW219173   4.686   3.749   5.665 -0.2357  0.2221 -0.7368
 2572SOL     OW19174   2.291   0.448   4.780  0.0578 -0.4784 -0.2841
 2572SOL    HW119175   2.196   0.432   4.777  0.1231 -0.9895  0.2535
 2572SOL    HW219176   2.311   0.362   4.742  0.2305 -1.3269  1.6980
 2573SOL     OW19177   0.664   0.791   6.638 -0.7890  0.4692  0.0658
 2573SOL    HW119178   0.693   0.855   6.574  1.5098  0.7399  1.3888
 2573SOL    HW219179   0.742   0.761   6.685 -2.1318 -0.3398  1.8180
 2574SOL     OW19180   2.452   1.600   2.389 -0.6753  0.3073  0.0687
 2574SOL    HW119181   2.429   1.576   2.479  0.2495  0.3960  0.3260
 2574SOL    HW219182   2.398   1.537   2.341  1.1819  1.2101 -3.2117
 2575SOL     OW19183   2.651   3.957  14.065 -0.3302  0.0860  0.0807
 2575SOL    HW119184   2.619   4.018  14.131 -1.8621  0.9005 -1.4206
 2575SOL    HW219185   2.744   3.981  14.064 -0.0924 -0.7940  1.0484
 2576SOL     OW19186   2.782   1.441  16.911  0.4729  0.0668  0.1547
 2576SOL    HW119187   2.704   1.388  16.928 -0.0348  0.9251  0.5119
 2576SOL    HW219188   2.819   1.463  16.996 -0.9635 -1.1020  1.0719
 2577SOL     OW19189   2.791   1.464   8.688  0.3884 -0.0985 -0.3013
 2577SOL    HW119190   2.732   1.536   8.666  2.0487  2.0180  2.1249
 2577SOL    HW219191   2.820   1.438   8.600  0.8126 -2.3471  0.5121
 2578SOL     OW19192   1.966   4.118   0.848 -0.2160  0.6372 -0.6022
 2578SOL    HW119193   1.932   4.030   0.860  0.8459  0.5856  1.9515
 2578SOL    HW219194   1.887   4.167   0.873 -0.6169 -0.1255 -0.3801
 2579SOL     OW19195   0.319   2.415   8.603 -0.0449 -0.4781 -0.0844
 2579SOL    HW119196   0.269   2.495   8.591  1.4558  0.6295  1.0692
 2579SOL    HW219197   0.409   2.446   8.618 -0.3006  0.0846  0.2614
 2580SOL     OW19198   4.432   3.966   4.535 -0.2707 -0.0399  0.3630
 2580SOL    HW119199   4.482   4.036   4.493 -1.4691 -0.1969 -1.2759
 2580SOL    HW219200   4.359   4.005   4.583 -1.7961 -1.8008 -0.5369
 2581SOL     OW19201   3.941   3.098   3.883  0.1945  0.3983  0.6299
 2581SOL    HW119202   4.014   3.094   3.821  0.1970 -1.3809  0.7603
 2581SOL    HW219203   3.991   3.143   3.952 -0.2190 -0.4857  1.4994
 2582SOL     OW19204   1.887   0.647   7.853 -0.4210  0.2670 -0.2989
 2582SOL    HW119205   1.945   0.572   7.838  1.2529  2.0804 -2.8615
 2582SOL    HW219206   1.912   0.707   7.783 -0.8998  1.2802  0.3932
 2583SOL     OW19207   2.428   0.386   7.166  0.5131  0.1078  0.1146
 2583SOL    HW119208   2.354   0.387   7.105 -0.3765 -2.3318  1.1269
 2583SOL    HW219209   2.406   0.299   7.200  3.3562 -0.9393 -0.7794
 2584SOL     OW19210   1.895   2.297   0.077  0.0201 -0.0447 -0.1213
 2584SOL    HW119211   1.954   2.303   0.153  1.1415 -1.3845 -0.8959
 2584SOL    HW219212   1.851   2.382   0.088 -1.5232 -1.0889  1.7913
 2585SOL     OW19213   1.009   1.229   5.192 -0.3949 -0.1152  0.1463
 2585SOL    HW119214   0.982   1.193   5.276 -0.0154  0.2203  0.4117
 2585SOL    HW219215   1.065   1.301   5.223 -0.8373 -1.1607  3.3108
 2586SOL     OW19216   1.677   1.716   2.074 -0.1257  0.1778  0.1307
 2586SOL    HW119217   1.734   1.710   1.997 -0.8024  2.4839 -0.5442
 2586SOL    HW219218   1.712   1.785   2.130  0.4445 -0.8171  1.0045
 2587SOL     OW19219   2.453   2.051   4.753  0.2635 -0.1807 -0.8644
 2587SOL    HW119220   2.436   1.960   4.732 -0.1032 -0.0697 -1.0569
 2587SOL    HW219221   2.475   2.049   4.846 -1.4067  2.1259 -0.3900
 2588SOL     OW19222   1.466   4.527   1.943 -0.2997 -0.3711 -0.4340
 2588SOL    HW119223   1.441   4.617   1.919 -1.4937 -0.3940  0.7064
 2588SOL    HW219224   1.533   4.509   1.877 -0.2389  0.3697 -0.5826
 2589SOL     OW19225   1.909   3.351  10.305 -0.1267  0.1867 -0.2644
 2589SOL    HW119226   1.958   3.372  10.384 -0.5561  1.1403 -0.2466
 2589SOL    HW219227   1.832   3.406  10.323 -1.0670 -0.8555 -1.0466
 2590SOL     OW19228   0.464   0.479  15.632  0.0873  0.3698 -0.0286
 2590SOL    HW119229   0.406   0.412  15.594 -1.1624  2.5016 -1.8868
 2590SOL    HW219230   0.419   0.563  15.632 -0.5964  0.0101 -1.5608
 2591SOL     OW19231   3.669   3.933   3.550 -0.0611 -0.2027  0.4941
 2591SOL    HW119232   3.737   3.870   3.528  1.1809  1.7832 -1.3213
 2591SOL    HW219233   3.626   3.900   3.629 -0.6744  1.5500  0.9160
 2592SOL     OW19234   4.005   2.734   3.716  0.3224 -0.5748  0.1554
 2592SOL    HW119235   4.051   2.684   3.784  0.2526 -1.0231 -0.1307
 2592SOL    HW219236   4.060   2.812   3.724 -1.1580  0.2875  2.1356
 2593SOL     OW19237   1.892   0.485   8.739 -0.3364  0.4585  0.0156
 2593SOL    HW119238   1.954   0.413   8.750 -0.2911  0.6464  1.0157
 2593SOL    HW219239   1.838   0.456   8.812 -1.2352 -1.5302 -1.4403
 2594SOL     OW19240   3.712   3.112   9.005  0.0407  0.5085  0.6242
 2594SOL    HW119241   3.706   3.132   9.098  1.0526  0.6381  0.6607
 2594SOL    HW219242   3.670   3.191   8.970  0.0963  0.1791 -0.1897
 2595SOL     OW19243   4.500   3.904  10.598 -0.8026 -0.2144  0.1285
 2595SOL    HW119244   4.501   3.999  10.613 -1.1424 -0.1673 -0.1384
 2595SOL    HW219245   4.515   3.902  10.503  1.9452 -0.1490  0.5644
 2596SOL     OW19246   3.794   1.765   9.906 -0.2757  0.3574 -0.1212
 2596SOL    HW119247   3.832   1.705   9.970  0.5055  1.3778  0.3900
 2596SOL    HW219248   3.823   1.840   9.959  0.4516 -0.0204  0.0230
 2597SOL     OW19249   0.710   0.647   4.818  0.2859 -0.2504  0.0621
 2597SOL    HW119250   0.663   0.573   4.778 -0.8542  2.0666 -2.8714
 2597SOL    HW219251   0.799   0.614   4.833 -0.6937 -3.0747 -0.4070
 2598SOL     OW19252   4.514   0.439   9.444 -0.4690  0.2474 -0.3635
 2598SOL    HW119253   4.540   0.361   9.492  1.7964  0.2054 -1.7088
 2598SOL    HW219254   4.576   0.436   9.371  1.3824 -0.4539  1.2634
 2599SOL     OW19255   1.902   0.729   2.555 -0.1321 -0.1839  0.5487
 2599SOL    HW119256   1.830   0.756   2.613  0.0261 -0.3067  0.8051
 2599SOL    HW219257   1.896   0.636   2.579 -1.2780 -0.5184 -1.0452
 2600SOL     OW19258   1.177   4.273   8.348  0.5229 -0.1937 -0.0764
 2600SOL    HW119259   1.215   4.280   8.260 -0.7705  3.5704 -0.3484
 2600SOL    HW219260   1.261   4.282   8.391  0.1842 -0.0292  0.5470
 2601SOL     OW19261   3.543   1.201   8.470  0.0306 -0.0771  0.4830
 2601SOL    HW119262   3.576   1.248   8.547  2.4871 -0.4701 -0.3364
 2601SOL    HW219263   3.536   1.114   8.509  0.6102 -0.7419 -0.8932
 2602SOL     OW19264   0.227   3.700  10.435  0.3709  0.5175  0.1008
 2602SOL    HW119265   0.308   3.700  10.384  0.2112 -1.9467 -0.1516
 2602SOL    HW219266   0.247   3.765  10.503 -1.9673  1.2549  0.0714
 2603SOL     OW19267   0.561   0.946   7.271  0.0195 -0.1883 -0.4502
 2603SOL    HW119268   0.485   0.925   7.326  0.8035 -2.2833 -0.1776
 2603SOL    HW219269   0.529   0.989   7.191 -0.0033  0.8348  0.1138
 2604SOL     OW19270   1.983   4.655  10.794 -0.7065  0.1629 -0.7460
 2604SOL    HW119271   1.949   4.566  10.788  1.7908 -0.7016 -1.9664
 2604SOL    HW219272   1.965   4.670  10.887 -1.2485 -1.4121 -0.6030
 2605SOL     OW19273   0.821   1.907   9.861  0.1237 -0.5355 -0.0185
 2605SOL    HW119274   0.736   1.950   9.852  0.9834  0.8890 -1.3531
 2605SOL    HW219275   0.797   1.819   9.887 -2.6331  0.2681  0.1047
 2606SOL     OW19276   0.476   4.573   3.062 -0.3094  0.8855 -0.4330
 2606SOL    HW119277   0.423   4.642   3.104 -0.3138  0.5320  0.1429
 2606SOL    HW219278   0.405   4.509   3.061  0.3842  0.0821  1.1648
 2607SOL     OW19279   2.622   3.349  11.949 -0.0606 -0.4036 -0.6261
 2607SOL    HW119280   2.606   3.283  12.017  1.1828 -0.6300 -0.5468
 2607SOL    HW219281   2.717   3.343  11.957  0.0899  1.1604 -1.4681
 2608SOL     OW19282   0.132   0.738   8.372  0.2230  0.1425  0.1323
 2608SOL    HW119283   0.199   0.670   8.382 -2.7626 -2.8834 -0.8421
 2608SOL    HW219284   0.148   0.792   8.450 -1.8068 -0.1226  0.7302
 2609SOL     OW19285   3.241   1.281   6.330 -0.0896  0.0144 -0.3846
 2609SOL    HW119286   3.318   1.245   6.286  0.8131  2.6205 -0.9729
 2609SOL    HW219287   3.282   1.329   6.403  0.9937 -0.5213 -0.6471
 2610SOL     OW19288   3.408   2.734   3.585  0.0365 -0.4108  0.0132
 2610SOL    HW119289   3.453   2.713   3.667  2.3834  2.2048 -0.5693
 2610SOL    HW219290   3.472   2.710   3.518  0.7522  0.4208  0.4006
 2611SOL     OW19291   1.688   0.764  10.142 -0.2563  0.3285 -0.2772
 2611SOL    HW119292   1.782   0.744  10.142 -0.1913  0.6398 -0.0013
 2611SOL    HW219293   1.653   0.709  10.213  2.0021 -0.3611  0.2943
 2612SOL     OW19294   1.485   1.396   3.475  0.6134  0.3759 -0.4799
 2612SOL    HW119295   1.418   1.330   3.457  1.1192 -0.2288 -0.1538
 2612SOL    HW219296   1.465   1.421   3.566 -1.7272  2.6410 -1.6345
 2613SOL     OW19297   2.447   3.514   1.868 -0.6635  0.2044 -0.5328
 2613SOL    HW119298   2.486   3.479   1.787  0.0760  0.1994 -0.1769
 2613SOL    HW219299   2.378   3.450   1.886 -0.5559  1.0148  2.6674
 2614SOL     OW19300   2.216   1.393   2.547  0.0655  0.0492 -0.8042
 2614SOL    HW119301   2.137   1.353   2.583  0.7276  0.2048  0.8119
 2614SOL    HW219302   2.216   1.360   2.457  2.1290 -1.0739 -0.3998
 2615SOL     OW19303   3.292   1.531   5.921 -0.7222 -0.1148  0.2818
 2615SOL    HW119304   3.305   1.540   6.015  2.8859  1.6191 -0.3603
 2615SOL    HW219305   3.312   1.439   5.901 -2.9405 -0.8027  1.2534
 2616SOL     OW19306   3.072   3.823   1.950 -0.2566 -0.1322  0.2942
 2616SOL    HW119307   3.166   3.813   1.933 -0.0734  0.7210  0.8086
 2616SOL    HW219308   3.051   3.734   1.977  0.6434 -0.7617 -1.0405
 2617SOL     OW19309   0.784   0.777   5.860  0.3472 -0.1561  0.0937
 2617SOL    HW119310   0.797   0.866   5.892  0.8069 -0.1589 -0.0857
 2617SOL    HW219311   0.810   0.783   5.768 -0.3063 -0.8202 -0.1372
 2618SOL     OW19312   3.597   2.265   6.308  0.0422  0.5486 -0.0872
 2618SOL    HW119313   3.668   2.206   6.333 -1.5576 -1.4869 -0.3520
 2618SOL    HW219314   3.639   2.349   6.325  0.7148  0.2191 -0.0941
 2619SOL     OW19315   0.556   0.162  12.696 -0.6812 -0.0631  0.2612
 2619SOL    HW119316   0.592   0.094  12.639 -0.1504  0.5576 -0.1462
 2619SOL    HW219317   0.484   0.109  12.730 -1.9894  0.0759 -2.2733
 2620SOL     OW19318   1.486   3.223  16.867  0.0114 -0.1775 -0.3431
 2620SOL    HW119319   1.537   3.260  16.795  0.3104 -0.2447 -0.1660
 2620SOL    HW219320   1.409   3.211  16.812  0.5089 -0.3661 -0.9972
 2621SOL     OW19321   1.809   2.274   8.576  0.0526 -0.8424  0.7586
 2621SOL    HW119322   1.756   2.239   8.648  0.3641 -1.4177  0.7076
 2621SOL    HW219323   1.896   2.241   8.601  1.1338  0.6999 -0.9785
 2622SOL     OW19324   1.145   1.941   2.916 -0.0501  0.3033  0.2338
 2622SOL    HW119325   1.218   1.909   2.862  0.0012 -0.5762  0.8236
 2622SOL    HW219326   1.140   2.031   2.884  2.1026 -0.4562 -2.3162
 2623SOL     OW19327   3.625   2.885  12.275 -0.2559 -0.1332  0.1284
 2623SOL    HW119328   3.663   2.855  12.358  2.7054 -0.1515 -1.2400
 2623SOL    HW219329   3.592   2.800  12.246 -1.1659  0.3577 -0.2461
 2624SOL     OW19330   0.455   0.635  14.167  0.0997 -0.0789  0.6788
 2624SOL    HW119331   0.376   0.680  14.138 -0.8602 -1.8745  0.4958
 2624SOL    HW219332   0.418   0.559  14.212  1.8772 -1.3426  0.0069
 2625SOL     OW19333   0.179   1.709   6.474 -0.0786 -0.1581  0.1845
 2625SOL    HW119334   0.237   1.656   6.528  0.9293 -0.3575 -1.1106
 2625SOL    HW219335   0.093   1.706   6.517  0.1399 -0.1403  0.6204
 2626SOL     OW19336   1.708   1.886   1.097  0.0592 -0.0215 -0.2297
 2626SOL    HW119337   1.744   1.819   1.155 -1.5386 -0.7179 -0.0209
 2626SOL    HW219338   1.752   1.962   1.133  1.1710 -1.1948  0.8612
 2627SOL     OW19339   0.293   2.329   2.272 -0.5140  0.3554  0.1335
 2627SOL    HW119340   0.333   2.243   2.266  2.7742  1.8963  0.4308
 2627SOL    HW219341   0.213   2.310   2.222 -0.3734  0.9859 -0.3357
 2628SOL     OW19342   0.018   2.469   7.744 -0.1985  0.2446 -0.4018
 2628SOL    HW119343   4.683   2.403   7.781  0.7264 -0.5774 -0.3833
 2628SOL    HW219344   0.007   2.471   7.649 -1.4894  0.4496 -0.2439
 2629SOL     OW19345   0.557   0.073   8.201 -0.3831 -0.0975  0.6824
 2629SOL    HW119346   0.466   0.065   8.172 -0.6499  2.3236  0.8714
 2629SOL    HW219347   0.594   4.718   8.160  1.2846  1.4327 -0.8007
 2630SOL     OW19348   1.449   1.154  14.856 -0.1555 -0.0806  0.2415
 2630SOL    HW119349   1.413   1.106  14.931 -0.0500 -0.7909 -0.1618
 2630SOL    HW219350   1.381   1.140  14.790 -0.2147 -1.0981  0.5103
 2631SOL     OW19351   0.961   2.365  17.368 -0.1904 -0.9393  0.3442
 2631SOL    HW119352   0.904   2.400  17.299 -1.5670  1.5798  2.7476
 2631SOL    HW219353   1.030   2.313  17.327  2.5700  1.7036  1.6226
 2632SOL     OW19354   4.692   3.253   1.830 -0.3846 -0.0908 -0.1773
 2632SOL    HW119355   0.013   3.268   1.913  0.8303  2.5833 -1.3170
 2632SOL    HW219356   0.033   3.237   1.761  0.0271 -0.4071  0.2802
 2633SOL     OW19357   0.615   0.468   5.720  0.2306  0.4276  0.3177
 2633SOL    HW119358   0.689   0.438   5.668 -0.0082 -2.3219  1.6155
 2633SOL    HW219359   0.632   0.442   5.810 -1.9051 -1.6198  0.1282
 2634SOL     OW19360   4.569   2.119   4.312  0.1703  0.4490 -0.3267
 2634SOL    HW119361   4.479   2.112   4.279 -0.3271  0.8881  0.9632
 2634SOL    HW219362   4.549   2.168   4.391 -0.5062 -1.2867  0.5675
 2635SOL     OW19363   2.982   0.436   2.088 -0.1706 -0.8942  0.3389
 2635SOL    HW119364   3.070   0.414   2.057 -0.4595 -1.1835 -0.2829
 2635SOL    HW219365   2.949   0.473   2.006  0.3479 -2.0543 -0.3925
 2636SOL     OW19366   1.489   2.662   5.347  0.3737  0.5282 -0.1284
 2636SOL    HW119367   1.467   2.570   5.333 -0.2178  0.3721  1.7857
 2636SOL    HW219368   1.416   2.703   5.393  0.1082 -0.1575  0.0554
 2637SOL     OW19369   2.682   1.948  17.597 -0.2709 -0.3058 -0.3544
 2637SOL    HW119370   2.734   2.003  17.538  0.1158 -0.0898  0.1867
 2637SOL    HW219371   2.630   1.893  17.538  0.1414  1.7348 -2.5917
 2638SOL     OW19372   1.284   2.169   8.527 -0.0490  0.0737  0.1444
 2638SOL    HW119373   1.318   2.090   8.571  0.8094 -0.0769 -0.7832
 2638SOL    HW219374   1.190   2.154   8.524 -0.5312  3.2801 -0.4857
 2639SOL     OW19375   0.895   1.416   4.739  0.3639 -0.4570  0.4160
 2639SOL    HW119376   0.941   1.483   4.689 -0.6162 -0.3462 -0.3311
 2639SOL    HW219377   0.889   1.452   4.828  0.7736 -0.6206  0.5111
 2640SOL     OW19378   0.030   2.200  10.527 -0.0348 -0.4927 -0.0585
 2640SOL    HW119379   4.688   2.269  10.535  0.8936  0.1419  2.2510
 2640SOL    HW219380   4.702   2.126  10.558 -0.0889 -0.5902 -0.3836
 2641SOL     OW19381   3.504   3.006   4.092  0.0248 -0.3422  0.0003
 2641SOL    HW119382   3.546   3.078   4.138  0.3100  0.9169 -2.1970
 2641SOL    HW219383   3.417   3.043   4.077  1.2956  3.1793  1.2453
 2642SOL     OW19384   0.504   4.088   4.355  0.0240  0.1519  0.0450
 2642SOL    HW119385   0.566   4.139   4.406  0.1261  1.1953 -1.1255
 2642SOL    HW219386   0.534   4.104   4.266 -1.1785  1.9371 -0.0284
 2643SOL     OW19387   2.167   4.032   0.397 -0.3803 -0.2587 -0.2707
 2643SOL    HW119388   2.074   4.049   0.407 -0.3471  0.5469 -1.3152
 2643SOL    HW219389   2.189   4.125   0.390  0.6002 -0.4440  0.2627
 2644SOL     OW19390   3.058   3.752   6.162 -0.3016  0.2552  0.2142
 2644SOL    HW119391   3.144   3.793   6.171 -0.6429  0.9293  0.4241
 2644SOL    HW219392   3.022   3.769   6.249  1.3560  1.0836  0.7442
 2645SOL     OW19393   0.804   2.727   4.382 -0.5591  0.2730  0.0742
 2645SOL    HW119394   0.795   2.666   4.455  1.6793  1.4297  1.3143
 2645SOL    HW219395   0.894   2.757   4.395 -0.7000  0.8509 -0.2974
 2646SOL     OW19396   3.007   4.163  10.758  0.4224  0.0002  0.8284
 2646SOL    HW119397   2.960   4.244  10.777 -2.5962 -1.0378 -2.2745
 2646SOL    HW219398   3.075   4.153  10.824 -1.2182  1.1010  2.6819
 2647SOL     OW19399   2.118   4.148   7.673 -0.2081 -0.3308 -0.7150
 2647SOL    HW119400   2.133   4.242   7.684 -2.2914 -0.0100 -0.6769
 2647SOL    HW219401   2.058   4.155   7.599  0.9233 -0.4342 -1.6233
 2648SOL     OW19402   1.819   0.853  14.638  0.2600 -0.8607 -0.0386
 2648SOL    HW119403   1.810   0.854  14.542 -2.7603 -0.4254  0.2336
 2648SOL    HW219404   1.770   0.932  14.659 -1.2205 -1.6990 -0.3362
 2649SOL     OW19405   0.473   3.731   3.590  0.4134  0.1557 -0.1608
 2649SOL    HW119406   0.526   3.687   3.657 -1.0737 -0.2705  0.7446
 2649SOL    HW219407   0.395   3.684   3.619  0.7094  0.7450  1.6061
 2650SOL     OW19408   3.668   1.713   4.691 -0.6759 -0.1314 -0.1542
 2650SOL    HW119409   3.682   1.674   4.777 -0.7727 -1.4090 -0.7160
 2650SOL    HW219410   3.748   1.682   4.649 -0.0448  1.6002 -0.2267
 2651SOL     OW19411   0.368   0.607   3.404  0.0106  0.3431  0.0812
 2651SOL    HW119412   0.453   0.586   3.443  0.7041 -1.2680 -2.3340
 2651SOL    HW219413   0.384   0.570   3.317 -2.0219 -0.5598  0.0825
 2652SOL     OW19414   3.993   3.934  15.059  0.1096 -0.1400 -0.0551
 2652SOL    HW119415   3.912   3.980  15.078  1.1316  1.5124  0.2751
 2652SOL    HW219416   3.957   3.847  15.043  0.1011 -0.1224 -0.1345
 2653SOL     OW19417   1.711   1.083   5.174 -0.5872 -0.5475 -0.3402
 2653SOL    HW119418   1.661   1.113   5.098  1.7478  0.5304 -1.4527
 2653SOL    HW219419   1.784   1.035   5.133  0.2126 -1.3204  1.9374
 2654SOL     OW19420   2.360   3.900   3.857 -0.1769  0.1373 -0.4646
 2654SOL    HW119421   2.425   3.889   3.926  1.3253  1.5074 -1.6818
 2654SOL    HW219422   2.419   3.930   3.788 -0.4614  0.2199 -0.6717
 2655SOL     OW19423   3.546   1.091   7.267 -0.3979  0.4782 -0.2183
 2655SOL    HW119424   3.594   1.025   7.317 -3.2558 -0.1776  1.6133
 2655SOL    HW219425   3.537   1.163   7.329  0.7405 -0.9301  1.5742
 2656SOL     OW19426   1.022   3.269   9.497 -0.1305  0.2314  0.0036
 2656SOL    HW119427   0.930   3.275   9.522 -0.3617  1.5649 -1.1587
 2656SOL    HW219428   1.063   3.249   9.582  0.0900  1.9977  0.3147
 2657SOL     OW19429   0.632   1.275   7.989  0.3052 -0.8013  0.4975
 2657SOL    HW119430   0.607   1.272   7.897  0.4182 -4.2075  0.5812
 2657SOL    HW219431   0.663   1.366   7.996 -0.8977 -0.3339 -0.3528
 2658SOL     OW19432   1.968   1.485  12.267 -0.3739 -0.6416 -0.4508
 2658SOL    HW119433   1.889   1.510  12.314  0.4556  0.8890  0.1119
 2658SOL    HW219434   2.031   1.550  12.297 -0.9769  0.2147 -1.0648
 2659SOL     OW19435   4.109   0.712   1.626 -0.4096  0.1496 -0.1597
 2659SOL    HW119436   4.157   0.638   1.664 -0.4569  0.3777  0.3444
 2659SOL    HW219437   4.144   0.726   1.538  2.5545  0.1234  1.0466
 2660SOL     OW19438   4.147   4.122   6.629  0.3930  0.1301 -0.1040
 2660SOL    HW119439   4.147   4.032   6.595  0.9723  0.0818  0.0109
 2660SOL    HW219440   4.202   4.167   6.565  0.2904  2.2097  1.2855
 2661SOL     OW19441   0.108   3.727   6.107  0.0072 -0.2633  0.1493
 2661SOL    HW119442   0.055   3.793   6.061 -1.4817 -0.8209  1.0321
 2661SOL    HW219443   0.173   3.784   6.147  1.3502 -1.8045  0.1283
 2662SOL     OW19444   2.105   3.575   6.380 -0.1272  0.4082  0.2375
 2662SOL    HW119445   2.123   3.545   6.469 -0.5739  1.0821  0.5576
 2662SOL    HW219446   2.010   3.585   6.387  0.0155  0.3344  2.2631
 2663SOL     OW19447   2.593   0.066  15.351  0.0407 -0.1660 -0.0466
 2663SOL    HW119448   2.601   0.161  15.340 -0.1077 -0.4713 -2.8689
 2663SOL    HW219449   2.499   0.062  15.366 -0.1461  1.3167 -0.8500
 2664SOL     OW19450   2.786   2.603   1.723  0.2812  0.4426  0.5006
 2664SOL    HW119451   2.830   2.592   1.639  0.6202 -0.7093  0.8190
 2664SOL    HW219452   2.786   2.510   1.748 -0.3393  0.5788  1.0268
 2665SOL     OW19453   1.711   1.178  14.162  0.1734  0.4143  0.2706
 2665SOL    HW119454   1.654   1.251  14.141  0.3914  0.0253 -1.6259
 2665SOL    HW219455   1.649   1.106  14.151 -2.6379  2.6003  1.6624
 2666SOL     OW19456   3.502   2.911   0.323 -0.1937 -0.1415 -0.0035
 2666SOL    HW119457   3.591   2.926   0.356  0.1451 -3.5067  0.5780
 2666SOL    HW219458   3.474   2.987   0.272  1.6457 -0.7509 -1.9358
 2667SOL     OW19459   0.406   1.988   6.013  0.5308  0.5154 -0.1384
 2667SOL    HW119460   0.370   1.948   5.934 -1.2859 -0.0013  0.9528
 2667SOL    HW219461   0.496   1.959   6.002  0.2005 -1.5316  2.6775
 2668SOL     OW19462   1.527   4.696   8.847 -0.1960  0.0178  0.2862
 2668SOL    HW119463   1.459   0.039   8.839 -1.4746 -1.4082 -0.6531
 2668SOL    HW219464   1.509   4.663   8.935  1.0222  1.2972  1.0296
 2669SOL     OW19465   3.030   0.917   6.333 -0.2343  0.1847 -0.1217
 2669SOL    HW119466   2.970   0.942   6.404 -0.0008  0.3379  0.0223
 2669SOL    HW219467   3.048   0.826   6.359 -1.2853 -0.1715 -0.6469
 2670SOL     OW19468   0.018   2.811   5.042  0.1594 -0.4226  0.0261
 2670SOL    HW119469   0.003   2.896   5.084  3.3453 -0.4051  1.1052
 2670SOL    HW219470   4.653   2.775   5.045  0.8586 -1.9998  2.0566
 2671SOL     OW19471   2.256   2.119  11.586 -0.3863  0.3937  0.2109
 2671SOL    HW119472   2.315   2.155  11.652 -1.9666  1.5177  1.0038
 2671SOL    HW219473   2.177   2.102  11.637  0.0961 -0.5602  0.6511
 2672SOL     OW19474   1.320   2.548   2.686  0.1195  0.6945  0.2202
 2672SOL    HW119475   1.378   2.544   2.762  0.9117  1.7970 -0.3239
 2672SOL    HW219476   1.363   2.614   2.632  0.8860 -1.4143 -1.7208
 2673SOL     OW19477   2.292   4.281   0.387  0.3545  0.5591 -0.4539
 2673SOL    HW119478   2.303   4.344   0.458 -0.1131  0.2532 -0.1070
 2673SOL    HW219479   2.384   4.260   0.370  0.0303 -0.8037 -0.5308
 2674SOL     OW19480   1.139   2.408   6.907 -0.2870 -0.5151 -0.2312
 2674SOL    HW119481   1.111   2.329   6.952  0.3743 -0.2471  0.6528
 2674SOL    HW219482   1.225   2.413   6.947 -0.5890 -2.9490  0.7161
 2675SOL     OW19483   3.619   4.439   4.844 -0.3820 -0.1893 -0.5648
 2675SOL    HW119484   3.595   4.433   4.751  1.5419 -0.6367 -1.0276
 2675SOL    HW219485   3.536   4.477   4.872  1.2213  1.8911  1.3241
 2676SOL     OW19486   0.197   2.157   0.853 -0.2804 -0.2380 -0.6991
 2676SOL    HW119487   0.197   2.062   0.843 -0.6097 -0.0976 -1.9670
 2676SOL    HW219488   0.289   2.181   0.839 -0.3853  0.8116  0.3919
 2677SOL     OW19489   1.891   4.316  17.305 -0.6331  0.1139 -0.0840
 2677SOL    HW119490   1.973   4.307  17.353  0.6462 -1.2116 -2.4800
 2677SOL    HW219491   1.913   4.373  17.232 -0.9984  1.2234  0.6799
 2678SOL     OW19492   4.015   2.757   6.497  0.1816 -0.3304 -0.1665
 2678SOL    HW119493   3.947   2.806   6.544  0.2949  1.3878 -1.7910
 2678SOL    HW219494   4.027   2.830   6.436  1.5254 -0.5999 -0.2233
 2679SOL     OW19495   1.915   4.365   0.515 -0.0607  1.1797  0.9468
 2679SOL    HW119496   1.829   4.388   0.550 -1.5062  0.1671 -1.9219
 2679SOL    HW219497   1.961   4.361   0.598  0.1860 -1.9489  0.6784
 2680SOL     OW19498   2.543   3.043   1.686 -0.1818  0.1807  1.1351
 2680SOL    HW119499   2.463   3.006   1.722  0.4119 -1.3954  0.8309
 2680SOL    HW219500   2.594   2.962   1.684  2.6339  1.9463  1.1264
 2681SOL     OW19501   3.505   3.118   4.775  0.2402 -0.0610  0.4443
 2681SOL    HW119502   3.539   3.102   4.686  0.9068 -2.0319  1.0439
 2681SOL    HW219503   3.587   3.140   4.820  0.0583 -0.0250  0.7539
 2682SOL     OW19504   0.545   1.216  17.537 -0.0821 -0.4158  0.1147
 2682SOL    HW119505   0.506   1.136  17.501 -0.0688 -0.5560  0.4035
 2682SOL    HW219506   0.600   1.171  17.601 -0.5168  0.8598  1.4118
 2683SOL     OW19507   4.051   2.505  12.426 -0.6597 -0.3850 -0.2291
 2683SOL    HW119508   4.101   2.423  12.421 -0.9418 -0.5416 -0.4544
 2683SOL    HW219509   4.058   2.516  12.521  1.3430 -1.5462 -0.2342
 2684SOL     OW19510   1.313   0.612   3.573 -0.1265  0.2710  1.1212
 2684SOL    HW119511   1.236   0.633   3.625  0.4841 -0.7036  2.4217
 2684SOL    HW219512   1.299   0.539   3.513 -0.8799  1.4084 -0.1057
 2685SOL     OW19513   1.467   2.757  15.101 -0.1446  0.5331  0.2038
 2685SOL    HW119514   1.456   2.852  15.096  0.8416  0.8088  2.9809
 2685SOL    HW219515   1.560   2.761  15.125  0.1267 -2.3149 -0.4272
 2686SOL     OW19516   4.205   2.137   5.776 -0.3397  0.7910  0.0850
 2686SOL    HW119517   4.208   2.124   5.681 -0.7636 -3.6504  0.6634
 2686SOL    HW219518   4.122   2.186   5.776  1.0576  3.1619  1.0306
 2687SOL     OW19519   4.694   1.960   8.892 -0.3287  0.2968 -0.1055
 2687SOL    HW119520   4.641   2.011   8.831 -0.2031  0.5439 -0.0124
 2687SOL    HW219521   0.057   1.996   8.871 -0.4333  0.1305 -0.8312
 2688SOL     OW19522   3.591   2.728   2.898 -0.1417 -0.2909  0.3696
 2688SOL    HW119523   3.661   2.715   2.833  1.1279  1.4293  1.3903
 2688SOL    HW219524   3.515   2.690   2.854 -0.8188 -0.2009  1.4643
 2689SOL     OW19525   1.620   1.838   3.166 -0.3234 -0.1547 -0.0225
 2689SOL    HW119526   1.698   1.871   3.210 -0.5143 -1.2993  1.1574
 2689SOL    HW219527   1.633   1.879   3.081 -0.1766  0.5027  0.3211
 2690SOL     OW19528   3.137   0.412  12.389 -0.2068 -0.1117  0.5360
 2690SOL    HW119529   3.045   0.407  12.363  0.3446  1.0374 -1.6954
 2690SOL    HW219530   3.125   0.450  12.476 -0.7474 -0.4103  0.5923
 2691SOL     OW19531   4.403   1.352   3.176 -0.3462 -0.0050  0.4511
 2691SOL    HW119532   4.369   1.370   3.264 -0.3550  0.2090  0.4040
 2691SOL    HW219533   4.447   1.433   3.153  1.8243 -1.4991 -0.6287
 2692SOL     OW19534   0.887   4.140   8.730  0.1891 -0.5576  0.4289
 2692SOL    HW119535   0.870   4.169   8.640 -2.0994 -0.3346  0.9462
 2692SOL    HW219536   0.854   4.052   8.714 -0.6708 -0.3711  1.1803
 2693SOL     OW19537   2.391   4.391   0.973 -0.2617  0.6628  0.0360
 2693SOL    HW119538   2.455   4.338   1.021  1.2365  4.3355  2.0449
 2693SOL    HW219539   2.332   4.411   1.045 -0.2517  3.7003 -0.8081
 2694SOL     OW19540   2.131   3.449   6.862  0.0489 -0.1957  0.2925
 2694SOL    HW119541   2.043   3.462   6.897  0.2580  2.4738 -0.1841
 2694SOL    HW219542   2.115   3.436   6.769  1.9873  0.7260 -0.1921
 2695SOL     OW19543   1.770   4.416  16.901 -0.1036 -0.0825 -0.5644
 2695SOL    HW119544   1.778   4.386  16.810 -0.6076 -2.6349  0.2400
 2695SOL    HW219545   1.722   4.497  16.880  1.1618  0.5957 -0.8830
 2696SOL     OW19546   0.304   4.201   7.297 -0.6175  0.3876  0.7274
 2696SOL    HW119547   0.368   4.241   7.355 -1.4657  2.7603  0.0276
 2696SOL    HW219548   0.366   4.166   7.234 -1.4508 -1.9163  1.1801
 2697SOL     OW19549   4.487   4.306  17.140  0.5294  0.4149 -0.3278
 2697SOL    HW119550   4.573   4.344  17.127  0.5089  0.4267 -0.4302
 2697SOL    HW219551   4.453   4.294  17.051  0.4693 -1.4335 -0.0555
 2698SOL     OW19552   2.013   2.871   8.156  0.4670  0.1686  0.2856
 2698SOL    HW119553   1.963   2.835   8.230  0.2530 -2.0782 -0.9565
 2698SOL    HW219554   1.972   2.828   8.081 -2.7906 -0.4031  2.3627
 2699SOL     OW19555   0.194   2.561   2.809  0.2755 -0.5578  0.6639
 2699SOL    HW119556   0.273   2.511   2.792 -0.1436 -0.9713 -0.0825
 2699SOL    HW219557   0.162   2.515   2.887  3.0982 -1.4403  1.2719
 2700SOL     OW19558   1.530   1.321   4.144 -0.0816 -0.0965  0.5363
 2700SOL    HW119559   1.507   1.409   4.113  2.2470 -0.2959 -1.8125
 2700SOL    HW219560   1.615   1.341   4.183 -0.5577  2.2395  0.4119
 2701SOL     OW19561   2.591   2.805   6.478 -0.3709 -0.3247  1.1939
 2701SOL    HW119562   2.608   2.819   6.572  2.4084 -1.9046  0.9136
 2701SOL    HW219563   2.611   2.712   6.467 -1.7304  0.0140 -3.8467
 2702SOL     OW19564   4.226   2.874   3.279  0.4692  0.0791 -0.0072
 2702SOL    HW119565   4.292   2.899   3.214  1.2530  0.6118  0.9928
 2702SOL    HW219566   4.249   2.937   3.348  0.4483 -0.3453  0.3839
 2703SOL     OW19567   1.407   3.771  12.929 -0.1032 -0.1152 -0.1234
 2703SOL    HW119568   1.399   3.807  12.841  1.5025 -0.8351 -0.5632
 2703SOL    HW219569   1.478   3.825  12.965 -0.5621  0.6735 -0.4064
 2704SOL     OW19570   1.781   3.695   4.821  0.3473  0.6681 -0.0635
 2704SOL    HW119571   1.762   3.775   4.773  0.8189 -0.4007 -2.0350
 2704SOL    HW219572   1.744   3.632   4.760  2.1943  0.3351 -0.8563
 2705SOL     OW19573   3.258   4.536   4.466 -0.2719  0.5394 -0.0014
 2705SOL    HW119574   3.251   4.510   4.558 -1.4040  1.0776  0.0652
 2705SOL    HW219575   3.244   4.447   4.434  2.0523 -0.9680  3.2116
 2706SOL     OW19576   1.154   1.845   9.769 -0.1291  0.4301 -0.1209
 2706SOL    HW119577   1.089   1.914   9.785  0.1414  1.1933 -2.3655
 2706SOL    HW219578   1.224   1.908   9.753  0.9051 -0.7940 -0.3648
 2707SOL     OW19579   3.828   3.790   0.346  0.1857  0.1362  0.0438
 2707SOL    HW119580   3.837   3.695   0.339  2.2963  0.3824 -0.6625
 2707SOL    HW219581   3.904   3.804   0.403 -0.5157 -0.0186  1.0175
 2708SOL     OW19582   3.359   3.375  16.474  0.4374 -0.4345  0.2072
 2708SOL    HW119583   3.433   3.419  16.431  0.7645 -1.3057 -0.1342
 2708SOL    HW219584   3.382   3.412  16.559  0.4705  1.8360 -0.7896
 2709SOL     OW19585   4.237   2.492   7.590 -0.8956  0.0020  0.0795
 2709SOL    HW119586   4.266   2.559   7.652 -0.2309  1.2464 -1.5889
 2709SOL    HW219587   4.248   2.418   7.651 -1.4146  0.7275  1.0529
 2710SOL     OW19588   1.665   4.438   4.692  0.1161 -0.5065  0.7035
 2710SOL    HW119589   1.721   4.440   4.614 -0.5243  0.9525  0.2922
 2710SOL    HW219590   1.731   4.416   4.758  2.2970  2.4710 -0.4689
 2711SOL     OW19591   3.369   1.037  12.974  0.1228  0.2517  0.4260
 2711SOL    HW119592   3.430   0.971  13.006 -0.4335 -0.7389 -0.5402
 2711SOL    HW219593   3.428   1.111  12.964 -1.8459  2.1235  2.4046
 2712SOL     OW19594   0.871   2.028  11.689  0.2449  0.1087 -0.0657
 2712SOL    HW119595   0.815   2.066  11.622 -1.2699 -1.9557  0.0362
 2712SOL    HW219596   0.899   2.103  11.742 -1.5070  0.4342  0.3868
 2713SOL     OW19597   1.301   3.579  14.368  0.4626 -0.2917 -0.4015
 2713SOL    HW119598   1.389   3.609  14.393 -0.3038  1.8556 -0.2526
 2713SOL    HW219599   1.251   3.660  14.373  0.6294 -0.1886 -0.4191
 2714SOL     OW19600   2.088   2.376  13.000 -0.6508  0.4585  0.0127
 2714SOL    HW119601   2.105   2.288  12.964 -0.7335  0.4200  0.0693
 2714SOL    HW219602   2.173   2.396  13.039 -0.0331  0.1303 -1.1755
 2715SOL     OW19603   1.077   2.617   2.753  0.0067  0.1184  0.1661
 2715SOL    HW119604   1.162   2.580   2.729  1.2493  1.7337  2.0540
 2715SOL    HW219605   1.061   2.668   2.674  3.0553  1.3215  0.3524
 2716SOL     OW19606   0.737   4.715   2.968 -0.1001 -0.2394  0.1159
 2716SOL    HW119607   0.693   4.630   2.971  1.0466 -0.8180  0.3415
 2716SOL    HW219608   0.674   0.040   3.021  0.0095 -1.7955  1.6582
 2717SOL     OW19609   1.099   1.198   8.929 -0.1081 -0.6584  0.3780
 2717SOL    HW119610   1.175   1.182   8.985  1.7050 -0.0661 -1.9080
 2717SOL    HW219611   1.059   1.111   8.921 -1.9290  0.1306  0.9363
 2718SOL     OW19612   4.232   3.512   0.072 -0.0058 -0.6838  0.3651
 2718SOL    HW119613   4.178   3.575   0.119  1.2221  1.5408 -1.2098
 2718SOL    HW219614   4.316   3.534   0.113 -0.5451 -1.6998  2.0101
 2719SOL     OW19615   2.064   0.750   2.808 -0.2868  0.2095 -0.0865
 2719SOL    HW119616   2.033   0.753   2.718  1.2421  1.1601 -0.5942
 2719SOL    HW219617   2.155   0.726   2.790 -0.6835  0.3473 -2.2613
 2720SOL     OW19618   0.975   1.946   8.793 -0.8271  0.4196  0.0753
 2720SOL    HW119619   1.067   1.942   8.819 -0.8323 -0.5256 -0.0443
 2720SOL    HW219620   0.954   2.037   8.814 -1.1621  0.1254  1.0152
 2721SOL     OW19621   3.026   2.502  14.112 -0.3085 -0.1203 -0.1611
 2721SOL    HW119622   2.943   2.456  14.124  0.5749 -1.6926 -0.0224
 2721SOL    HW219623   3.047   2.490  14.019 -0.2011 -2.0819  0.1231
 2722SOL     OW19624   0.939   0.925  17.624 -0.0288 -0.4895  0.5167
 2722SOL    HW119625   0.976   0.837  17.615 -0.8588 -0.5836 -1.8882
 2722SOL    HW219626   1.022   0.971  17.639  1.3579 -3.1632  1.0226
 2723SOL     OW19627   2.191   1.986  15.728  0.2078  0.6471 -0.4007
 2723SOL    HW119628   2.257   2.044  15.767  1.7285 -0.9001 -0.6837
 2723SOL    HW219629   2.223   1.906  15.771 -1.3132 -0.0062 -0.5111
 2724SOL     OW19630   2.959   0.627  11.387  0.2388  0.8757 -0.0286
 2724SOL    HW119631   2.865   0.642  11.395 -0.0546 -1.2941  0.5133
 2724SOL    HW219632   2.987   0.706  11.434  1.4029 -0.4538  1.5399
 2725SOL     OW19633   0.767   1.061   6.053 -0.1713 -0.4466  0.1151
 2725SOL    HW119634   0.766   1.107   5.969 -0.3043 -0.7228 -0.0346
 2725SOL    HW219635   0.858   1.034   6.057 -0.0067  0.2740  1.2295
 2726SOL     OW19636   3.351   3.057   9.586  0.0606 -0.4483 -0.1809
 2726SOL    HW119637   3.426   3.115   9.599 -0.0512  0.0438 -1.7614
 2726SOL    HW219638   3.329   3.037   9.677  0.1483  0.3512  0.0113
 2727SOL     OW19639   0.534   0.246  17.673 -0.1691  0.0504 -0.5595
 2727SOL    HW119640   0.516   0.246   0.070  0.2006 -1.1237 -0.4813
 2727SOL    HW219641   0.629   0.258  17.668  0.0875 -2.5059 -2.1536
 2728SOL     OW19642   3.431   1.763   3.755 -0.1179  0.2784 -0.2759
 2728SOL    HW119643   3.510   1.765   3.810 -0.1951 -2.0604 -0.0599
 2728SOL    HW219644   3.473   1.743   3.671  0.4832  1.4325 -0.2522
 2729SOL     OW19645   4.411   4.378   9.498 -0.2048 -0.1033 -0.1525
 2729SOL    HW119646   4.403   4.448   9.562 -0.6399 -0.6653  0.4008
 2729SOL    HW219647   4.413   4.441   9.425  1.0880 -0.9598 -0.8550
 2730SOL     OW19648   3.435   4.572   2.654  0.2822  1.0695 -0.1755
 2730SOL    HW119649   3.525   4.595   2.675  0.4724 -0.2002  0.4409
 2730SOL    HW219650   3.386   4.627   2.714 -0.5450  1.2939 -1.0621
 2731SOL     OW19651   0.491   3.815   0.181 -0.0199  0.1293 -0.4267
 2731SOL    HW119652   0.457   3.766   0.106 -0.6419  2.0651 -1.4092
 2731SOL    HW219653   0.572   3.863   0.161  0.2568 -0.1088  0.1451
 2732SOL     OW19654   3.853   4.302  16.075  0.2782  0.3454  0.0290
 2732SOL    HW119655   3.795   4.262  16.139  0.3910  0.3047  0.1071
 2732SOL    HW219656   3.911   4.361  16.123 -0.1826 -0.1523  1.2079
 2733SOL     OW19657   2.321   2.805   2.348 -0.3917  0.0666  0.1030
 2733SOL    HW119658   2.395   2.759   2.309  0.6743  0.8712  1.1894
 2733SOL    HW219659   2.306   2.872   2.281 -2.4755 -1.2129 -0.7105
 2734SOL     OW19660   4.706   1.070  13.857 -0.6354  0.0888  0.0198
 2734SOL    HW119661   4.662   1.042  13.938 -1.2220 -2.6890 -1.2813
 2734SOL    HW219662   4.677   1.002  13.797  0.6275 -0.7171  0.3320
 2735SOL     OW19663   4.713   2.921  11.571 -0.2685 -0.4306 -0.3249
 2735SOL    HW119664   4.720   2.996  11.512  3.1647 -0.2501  0.2702
 2735SOL    HW219665   4.622   2.915  11.598 -0.9220 -0.7534 -2.5819
 2736SOL     OW19666   2.207   1.815  14.033 -0.2484  0.1336  0.8008
 2736SOL    HW119667   2.221   1.841  13.942  0.3163 -1.6536  0.3898
 2736SOL    HW219668   2.167   1.890  14.078 -2.3093 -0.7806  0.4869
 2737SOL     OW19669   1.636   3.891  11.031  0.1895  0.6049 -0.1342
 2737SOL    HW119670   1.595   3.807  11.010 -1.0973  1.2680 -0.2715
 2737SOL    HW219671   1.628   3.895  11.126  1.5854 -0.5463  0.0366
 2738SOL     OW19672   3.075   2.358   2.335  0.9593  0.6154 -0.3417
 2738SOL    HW119673   3.101   2.381   2.246  1.2150  0.0055 -0.4284
 2738SOL    HW219674   3.140   2.289   2.352 -1.3600 -1.1550  1.4272
 2739SOL     OW19675   3.872   1.913   0.138 -0.3255 -0.1955  0.2459
 2739SOL    HW119676   3.777   1.926   0.138 -0.4312 -0.9445  1.9881
 2739SOL    HW219677   3.904   1.986   0.085 -3.8448  1.1870 -0.0037
 2740SOL     OW19678   0.310   2.858   7.716  0.1262  0.0510 -0.4551
 2740SOL    HW119679   0.318   2.833   7.624 -3.2010 -2.0556 -0.1785
 2740SOL    HW219680   0.390   2.911   7.717 -0.4649  1.0034 -3.0440
 2741SOL     OW19681   0.025   3.112   0.376 -0.3629 -0.3857  0.0864
 2741SOL    HW119682   4.704   3.071   0.302 -1.7716  1.5460 -0.1087
 2741SOL    HW219683   0.110   3.122   0.332 -0.2055  2.7700  1.0947
 2742SOL     OW19684   4.216   0.016   6.133  0.4857 -0.1108 -0.8392
 2742SOL    HW119685   4.268   4.660   6.145  0.9754  0.4506  0.7769
 2742SOL    HW219686   4.128   4.708   6.156  0.9797 -0.6175  0.3527
 2743SOL     OW19687   1.204   0.308   6.754 -0.4431 -0.0957 -0.4776
 2743SOL    HW119688   1.262   0.282   6.825 -1.5586 -0.9396  0.1339
 2743SOL    HW219689   1.180   0.393   6.790 -0.7921  0.3200 -1.6877
 2744SOL     OW19690   1.605   0.022   2.353  0.3308 -0.2253 -0.0371
 2744SOL    HW119691   1.647   0.058   2.274 -2.5649  1.3966 -0.8132
 2744SOL    HW219692   1.572   4.659   2.329  0.9763  0.4587 -3.3876
 2745SOL     OW19693   1.550   4.164   2.251  0.1462  0.4959  0.0539
 2745SOL    HW119694   1.526   4.072   2.257  0.2415  0.4731  0.0868
 2745SOL    HW219695   1.517   4.174   2.162  1.1799 -0.8751 -0.4904
 2746SOL     OW19696   4.123   3.860   1.176 -0.0268 -0.5310 -0.5142
 2746SOL    HW119697   4.124   3.775   1.133 -0.0877 -0.3509 -0.8666
 2746SOL    HW219698   4.216   3.880   1.180 -0.0977 -0.6006  1.7736
 2747SOL     OW19699   0.493   4.435   6.667  0.8013 -0.0902 -0.4247
 2747SOL    HW119700   0.401   4.411   6.651  0.1848  1.6123  0.6602
 2747SOL    HW219701   0.536   4.354   6.640 -0.9405 -0.9646 -0.6231
 2748SOL     OW19702   2.159   2.181   8.291  0.1104  0.2954  0.3179
 2748SOL    HW119703   2.114   2.246   8.237 -0.3966  1.7627  2.4922
 2748SOL    HW219704   2.243   2.169   8.247 -0.3598  0.0998 -0.5281
 2749SOL     OW19705   4.363   0.024  14.548 -0.1006 -0.5586 -0.1540
 2749SOL    HW119706   4.325   4.661  14.535 -0.1697 -0.2969 -1.6581
 2749SOL    HW219707   4.381   0.046  14.457  2.3251 -0.9106  0.2385
 2750SOL     OW19708   3.211   1.126   3.710  0.9751 -0.4063 -0.2262
 2750SOL    HW119709   3.129   1.142   3.757  0.9051 -0.5055 -0.3134
 2750SOL    HW219710   3.237   1.214   3.681 -1.6888  0.4817  0.0908
 2751SOL     OW19711   4.700   0.468   2.450  0.0825  0.5099  0.5131
 2751SOL    HW119712   0.013   0.550   2.419 -0.4180  0.3898 -0.4261
 2751SOL    HW219713   4.650   0.501   2.524  1.3061 -1.1370  2.0805
 2752SOL     OW19714   1.517   3.742   8.879 -0.4727  0.4418  0.0164
 2752SOL    HW119715   1.524   3.725   8.785  0.4912  1.1055 -0.0209
 2752SOL    HW219716   1.421   3.738   8.888 -0.6133  0.0393 -1.7635
 2753SOL     OW19717   3.104   2.194  11.385  0.4312  0.5078 -0.2214
 2753SOL    HW119718   3.058   2.121  11.343  0.2481  1.2259 -1.2611
 2753SOL    HW219719   3.171   2.220  11.322 -1.1567 -0.4990 -2.3439
 2754SOL     OW19720   3.990   1.174   0.229 -0.6561 -0.6574  0.3642
 2754SOL    HW119721   4.060   1.204   0.287 -0.2291 -0.8732 -0.0386
 2754SOL    HW219722   3.924   1.135   0.286  0.2958 -1.6356  0.7913
 2755SOL     OW19723   4.532   3.057   7.196  0.3923  0.3005  0.4841
 2755SOL    HW119724   4.613   3.041   7.148  1.0305 -0.5544  1.8485
 2755SOL    HW219725   4.495   3.123   7.137 -1.2192  0.9605  2.2149
 2756SOL     OW19726   4.639   4.353   7.741  0.3705  1.0901  0.3684
 2756SOL    HW119727   4.604   4.424   7.796  0.5416  1.1822  0.3573
 2756SOL    HW219728   4.655   4.406   7.663  0.8608 -0.6414 -0.6774
 2757SOL     OW19729   2.334   2.257   2.896 -0.0172  0.1502  0.4956
 2757SOL    HW119730   2.295   2.343   2.881  0.1995  0.3266  0.9505
 2757SOL    HW219731   2.402   2.268   2.831 -0.1952 -3.4094 -0.2939
 2758SOL     OW19732   1.631   0.040  16.043  0.0081  0.0017 -0.0816
 2758SOL    HW119733   1.652   0.133  16.049  0.5518 -0.2540  2.0129
 2758SOL    HW219734   1.709   4.714  16.019  0.2344  0.7783 -0.9345
 2759SOL     OW19735   4.253   3.563   0.599  0.3842 -0.1655  0.5835
 2759SOL    HW119736   4.191   3.536   0.531 -1.0300  0.6479  1.5523
 2759SOL    HW219737   4.313   3.611   0.543  1.8106 -1.5481  0.9301
 2760SOL     OW19738   3.975   1.148   7.293 -0.0407  0.3646 -0.5257
 2760SOL    HW119739   3.993   1.184   7.379  0.8136 -0.4527 -0.3590
 2760SOL    HW219740   4.005   1.218   7.235 -0.7459  1.9053  0.9887
 2761SOL     OW19741   1.958   1.163   7.437  0.3993  0.1200  0.0957
 2761SOL    HW119742   1.967   1.211   7.520 -2.1022 -0.0417  0.4734
 2761SOL    HW219743   2.037   1.197   7.395 -0.5964  0.4404 -1.5332
 2762SOL     OW19744   0.569   3.102  17.063 -0.6532  0.8536 -0.0334
 2762SOL    HW119745   0.564   3.186  17.108  0.1321  2.1784 -2.4109
 2762SOL    HW219746   0.567   3.037  17.133  0.0732  0.8093 -0.0545
 2763SOL     OW19747   1.589   4.182  13.515 -0.5351  0.5636  0.2884
 2763SOL    HW119748   1.608   4.213  13.426  1.6301  2.9458  1.5760
 2763SOL    HW219749   1.501   4.219  13.522 -1.3596 -1.3259 -0.2187
 2764SOL     OW19750   1.107   1.359   8.200  0.1552  0.8819 -0.0841
 2764SOL    HW119751   1.013   1.339   8.205  0.9944 -2.8869  1.2556
 2764SOL    HW219752   1.129   1.314   8.282 -1.3437  0.6025  0.1607
 2765SOL     OW19753   1.431   1.199  11.550  0.8924  0.0994 -0.1474
 2765SOL    HW119754   1.338   1.201  11.530  0.7244  2.8169  0.9346
 2765SOL    HW219755   1.442   1.136  11.620  2.8196  0.6801  0.0757
 2766SOL     OW19756   4.156   4.421   3.874 -0.0061 -0.0273 -0.0843
 2766SOL    HW119757   4.215   4.439   3.801  1.6741 -1.8726  0.8116
 2766SOL    HW219758   4.086   4.373   3.831 -0.0199 -0.3511  0.3006
 2767SOL     OW19759   0.184   3.646   1.566  0.3645  0.4321 -0.1990
 2767SOL    HW119760   0.255   3.710   1.569  0.3594  0.5355 -2.2219
 2767SOL    HW219761   0.212   3.601   1.486  0.4108  0.4387 -0.1863
 2768SOL     OW19762   4.611   1.558  13.979 -0.3253 -0.4188 -0.6997
 2768SOL    HW119763   4.535   1.584  13.928 -0.3277 -1.2524 -1.1276
 2768SOL    HW219764   4.623   1.474  13.936 -0.8424 -0.9660  0.2096
 2769SOL     OW19765   3.171   1.789  17.473 -0.0760  0.5157  0.0219
 2769SOL    HW119766   3.085   1.749  17.465  1.0519 -1.6592 -1.4199
 2769SOL    HW219767   3.168   1.831  17.559  3.4448 -1.6444  1.2165
 2770SOL     OW19768   3.525   3.353   2.382 -0.3512  0.7735 -0.8507
 2770SOL    HW119769   3.456   3.298   2.418  1.5357  0.4699  2.2763
 2770SOL    HW219770   3.489   3.429   2.428  0.4117  0.9572 -0.5384
 2771SOL     OW19771   0.846   4.155   3.911 -0.1905 -0.6030  0.0364
 2771SOL    HW119772   0.817   4.235   3.866  0.3205  1.2726  2.9929
 2771SOL    HW219773   0.825   4.089   3.846 -3.0349 -1.3107  1.6776
 2772SOL     OW19774   3.709   2.473   5.022  0.0951 -0.0018 -0.1722
 2772SOL    HW119775   3.737   2.500   4.935 -0.5124  2.1747  0.3067
 2772SOL    HW219776   3.760   2.393   5.022 -2.2036 -1.4774 -0.6021
 2773SOL     OW19777   4.565   2.567   7.205  0.0374  0.1844  0.0878
 2773SOL    HW119778   4.573   2.522   7.121  1.0441 -1.0235  0.8351
 2773SOL    HW219779   4.539   2.497   7.264 -2.2901 -0.7436 -2.0596
 2774SOL     OW19780   3.713   2.951   8.469 -0.4898  0.4269  0.1098
 2774SOL    HW119781   3.724   2.894   8.393  0.6589  2.0611 -0.9561
 2774SOL    HW219782   3.657   3.023   8.440  0.6791  0.8163 -1.2212
 2775SOL     OW19783   0.876   1.816   5.484  0.7001  0.1053 -0.1636
 2775SOL    HW119784   0.831   1.892   5.522 -0.0245 -0.0304 -0.7481
 2775SOL    HW219785   0.802   1.756   5.472 -0.2761  0.5025  3.6619
 2776SOL     OW19786   4.634   2.848  12.188  0.4593 -0.1018 -0.3734
 2776SOL    HW119787   4.679   2.854  12.104 -0.2422 -0.9936 -0.7980
 2776SOL    HW219788   4.549   2.823  12.151  0.3360 -2.1858  1.2967
 2777SOL     OW19789   3.328   0.227   5.797  0.5190 -0.1126 -0.5189
 2777SOL    HW119790   3.274   0.214   5.718  0.2259 -0.1395 -0.3156
 2777SOL    HW219791   3.403   0.173   5.771 -0.7930 -0.4495 -3.5782
 2778SOL     OW19792   2.358   2.419   7.061 -0.0957 -0.3133 -0.2475
 2778SOL    HW119793   2.283   2.429   7.002 -0.8544 -0.3462  0.6992
 2778SOL    HW219794   2.407   2.499   7.046 -0.0282 -0.8505 -2.8701
 2779SOL     OW19795   2.609   0.900  11.888 -0.1087 -0.7953 -0.2349
 2779SOL    HW119796   2.697   0.916  11.855 -0.2828 -1.6180 -1.0804
 2779SOL    HW219797   2.625   0.822  11.943 -1.1715  1.1901  2.9104
 2780SOL     OW19798   1.712   1.205  16.093 -0.0137  0.6672 -0.7119
 2780SOL    HW119799   1.626   1.198  16.053 -0.4006 -0.4524  0.3260
 2780SOL    HW219800   1.699   1.200  16.187  1.5065  1.5630 -0.4512
 2781SOL     OW19801   2.090   2.322   6.940 -0.7164 -0.1433  0.1113
 2781SOL    HW119802   2.042   2.269   6.877  0.3416  0.7007 -1.4052
 2781SOL    HW219803   2.082   2.276   7.024 -2.8823 -0.5808 -0.3438
 2782SOL     OW19804   0.759   3.475   2.150 -0.1030  0.1717  0.0317
 2782SOL    HW119805   0.715   3.503   2.070  2.3318  1.2048 -0.9622
 2782SOL    HW219806   0.684   3.471   2.210  0.4196  0.7570  0.7362
 2783SOL     OW19807   0.510   4.439   4.502 -0.0364  0.0937 -0.2175
 2783SOL    HW119808   0.433   4.492   4.526  1.4870  2.6466 -0.9715
 2783SOL    HW219809   0.565   4.459   4.577 -0.2308  0.6639 -0.2283
 2784SOL     OW19810   2.742   2.198   9.714 -0.1038 -0.3069 -0.1382
 2784SOL    HW119811   2.727   2.269   9.652 -0.5484  0.4255  0.7989
 2784SOL    HW219812   2.664   2.148   9.692 -1.2244  0.7798  1.3504
 2785SOL     OW19813   4.221   4.405   2.307 -0.4562  0.0472 -0.3879
 2785SOL    HW119814   4.250   4.350   2.234  0.9964 -1.0511  1.0174
 2785SOL    HW219815   4.128   4.413   2.288 -0.8838 -0.5761  1.4439
 2786SOL     OW19816   3.830   3.463   1.298  0.1445  0.0629  0.0476
 2786SOL    HW119817   3.858   3.445   1.208 -3.6709 -0.2795 -1.0900
 2786SOL    HW219818   3.906   3.432   1.347 -1.2150 -1.2529  1.3276
 2787SOL     OW19819   3.032   2.460   0.278  0.0165 -0.7150 -0.2258
 2787SOL    HW119820   3.044   2.418   0.363  2.4584 -1.2936 -0.8404
 2787SOL    HW219821   3.085   2.539   0.288 -0.9612 -0.2434  1.2829
 2788SOL     OW19822   0.622   2.883   8.887 -0.3383  0.0333 -0.0281
 2788SOL    HW119823   0.535   2.850   8.909 -0.8311  0.7924 -0.8326
 2788SOL    HW219824   0.674   2.806   8.863  0.3607  0.1969  0.9734
 2789SOL     OW19825   4.211   3.289   1.719 -0.0874 -0.1373  0.3561
 2789SOL    HW119826   4.269   3.299   1.794  0.8444  0.7379 -0.4834
 2789SOL    HW219827   4.190   3.377   1.687 -3.2913 -0.4087  1.7050
 2790SOL     OW19828   2.135   0.668   3.657 -0.0336 -0.4191 -0.3836
 2790SOL    HW119829   2.209   0.631   3.705 -0.5238 -2.4959 -1.2511
 2790SOL    HW219830   2.183   0.710   3.586 -3.6081  1.3476 -1.7291
 2791SOL     OW19831   3.716   4.010  10.557 -0.2789  0.0043 -0.4265
 2791SOL    HW119832   3.739   4.031  10.647 -1.4280 -0.7783  0.0472
 2791SOL    HW219833   3.761   3.925  10.553  0.9914  0.6583  0.3194
 2792SOL     OW19834   0.559   1.788   0.195 -0.2167  0.1871 -0.1748
 2792SOL    HW119835   0.651   1.769   0.212 -0.2092  0.7060  0.3760
 2792SOL    HW219836   0.514   1.748   0.270  1.9825 -0.5195  0.7972
 2793SOL     OW19837   2.024   1.064   8.616 -0.0204  0.4288 -0.1675
 2793SOL    HW119838   2.075   1.143   8.635  0.4308 -0.0302  0.5302
 2793SOL    HW219839   2.048   1.045   8.525 -2.6012  0.3319 -0.8147
 2794SOL     OW19840   3.332   4.710   2.876 -0.0340  0.0796 -0.5930
 2794SOL    HW119841   3.343   0.061   2.935  0.8332 -1.4153  1.1303
 2794SOL    HW219842   3.243   4.691   2.905 -0.3736 -0.7835 -2.1618
 2795SOL     OW19843   0.429   3.338   7.202  0.0257  0.2339  0.2308
 2795SOL    HW119844   0.473   3.279   7.263 -0.0145 -1.3152 -1.2628
 2795SOL    HW219845   0.476   3.311   7.123  2.5992  0.2629  1.7472
 2796SOL     OW19846   1.075   2.750   2.507 -0.3408 -0.2638  0.6683
 2796SOL    HW119847   1.138   2.717   2.443  0.1509  0.2496  0.8849
 2796SOL    HW219848   1.102   2.842   2.502 -0.4006 -0.2202  1.1754
 2797SOL     OW19849   4.032   3.352   5.674  0.6853 -0.7520  0.1990
 2797SOL    HW119850   4.036   3.447   5.665 -2.2024 -0.6018  0.5452
 2797SOL    HW219851   3.975   3.340   5.750 -0.1308  1.6460 -0.0355
 2798SOL     OW19852   4.326   0.306   7.336 -0.1566 -0.2002 -0.0083
 2798SOL    HW119853   4.329   0.377   7.400 -1.8597  0.8124 -1.0603
 2798SOL    HW219854   4.293   0.353   7.259  0.9324  0.2140 -0.2371
 2799SOL     OW19855   2.377   2.437  11.172 -0.5812 -0.6723 -0.2855
 2799SOL    HW119856   2.442   2.495  11.211 -1.0966 -0.2228 -0.0929
 2799SOL    HW219857   2.389   2.358  11.224  1.8295 -1.0229 -1.3643
 2800SOL     OW19858   3.919   0.232   4.895  0.1833 -0.2328  0.3898
 2800SOL    HW119859   3.867   0.165   4.938  0.4240  0.0933  1.1777
 2800SOL    HW219860   3.879   0.308   4.936  0.4437 -1.0786  2.2188
 2801SOL     OW19861   3.938   4.417   2.211  0.3806 -0.3527  0.0953
 2801SOL    HW119862   3.868   4.435   2.274  0.2711 -0.2882 -0.0447
 2801SOL    HW219863   3.919   4.450   2.123  0.6148  0.9808  0.5580
 2802SOL     OW19864   2.572   3.220  11.682  0.0657 -0.1617 -0.8089
 2802SOL    HW119865   2.484   3.246  11.655  1.2136  2.7326 -1.7250
 2802SOL    HW219866   2.574   3.256  11.771  0.2911 -0.6959 -0.5938
 2803SOL     OW19867   1.727   3.260   7.332 -0.1103  0.5968 -0.1165
 2803SOL    HW119868   1.772   3.213   7.262  0.4594  2.1224 -0.7715
 2803SOL    HW219869   1.804   3.291   7.379  1.3866  0.2567 -2.3918
 2804SOL     OW19870   0.596   3.146   7.269  0.2678 -0.1526 -0.7195
 2804SOL    HW119871   0.650   3.122   7.194  1.0108 -0.4985 -0.0755
 2804SOL    HW219872   0.663   3.156   7.337 -0.3539 -0.4819 -0.0594
 2805SOL     OW19873   2.965   3.874   6.379  0.2512 -0.2010 -0.0794
 2805SOL    HW119874   2.883   3.922   6.370  0.5963  0.3266 -0.4152
 2805SOL    HW219875   2.998   3.928   6.451 -1.6311  1.6394 -0.6285
 2806SOL     OW19876   2.733   4.627   8.761 -0.2028  0.3097  0.1200
 2806SOL    HW119877   2.728   4.703   8.818  2.7451  1.1971 -0.7777
 2806SOL    HW219878   2.652   4.647   8.713  1.6121  1.5369 -2.4245
 2807SOL     OW19879   0.895   3.959   5.151  0.0218  0.6140 -0.0119
 2807SOL    HW119880   0.939   3.920   5.075  0.7723  1.6907 -0.1209
 2807SOL    HW219881   0.897   4.050   5.124 -1.6578  0.7689  0.3749
 2808SOL     OW19882   3.226   3.122   5.338 -0.1472 -0.0352 -0.9363
 2808SOL    HW119883   3.201   3.109   5.430  0.0502 -2.4859 -1.2351
 2808SOL    HW219884   3.207   3.036   5.302 -0.5239 -0.1237 -0.5230
 2809SOL     OW19885   0.970   1.877   5.228  0.0552 -0.2315  0.3589
 2809SOL    HW119886   1.017   1.795   5.215 -0.2476 -0.2825 -0.4120
 2809SOL    HW219887   0.966   1.868   5.323 -1.3851 -3.0982  0.0332
 2810SOL     OW19888   1.280   1.530   8.764  0.5027  0.1982  0.4304
 2810SOL    HW119889   1.328   1.508   8.844  1.2816  0.5288  0.0506
 2810SOL    HW219890   1.213   1.581   8.808 -1.3054 -0.0286 -2.0700
 2811SOL     OW19891   3.445   4.715  10.081  0.2622  0.0052 -0.4469
 2811SOL    HW119892   3.413   0.051  10.013  1.5270  0.3160 -0.7609
 2811SOL    HW219893   3.514   4.668  10.035  0.7918  0.6276 -0.2807
 2812SOL     OW19894   4.165   0.772  17.624  0.1131 -0.0721 -0.2791
 2812SOL    HW119895   4.110   0.762  17.546  0.1898 -1.3795 -0.1605
 2812SOL    HW219896   4.108   0.806  17.692  0.9042 -0.5087  0.5998
 2813SOL     OW19897   0.068   1.649   3.171 -0.3834  0.6563 -0.0243
 2813SOL    HW119898   0.102   1.738   3.162  2.2359 -0.1234  2.2977
 2813SOL    HW219899   0.112   1.623   3.252 -0.0974 -0.4826 -0.5330
 2814SOL     OW19900   1.363   0.028   3.561 -0.2994 -0.0549  0.3607
 2814SOL    HW119901   1.432   0.036   3.495 -0.3917  1.5406  0.4559
 2814SOL    HW219902   1.301   0.088   3.519  0.2633  0.2588 -0.0143
 2815SOL     OW19903   1.765   3.568   4.342 -0.6060  0.0764  0.4113
 2815SOL    HW119904   1.794   3.559   4.251  1.4880 -2.9614  1.4063
 2815SOL    HW219905   1.852   3.589   4.377 -0.2106 -0.0608 -0.4759
 2816SOL     OW19906   0.412   2.989   7.389 -0.3692  0.2398 -0.2575
 2816SOL    HW119907   0.465   3.057   7.348 -1.4657  1.7551  0.8509
 2816SOL    HW219908   0.463   2.914   7.357  0.9550  1.1552 -0.2555
 2817SOL     OW19909   1.126   2.026  13.414 -0.5507 -0.1477 -0.7723
 2817SOL    HW119910   1.146   1.939  13.450  0.9705  0.7948  0.6531
 2817SOL    HW219911   1.210   2.058  13.382  0.8828 -3.2317 -0.1162
 2818SOL     OW19912   0.568   4.671   3.641  1.0589  0.7084 -0.5112
 2818SOL    HW119913   0.538   4.617   3.714  1.7991  2.5020  1.1034
 2818SOL    HW219914   0.514   4.637   3.569  1.5161 -0.6259 -0.2276
 2819SOL     OW19915   4.263   2.327   4.439  0.4286  0.2876 -0.1586
 2819SOL    HW119916   4.230   2.403   4.391  1.6189  1.0434  0.2017
 2819SOL    HW219917   4.211   2.339   4.519  2.0851 -2.1522  1.2855
 2820SOL     OW19918   1.183   0.640  15.284  0.0905  0.1942  0.7559
 2820SOL    HW119919   1.255   0.694  15.315 -0.7280  2.0713 -0.6188
 2820SOL    HW219920   1.215   0.608  15.199 -0.0677  5.5218 -1.3173
 2821SOL     OW19921   4.098   2.486   4.963  0.4497 -0.3461 -0.0615
 2821SOL    HW119922   4.164   2.474   5.032 -0.1238  0.3931  0.6178
 2821SOL    HW219923   4.024   2.438   5.002  1.4715 -1.1249  0.9408
 2822SOL     OW19924   1.480   4.169   0.589 -0.3180 -0.6455 -0.1314
 2822SOL    HW119925   1.562   4.144   0.547  1.5862  2.0895  1.9351
 2822SOL    HW219926   1.429   4.202   0.515 -1.0708  0.6318  0.9572
 2823SOL     OW19927   2.369   0.540   3.756  0.0122  0.2554  0.7904
 2823SOL    HW119928   2.442   0.543   3.693 -0.4335 -0.5877  0.2398
 2823SOL    HW219929   2.365   0.451   3.790 -3.1498  0.8019  1.8180
 2824SOL     OW19930   0.787   2.781   2.304  0.8618  0.1064 -0.0979
 2824SOL    HW119931   0.825   2.847   2.246  2.7012  0.7013  1.7577
 2824SOL    HW219932   0.854   2.713   2.296 -1.8016 -2.0858 -3.3624
 2825SOL     OW19933   4.010   4.491   5.906 -0.5245 -0.5759  0.3296
 2825SOL    HW119934   4.098   4.454   5.897 -0.5401 -0.7345  0.8405
 2825SOL    HW219935   3.978   4.485   5.816 -0.9683  0.4014  0.4291
 2826SOL     OW19936   1.605   0.962   3.441 -0.2519 -0.3703  0.1025
 2826SOL    HW119937   1.687   0.927   3.477  0.5396  1.2620 -0.1365
 2826SOL    HW219938   1.550   0.953   3.518  1.4376  0.1503  1.3819
 2827SOL     OW19939   0.222   2.619  10.634 -0.7109 -0.2377 -0.2936
 2827SOL    HW119940   0.128   2.606  10.646 -0.6343 -0.0643  0.5098
 2827SOL    HW219941   0.219   2.702  10.587 -1.5546  0.7867  1.5871
 2828SOL     OW19942   0.472   1.038  10.871  0.0867  0.1604 -0.4226
 2828SOL    HW119943   0.449   1.112  10.815 -2.4227  0.0464  0.4374
 2828SOL    HW219944   0.394   0.982  10.863  0.4169 -0.0497 -2.1609
 2829SOL     OW19945   4.180   4.028  11.017  0.2078 -0.1763 -0.2025
 2829SOL    HW119946   4.125   3.951  11.001  0.9073 -0.8626  0.6933
 2829SOL    HW219947   4.214   4.006  11.104  1.4639  1.3243 -0.3206
 2830SOL     OW19948   0.148   0.952   2.332 -0.3707  0.4292 -0.5527
 2830SOL    HW119949   0.163   0.953   2.426 -0.5322 -0.3146 -0.5248
 2830SOL    HW219950   0.052   0.945   2.330 -0.2258 -1.5659 -0.0556
 2831SOL     OW19951   1.594   3.887  11.315 -0.6501  0.2314  0.6017
 2831SOL    HW119952   1.528   3.927  11.371 -1.0809  0.4404 -0.0630
 2831SOL    HW219953   1.592   3.794  11.337 -0.1114  0.1213  0.1765
 2832SOL     OW19954   4.645   0.556   9.894 -0.1891 -0.3497 -0.5021
 2832SOL    HW119955   4.620   0.584   9.806  0.0427  0.4136 -0.3236
 2832SOL    HW219956   4.574   0.569   9.958  0.4504  0.2430  0.0883
 2833SOL     OW19957   4.627   3.915  16.880 -0.2635 -0.1755  0.0697
 2833SOL    HW119958   4.631   3.901  16.785 -0.1812 -0.6905  0.1506
 2833SOL    HW219959   4.626   3.824  16.910 -1.5770 -0.6078 -1.2565
 2834SOL     OW19960   3.828   3.477  12.044 -0.1005 -0.4465  0.4777
 2834SOL    HW119961   3.889   3.550  12.032 -0.9538  0.1894  0.0373
 2834SOL    HW219962   3.881   3.423  12.103 -0.5400 -1.9023 -0.4423
 2835SOL     OW19963   2.267   4.290  11.067  0.0894  0.5293 -0.3056
 2835SOL    HW119964   2.285   4.213  11.121  0.1487  0.1177 -0.9207
 2835SOL    HW219965   2.234   4.345  11.139  1.4414 -1.0413  1.5025
 2836SOL     OW19966   3.624   4.162   5.764  0.3704  0.1310  0.5271
 2836SOL    HW119967   3.542   4.211   5.766  1.0877  1.4657 -2.8799
 2836SOL    HW219968   3.655   4.164   5.673  2.8539  0.2049  1.3946
 2837SOL     OW19969   1.622   3.156  10.547  0.3867 -0.5075 -0.3181
 2837SOL    HW119970   1.596   3.094  10.479  0.3306 -1.8353  0.9042
 2837SOL    HW219971   1.606   3.242  10.509  0.7877  0.4507  1.6745
 2838SOL     OW19972   1.410   2.615   3.888  0.6960 -0.1097 -0.7544
 2838SOL    HW119973   1.420   2.535   3.941 -0.2459  0.0198 -0.3733
 2838SOL    HW219974   1.416   2.590   3.796 -1.2427 -1.2618 -0.5712
 2839SOL     OW19975   0.201   4.573   8.655  0.1837 -0.0624 -0.1181
 2839SOL    HW119976   0.159   4.629   8.721  0.8191  0.3941 -0.1077
 2839SOL    HW219977   0.228   4.641   8.593  2.0272 -0.8288 -0.1216
 2840SOL     OW19978   0.851   3.351   0.891 -0.0861 -0.1456  0.0128
 2840SOL    HW119979   0.771   3.328   0.845 -0.5835 -3.3221  2.4068
 2840SOL    HW219980   0.900   3.269   0.885 -0.6729 -0.3076 -2.4563
 2841SOL     OW19981   4.601   4.240  13.333 -0.2240 -0.0063  0.0264
 2841SOL    HW119982   4.624   4.157  13.291 -0.1885  0.5619 -1.0922
 2841SOL    HW219983   4.506   4.232  13.328 -0.1319 -0.5780 -0.8921
 2842SOL     OW19984   0.651   0.730  16.402  0.1600 -0.2146 -0.2136
 2842SOL    HW119985   0.565   0.719  16.362  0.0969 -0.8167  0.0886
 2842SOL    HW219986   0.634   0.782  16.481 -2.3952 -0.9536 -0.2947
 2843SOL     OW19987   2.371   2.902   3.133 -0.1883 -0.7526 -0.0782
 2843SOL    HW119988   2.423   2.833   3.090 -0.7332  0.2020 -2.2950
 2843SOL    HW219989   2.338   2.934   3.049  1.6313 -1.3246 -1.0263
 2844SOL     OW19990   0.643   1.323   8.411 -1.2675  0.1112  0.4817
 2844SOL    HW119991   0.600   1.238   8.422  0.4259 -0.5075  2.2697
 2844SOL    HW219992   0.571   1.383   8.430 -2.4077 -0.4386 -2.2002
 2845SOL     OW19993   3.793   0.535   4.902  0.1067  0.0786 -0.0862
 2845SOL    HW119994   3.841   0.617   4.886 -0.8239  0.5741 -0.3096
 2845SOL    HW219995   3.769   0.508   4.814 -1.7357  0.5573  0.2696
 2846SOL     OW19996   1.263   0.232   2.516  0.3841  0.8571  0.3090
 2846SOL    HW119997   1.252   0.319   2.477 -0.3605  0.2848 -0.7516
 2846SOL    HW219998   1.191   0.179   2.480  0.2325  0.5849  1.0096
 2847SOL     OW19999   4.016   2.282   6.130  0.2941 -0.0068 -0.5203
 2847SOL    HW120000   3.935   2.311   6.089  0.6213 -0.8886 -1.7867
 2847SOL    HW220001   4.075   2.322   6.066  2.0195  1.5044  1.9838
 2848SOL     OW20002   2.305   1.146   3.441 -0.2846  0.2602 -0.4456
 2848SOL    HW120003   2.229   1.181   3.395 -0.6713 -0.5543 -0.4439
 2848SOL    HW220004   2.362   1.111   3.373  1.7142  1.3577  0.6912
 2849SOL     OW20005   3.954   0.991   1.693 -0.1376  0.0779  0.1471
 2849SOL    HW120006   3.942   0.983   1.787  1.3378  0.1130  0.3438
 2849SOL    HW220007   3.966   0.898   1.674  1.6439  0.3942 -0.3547
 2850SOL     OW20008   1.957   0.025   5.731 -0.4820  0.3069  0.3579
 2850SOL    HW120009   2.028   0.076   5.770 -0.0803  1.7589 -2.2690
 2850SOL    HW220010   1.942   4.681   5.797  0.5325 -0.4167 -0.1738
 2851SOL     OW20011   4.380   3.907   1.172 -0.5586  0.4084 -0.4796
 2851SOL    HW120012   4.464   3.865   1.192 -0.1526  1.0861 -0.7827
 2851SOL    HW220013   4.385   3.987   1.224 -1.1971 -1.3212  2.2546
 2852SOL     OW20014   2.388   2.476   3.474  0.5363  0.5920  0.1204
 2852SOL    HW120015   2.411   2.524   3.395  0.7745 -2.5584 -1.7284
 2852SOL    HW220016   2.464   2.491   3.531 -0.5860 -0.2520  1.8478
 2853SOL     OW20017   1.562   2.439   5.981 -0.3802  0.4719  0.6249
 2853SOL    HW120018   1.579   2.531   6.002 -1.0809  0.9126 -0.7947
 2853SOL    HW220019   1.472   2.441   6.013 -1.0662  3.0235 -1.5207
 2854SOL     OW20020   0.727   0.663   3.458  0.2780  0.0016  0.5837
 2854SOL    HW120021   0.818   0.635   3.446 -0.4987 -2.0573 -0.4239
 2854SOL    HW220022   0.673   0.585   3.469 -1.5349  1.0984 -0.4766
 2855SOL     OW20023   3.478   0.027   4.686  0.4049  0.1707 -0.6039
 2855SOL    HW120024   3.501   0.096   4.748  0.3711  1.6358 -2.2209
 2855SOL    HW220025   3.386   0.024   4.712  1.1105  1.6676  2.0349
 2856SOL     OW20026   1.083   2.215   2.853  0.0679 -0.2582  0.2808
 2856SOL    HW120027   1.039   2.300   2.856 -1.5934 -1.0709 -0.8867
 2856SOL    HW220028   1.006   2.162   2.830  0.4547 -1.1279  0.9813
 2857SOL     OW20029   1.972   2.784   6.383 -0.3406 -0.0107  0.4913
 2857SOL    HW120030   1.893   2.837   6.372  0.4693  1.2564  0.8169
 2857SOL    HW220031   2.021   2.787   6.301 -0.5344 -1.7003  0.3136
 2858SOL     OW20032   0.557   1.463   3.902  0.0327  0.0392 -0.2430
 2858SOL    HW120033   0.631   1.498   3.952  0.2633  0.1823 -0.6820
 2858SOL    HW220034   0.523   1.552   3.889  0.9321  0.2517 -1.1886
 2859SOL     OW20035   4.599   1.084  12.327  0.3815 -0.6562  0.3349
 2859SOL    HW120036   4.634   1.005  12.366 -0.8600 -0.1885  2.4057
 2859SOL    HW220037   4.520   1.090  12.381  0.7472 -0.4800  0.8387
 2860SOL     OW20038   2.353   1.627   7.376 -0.0810 -0.0834 -0.1264
 2860SOL    HW120039   2.436   1.607   7.419 -0.3664 -1.3733 -0.1757
 2860SOL    HW220040   2.341   1.720   7.397 -2.2828 -1.0305  2.7501
 2861SOL     OW20041   4.441   2.463   4.843 -0.0696 -0.3722  0.2752
 2861SOL    HW120042   4.534   2.443   4.841 -0.5523 -2.5859 -0.3555
 2861SOL    HW220043   4.409   2.434   4.929 -0.0165 -1.0030  0.0793
 2862SOL     OW20044   2.996   1.557   2.794 -0.7106 -0.0646 -0.4539
 2862SOL    HW120045   2.969   1.466   2.782 -3.5343  0.1950  3.8881
 2862SOL    HW220046   3.018   1.571   2.702 -1.3265 -0.1337 -0.6153
 2863SOL     OW20047   2.911   2.330   8.130  0.2563  0.5885 -0.1283
 2863SOL    HW120048   2.862   2.272   8.072 -1.8031  1.5934  0.6106
 2863SOL    HW220049   2.926   2.269   8.202 -0.9674 -0.0696 -0.4283
 2864SOL     OW20050   0.201   3.159  11.614 -0.2630  0.1406  0.3010
 2864SOL    HW120051   0.217   3.140  11.706  0.0810 -1.4775 -0.1010
 2864SOL    HW220052   0.250   3.093  11.564  1.1060  1.6821 -0.3855
 2865SOL     OW20053   2.373   0.697   8.922 -0.4832  0.1963  0.1983
 2865SOL    HW120054   2.374   0.725   8.830 -0.6721 -0.6050 -0.0423
 2865SOL    HW220055   2.298   0.639   8.910  0.6162 -1.7230  2.7290
 2866SOL     OW20056   4.666   3.690   8.534  0.8074  0.3683 -0.0431
 2866SOL    HW120057   4.590   3.668   8.480 -0.3411  0.9011  1.3565
 2866SOL    HW220058   4.653   3.625   8.603 -0.7372 -1.0903 -1.6985
 2867SOL     OW20059   3.531   4.428   7.560  0.2651  0.1377 -0.0232
 2867SOL    HW120060   3.568   4.390   7.640  0.7124  0.6769  0.0267
 2867SOL    HW220061   3.507   4.516   7.589 -1.3864  0.1039 -1.3320
 2868SOL     OW20062   3.305   1.282   3.368 -0.0391  0.1467  0.2694
 2868SOL    HW120063   3.229   1.282   3.425  1.1624  2.3160  1.8581
 2868SOL    HW220064   3.281   1.215   3.304  0.3385 -0.7414  1.0498
 2869SOL     OW20065   1.672   0.782   8.164 -0.0946 -0.2606 -0.1447
 2869SOL    HW120066   1.687   0.688   8.169  2.6786  0.1392 -1.5166
 2869SOL    HW220067   1.656   0.803   8.072 -0.5105 -0.7352 -0.1800
 2870SOL     OW20068   0.726   1.347  13.636  0.0828 -0.0611  0.2001
 2870SOL    HW120069   0.703   1.382  13.722  1.2346  0.1600  0.4194
 2870SOL    HW220070   0.743   1.435  13.603 -2.2128  0.7206  1.1100
 2871SOL     OW20071   1.390   0.382   5.630  0.4410 -0.1347  0.3858
 2871SOL    HW120072   1.352   0.390   5.718  1.2031 -0.6317  0.7592
 2871SOL    HW220073   1.439   0.302   5.649  0.4994 -0.1503  0.1616
 2872SOL     OW20074   0.302   1.789   3.504 -0.1161  0.1719 -0.0718
 2872SOL    HW120075   0.335   1.774   3.415 -1.6179  1.2464 -0.8090
 2872SOL    HW220076   0.293   1.698   3.534 -1.5763  0.1121 -0.6884
 2873SOL     OW20077   3.314   2.233   7.213 -0.0039  0.6928  0.4999
 2873SOL    HW120078   3.338   2.263   7.301  0.6946 -0.1147  0.5863
 2873SOL    HW220079   3.401   2.232   7.173 -1.0471  0.5747 -1.7185
 2874SOL     OW20080   2.912   1.647  16.716  0.0174 -0.3417  0.3523
 2874SOL    HW120081   2.845   1.637  16.649 -1.3144  0.8699  1.5005
 2874SOL    HW220082   2.896   1.564  16.761 -0.4005 -0.5038 -0.0954
 2875SOL     OW20083   2.548   3.700   1.526 -0.0837 -0.7046 -0.2273
 2875SOL    HW120084   2.504   3.626   1.482 -0.2532 -1.4338  1.1623
 2875SOL    HW220085   2.639   3.683   1.503 -0.0138  0.4887 -0.8199
 2876SOL     OW20086   0.097   1.696   4.507 -0.1013 -0.1359 -0.1499
 2876SOL    HW120087   0.143   1.612   4.512 -0.7248 -0.4642  0.1571
 2876SOL    HW220088   0.051   1.688   4.423  0.8443 -1.8257 -0.5026
 2877SOL     OW20089   3.022   4.364   7.795  0.8800 -0.5983 -0.4408
 2877SOL    HW120090   2.994   4.294   7.736 -3.0510 -0.8277  1.6208
 2877SOL    HW220091   2.942   4.397   7.837  1.8805  1.0828  0.1499
 2878SOL     OW20092   4.384   3.159  14.889  0.0420  0.1307  0.0558
 2878SOL    HW120093   4.453   3.094  14.878  1.1867  1.2663  0.5870
 2878SOL    HW220094   4.374   3.150  14.984  0.1144 -1.9324 -0.1269
 2879SOL     OW20095   1.995   2.790   9.228 -0.5261  0.5684 -0.6141
 2879SOL    HW120096   2.079   2.820   9.195  0.1350  1.1271  1.5542
 2879SOL    HW220097   1.993   2.811   9.321 -2.7490  1.0230 -0.7629
 2880SOL     OW20098   0.013   3.090   8.335 -0.3339 -0.3345 -0.1157
 2880SOL    HW120099   4.710   3.096   8.426  1.7601  0.8584  0.4092
 2880SOL    HW220100   0.084   3.028   8.319  0.4592  0.1173  1.7801
 2881SOL     OW20101   3.641   3.090   6.411 -0.4320 -0.4064  0.2877
 2881SOL    HW120102   3.652   3.181   6.439  0.3798 -0.8105  1.2788
 2881SOL    HW220103   3.663   3.049   6.494 -0.2233  0.2237  0.5446
 2882SOL     OW20104   0.401   1.899   9.154 -0.3114  1.3276  0.1621
 2882SOL    HW120105   0.430   1.953   9.226  0.4903  2.0219 -0.6881
 2882SOL    HW220106   0.308   1.882   9.169 -0.9344  4.3961 -0.2083
 2883SOL     OW20107   2.906   0.971  11.876  0.1983 -0.2964  0.1302
 2883SOL    HW120108   2.885   1.018  11.956 -0.0409  0.8464 -0.6021
 2883SOL    HW220109   2.949   0.893  11.911  1.2698  1.2115  2.1451
 2884SOL     OW20110   0.314   1.568   7.203  0.6306  0.1330  0.6910
 2884SOL    HW120111   0.308   1.619   7.122 -1.7027 -0.8134  0.2956
 2884SOL    HW220112   0.401   1.602   7.228  1.0810 -1.7216  1.5891
 2885SOL     OW20113   1.330   0.905   2.386 -0.0045 -0.7273 -0.4976
 2885SOL    HW120114   1.340   0.976   2.450  0.8923 -0.9858 -0.3490
 2885SOL    HW220115   1.350   0.820   2.425 -3.0747 -0.9544  0.5249
 2886SOL     OW20116   4.584   1.239   4.934 -0.0175 -0.0777  0.8248
 2886SOL    HW120117   4.639   1.245   4.855 -0.7973  1.2243  0.3870
 2886SOL    HW220118   4.544   1.152   4.927  1.4925 -0.7097  0.0060
 2887SOL     OW20119   0.974   1.939   0.311 -0.3503 -0.1824 -0.2252
 2887SOL    HW120120   0.977   2.001   0.384 -0.0156  1.7866 -1.9483
 2887SOL    HW220121   0.921   1.865   0.343  0.9395 -1.6047 -1.3966
 2888SOL     OW20122   1.771   1.813   6.113 -0.5197  0.7740 -0.0990
 2888SOL    HW120123   1.729   1.795   6.197 -0.6409 -0.6476 -0.4678
 2888SOL    HW220124   1.751   1.906   6.099 -3.0527  0.3040  0.3364
 2889SOL     OW20125   2.129   0.049   7.142 -0.4222  0.2639  0.5531
 2889SOL    HW120126   2.127   0.014   7.053  0.7862  2.3634 -0.2730
 2889SOL    HW220127   2.173   4.706   7.195  0.2518 -0.2088 -0.6132
 2890SOL     OW20128   4.282   1.567   6.355  0.0010  0.1458 -0.5778
 2890SOL    HW120129   4.223   1.594   6.285  0.5697  2.1615 -0.2831
 2890SOL    HW220130   4.229   1.556   6.434  1.5373 -1.3150  0.2407
 2891SOL     OW20131   2.557   0.607   7.032  0.0770 -0.0896 -0.4875
 2891SOL    HW120132   2.528   0.572   7.116 -0.2502  3.1703  0.7280
 2891SOL    HW220133   2.508   0.688   7.032 -0.0048 -0.1415 -1.6145
 2892SOL     OW20134   3.235   2.041   5.759  0.5715 -0.3571 -0.4318
 2892SOL    HW120135   3.153   2.018   5.802  0.2772  0.7696 -0.3893
 2892SOL    HW220136   3.268   1.952   5.750 -0.8047 -0.9223  0.2381
 2893SOL     OW20137   1.865   0.700   4.244 -0.1656 -0.1437 -0.2239
 2893SOL    HW120138   1.826   0.787   4.244 -0.7635 -0.4087 -0.1717
 2893SOL    HW220139   1.792   0.651   4.207 -1.2922  1.8785 -0.6441
 2894SOL     OW20140   2.499   0.196   1.958 -0.6235  0.3965 -0.3131
 2894SOL    HW120141   2.475   0.281   1.994  0.1296 -0.4789  2.2312
 2894SOL    HW220142   2.494   0.201   1.862  1.1079  1.2072 -0.3520
 2895SOL     OW20143   4.584   2.428   6.314 -0.2804 -0.0508  0.3568
 2895SOL    HW120144   4.586   2.334   6.300  1.2785 -0.1574  1.3257
 2895SOL    HW220145   4.505   2.442   6.366 -0.2014  2.6485 -0.2248
 2896SOL     OW20146   3.219   0.891  17.122 -0.5866  0.3755  0.1997
 2896SOL    HW120147   3.272   0.878  17.043  1.8677  0.3252  1.8509
 2896SOL    HW220148   3.192   0.982  17.116  0.9942  0.8716  0.4951
 2897SOL     OW20149   4.147   3.976  11.466 -0.1823 -0.4056 -0.0171
 2897SOL    HW120150   4.205   3.964  11.391 -0.5159 -0.2574 -0.2987
 2897SOL    HW220151   4.122   3.884  11.479  1.7243 -0.8796  0.2650
 2898SOL     OW20152   2.186   4.102  17.270  0.4955 -0.1821  0.1907
 2898SOL    HW120153   2.143   4.137  17.348 -0.2365  2.1862 -1.2655
 2898SOL    HW220154   2.264   4.156  17.271  0.6056 -0.2983 -1.1643
 2899SOL     OW20155   0.851   4.356  17.610 -0.7462  0.5348 -0.4098
 2899SOL    HW120156   0.832   4.450  17.613  0.6432  0.7778  1.2031
 2899SOL    HW220157   0.764   4.322  17.629 -0.5929 -0.4642 -1.4847
 2900SOL     OW20158   2.044   0.385   3.648 -0.1257  0.5926 -0.1244
 2900SOL    HW120159   2.044   0.369   3.553 -1.5149 -0.0626 -0.0107
 2900SOL    HW220160   2.061   0.479   3.652  0.1008  0.6450 -2.3192
 2901SOL     OW20161   0.550   3.315   8.044 -0.1486 -0.0164  0.0989
 2901SOL    HW120162   0.569   3.234   8.090 -1.9867 -0.2217  0.5259
 2901SOL    HW220163   0.626   3.365   8.072 -0.5442  0.2604  0.6652
 2902SOL     OW20164   3.605   3.895  11.584  0.0821  0.0204 -0.0813
 2902SOL    HW120165   3.556   3.973  11.560 -1.9303 -1.2775 -0.2256
 2902SOL    HW220166   3.630   3.865  11.496  1.3644 -0.2254  0.3773
 2903SOL     OW20167   0.616   3.769  16.882 -0.0483 -0.4513 -0.6141
 2903SOL    HW120168   0.546   3.729  16.934  0.3234 -1.3324 -0.7872
 2903SOL    HW220169   0.567   3.805  16.807 -1.8966 -1.2485  0.2035
 2904SOL     OW20170   2.184   1.494  13.963 -0.8202 -0.0196 -0.4944
 2904SOL    HW120171   2.089   1.481  13.953 -0.9666  2.3755 -2.0724
 2904SOL    HW220172   2.218   1.448  13.886  0.4492 -0.7073  0.4854
 2905SOL     OW20173   4.127   3.642  14.079  0.1744  0.0701  0.1949
 2905SOL    HW120174   4.184   3.595  14.018 -2.0616  0.1258 -1.9417
 2905SOL    HW220175   4.048   3.589  14.094  0.3851 -0.7601 -1.6571
 2906SOL     OW20176   2.184   1.819   9.652 -0.0497  0.0883  0.4720
 2906SOL    HW120177   2.103   1.783   9.617 -0.8027  0.6853  1.6030
 2906SOL    HW220178   2.158   1.909   9.674 -1.2095 -0.8739  3.0936
 2907SOL     OW20179   3.041   0.792   0.801 -0.6751  0.1546  0.2136
 2907SOL    HW120180   3.052   0.886   0.792 -0.5682  0.1438  0.2192
 2907SOL    HW220181   3.119   0.753   0.760  0.1268  2.8550 -0.8288
 2908SOL     OW20182   1.285   0.713   9.404  0.9399  0.2491 -0.2621
 2908SOL    HW120183   1.344   0.650   9.446  0.8821  0.5522  0.2701
 2908SOL    HW220184   1.282   0.767   9.483  0.8046  1.0540 -0.8285
 2909SOL     OW20185   1.146   1.212   8.471 -0.2899 -0.1393 -0.2403
 2909SOL    HW120186   1.110   1.277   8.532  2.2593 -1.4399  2.6508
 2909SOL    HW220187   1.091   1.138   8.498  2.0303 -1.9811 -0.6377
 2910SOL     OW20188   4.222   1.271  12.689  0.1050 -0.3632  0.0021
 2910SOL    HW120189   4.221   1.246  12.597  2.3880 -1.1351  0.1935
 2910SOL    HW220190   4.268   1.202  12.737 -2.0502 -0.8539  1.4076
 2911SOL     OW20191   3.491   1.962   6.367 -0.1190  0.6775  0.8861
 2911SOL    HW120192   3.498   2.056   6.383 -0.1830  0.5012  2.0038
 2911SOL    HW220193   3.499   1.917   6.452 -1.4019 -0.1429  0.5766
 2912SOL     OW20194   1.278   2.280  14.572  0.1630 -0.2589 -0.2363
 2912SOL    HW120195   1.341   2.341  14.611  1.4170 -1.3280 -0.6013
 2912SOL    HW220196   1.205   2.341  14.561  1.8561  2.2648  2.7412
 2913SOL     OW20197   3.469   3.222   3.886 -0.2737 -0.0270 -0.1197
 2913SOL    HW120198   3.460   3.301   3.832 -2.1214 -0.3297 -0.2668
 2913SOL    HW220199   3.384   3.202   3.927  0.3124 -1.5582  0.3389
 2914SOL     OW20200   0.992   2.335   5.171  0.1072 -0.1156 -0.0175
 2914SOL    HW120201   0.938   2.414   5.176 -2.6484 -2.0792  1.0291
 2914SOL    HW220202   0.935   2.268   5.208  0.4100 -0.0833  0.5093
 2915SOL     OW20203   4.158   0.833   2.987  0.3964 -0.3416 -0.0695
 2915SOL    HW120204   4.233   0.810   3.042 -0.2116 -0.2041  0.8369
 2915SOL    HW220205   4.110   0.894   3.043  0.2581 -0.2399 -0.3008
 2916SOL     OW20206   2.250   3.649   3.631  0.0646 -0.4335 -0.3386
 2916SOL    HW120207   2.326   3.615   3.583 -0.8171 -3.0096  0.0676
 2916SOL    HW220208   2.256   3.734   3.587  0.1484  0.2351  0.9653
 2917SOL     OW20209   3.604   4.360   8.078 -0.3217 -0.7892  0.0825
 2917SOL    HW120210   3.616   4.346   8.172 -0.8273 -1.4467  0.0537
 2917SOL    HW220211   3.606   4.455   8.069  3.0671 -0.9075 -0.2317
 2918SOL     OW20212   1.355   2.205   2.859  0.1018 -0.5904 -0.8773
 2918SOL    HW120213   1.367   2.152   2.780  2.6394  0.3830 -1.1351
 2918SOL    HW220214   1.269   2.244   2.842  1.2746  1.5252 -1.9457
 2919SOL     OW20215   1.832   2.768   8.326 -0.3067 -0.3893 -0.1586
 2919SOL    HW120216   1.812   2.679   8.295  0.8685 -1.2163  1.4705
 2919SOL    HW220217   1.749   2.815   8.315  0.2491  0.1728 -2.0162
 2920SOL     OW20218   1.312   0.545  13.443 -0.0400  0.2357 -0.0542
 2920SOL    HW120219   1.299   0.636  13.471 -1.4027 -0.4506  1.5632
 2920SOL    HW220220   1.279   0.504  13.523 -2.4641  1.0357 -0.6443
 2921SOL     OW20221   1.975   2.761   5.397 -0.3447  0.0018 -0.6150
 2921SOL    HW120222   2.028   2.730   5.324 -2.4113  0.5853 -2.3516
 2921SOL    HW220223   1.894   2.788   5.354 -1.3985 -1.7597  0.2789
 2922SOL     OW20224   2.389   4.492   7.082  0.4439  0.5048 -0.0190
 2922SOL    HW120225   2.447   4.431   7.037  0.1813  1.9257 -2.2779
 2922SOL    HW220226   2.423   4.576   7.051  0.1389  1.0244  1.0637
 2923SOL     OW20227   1.106   3.941  15.963 -0.4788  0.1943 -0.5263
 2923SOL    HW120228   1.172   3.968  15.899  1.2162 -0.7873  0.7794
 2923SOL    HW220229   1.131   3.849  15.979 -1.0525 -0.1130 -1.4210
 2924SOL     OW20230   2.477   3.794   6.865 -0.0441 -0.6820 -0.3575
 2924SOL    HW120231   2.514   3.733   6.801  0.1439 -1.4311  0.4621
 2924SOL    HW220232   2.561   3.823   6.900 -0.8613  1.0055  0.1798
 2925SOL     OW20233   3.715   0.484   7.909  0.1953 -0.5508  0.0059
 2925SOL    HW120234   3.685   0.434   7.832 -1.2226  1.0707 -0.4688
 2925SOL    HW220235   3.695   0.574   7.883 -0.7028 -0.7954 -0.1380
 2926SOL     OW20236   1.798   0.555   7.381 -0.5005  0.1782 -0.2979
 2926SOL    HW120237   1.852   0.633   7.367 -0.9605  0.7775  1.2462
 2926SOL    HW220238   1.873   0.499   7.399 -1.1421 -0.9042 -1.0136
 2927SOL     OW20239   4.113   3.426   9.219 -0.2792  0.3132  0.0345
 2927SOL    HW120240   4.069   3.397   9.139 -2.2038 -2.7082  2.1882
 2927SOL    HW220241   4.183   3.362   9.213 -0.0334  0.6747 -1.0896
 2928SOL     OW20242   1.589   3.898   5.821  0.3939  0.2864  0.3422
 2928SOL    HW120243   1.535   3.824   5.851 -0.0478 -0.8960 -3.4409
 2928SOL    HW220244   1.605   3.878   5.729  1.2186 -0.5800  0.6672
 2929SOL     OW20245   2.365   1.858   6.257 -0.0678 -0.0241  0.2039
 2929SOL    HW120246   2.363   1.767   6.229 -1.7153 -1.0061  3.4970
 2929SOL    HW220247   2.278   1.879   6.291  0.9949  1.4622  1.9953
 2930SOL     OW20248   3.341   2.192   6.028  0.0927 -0.7276 -0.6056
 2930SOL    HW120249   3.308   2.132   6.095 -0.5114  2.0039  1.5664
 2930SOL    HW220250   3.314   2.137   5.954 -1.4390  2.5226 -2.5242
 2931SOL     OW20251   2.209   4.446   5.743  0.4630 -0.3633 -0.2981
 2931SOL    HW120252   2.302   4.426   5.733  1.0373  2.1715  0.1849
 2931SOL    HW220253   2.185   4.496   5.665  1.1112 -0.9252 -0.8539
 2932SOL     OW20254   4.241   3.323   6.693  0.3991  0.1104  0.4102
 2932SOL    HW120255   4.222   3.350   6.782  1.3244  0.0437  0.6260
 2932SOL    HW220256   4.155   3.286   6.670  0.3825  0.6630 -0.4363
 2933SOL     OW20257   4.446   2.587   1.255  0.9774 -0.6325  0.8984
 2933SOL    HW120258   4.460   2.527   1.182  0.2786  0.4058 -0.1168
 2933SOL    HW220259   4.523   2.643   1.244 -1.6527  2.4541 -1.9701
 2934SOL     OW20260   4.122   0.453  16.589 -0.0563 -0.6694  0.4497
 2934SOL    HW120261   4.079   0.396  16.525 -0.8767  0.7366 -0.2387
 2934SOL    HW220262   4.053   0.518  16.601  0.4087  0.1545 -1.4077
 2935SOL     OW20263   4.476   2.911   8.482  0.4269  0.0670 -0.5458
 2935SOL    HW120264   4.424   2.990   8.497  0.0711 -0.0210 -1.3426
 2935SOL    HW220265   4.440   2.879   8.399  0.6856 -1.3576 -0.1108
 2936SOL     OW20266   1.411   2.047   2.651  0.1702  0.4616 -0.6525
 2936SOL    HW120267   1.418   1.966   2.600 -0.3582  0.2713 -0.4252
 2936SOL    HW220268   1.472   2.101   2.601 -0.5424  2.2645  0.4234
 2937SOL     OW20269   0.685   2.728   8.433  0.0713 -0.5817  0.1931
 2937SOL    HW120270   0.661   2.668   8.362  0.8945  1.3554 -1.7363
 2937SOL    HW220271   0.776   2.704   8.451 -0.1972 -1.3832  0.4733
 2938SOL     OW20272   3.407   3.038   3.239  0.5347 -0.3626  0.2530
 2938SOL    HW120273   3.327   3.017   3.190  0.1544  0.7398  0.4173
 2938SOL    HW220274   3.474   2.981   3.201  0.8199  1.4790 -2.0353
 2939SOL     OW20275   0.123   2.591   6.345  0.0873  0.6549  0.6249
 2939SOL    HW120276   0.075   2.534   6.406 -0.0679  0.1600  0.0418
 2939SOL    HW220277   0.205   2.543   6.349 -0.2381 -0.0628 -0.9468
 2940SOL     OW20278   3.446   1.910   8.412  0.0787  0.1847  0.2636
 2940SOL    HW120279   3.443   1.848   8.485 -0.5318  1.2771  1.1654
 2940SOL    HW220280   3.535   1.911   8.376 -0.5736 -0.5463 -1.4125
 2941SOL     OW20281   1.134   1.325  14.675 -0.6669 -0.3247  0.4124
 2941SOL    HW120282   1.115   1.306  14.767 -0.5311  0.2187  0.5573
 2941SOL    HW220283   1.196   1.257  14.647  0.3667  1.1291 -0.8770
 2942SOL     OW20284   4.011   3.191  15.300  0.5256 -0.3521  0.3598
 2942SOL    HW120285   3.955   3.214  15.374  0.7959 -0.6188  0.6448
 2942SOL    HW220286   3.935   3.170  15.245  1.1255  0.0021 -0.5957
 2943SOL     OW20287   2.593   3.349   4.442  0.5892  0.0931 -0.2069
 2943SOL    HW120288   2.558   3.301   4.517 -0.2940  0.8950 -0.1058
 2943SOL    HW220289   2.513   3.400   4.426 -0.1427 -1.2005 -0.6179
 2944SOL     OW20290   0.529   1.396   6.274  0.0689  0.1844 -0.0190
 2944SOL    HW120291   0.606   1.446   6.302 -0.1689 -0.5485  1.9566
 2944SOL    HW220292   0.550   1.382   6.182  0.9124  1.2612  0.0060
 2945SOL     OW20293   2.730   0.687   2.636 -0.4926  0.3827  0.0580
 2945SOL    HW120294   2.680   0.767   2.616  0.4268  0.4352 -2.0030
 2945SOL    HW220295   2.764   0.693   2.726  0.0507  1.8371 -0.2442
 2946SOL     OW20296   1.145   4.185   7.879  0.3576  0.5236 -0.0632
 2946SOL    HW120297   1.220   4.239   7.852  1.0385 -0.1107  0.5516
 2946SOL    HW220298   1.074   4.224   7.828 -2.0930 -1.3763  1.9605
 2947SOL     OW20299   1.193   3.736   3.350 -0.2203 -0.0152  0.1438
 2947SOL    HW120300   1.143   3.758   3.271  1.2304  1.1890 -0.4294
 2947SOL    HW220301   1.197   3.822   3.393  3.3267  0.8814 -1.9355
 2948SOL     OW20302   2.604   2.563   4.139  0.4154  0.2352 -0.6444
 2948SOL    HW120303   2.555   2.511   4.202  1.5975  1.6610  1.4483
 2948SOL    HW220304   2.535   2.621   4.106 -0.0226  0.3864  0.5382
 2949SOL     OW20305   0.241   3.973   8.792 -0.5393 -0.2406  0.2501
 2949SOL    HW120306   0.184   3.938   8.724 -1.0293 -0.8994  1.0057
 2949SOL    HW220307   0.322   3.926   8.772 -0.8907 -1.1729  1.0498
 2950SOL     OW20308   3.983   1.077   9.474 -0.1199 -0.5621 -0.0284
 2950SOL    HW120309   3.947   1.101   9.560 -2.7197 -0.5467 -1.1356
 2950SOL    HW220310   3.929   1.135   9.421 -0.8497  0.0802  1.4213
 2951SOL     OW20311   1.492   3.507   8.403  0.0207 -0.0820  0.2218
 2951SOL    HW120312   1.571   3.562   8.404  0.8494 -1.3221  1.1882
 2951SOL    HW220313   1.527   3.437   8.348 -0.3588 -0.4339  0.4354
 2952SOL     OW20314   0.023   2.259  14.543 -0.2343  0.5527 -0.9540
 2952SOL    HW120315   0.070   2.339  14.522  0.1427  0.7241  0.5463
 2952SOL    HW220316   4.677   2.282  14.603  2.1119 -1.2064  2.4632
 2953SOL     OW20317   2.560   1.963   9.682 -0.7029 -0.5056  0.5533
 2953SOL    HW120318   2.490   1.987   9.742  0.0047  1.4787  0.5885
 2953SOL    HW220319   2.504   1.935   9.610 -0.5964  0.1851  0.2030
 2954SOL     OW20320   3.615   2.663   6.576  0.0110  0.4471  0.6248
 2954SOL    HW120321   3.548   2.730   6.589 -2.1479 -1.2252 -1.8774
 2954SOL    HW220322   3.607   2.629   6.487  0.3923  0.4326  0.5953
 2955SOL     OW20323   2.487   4.597   0.491 -0.4998 -0.0102 -0.0601
 2955SOL    HW120324   2.407   4.576   0.540 -0.1981 -0.8614  0.0780
 2955SOL    HW220325   2.544   4.599   0.568 -0.2804 -1.4702 -0.1810
 2956SOL     OW20326   1.294   2.050   2.062  0.0241  0.7873  0.0797
 2956SOL    HW120327   1.248   1.992   2.123 -0.4268 -0.9983 -1.9825
 2956SOL    HW220328   1.224   2.114   2.046  1.1903  2.1996  0.6269
 2957SOL     OW20329   2.889   2.657   6.036  0.0973  0.2828  0.2781
 2957SOL    HW120330   2.922   2.671   6.124  0.0385  0.9013  0.2029
 2957SOL    HW220331   2.967   2.649   5.981  1.1494  1.9664  1.5519
 2958SOL     OW20332   2.580   3.026   3.694 -0.1738 -0.2186  0.6104
 2958SOL    HW120333   2.602   3.118   3.679  2.4830 -0.6368  1.9771
 2958SOL    HW220334   2.637   2.994   3.624 -1.6359  1.3293 -1.2824
 2959SOL     OW20335   0.671   2.986   4.353 -0.4068  0.5773  0.1293
 2959SOL    HW120336   0.715   2.997   4.269 -0.9706 -1.2713 -0.4159
 2959SOL    HW220337   0.693   2.894   4.368 -4.2163 -0.1642  1.0307
 2960SOL     OW20338   3.980   0.562  10.841 -0.0756  0.2523 -0.5105
 2960SOL    HW120339   4.009   0.653  10.844 -1.1473  0.6038 -0.9117
 2960SOL    HW220340   4.018   0.518  10.917  0.4389  0.8818 -0.4000
 2961SOL     OW20341   3.130   2.619   4.807  0.0453  0.2763 -0.1780
 2961SOL    HW120342   3.054   2.634   4.863 -2.3183 -3.2896 -2.4472
 2961SOL    HW220343   3.212   2.649   4.847 -0.1528  0.5320  0.0362
 2962SOL     OW20344   1.359   0.021  14.698 -0.2139  0.1232  0.1957
 2962SOL    HW120345   1.397   4.657  14.692 -1.2760 -0.5530  3.1978
 2962SOL    HW220346   1.433   0.080  14.703  1.7700 -2.1104 -2.9906
 2963SOL     OW20347   4.704   0.855   8.926  0.7312  0.1206 -0.7702
 2963SOL    HW120348   0.074   0.839   8.941  0.4242  0.4535  1.4981
 2963SOL    HW220349   4.674   0.898   9.005  2.2634  0.9447 -0.6462
 2964SOL     OW20350   2.073   3.305   3.460  0.2288 -0.7821  0.4119
 2964SOL    HW120351   2.016   3.339   3.391  3.7455 -1.6302 -2.9159
 2964SOL    HW220352   2.035   3.218   3.472  0.2508 -0.4805  2.7920
 2965SOL     OW20353   2.911   4.122   4.770 -0.1387  0.4448  0.1327
 2965SOL    HW120354   2.873   4.204   4.800 -2.2958 -0.4453 -0.1709
 2965SOL    HW220355   3.004   4.140   4.786 -0.6067  1.0198  2.1218
 2966SOL     OW20356   0.200   3.943  14.634  1.1546  0.2052  0.3057
 2966SOL    HW120357   0.275   3.998  14.655  1.2626  0.1829 -0.0235
 2966SOL    HW220358   0.223   3.913  14.546 -0.1602  2.1335 -0.6955
 2967SOL     OW20359   1.431   0.878  14.659 -0.2259 -0.0093 -0.3226
 2967SOL    HW120360   1.456   0.829  14.581  0.2450 -1.8110  0.9339
 2967SOL    HW220361   1.518   0.890  14.696 -0.5284 -0.7293  0.6453
 2968SOL     OW20362   4.229   0.869   5.710  0.6789  0.2753  0.6714
 2968SOL    HW120363   4.317   0.841   5.684  0.6644  1.3326 -0.5301
 2968SOL    HW220364   4.252   0.955   5.746  0.6805  0.5512  0.0233
 2969SOL     OW20365   1.345   4.055  11.855 -0.5503  0.7866  0.4666
 2969SOL    HW120366   1.290   4.104  11.916 -0.3869 -0.5293  1.6854
 2969SOL    HW220367   1.295   3.978  11.828  1.6101 -0.0872 -1.0119
 2970SOL     OW20368   0.174   2.417   7.993  0.1351  0.3943 -0.2748
 2970SOL    HW120369   0.091   2.425   7.946 -0.2069 -1.1463  0.0959
 2970SOL    HW220370   0.225   2.489   7.954  3.5925 -1.5189  0.6873
 2971SOL     OW20371   3.248   3.958   3.699 -0.3080 -0.1913 -0.0044
 2971SOL    HW120372   3.203   3.944   3.782  0.0830 -5.1840 -0.6258
 2971SOL    HW220373   3.277   4.049   3.710  0.4294 -0.3380 -0.7218
 2972SOL     OW20374   1.769   2.611   5.647 -0.4945 -0.1483  0.4516
 2972SOL    HW120375   1.785   2.590   5.555 -0.1863  1.2222  0.1974
 2972SOL    HW220376   1.735   2.527   5.677 -1.8917  0.9830  2.0096
 2973SOL     OW20377   3.412   2.298  11.620 -0.6340  0.2722  0.3849
 2973SOL    HW120378   3.418   2.296  11.525 -0.8869 -1.1470  0.3889
 2973SOL    HW220379   3.479   2.232  11.638 -0.2893  0.4143 -0.3675
 2974SOL     OW20380   1.515   0.259  14.735 -0.0031 -0.1929  0.1166
 2974SOL    HW120381   1.601   0.290  14.765  0.1937 -0.3504 -0.2788
 2974SOL    HW220382   1.464   0.320  14.787 -0.5818 -0.8360  0.3089
 2975SOL     OW20383   4.520   2.298   7.917 -0.6890  0.1875 -0.0942
 2975SOL    HW120384   4.532   2.206   7.939  2.7355  1.1858  2.2201
 2975SOL    HW220385   4.455   2.296   7.846 -0.3920 -0.2685 -0.3476
 2976SOL     OW20386   0.423   4.104   2.079  0.4928 -0.1216  0.6287
 2976SOL    HW120387   0.418   4.112   2.174  1.4962  0.1829  0.6545
 2976SOL    HW220388   0.466   4.019   2.073 -1.3049 -0.9053 -1.0447
 2977SOL     OW20389   0.347   1.515  15.086 -1.2670  0.1823  0.1847
 2977SOL    HW120390   0.292   1.474  15.019  0.4197 -0.3182 -0.8995
 2977SOL    HW220391   0.405   1.566  15.030 -0.3257 -0.6521  0.4066
 2978SOL     OW20392   0.001   3.333   5.048 -0.2034  0.2231 -0.3635
 2978SOL    HW120393   4.703   3.340   4.955 -0.8541  2.3973 -0.0404
 2978SOL    HW220394   0.035   3.420   5.069 -0.4246  0.3400 -0.4882
 2979SOL     OW20395   1.258   1.800   5.489 -0.3520  0.6673  0.2361
 2979SOL    HW120396   1.183   1.859   5.493 -0.0267  1.1310 -0.5854
 2979SOL    HW220397   1.326   1.849   5.536  0.6452 -0.5226  0.0509
 2980SOL     OW20398   3.151   0.130   1.836 -0.1429 -0.3191  0.1611
 2980SOL    HW120399   3.207   0.073   1.783 -2.0267 -1.3162 -0.7379
 2980SOL    HW220400   3.075   0.106   1.782  0.5519 -0.2883 -0.8436
 2981SOL     OW20401   1.318   0.580   9.098 -0.0094 -0.3477 -0.9645
 2981SOL    HW120402   1.272   0.664   9.104  0.7879 -0.0336  0.9001
 2981SOL    HW220403   1.244   0.520   9.095 -1.1495  0.9986  0.0094
 2982SOL     OW20404   4.032   2.247   0.496 -0.0889 -0.0841 -0.0510
 2982SOL    HW120405   4.066   2.170   0.450 -1.2644 -2.3786  2.9659
 2982SOL    HW220406   4.099   2.251   0.564 -2.4687  0.8055  2.2133
 2983SOL     OW20407   4.263   0.503   5.904 -0.2742  0.4158 -0.2451
 2983SOL    HW120408   4.312   0.429   5.868  1.1086  1.6486 -0.9089
 2983SOL    HW220409   4.239   0.540   5.818  0.7057  1.1742 -0.1966
 2984SOL     OW20410   4.355   4.476   5.503  0.2143  0.0576 -0.2897
 2984SOL    HW120411   4.424   4.429   5.455  0.3656  1.4855 -1.4856
 2984SOL    HW220412   4.326   4.400   5.554  2.2335 -1.3064 -1.1724
 2985SOL     OW20413   0.355   2.610   4.705  0.3321  0.7213 -0.0542
 2985SOL    HW120414   0.397   2.696   4.697  1.3849  0.1932 -0.2046
 2985SOL    HW220415   0.261   2.628   4.703  0.2473  0.3368  0.6620
 2986SOL     OW20416   1.317   3.701   8.336  0.0479 -0.6112 -0.4020
 2986SOL    HW120417   1.379   3.632   8.358  1.7880  0.9194 -0.4439
 2986SOL    HW220418   1.252   3.696   8.406 -0.2880 -0.3555 -0.6955
 2987SOL     OW20419   4.343   4.198  12.469  0.0636  0.0311 -0.1276
 2987SOL    HW120420   4.249   4.213  12.471 -0.2400 -1.5878 -2.0976
 2987SOL    HW220421   4.354   4.108  12.439 -1.0086  0.0073 -0.4273
 2988SOL     OW20422   4.419   4.354   6.779  0.1019 -0.2506 -0.1871
 2988SOL    HW120423   4.421   4.281   6.840 -1.7523 -1.0381 -1.0505
 2988SOL    HW220424   4.390   4.427   6.834  2.6337  1.4747 -1.1763
 2989SOL     OW20425   2.068   1.610   1.117  0.0139  0.1915  0.3461
 2989SOL    HW120426   2.037   1.698   1.093 -4.4684 -0.6178  3.2328
 2989SOL    HW220427   2.159   1.637   1.105 -0.7062  3.0778  1.4562
 2990SOL     OW20428   4.146   3.590   4.099 -0.1028 -0.7999  0.0403
 2990SOL    HW120429   4.230   3.599   4.146  0.6047  1.9146 -1.7860
 2990SOL    HW220430   4.081   3.552   4.158  0.8648 -0.4368  1.3432
 2991SOL     OW20431   3.287   4.105  12.311  0.0676  0.1928  0.0558
 2991SOL    HW120432   3.337   4.091  12.392  0.1493 -0.3035 -0.0791
 2991SOL    HW220433   3.199   4.117  12.345  0.1795  0.8826  0.1026
 2992SOL     OW20434   3.275   4.081   5.506  0.2795 -0.4867  0.4123
 2992SOL    HW120435   3.342   4.016   5.530  0.6432  0.1363  1.0566
 2992SOL    HW220436   3.245   4.052   5.419  1.3376  1.2226 -0.5242
 2993SOL     OW20437   4.225   0.672   4.455 -0.4678 -0.1891 -0.6967
 2993SOL    HW120438   4.301   0.614   4.462 -0.6681 -0.2863  0.7101
 2993SOL    HW220439   4.240   0.718   4.373  1.0073  1.0479  0.2531
 2994SOL     OW20440   2.478   0.562   2.966 -0.3588  0.1477 -0.0520
 2994SOL    HW120441   2.543   0.506   2.923 -0.1642  2.2192 -2.4817
 2994SOL    HW220442   2.524   0.599   3.041  3.0129  0.8763 -2.4521
 2995SOL     OW20443   0.343   0.534   8.379 -0.0315  0.0629 -0.5069
 2995SOL    HW120444   0.408   0.580   8.431  0.6574 -1.1405 -0.2954
 2995SOL    HW220445   0.384   0.449   8.362  1.1634  0.1667  1.8330
 2996SOL     OW20446   1.565   1.969  10.802  0.5259  0.1202 -0.1084
 2996SOL    HW120447   1.521   1.987  10.719 -0.1339 -2.6375 -0.3547
 2996SOL    HW220448   1.527   1.885  10.827 -0.7660  0.7578  0.0807
 2997SOL     OW20449   2.871   1.082  12.126  0.5668  0.1239  0.1776
 2997SOL    HW120450   2.961   1.049  12.123 -0.6768 -3.1633 -0.7258
 2997SOL    HW220451   2.872   1.126  12.211  1.1306 -0.3699  0.4254
 2998SOL     OW20452   3.841   2.124  10.447 -0.6623  0.4736 -0.1940
 2998SOL    HW120453   3.781   2.156  10.514 -3.5553 -3.6673 -0.7778
 2998SOL    HW220454   3.810   2.176  10.373 -1.8494 -2.4926 -1.8140
 2999SOL     OW20455   2.624   3.653   9.029  0.0067 -0.4814  0.5288
 2999SOL    HW120456   2.546   3.700   9.002 -1.2175 -2.9681 -0.2280
 2999SOL    HW220457   2.660   3.733   9.068  0.9088 -0.7462  0.2506
 3000SOL     OW20458   2.276   0.660   6.471  0.0900  0.0252 -0.0988
 3000SOL    HW120459   2.324   0.648   6.389  0.3910 -0.9830  0.2275
 3000SOL    HW220460   2.227   0.579   6.478 -0.3601  0.2642 -0.4809
 3001SOL     OW20461   0.933   3.410   5.687 -0.0522  0.1857 -0.1039
 3001SOL    HW120462   0.887   3.413   5.603 -0.5915  1.1463  0.2319
 3001SOL    HW220463   0.877   3.479   5.722  0.1598 -0.5856  1.7397
 3002SOL     OW20464   0.064   2.547   7.430 -0.4844 -0.2222 -0.2841
 3002SOL    HW120465   4.698   2.563   7.401  0.0352  3.2739  0.1383
 3002SOL    HW220466   0.098   2.632   7.457  0.9622 -1.1339  0.7666
 3003SOL     OW20467   0.280   3.308   6.856  0.4303  0.2785 -0.0643
 3003SOL    HW120468   0.242   3.352   6.932 -3.4117 -1.8422 -0.7514
 3003SOL    HW220469   0.359   3.362   6.849  2.4251 -2.6488  0.0337
 3004SOL     OW20470   2.510   4.377  12.404 -0.1456  0.4038 -0.0232
 3004SOL    HW120471   2.489   4.328  12.325 -0.7444  1.6461 -0.6220
 3004SOL    HW220472   2.455   4.455  12.398 -1.3147 -0.3130  1.2263
 3005SOL     OW20473   0.634   3.839   5.633 -0.2093 -0.3173  0.2092
 3005SOL    HW120474   0.572   3.905   5.603  2.1938  1.3414 -1.1109
 3005SOL    HW220475   0.703   3.903   5.647  1.0002 -1.4555 -0.4629
 3006SOL     OW20476   1.363   2.290  13.496  0.1682  0.3944  0.2497
 3006SOL    HW120477   1.279   2.336  13.500 -0.3613 -0.5482  0.0193
 3006SOL    HW220478   1.363   2.251  13.583 -3.8648  0.1323  0.1023
 3007SOL     OW20479   4.132   3.030   5.410  0.8257  0.1193 -0.5003
 3007SOL    HW120480   4.126   2.941   5.377  0.9349  0.7906 -2.3410
 3007SOL    HW220481   4.048   3.066   5.380  0.5501 -1.7032 -1.9141
 3008SOL     OW20482   4.608   0.016   7.603  0.0177 -0.6142 -0.4032
 3008SOL    HW120483   4.564   0.019   7.517  0.5167 -2.1703 -0.7170
 3008SOL    HW220484   4.528   0.040   7.649 -0.1882 -0.9129 -0.6018
 3009SOL     OW20485   1.846   4.137   8.691  0.1469  0.8455  0.4041
 3009SOL    HW120486   1.787   4.144   8.766  0.4508  1.0358  0.6276
 3009SOL    HW220487   1.900   4.216   8.693 -1.6968  2.0688  1.1625
 3010SOL     OW20488   4.166   1.762   2.024  0.5265  1.0639  0.0593
 3010SOL    HW120489   4.211   1.683   2.053 -0.6950 -0.7666 -2.9587
 3010SOL    HW220490   4.230   1.832   2.040  1.9064  0.2072 -1.6566
 3011SOL     OW20491   4.240   3.241   7.996  0.8146 -0.7084 -0.3554
 3011SOL    HW120492   4.225   3.273   8.086 -5.4999 -1.9992 -0.9411
 3011SOL    HW220493   4.306   3.176   8.019  1.5009  0.6335  1.4669
 3012SOL     OW20494   4.364   2.822   1.052 -0.1804 -0.0129  0.3925
 3012SOL    HW120495   4.390   2.912   1.071  1.8632 -0.5688  0.2074
 3012SOL    HW220496   4.449   2.780   1.040 -0.3882 -0.2086 -0.3941
 3013SOL     OW20497   1.982   1.950   3.694 -0.3131 -0.3579  0.3414
 3013SOL    HW120498   2.020   1.931   3.608 -1.8893  0.0478 -0.4496
 3013SOL    HW220499   2.068   1.957   3.735 -0.1184 -0.7365 -0.0078
 3014SOL     OW20500   1.776   2.093   3.465  0.2905  0.0759  0.4018
 3014SOL    HW120501   1.822   2.067   3.545  0.6820 -0.5471 -0.0266
 3014SOL    HW220502   1.706   2.029   3.459 -0.6336  0.7066  3.9964
 3015SOL     OW20503   1.928   3.409  16.749  0.3477 -0.4920  0.1897
 3015SOL    HW120504   1.974   3.437  16.828  1.0511  0.0098 -0.4040
 3015SOL    HW220505   1.948   3.475  16.684  0.0148 -0.2947  0.2848
 3016SOL     OW20506   3.122   2.950  15.232 -0.5179 -0.4431  0.1758
 3016SOL    HW120507   3.066   2.980  15.304 -3.4816 -1.4548 -1.7213
 3016SOL    HW220508   3.199   2.937  15.287  0.2689 -1.8161 -1.2313
 3017SOL     OW20509   2.936   0.467   5.665  0.3976 -0.2095  0.5337
 3017SOL    HW120510   2.851   0.444   5.701  0.8622  0.6646  2.1704
 3017SOL    HW220511   2.930   0.419   5.582  0.0573  0.7947 -0.0276
 3018SOL     OW20512   1.304   3.826  17.325  0.1162 -0.6371 -0.3183
 3018SOL    HW120513   1.246   3.882  17.376 -1.3620 -0.9274 -1.7040
 3018SOL    HW220514   1.310   3.877  17.244  0.0318 -0.9916 -0.5473
 3019SOL     OW20515   3.228   0.289   4.611  0.2007  0.3082  0.5304
 3019SOL    HW120516   3.225   0.369   4.558 -1.5532  0.5053  0.9294
 3019SOL    HW220517   3.207   0.214   4.555 -0.5908  1.4865 -0.7381
 3020SOL     OW20518   1.600   2.425  11.716  0.2360  0.3815 -0.1515
 3020SOL    HW120519   1.509   2.446  11.735  0.5183  1.5447 -0.0929
 3020SOL    HW220520   1.609   2.344  11.767 -2.7885 -0.0640 -0.3173
 3021SOL     OW20521   1.554   3.383  15.618  0.8546 -0.1489 -0.0323
 3021SOL    HW120522   1.491   3.314  15.597 -0.8077  1.7215 -1.2459
 3021SOL    HW220523   1.628   3.347  15.569  0.9870 -3.3572  2.5214
 3022SOL     OW20524   1.111   1.800  10.478 -0.5503  0.6271  0.1838
 3022SOL    HW120525   1.149   1.877  10.521 -0.6612  0.1303  1.1769
 3022SOL    HW220526   1.153   1.814  10.393 -2.5741  2.7353 -0.4757
 3023SOL     OW20527   2.580   3.259   5.013  0.1598 -0.1254  0.0766
 3023SOL    HW120528   2.660   3.237   5.060 -0.5857 -1.4458  0.7271
 3023SOL    HW220529   2.602   3.218   4.929 -0.5945  2.4102 -1.3686
 3024SOL     OW20530   2.375   2.230   7.737 -0.2159 -0.0882 -0.3316
 3024SOL    HW120531   2.425   2.287   7.678  2.3443 -2.2466 -0.2337
 3024SOL    HW220532   2.320   2.185   7.672  0.9515  0.5461 -1.7657
 3025SOL     OW20533   1.583   4.597   6.480 -0.2418 -0.0848  0.3500
 3025SOL    HW120534   1.610   4.617   6.391  0.0249  0.8177  0.6375
 3025SOL    HW220535   1.511   4.534   6.476  0.3618 -0.8030  0.7432
 3026SOL     OW20536   1.311   2.581   6.312  0.2597 -0.1328 -0.1108
 3026SOL    HW120537   1.261   2.660   6.334  1.6273  1.2557 -2.0606
 3026SOL    HW220538   1.312   2.591   6.217 -2.0245 -0.5751 -0.1748
 3027SOL     OW20539   2.564   2.508   0.770  0.0995 -0.5206  0.4588
 3027SOL    HW120540   2.585   2.417   0.749 -0.0156 -0.9346  2.1813
 3027SOL    HW220541   2.513   2.495   0.850  0.4856  1.5085  1.0434
 3028SOL     OW20542   0.467   2.588   3.101  0.3226 -0.7501  0.0698
 3028SOL    HW120543   0.553   2.552   3.124 -0.0745 -0.9859  1.2010
 3028SOL    HW220544   0.483   2.681   3.112  0.9627 -0.9333  0.6961
 3029SOL     OW20545   1.492   3.281  15.246 -0.3948  0.1409 -0.4942
 3029SOL    HW120546   1.408   3.294  15.292 -0.6944  1.4925 -1.4191
 3029SOL    HW220547   1.559   3.249  15.307  1.0509  1.2527 -1.5251
 3030SOL     OW20548   3.670   1.069   8.003 -0.2435  0.0849  0.2886
 3030SOL    HW120549   3.755   1.070   8.047  0.3018 -0.9050 -0.7348
 3030SOL    HW220550   3.666   1.161   7.978 -0.3625  0.1675  0.6143
 3031SOL     OW20551   1.316   0.418  14.806  0.0618  0.4521 -0.4234
 3031SOL    HW120552   1.274   0.383  14.727 -1.7361  0.2217  0.6283
 3031SOL    HW220553   1.308   0.511  14.787  0.0469  0.3322 -1.0087
 3032SOL     OW20554   3.977   0.288  11.708  0.3643 -1.1816  0.2675
 3032SOL    HW120555   3.907   0.222  11.707 -0.2402 -0.5090 -0.7914
 3032SOL    HW220556   3.940   0.359  11.761  1.5097 -1.4111  1.3757
 3033SOL     OW20557   1.426   4.522  10.271 -0.2919  0.0886 -0.5509
 3033SOL    HW120558   1.470   4.476  10.343 -1.8586 -2.5096 -1.2391
 3033SOL    HW220559   1.346   4.469  10.273 -0.8390  0.8976 -0.7238
 3034SOL     OW20560   2.571   2.541   0.287 -0.2239 -0.0113  0.0503
 3034SOL    HW120561   2.546   2.484   0.214  0.6156  0.0524 -0.2829
 3034SOL    HW220562   2.580   2.619   0.233  2.5124 -0.4116 -0.0681
 3035SOL     OW20563   2.861   2.373   1.885 -0.1700  0.0437  0.3463
 3035SOL    HW120564   2.783   2.321   1.865 -0.9026  1.5864 -0.7807
 3035SOL    HW220565   2.836   2.406   1.971 -1.5751 -1.6431  0.5682
 3036SOL     OW20566   2.701   2.450   7.710 -0.2778 -0.6627 -0.0613
 3036SOL    HW120567   2.755   2.431   7.787  3.0683  1.4848 -1.8859
 3036SOL    HW220568   2.757   2.415   7.641  0.2653  2.4506 -1.2099
 3037SOL     OW20569   3.924   3.389   2.327 -0.0453  0.2061 -0.0043
 3037SOL    HW120570   3.863   3.315   2.324 -1.0714  1.1509 -2.4628
 3037SOL    HW220571   4.003   3.336   2.318  0.8487  1.9756 -2.3435
 3038SOL     OW20572   2.427   2.381   0.111 -0.1695 -0.5288 -0.5975
 3038SOL    HW120573   2.333   2.364   0.102  0.0761 -2.4646  0.5222
 3038SOL    HW220574   2.463   2.298   0.141  0.0503 -0.4919 -0.7615
 3039SOL     OW20575   1.269   3.439  12.801  0.5074 -0.2796  0.9083
 3039SOL    HW120576   1.196   3.500  12.790  1.5958  1.0495  1.0443
 3039SOL    HW220577   1.265   3.395  12.716 -1.0664  1.8306 -0.0759
 3040SOL     OW20578   1.647   4.164   7.049  0.3321 -0.4180  0.6078
 3040SOL    HW120579   1.712   4.233   7.033  1.1521 -1.7221 -1.7311
 3040SOL    HW220580   1.634   4.144   6.956  1.2459 -1.0058  0.6079
 3041SOL     OW20581   4.035   3.049   8.665  0.4311 -0.2656 -0.2705
 3041SOL    HW120582   3.968   2.982   8.652  0.9249 -0.4796 -1.5870
 3041SOL    HW220583   3.986   3.129   8.644 -2.3547 -1.8163  0.2412
 3042SOL     OW20584   2.465   0.875   2.893  0.0430 -0.2588 -0.0839
 3042SOL    HW120585   2.468   0.792   2.846  0.3194  0.6272 -1.6245
 3042SOL    HW220586   2.503   0.847   2.976  2.1912  1.3263 -0.5494
 3043SOL     OW20587   0.904   4.474   3.132 -0.2458 -0.1186 -0.4011
 3043SOL    HW120588   0.991   4.441   3.154  1.0415  1.0151 -3.7517
 3043SOL    HW220589   0.916   4.463   3.038 -2.1181 -2.4623 -0.3602
 3044SOL     OW20590   0.964   4.662   5.292 -0.1906 -0.1798  0.3959
 3044SOL    HW120591   0.948   0.016   5.239  2.1910 -0.1835 -0.3119
 3044SOL    HW220592   0.986   4.591   5.232 -0.5409 -0.5559  0.7140
 3045SOL     OW20593   0.244   4.289   4.415  0.6276  0.2533  0.4034
 3045SOL    HW120594   0.334   4.320   4.403  0.7607 -0.0884  0.5132
 3045SOL    HW220595   0.221   4.343   4.491  0.1307  1.5156 -0.6553
 3046SOL     OW20596   4.132   4.482   4.137 -0.0428 -0.2320 -0.0825
 3046SOL    HW120597   4.147   4.471   4.043  0.3055 -0.2152 -0.0287
 3046SOL    HW220598   4.187   4.559   4.147  3.2326 -2.5362 -0.1933
 3047SOL     OW20599   0.627   1.858   2.533  0.2177  0.2894 -0.1094
 3047SOL    HW120600   0.616   1.940   2.581  1.0347 -0.4444  1.3179
 3047SOL    HW220601   0.537   1.828   2.524  0.0268  0.4466  1.3225
 3048SOL     OW20602   3.819   0.967   7.143 -0.0486  0.4434  0.0550
 3048SOL    HW120603   3.838   1.034   7.209  2.5966 -1.3976  1.1770
 3048SOL    HW220604   3.899   0.973   7.090  0.9391 -0.9420  1.3570
 3049SOL     OW20605   2.723   1.394   5.258  0.5010  0.0631 -0.2904
 3049SOL    HW120606   2.747   1.305   5.286 -1.8027 -1.0006 -1.7352
 3049SOL    HW220607   2.804   1.438   5.234  0.1195 -0.1856 -2.0215
 3050SOL     OW20608   0.741   0.728   5.085 -0.4757  0.1294  0.0821
 3050SOL    HW120609   0.734   0.697   4.995 -0.3621 -1.1996  0.5325
 3050SOL    HW220610   0.836   0.719   5.097 -0.2447  2.4308  0.1401
 3051SOL     OW20611   4.599   0.953  16.127 -0.1505  0.1820 -0.6508
 3051SOL    HW120612   4.539   1.025  16.145  1.4391  0.7434  2.4079
 3051SOL    HW220613   4.687   0.989  16.114 -0.1667  0.1616 -0.8181
 3052SOL     OW20614   0.626   2.107  11.872 -0.1466  0.1774  0.5025
 3052SOL    HW120615   0.625   2.085  11.965  0.9291  2.9617  1.1767
 3052SOL    HW220616   0.612   2.023  11.829 -1.3813  1.0896 -0.8971
 3053SOL     OW20617   4.148   2.886   5.682  0.0841  0.1036  0.5745
 3053SOL    HW120618   4.187   2.944   5.747  2.6367 -0.9951  0.0237
 3053SOL    HW220619   4.151   2.941   5.604  0.5323  1.4390  1.5373
 3054SOL     OW20620   0.041   2.851   0.490 -0.2331  0.2221  0.1452
 3054SOL    HW120621   0.110   2.797   0.452  0.6278 -0.1606  2.2570
 3054SOL    HW220622   0.073   2.937   0.463 -1.1987  0.4992 -0.1149
 3055SOL     OW20623   1.027   2.129   4.544  0.8093 -0.5123  0.2046
 3055SOL    HW120624   0.991   2.144   4.457  0.3453 -0.2819  0.4365
 3055SOL    HW220625   0.954   2.164   4.596  1.4412  0.2165  0.6039
 3056SOL     OW20626   3.982   2.443   3.638 -0.2649 -0.0831 -0.4048
 3056SOL    HW120627   3.980   2.539   3.637 -0.0109 -0.0803 -1.0932
 3056SOL    HW220628   4.074   2.427   3.659 -0.1388  1.0307 -0.1003
 3057SOL     OW20629   0.577   2.248   8.048 -0.4350 -0.6344 -0.0425
 3057SOL    HW120630   0.653   2.190   8.045  0.3284  0.3320  0.6007
 3057SOL    HW220631   0.616   2.322   8.001 -1.6170 -0.4586 -0.7326
 3058SOL     OW20632   3.563   2.297   4.690 -0.2693 -0.4994 -0.4863
 3058SOL    HW120633   3.576   2.257   4.776  1.8079 -1.0210 -1.0415
 3058SOL    HW220634   3.629   2.253   4.636 -1.6398 -1.9931 -0.9260
 3059SOL     OW20635   1.012   2.619  16.643 -0.1502 -0.1173  0.0035
 3059SOL    HW120636   1.034   2.711  16.658 -0.2537  0.2146 -1.8034
 3059SOL    HW220637   1.102   2.585  16.639 -0.7437 -1.9270  2.2541
 3060SOL     OW20638   0.144   2.637  16.331 -0.0533 -1.0155 -0.5882
 3060SOL    HW120639   0.080   2.639  16.402 -2.4674 -2.5385 -2.7249
 3060SOL    HW220640   0.217   2.684  16.370 -1.3514  0.0174  0.5887
 3061SOL     OW20641   0.459   2.693  15.679 -0.1962 -0.2252  0.6571
 3061SOL    HW120642   0.540   2.648  15.701  0.8528  1.0936 -0.4902
 3061SOL    HW220643   0.488   2.771  15.632  0.4158 -0.9647 -0.1962
 3062SOL     OW20644   4.141   1.257   9.251  0.4598  0.0036 -0.5842
 3062SOL    HW120645   4.053   1.291   9.235  0.4871  0.1677 -0.3861
 3062SOL    HW220646   4.102   1.169   9.252 -0.1449  0.2661 -1.2113
 3063SOL     OW20647   4.353   1.233   8.780  0.4298 -0.1024  0.2305
 3063SOL    HW120648   4.401   1.250   8.861 -0.9162 -0.3699  1.0907
 3063SOL    HW220649   4.315   1.149   8.805 -1.0150  1.0435  1.8734
 3064SOL     OW20650   4.515   2.218   7.156 -0.3578  0.7263 -0.5266
 3064SOL    HW120651   4.521   2.287   7.222 -1.5794  1.7979 -1.5287
 3064SOL    HW220652   4.425   2.228   7.124 -0.2956  1.6565 -0.4004
 3065SOL     OW20653   0.807   1.741   6.188  0.0761  0.5058 -0.2004
 3065SOL    HW120654   0.875   1.712   6.127 -1.2463  0.3162 -1.5769
 3065SOL    HW220655   0.864   1.789   6.248 -0.5539  1.9999 -0.7856
 3066SOL     OW20656   2.979   4.370   1.938  1.0916 -0.3112 -0.7109
 3066SOL    HW120657   2.938   4.374   1.851 -0.8495 -0.4708  0.2103
 3066SOL    HW220658   2.981   4.275   1.947 -0.5254 -0.3248 -0.5727
 3067SOL     OW20659   1.756   3.786   9.233 -0.0815  0.6161  0.2292
 3067SOL    HW120660   1.724   3.842   9.163  0.7549 -0.7446 -1.2539
 3067SOL    HW220661   1.775   3.714   9.172  0.9885  2.1109 -1.1877
 3068SOL     OW20662   0.773   1.983  11.218  0.0003 -0.0402  0.6704
 3068SOL    HW120663   0.743   1.984  11.309  0.8011 -0.4398  0.9336
 3068SOL    HW220664   0.800   2.075  11.209 -0.9020  0.0555 -1.0598
 3069SOL     OW20665   3.020   0.917   4.035  0.1186 -0.0845  0.0838
 3069SOL    HW120666   3.028   0.857   3.961 -1.7266  0.7048 -0.7317
 3069SOL    HW220667   2.932   0.902   4.068 -0.0622  0.4594 -0.1569
 3070SOL     OW20668   3.080   2.367   0.531  0.5781  0.2836 -0.5083
 3070SOL    HW120669   3.029   2.393   0.608 -1.0983  1.2809 -1.9383
 3070SOL    HW220670   3.140   2.298   0.557 -0.8800 -0.5394  0.6488
 3071SOL     OW20671   1.169   3.333   2.843 -0.4862 -0.5370  0.0503
 3071SOL    HW120672   1.211   3.387   2.911 -2.1428  0.3110  0.3967
 3071SOL    HW220673   1.202   3.362   2.758  3.1894 -2.8977  0.6725
 3072SOL     OW20674   2.122   3.756   7.243  0.0487  0.4680 -0.1690
 3072SOL    HW120675   2.032   3.782   7.224 -0.4615 -1.9710 -1.1204
 3072SOL    HW220676   2.186   3.761   7.172 -1.3428  2.0940 -1.2789
 3073SOL     OW20677   2.303   2.417   7.943 -0.0126 -0.2241  0.4208
 3073SOL    HW120678   2.371   2.373   7.994  0.9241 -1.0036 -1.5025
 3073SOL    HW220679   2.294   2.353   7.873  0.9353 -1.6763  1.6274
 3074SOL     OW20680   1.003   2.879  16.712  0.0026  0.5307  0.2637
 3074SOL    HW120681   0.988   2.893  16.619 -3.0186 -0.2156  0.6442
 3074SOL    HW220682   0.985   2.967  16.746 -3.4301 -0.0370 -0.1676
 3075SOL     OW20683   3.685   2.060   5.462 -0.9333  0.1961  0.3832
 3075SOL    HW120684   3.640   1.986   5.501 -2.6370  0.4903 -1.0455
 3075SOL    HW220685   3.630   2.134   5.489  1.7502  1.5328  2.2327
 3076SOL     OW20686   3.463   0.667   2.885  0.7366 -0.0530 -0.1395
 3076SOL    HW120687   3.479   0.750   2.930 -2.9085 -0.6498  2.2632
 3076SOL    HW220688   3.542   0.620   2.914  0.4308 -1.5988 -1.7839
 3077SOL     OW20689   3.232   2.883   6.160 -0.5035 -0.4091 -0.6620
 3077SOL    HW120690   3.294   2.954   6.173 -0.3600 -0.5127 -0.7874
 3077SOL    HW220691   3.143   2.916   6.175 -0.7627 -0.9054 -1.0842
 3078SOL     OW20692   1.612   0.376   1.202  1.1833  0.1296 -0.3386
 3078SOL    HW120693   1.541   0.362   1.140  2.6370  2.9084 -2.6097
 3078SOL    HW220694   1.577   0.344   1.285 -2.0858  1.2411 -1.3011
 3079SOL     OW20695   4.006   4.460  16.228  0.4484 -0.2525  0.2570
 3079SOL    HW120696   4.086   4.458  16.175 -0.5322  2.9974 -1.3252
 3079SOL    HW220697   4.035   4.496  16.312  3.3219 -4.0190  0.8860
 3080SOL     OW20698   1.953   0.341  13.721 -0.0474 -0.2191 -0.0985
 3080SOL    HW120699   1.941   0.248  13.739 -2.6562 -0.1370 -1.6037
 3080SOL    HW220700   1.867   0.381  13.714 -0.4721 -1.6104 -2.6443
 3081SOL     OW20701   1.276   2.916   0.347 -0.6086  0.5568 -0.2194
 3081SOL    HW120702   1.202   2.934   0.405 -0.6102 -0.0727 -0.0253
 3081SOL    HW220703   1.230   2.909   0.263  0.9352  1.0104 -1.1019
 3082SOL     OW20704   3.271   2.616  17.131  0.3070  0.2118  0.4727
 3082SOL    HW120705   3.322   2.548  17.088  0.7939  0.6997  0.2746
 3082SOL    HW220706   3.186   2.589  17.096  0.7465  0.9144 -1.1443
 3083SOL     OW20707   2.766   3.787   7.999 -0.3995 -0.6656  0.0320
 3083SOL    HW120708   2.775   3.876   7.966 -1.8149 -0.0312  1.4076
 3083SOL    HW220709   2.813   3.730   7.937  0.4408 -1.8613  1.7500
 3084SOL     OW20710   1.665   2.812   8.893  0.2391 -0.3800  0.0001
 3084SOL    HW120711   1.736   2.753   8.920 -0.7740 -1.6754 -0.1422
 3084SOL    HW220712   1.691   2.834   8.804 -0.0832  0.2741  0.0686
 3085SOL     OW20713   2.660   2.507   3.787 -0.1328 -0.1018  0.0096
 3085SOL    HW120714   2.639   2.454   3.711  1.0311 -0.3302 -0.1466
 3085SOL    HW220715   2.625   2.444   3.851 -0.3383  0.3745  0.3729
 3086SOL     OW20716   3.143   4.629  12.123 -0.0023  0.4837 -0.2408
 3086SOL    HW120717   3.231   4.594  12.111 -0.1005  0.4778 -0.9505
 3086SOL    HW220718   3.148   4.685  12.200  0.5602  1.0520 -0.6928
 3087SOL     OW20719   2.868   1.731   7.573  0.1584 -0.1089  0.0597
 3087SOL    HW120720   2.879   1.784   7.651 -1.2773  0.5020 -0.1597
 3087SOL    HW220721   2.879   1.797   7.504 -1.0619  0.6012  0.5648
 3088SOL     OW20722   1.834   0.304   2.810 -0.1362  0.2554  0.4099
 3088SOL    HW120723   1.845   0.351   2.727 -0.3373 -1.8957 -0.8248
 3088SOL    HW220724   1.875   0.223   2.781  0.9316  0.4955  1.2721
 3089SOL     OW20725   2.744   4.114   3.924  0.0760 -0.4274  0.0225
 3089SOL    HW120726   2.717   4.023   3.918  1.8119 -0.6522 -4.0800
 3089SOL    HW220727   2.837   4.117   3.900 -0.7699 -0.4403 -3.3304
 3090SOL     OW20728   1.413   1.384   5.346 -0.2595 -0.1803  0.7477
 3090SOL    HW120729   1.485   1.340   5.300 -0.5958  2.4221 -2.2993
 3090SOL    HW220730   1.436   1.475   5.330 -0.3387 -0.4593 -0.9390
 3091SOL     OW20731   3.816   2.205   3.637 -0.3062  0.8281  0.2297
 3091SOL    HW120732   3.879   2.278   3.634  1.4433 -0.6135  1.5663
 3091SOL    HW220733   3.736   2.258   3.642  1.2124  3.1743 -0.0961
 3092SOL     OW20734   3.996   1.459   1.519  0.2141  0.0482  0.2015
 3092SOL    HW120735   3.972   1.369   1.540  0.6415 -0.5478 -1.8694
 3092SOL    HW220736   3.995   1.499   1.606  0.3613 -0.2494  0.3388
 3093SOL     OW20737   3.460   2.565   5.462 -0.0595 -0.2002  0.9273
 3093SOL    HW120738   3.544   2.603   5.434 -0.4324  0.1040  0.2238
 3093SOL    HW220739   3.416   2.565   5.378 -0.2841  0.2596  1.0438
 3094SOL     OW20740   1.351   0.086   5.870  0.0348  0.0501 -0.1915
 3094SOL    HW120741   1.400   0.114   5.793  0.2042 -2.2369 -0.9159
 3094SOL    HW220742   1.426   0.065   5.926  1.5124  1.3079 -1.7075
 3095SOL     OW20743   2.296   3.149   8.106  0.5572 -0.2100 -0.0234
 3095SOL    HW120744   2.244   3.085   8.154 -0.1820 -0.0592 -0.6204
 3095SOL    HW220745   2.298   3.220   8.170 -0.8162 -0.8237  0.7022
 3096SOL     OW20746   0.073   0.674   7.787 -0.4568  0.0062  0.1859
 3096SOL    HW120747   0.017   0.621   7.730  0.5383 -1.2871  0.4052
 3096SOL    HW220748   0.101   0.614   7.856  2.6610  0.5915 -0.5436
 3097SOL     OW20749   3.162   4.081   3.322  0.2718  0.7875  0.1563
 3097SOL    HW120750   3.086   4.028   3.298 -0.4270  1.2582  1.3332
 3097SOL    HW220751   3.238   4.023   3.333  1.7302  2.8832  1.2140
 3098SOL     OW20752   3.320   1.414   3.778  0.5287  0.0386  0.3560
 3098SOL    HW120753   3.243   1.404   3.833  1.4716 -0.3165  1.6182
 3098SOL    HW220754   3.373   1.347   3.820  0.0056  0.0715  1.0593
 3099SOL     OW20755   2.511   0.604   7.820 -0.9538 -0.1145  0.6305
 3099SOL    HW120756   2.528   0.511   7.835  0.8624  0.1066 -0.0652
 3099SOL    HW220757   2.577   0.618   7.752  0.5359  1.7550  2.4452
 3100SOL     OW20758   2.359   1.038   9.327 -0.0216  0.3774  0.5815
 3100SOL    HW120759   2.331   0.952   9.299  0.2531  0.3322  0.4462
 3100SOL    HW220760   2.276   1.080   9.348  0.1219  1.0230 -0.1125
 3101SOL     OW20761   1.492   0.584   7.480 -0.3672 -0.0757  0.4098
 3101SOL    HW120762   1.472   0.604   7.388  0.3163  0.5370  0.3992
 3101SOL    HW220763   1.587   0.585   7.472 -0.3058 -0.7756  1.0282
 3102SOL     OW20764   3.068   1.436   8.892 -0.5268 -0.2396 -0.1452
 3102SOL    HW120765   3.017   1.444   8.811 -0.6803 -0.0666 -0.0302
 3102SOL    HW220766   3.008   1.481   8.952  0.4912  0.4368  0.3524
 3103SOL     OW20767   2.058   2.961   5.873 -0.5288 -0.1093  0.0333
 3103SOL    HW120768   1.992   3.026   5.895  0.5155  0.1350  2.4118
 3103SOL    HW220769   1.999   2.888   5.852 -1.2312 -0.2743  2.5927
 3104SOL     OW20770   3.885   0.469  12.229  0.0880 -0.3185  0.2601
 3104SOL    HW120771   3.923   0.394  12.184  0.0495 -1.9575  2.9242
 3104SOL    HW220772   3.953   0.537  12.222 -0.8941  0.4883 -1.3004
 3105SOL     OW20773   4.192   0.510   6.426 -0.4650 -0.0221 -0.3911
 3105SOL    HW120774   4.189   0.478   6.516 -1.1945  1.0173 -0.0443
 3105SOL    HW220775   4.153   0.594   6.450  1.0281  0.9072 -1.2003
 3106SOL     OW20776   0.373   2.686   7.514 -0.0489 -0.4334  0.2717
 3106SOL    HW120777   0.296   2.678   7.458 -0.4821  0.0771  0.8067
 3106SOL    HW220778   0.446   2.680   7.452  1.2820  0.6075  1.7435
 3107SOL     OW20779   2.851   1.151   9.302 -0.6301 -0.4016  0.0660
 3107SOL    HW120780   2.808   1.131   9.219  2.1046  2.0157 -1.9152
 3107SOL    HW220781   2.775   1.140   9.359 -1.1490  0.3438 -0.4924
 3108SOL     OW20782   4.271   3.084   5.853 -0.9331  0.2913 -0.4047
 3108SOL    HW120783   4.185   3.105   5.890 -0.3247 -1.9988  2.2914
 3108SOL    HW220784   4.325   3.087   5.932  2.1455  2.6511 -2.5897
 3109SOL     OW20785   3.640   4.072   7.915  0.2009  0.1336 -0.2687
 3109SOL    HW120786   3.676   3.984   7.910  2.6606  1.0985  0.6990
 3109SOL    HW220787   3.588   4.078   7.834 -1.3199  1.8374  0.8294
 3110SOL     OW20788   2.078   4.124  10.912 -0.2687 -0.2495 -1.0147
 3110SOL    HW120789   2.136   4.164  10.976  0.6154 -0.5023 -1.6590
 3110SOL    HW220790   1.998   4.139  10.962  0.8600  2.6223 -0.0795
 3111SOL     OW20791   3.281   2.546  16.517  0.6149 -0.6476 -0.6555
 3111SOL    HW120792   3.307   2.520  16.605  3.4794  2.0379 -0.7179
 3111SOL    HW220793   3.224   2.474  16.490  0.6882 -1.2796  0.8954
 3112SOL     OW20794   1.525   1.762   7.777  0.1953  0.1907  0.2717
 3112SOL    HW120795   1.507   1.688   7.718 -3.9285  0.7509  0.8608
 3112SOL    HW220796   1.608   1.796   7.743  0.3430 -1.0885 -0.6665
 3113SOL     OW20797   4.026   2.586  12.705 -0.1783 -0.7702 -0.4484
 3113SOL    HW120798   3.991   2.498  12.721 -1.8005  0.0687  0.6055
 3113SOL    HW220799   3.943   2.634  12.704 -0.1233 -0.6825 -1.4687
 3114SOL     OW20800   0.297   2.380   4.961  0.0681  0.1285  0.0233
 3114SOL    HW120801   0.390   2.397   4.977 -0.1717  1.3652  0.0625
 3114SOL    HW220802   0.280   2.358   5.053 -0.6909  0.2463 -0.0842
 3115SOL     OW20803   3.616   4.565  16.623  0.0598 -0.6118 -0.3667
 3115SOL    HW120804   3.634   4.482  16.667 -0.8413 -0.9174 -0.5831
 3115SOL    HW220805   3.553   4.609  16.681  0.2970  0.1031 -0.6504
 3116SOL     OW20806   4.414   4.273   0.534 -0.1968 -0.2138 -0.2540
 3116SOL    HW120807   4.495   4.268   0.585 -0.3413 -1.0256 -0.0952
 3116SOL    HW220808   4.434   4.249   0.444  2.0334 -1.3232  0.5337
 3117SOL     OW20809   0.738   1.517   2.734  0.3150  0.4523 -0.3982
 3117SOL    HW120810   0.764   1.540   2.645  2.6342  0.6283  0.3399
 3117SOL    HW220811   0.826   1.503   2.768 -0.2528  0.1112  0.9280
 3118SOL     OW20812   0.668   2.801   7.599  0.1600 -0.0283  0.4615
 3118SOL    HW120813   0.611   2.852   7.657  0.9553  1.8538 -0.4038
 3118SOL    HW220814   0.692   2.730   7.659 -0.8374  0.4146  1.3961
 3119SOL     OW20815   1.050   2.816  17.321 -0.4078 -0.0058 -0.6958
 3119SOL    HW120816   0.979   2.786  17.378 -1.2034  1.4136 -0.9375
 3119SOL    HW220817   1.093   2.736  17.290  1.7692  0.6541  0.6775
 3120SOL     OW20818   2.813   1.309   8.277  0.6085 -0.7588 -0.1976
 3120SOL    HW120819   2.880   1.287   8.212  0.8520  1.6423 -0.7825
 3120SOL    HW220820   2.865   1.331   8.355  0.6210 -0.7111 -0.2190
 3121SOL     OW20821   0.117   4.269   4.716 -0.1399 -0.0603 -0.3972
 3121SOL    HW120822   0.126   4.360   4.688 -0.3586 -0.3890 -1.5390
 3121SOL    HW220823   0.022   4.257   4.707 -0.2418  1.9216 -2.1009
 3122SOL     OW20824   2.990   1.279   4.544 -0.1073 -0.1837 -0.2476
 3122SOL    HW120825   2.958   1.241   4.462  0.4719 -1.4054  0.0867
 3122SOL    HW220826   3.083   1.285   4.520  0.1378 -2.9251 -0.0416
 3123SOL     OW20827   1.545   4.547   0.559 -0.0632  0.0596  0.0638
 3123SOL    HW120828   1.574   4.611   0.494 -2.2674  0.9264 -0.0760
 3123SOL    HW220829   1.454   4.535   0.532  0.1840 -0.4108 -0.5682
 3124SOL     OW20830   2.276   4.647  17.249  0.1379 -0.3184  0.2353
 3124SOL    HW120831   2.320   4.563  17.240  0.4049 -0.0053 -1.4454
 3124SOL    HW220832   2.350   4.701  17.278  0.6977 -0.0965 -1.5841
 3125SOL     OW20833   2.164   3.872   6.441  0.2022 -0.1292 -0.3090
 3125SOL    HW120834   2.069   3.882   6.442  0.2547 -0.0110  2.9009
 3125SOL    HW220835   2.184   3.875   6.534  0.6358 -3.1159 -0.3031
 3126SOL     OW20836   1.886   0.012  16.891  0.3280  0.1083 -0.8381
 3126SOL    HW120837   1.978   0.002  16.917  0.4654 -1.2282 -1.8934
 3126SOL    HW220838   1.886   0.001  16.796 -2.2562  3.8151 -1.2737
 3127SOL     OW20839   2.491   3.982   3.562  0.2725  0.3481  0.2401
 3127SOL    HW120840   2.516   3.951   3.475  0.0833  0.7289  0.0534
 3127SOL    HW220841   2.396   3.966   3.558  0.3778 -0.7049  1.5737
 3128SOL     OW20842   4.024   3.840  10.926 -0.1254  0.0839  0.7497
 3128SOL    HW120843   3.946   3.797  10.961  0.6926 -0.2591  2.1592
 3128SOL    HW220844   4.043   3.779  10.855  0.3740  1.3677 -0.2109
 3129SOL     OW20845   1.250   3.725   2.872 -0.1011 -0.0740 -0.3095
 3129SOL    HW120846   1.311   3.679   2.815  0.2976 -0.0206  0.0694
 3129SOL    HW220847   1.302   3.734   2.952  0.1787  1.5097 -0.6783
 3130SOL     OW20848   3.841   3.246   2.963  0.1896  0.3393 -0.0005
 3130SOL    HW120849   3.757   3.202   2.951  1.4134 -2.2260  0.8487
 3130SOL    HW220850   3.856   3.267   2.871 -1.5605  0.6931 -0.2031
 3131SOL     OW20851   4.143   3.761   5.416 -0.3648 -0.6970 -0.0876
 3131SOL    HW120852   4.145   3.819   5.339 -0.2688 -0.0496  0.4025
 3131SOL    HW220853   4.053   3.728   5.422 -0.5185 -0.1144  0.8183
 3132SOL     OW20854   0.887   1.248   8.324 -0.4850  0.2741  0.3043
 3132SOL    HW120855   0.800   1.281   8.347 -0.5017  0.7613 -0.4344
 3132SOL    HW220856   0.932   1.272   8.405 -1.1477 -0.3127  0.8345
 3133SOL     OW20857   3.306   1.449   2.448  0.4013  1.1430 -0.0181
 3133SOL    HW120858   3.389   1.443   2.402  0.3782  1.9808 -0.1636
 3133SOL    HW220859   3.277   1.530   2.407  1.8248 -0.3425 -3.9219
 3134SOL     OW20860   4.011   0.891   4.487 -0.0367  0.8807  0.0678
 3134SOL    HW120861   4.096   0.932   4.505 -0.1419  0.9137  0.4791
 3134SOL    HW220862   4.008   0.905   4.392 -0.5735  1.4558  0.1689
 3135SOL     OW20863   1.592   2.452   8.838 -0.7893  0.1534 -0.2601
 3135SOL    HW120864   1.595   2.363   8.801 -4.1416  1.5856 -3.9291
 3135SOL    HW220865   1.629   2.504   8.766 -0.6692 -1.4921 -1.3867
 3136SOL     OW20866   1.043   0.065   8.712 -0.0101  0.4169  0.4192
 3136SOL    HW120867   1.094   0.122   8.654 -0.1552 -0.9410 -1.0379
 3136SOL    HW220868   0.986   0.026   8.646  0.3063 -2.9954  2.1892
 3137SOL     OW20869   0.719   3.329   4.087 -0.1198  0.0074 -0.1030
 3137SOL    HW120870   0.625   3.324   4.067 -0.4090  1.4686  0.9102
 3137SOL    HW220871   0.737   3.360   3.998  1.6253 -1.0232 -0.1057
 3138SOL     OW20872   3.736   1.489   2.370 -0.1085  0.0401 -0.2163
 3138SOL    HW120873   3.798   1.508   2.300  2.2593 -1.2882  1.5324
 3138SOL    HW220874   3.747   1.395   2.383  0.1390  0.3204  1.5745
 3139SOL     OW20875   0.713   2.876  11.081  0.0552 -0.3787 -0.4904
 3139SOL    HW120876   0.667   2.922  11.151 -0.4596 -1.6406 -0.0107
 3139SOL    HW220877   0.670   2.914  11.004  0.0573 -1.0539 -0.8245
 3140SOL     OW20878   2.039   3.129   8.415 -0.3051  0.0245  0.0190
 3140SOL    HW120879   2.132   3.147   8.401  0.0101 -1.4013  0.2646
 3140SOL    HW220880   2.038   3.037   8.440  0.0097 -0.5325 -2.0463
 3141SOL     OW20881   3.910   1.134   8.147  0.1926 -0.3850 -0.1575
 3141SOL    HW120882   3.881   1.087   8.225  1.5028  0.4969  0.8729
 3141SOL    HW220883   3.935   1.219   8.184  2.2069 -0.3955 -1.5034
 3142SOL     OW20884   0.409   2.135   6.270  0.0628 -0.4162  0.2705
 3142SOL    HW120885   0.330   2.168   6.312 -0.3468 -0.4615 -0.4601
 3142SOL    HW220886   0.372   2.094   6.192 -0.5664  0.7378 -0.0458
 3143SOL     OW20887   4.062   4.378   8.677  0.5516  0.0458 -0.3847
 3143SOL    HW120888   4.000   4.313   8.646  1.7230 -0.6314 -1.3088
 3143SOL    HW220889   4.108   4.329   8.745  0.7000  0.6476 -0.0468
 3144SOL     OW20890   0.931   4.544  10.453 -0.4382  0.3425  0.0849
 3144SOL    HW120891   1.002   4.563  10.515  1.0051  1.3259 -1.8901
 3144SOL    HW220892   0.964   4.462  10.417 -1.5890  0.1461 -0.5002
 3145SOL     OW20893   0.356   2.131   4.169 -0.0499 -0.1031  0.3414
 3145SOL    HW120894   0.284   2.068   4.161  0.4787 -0.3467 -2.5575
 3145SOL    HW220895   0.352   2.192   4.096  0.6049 -0.2392  0.1853
 3146SOL     OW20896   3.744   2.659   3.693 -0.2176  0.4286 -0.1599
 3146SOL    HW120897   3.832   2.697   3.695 -0.9450  2.1013  0.0832
 3146SOL    HW220898   3.720   2.675   3.602 -1.5754 -1.7900 -0.1858
 3147SOL     OW20899   4.086   2.135   5.056 -0.2000  0.0939  0.0230
 3147SOL    HW120900   4.068   2.122   5.149 -0.5745 -2.7373 -0.4553
 3147SOL    HW220901   4.181   2.124   5.057 -0.0608  1.3329  1.3247
 3148SOL     OW20902   2.820   2.597   9.459  0.0445  0.1140 -0.2692
 3148SOL    HW120903   2.898   2.580   9.511 -1.0923  0.0045  1.4050
 3148SOL    HW220904   2.852   2.666   9.400  2.6331 -1.5170 -0.7650
 3149SOL     OW20905   4.164   4.341   6.315  0.5094 -0.5106 -0.3945
 3149SOL    HW120906   4.245   4.307   6.352 -0.9856 -1.2000  2.1924
 3149SOL    HW220907   4.115   4.259   6.313  0.0261 -0.2165 -0.4672
 3150SOL     OW20908   1.033   4.422   2.497  0.1849 -0.1192 -0.3753
 3150SOL    HW120909   1.050   4.442   2.589  0.0578 -2.8729  0.2417
 3150SOL    HW220910   0.938   4.427   2.500  0.2880  2.5505 -1.8330
 3151SOL     OW20911   0.618   0.798   3.797  0.4668  0.1371  0.0770
 3151SOL    HW120912   0.643   0.815   3.706 -1.2037  0.8142 -0.2538
 3151SOL    HW220913   0.694   0.823   3.850  0.0968  1.2227  0.1004
 3152SOL     OW20914   1.714   2.074   6.114  0.2271  0.1542  0.1874
 3152SOL    HW120915   1.760   2.158   6.106 -1.1984  1.0437  1.3260
 3152SOL    HW220916   1.624   2.105   6.112 -0.7492 -2.7243  0.3168
 3153SOL     OW20917   0.833   3.000  11.859 -0.7213 -0.4276  0.0325
 3153SOL    HW120918   0.871   2.922  11.818  1.2383  0.3866  0.2554
 3153SOL    HW220919   0.904   3.038  11.911  2.1389 -2.6842 -2.2133
 3154SOL     OW20920   0.580   3.178   1.380 -0.2120 -0.3450 -0.6834
 3154SOL    HW120921   0.565   3.218   1.294  1.7461 -0.6271 -1.1624
 3154SOL    HW220922   0.640   3.107   1.360  0.3381 -0.1951  0.3991
 3155SOL     OW20923   2.064   3.264   9.033 -0.7849 -0.3299 -0.6192
 3155SOL    HW120924   1.979   3.268   8.990 -0.6706 -1.1181 -0.9296
 3155SOL    HW220925   2.042   3.243   9.124 -1.6267  1.8336 -0.3237
 3156SOL     OW20926   4.724   3.282   8.131  0.1420 -0.2720 -1.0029
 3156SOL    HW120927   0.044   3.356   8.173  1.8929 -1.6946 -0.2990
 3156SOL    HW220928   4.709   3.220   8.203 -2.2532  0.0254 -1.2462
 3157SOL     OW20929   1.183   2.789  14.583 -0.1341 -0.0038  0.7750
 3157SOL    HW120930   1.245   2.802  14.656  1.8137  3.4124 -1.4931
 3157SOL    HW220931   1.157   2.881  14.578  2.4863  0.5634 -2.4054
 3158SOL     OW20932   3.484   1.085  15.414  0.1563  0.5650  0.1083
 3158SOL    HW120933   3.411   1.148  15.419  1.0162  1.4139  1.7317
 3158SOL    HW220934   3.465   1.050  15.327 -1.2300 -0.1920  0.7116
 3159SOL     OW20935   0.911   3.014   8.062 -0.3965 -0.4131  0.2769
 3159SOL    HW120936   0.905   3.107   8.085  2.6416  0.1276 -1.0716
 3159SOL    HW220937   0.860   2.973   8.131  2.3524  0.7370  3.0019
 3160SOL     OW20938   4.699   3.363  14.715 -0.0849 -0.1063 -0.6218
 3160SOL    HW120939   4.614   3.338  14.750  0.8733 -0.5409  1.3457
 3160SOL    HW220940   4.711   3.288  14.656  0.2002  0.4152 -1.2307
 3161SOL     OW20941   1.883   0.577   4.507  0.1535  0.7458  0.2390
 3161SOL    HW120942   1.951   0.516   4.479 -0.0692  0.3881  0.4737
 3161SOL    HW220943   1.889   0.638   4.433  1.2558 -1.2336 -1.3086
 3162SOL     OW20944   4.347   1.183  12.394  0.0747 -0.0087  0.6395
 3162SOL    HW120945   4.357   1.201  12.301 -0.6225 -0.9769  0.3778
 3162SOL    HW220946   4.257   1.212  12.409  0.8026  2.0957  0.9047
 3163SOL     OW20947   0.677   4.556  14.151  0.0259 -0.6010  0.0851
 3163SOL    HW120948   0.650   4.648  14.159  1.1997 -0.0996 -1.6774
 3163SOL    HW220949   0.693   4.529  14.241 -1.8967  2.8346  1.4695
 3164SOL     OW20950   3.963   0.207   3.259 -0.0827 -0.2399  0.0796
 3164SOL    HW120951   4.020   0.237   3.330  0.8428 -1.4191 -0.1735
 3164SOL    HW220952   3.909   0.144   3.308  0.5309 -1.6397 -1.0482
 3165SOL     OW20953   4.177   0.446   3.768 -0.3999  0.2613  0.4216
 3165SOL    HW120954   4.251   0.489   3.725  0.3834  1.1993  2.7343
 3165SOL    HW220955   4.214   0.463   3.855  0.0341 -2.1272  0.7095
 3166SOL     OW20956   0.154   0.577   4.474  0.5080  0.1832  0.0788
 3166SOL    HW120957   0.096   0.642   4.433  1.9173  0.1562 -1.9421
 3166SOL    HW220958   0.222   0.631   4.515 -0.1844  0.3185  1.0543
 3167SOL     OW20959   1.886   0.385   3.977 -0.3083  0.3663  0.3316
 3167SOL    HW120960   1.820   0.357   4.041 -2.2784  1.2330 -1.3349
 3167SOL    HW220961   1.881   0.314   3.914 -1.8691  2.1743 -1.5875
 3168SOL     OW20962   3.775   2.614   1.466  0.4826  0.7589 -0.5179
 3168SOL    HW120963   3.838   2.587   1.399 -0.8241 -0.8038 -1.1187
 3168SOL    HW220964   3.775   2.709   1.455 -1.7217  0.9296  1.0261
 3169SOL     OW20965   3.620   2.830   6.985  0.9071  0.0558  0.6259
 3169SOL    HW120966   3.607   2.745   7.026 -1.4642  0.5794  0.9632
 3169SOL    HW220967   3.706   2.849   6.946  0.7143  1.3465  0.8446
 3170SOL     OW20968   3.692   2.669   5.696  0.5437  0.1944  0.0557
 3170SOL    HW120969   3.682   2.683   5.602  3.0104 -0.5501 -0.2946
 3170SOL    HW220970   3.626   2.728   5.733  0.7379  1.4911 -1.6432
 3171SOL     OW20971   2.243   4.197  14.573  0.0575  0.9677  0.5065
 3171SOL    HW120972   2.192   4.153  14.642  0.8786  0.5794  0.8667
 3171SOL    HW220973   2.226   4.126  14.511  0.6733  0.6868  0.6606
 3172SOL     OW20974   3.502   0.321   4.302  0.0166 -0.2898 -0.2705
 3172SOL    HW120975   3.538   0.277   4.379 -0.2607  2.2036  1.2811
 3172SOL    HW220976   3.539   0.409   4.306 -1.3394  0.2444  0.9416
 3173SOL     OW20977   2.672   1.882   3.909  0.2832  0.5348 -0.1191
 3173SOL    HW120978   2.654   1.862   3.817  0.7579 -0.4762  0.0065
 3173SOL    HW220979   2.733   1.955   3.897  0.8211 -0.1273 -1.4043
 3174SOL     OW20980   4.018   0.784  14.885  0.6690  0.0775 -0.4581
 3174SOL    HW120981   4.048   0.790  14.975  0.5590 -1.2436 -0.3238
 3174SOL    HW220982   4.057   0.698  14.866  0.5990  0.2868 -1.5722
 3175SOL     OW20983   3.321   2.430   8.746  0.5799 -0.3508  0.1632
 3175SOL    HW120984   3.346   2.348   8.703  0.6357 -1.0701  1.5558
 3175SOL    HW220985   3.296   2.485   8.672 -2.5520  1.1479  2.3490
 3176SOL     OW20986   3.434   4.569   7.818  0.2910 -0.2036  0.3950
 3176SOL    HW120987   3.491   4.643   7.796  0.6451 -0.0538  1.7873
 3176SOL    HW220988   3.453   4.571   7.912 -2.3072  0.8499  0.8724
 3177SOL     OW20989   4.324   3.196   0.684  0.4003  0.4862 -0.1727
 3177SOL    HW120990   4.277   3.117   0.712  0.3188  0.8896  0.8294
 3177SOL    HW220991   4.299   3.196   0.592 -0.9608 -0.4469  0.1894
 3178SOL     OW20992   1.933   3.211   4.694 -0.2966  0.0196  0.0929
 3178SOL    HW120993   1.932   3.187   4.787  1.5777 -1.5901 -0.3091
 3178SOL    HW220994   1.978   3.137   4.653  0.2976  0.2136  0.3902
 3179SOL     OW20995   4.555   3.451   3.198 -0.2241 -0.3400 -0.1773
 3179SOL    HW120996   4.553   3.543   3.172  0.3884 -0.8046 -1.8648
 3179SOL    HW220997   4.464   3.454   3.225 -0.2619  0.9252 -0.4189
 3180SOL     OW20998   4.564   4.166   2.165  0.1855  0.0240  0.0219
 3180SOL    HW120999   4.512   4.092   2.132  0.6156 -0.0764 -0.4241
 3180SOL    HW221000   4.629   4.113   2.211 -0.1804 -0.4246  0.0334
 3181SOL     OW21001   2.237   2.043   1.380  0.4784  0.5735  0.0809
 3181SOL    HW121002   2.278   1.960   1.406  0.1935 -0.3702 -2.4345
 3181SOL    HW221003   2.194   2.022   1.297 -1.2199  1.2357  0.7932
 3182SOL     OW21004   3.589   1.813   7.368 -0.1725 -0.2789  0.3259
 3182SOL    HW121005   3.629   1.776   7.290 -0.5047  1.0479 -0.4733
 3182SOL    HW221006   3.664   1.831   7.423  1.2072 -1.1350 -1.2865
 3183SOL     OW21007   4.016   3.836   4.170 -0.3751  0.0878 -0.0135
 3183SOL    HW121008   4.057   3.838   4.257 -1.2233 -1.4025  0.4265
 3183SOL    HW221009   4.019   3.746   4.140  1.1189  1.2186 -3.2323
 3184SOL     OW21010   2.249   0.830  13.297  0.1794 -0.1514  0.5101
 3184SOL    HW121011   2.198   0.910  13.313 -0.0006 -0.3335  0.8434
 3184SOL    HW221012   2.270   0.839  13.204  0.3660 -1.2736  0.4459
 3185SOL     OW21013   1.627   0.073   5.863 -0.1037  0.0135  0.0831
 3185SOL    HW121014   1.632   0.066   5.768  0.0549 -0.7772  0.1531
 3185SOL    HW221015   1.681   0.149   5.884 -0.6910  1.0434 -2.1868
 3186SOL     OW21016   0.088   1.212   4.229 -0.5765  0.5247 -0.2929
 3186SOL    HW121017   0.131   1.202   4.144 -0.3605  0.8854 -0.2301
 3186SOL    HW221018   0.001   1.179   4.208 -0.6252  0.8696 -0.6544
 3187SOL     OW21019   3.032   1.367   1.949  0.3063 -0.7460 -0.9697
 3187SOL    HW121020   3.021   1.302   2.018  1.2567  1.7184  1.5503
 3187SOL    HW221021   3.101   1.319   1.903  2.6419 -1.0105  2.8060
 3188SOL     OW21022   1.856   2.044  17.358 -0.5393 -0.2201 -0.7690
 3188SOL    HW121023   1.835   1.955  17.387  0.4917  0.0688  0.8793
 3188SOL    HW221024   1.776   2.061  17.308 -1.1393 -0.0019  0.2726
 3189SOL     OW21025   3.887   3.344   9.425  0.2178 -0.3686 -0.1363
 3189SOL    HW121026   3.909   3.257   9.393  1.2031  0.1510 -0.8718
 3189SOL    HW221027   3.968   3.386   9.398  0.5990 -1.3659 -0.5240
 3190SOL     OW21028   1.699   2.212  16.452  0.1821  0.2991  0.1623
 3190SOL    HW121029   1.631   2.241  16.513 -0.2359  0.5945 -0.4396
 3190SOL    HW221030   1.742   2.291  16.419  0.2477 -0.7049 -2.1044
 3191SOL     OW21031   1.549   1.260   8.797  0.2198  0.4586  0.0323
 3191SOL    HW121032   1.619   1.213   8.751  0.5006  0.9581 -0.0436
 3191SOL    HW221033   1.479   1.229   8.739  1.0386  1.4474 -1.4683
 3192SOL     OW21034   2.500   1.607  14.040  0.1259  0.1600 -0.2434
 3192SOL    HW121035   2.504   1.575  13.950  0.6918 -2.0696  0.5666
 3192SOL    HW221036   2.571   1.555  14.077 -1.2469 -1.5988 -0.1101
 3193SOL     OW21037   1.626   1.790   8.772  0.0024 -0.2774 -0.1885
 3193SOL    HW121038   1.625   1.695   8.762  0.7514 -0.0325 -2.4979
 3193SOL    HW221039   1.716   1.786   8.805  0.3412  0.3167 -1.0513
 3194SOL     OW21040   4.316   3.952   8.249  0.3814  0.1744 -0.1642
 3194SOL    HW121041   4.363   3.953   8.332 -0.8514 -0.8730  0.5574
 3194SOL    HW221042   4.257   3.877   8.262  1.6437 -0.6420  0.7773
 3195SOL     OW21043   2.754   1.517   9.509  0.3974 -0.0532  0.1920
 3195SOL    HW121044   2.731   1.610   9.507 -1.9718 -0.6132  0.6840
 3195SOL    HW221045   2.666   1.482   9.494 -0.5201  1.6492  1.5415
 3196SOL     OW21046   2.475   2.170  14.447 -0.0187  0.0497  0.4913
 3196SOL    HW121047   2.445   2.110  14.379 -1.7521  1.4856 -0.0069
 3196SOL    HW221048   2.398   2.225  14.457  1.6081  2.2859  0.7742
 3197SOL     OW21049   4.586   3.142   1.047 -0.5836 -1.2057 -0.1461
 3197SOL    HW121050   4.602   3.211   0.982 -1.1788 -2.5081 -1.6495
 3197SOL    HW221051   4.569   3.201   1.121  0.8130  0.0737 -0.8290
 3198SOL     OW21052   0.286   1.827   4.965  0.6772  0.4190  0.4598
 3198SOL    HW121053   0.206   1.877   4.955  1.1666  0.8921 -1.1709
 3198SOL    HW221054   0.244   1.743   4.983  2.0847 -0.8672 -2.3220
 3199SOL     OW21055   1.173   3.648  17.178  0.3921  0.0766 -0.3274
 3199SOL    HW121056   1.205   3.703  17.249 -0.4334  0.2119 -0.0550
 3199SOL    HW221057   1.127   3.708  17.119 -1.0022  0.3754  1.0516
 3200SOL     OW21058   2.854   0.339  16.500 -0.0582 -0.2106 -0.2798
 3200SOL    HW121059   2.762   0.330  16.476 -0.7465  1.3468  1.7519
 3200SOL    HW221060   2.899   0.358  16.418  0.4893  0.2844  0.1320
 3201SOL     OW21061   4.445   3.797   1.692  0.5547 -0.3935 -0.8444
 3201SOL    HW121062   4.395   3.872   1.725 -0.9912 -1.3653 -0.9793
 3201SOL    HW221063   4.384   3.770   1.624 -1.2713 -0.4070  0.8119
 3202SOL     OW21064   0.398   3.002  17.445  0.8923  0.0269 -0.0940
 3202SOL    HW121065   0.312   2.960  17.452  0.8578 -0.1982 -1.8713
 3202SOL    HW221066   0.391   3.067  17.514  3.1715  1.9913 -1.7115
 3203SOL     OW21067   1.967   0.854  14.348  0.4946 -0.2233 -0.0984
 3203SOL    HW121068   1.900   0.915  14.379  0.7604  0.0795 -0.1231
 3203SOL    HW221069   1.970   0.858  14.252  0.6977 -0.4398 -0.1020
 3204SOL     OW21070   3.481   3.820   7.082  0.1121  0.0560  0.4201
 3204SOL    HW121071   3.390   3.795   7.071  0.6180 -1.5218 -0.3098
 3204SOL    HW221072   3.508   3.825   6.990 -0.4727 -0.6867  0.2023
 3205SOL     OW21073   2.078   0.438   9.939  0.3822 -0.2814 -0.5425
 3205SOL    HW121074   2.058   0.416  10.030 -0.4770  0.5812 -0.5266
 3205SOL    HW221075   2.134   0.514   9.953  2.3528 -1.7795 -0.2915
 3206SOL     OW21076   1.612   1.422   1.427  0.0143  0.2213  0.7377
 3206SOL    HW121077   1.702   1.451   1.414 -1.1292  2.9207 -1.1535
 3206SOL    HW221078   1.569   1.463   1.353  0.8425 -1.0072 -0.4203
 3207SOL     OW21079   3.987   0.556   4.381  0.1267  0.8718 -0.0411
 3207SOL    HW121080   4.056   0.613   4.416  1.4048  0.4680 -1.9011
 3207SOL    HW221081   4.021   0.554   4.291  1.9888 -0.9078  0.7113
 3208SOL     OW21082   1.049   2.590   9.465 -0.1734  0.0668  0.0547
 3208SOL    HW121083   1.038   2.681   9.494 -0.2392 -0.7345  2.5903
 3208SOL    HW221084   1.068   2.534   9.541 -0.2334  1.1266  0.8461
 3209SOL     OW21085   0.173   3.455   3.427 -0.7388 -0.2490  0.2564
 3209SOL    HW121086   0.187   3.508   3.348 -0.2605 -0.1222  0.4236
 3209SOL    HW221087   0.251   3.406   3.454 -0.4226  0.6804  1.0285
 3210SOL     OW21088   2.151   0.774  10.692 -0.2814  0.4905  0.2311
 3210SOL    HW121089   2.204   0.754  10.769  0.2252  2.6484  0.4523
 3210SOL    HW221090   2.062   0.793  10.724 -0.0693  1.1062  0.4684
 3211SOL     OW21091   1.425   1.239   5.569 -0.1914 -0.5513  0.0213
 3211SOL    HW121092   1.407   1.299   5.642  0.9819 -1.6189  1.1838
 3211SOL    HW221093   1.388   1.288   5.495  2.5148  0.7733 -0.4535
 3212SOL     OW21094   4.202   2.977   0.826 -0.3118 -0.5383 -0.5255
 3212SOL    HW121095   4.270   2.956   0.889  0.9031  1.8797 -1.0163
 3212SOL    HW221096   4.166   2.890   0.813  0.2773 -1.0025  1.0217
 3213SOL     OW21097   4.035   4.076   6.274  0.6579  0.3849  0.0898
 3213SOL    HW121098   4.045   4.115   6.187  0.3347  2.4746  0.9873
 3213SOL    HW221099   3.940   4.083   6.284  0.8499  3.5090 -0.4097
 3214SOL     OW21100   0.803   2.211   8.350 -0.1729 -0.4394  0.5111
 3214SOL    HW121101   0.834   2.135   8.399  0.0382 -1.0197 -0.5160
 3214SOL    HW221102   0.717   2.223   8.389 -0.7083  1.1228 -1.1236
 3215SOL     OW21103   2.119   3.735  12.970  0.1908 -0.0218  0.1165
 3215SOL    HW121104   2.101   3.650  12.930  1.1145 -0.4026  0.5053
 3215SOL    HW221105   2.053   3.786  12.924 -2.6233 -1.6073  2.3810
 3216SOL     OW21106   3.428   1.816   5.360 -0.4101 -0.1314  0.1836
 3216SOL    HW121107   3.354   1.779   5.407 -0.5230  1.3184  1.1370
 3216SOL    HW221108   3.502   1.801   5.419  1.0245  0.8377 -1.3607
 3217SOL     OW21109   0.687   4.099  15.904 -0.0973  0.1058  0.3277
 3217SOL    HW121110   0.675   4.122  15.812  2.3106  0.6131  0.1464
 3217SOL    HW221111   0.658   4.176  15.953  0.2609  0.4895 -0.0596
 3218SOL     OW21112   1.793   4.719  17.684 -0.0904 -0.2845  0.0671
 3218SOL    HW121113   1.877   4.718  17.638  0.6779 -0.1107  1.4847
 3218SOL    HW221114   1.807   4.684   0.075 -1.9430 -1.5855 -0.1627
 3219SOL     OW21115   1.808   3.555   1.765  0.1351  0.1484  0.2617
 3219SOL    HW121116   1.757   3.619   1.716  1.5121  0.1773 -1.1376
 3219SOL    HW221117   1.781   3.572   1.855 -0.2419  2.5935 -0.3302
 3220SOL     OW21118   3.685   2.209   7.633 -0.6174 -0.2658  0.0472
 3220SOL    HW121119   3.772   2.248   7.624 -1.0339  0.5936 -0.3113
 3220SOL    HW221120   3.627   2.285   7.636 -1.4046 -0.8740  0.1128
 3221SOL     OW21121   3.724   4.561  13.440 -0.0797  0.0606  0.5595
 3221SOL    HW121122   3.748   4.472  13.412 -0.3787  1.3344 -3.7763
 3221SOL    HW221123   3.808   4.603  13.420  0.0737 -0.8741 -0.7208
 3222SOL     OW21124   1.418   1.713   3.868  0.2914 -0.7108 -0.4624
 3222SOL    HW121125   1.345   1.766   3.900  0.2227 -1.5019  0.7047
 3222SOL    HW221126   1.455   1.766   3.798 -1.7903 -1.9682 -2.5652
 3223SOL     OW21127   0.675   3.160  17.405  0.0465  0.2036 -0.5813
 3223SOL    HW121128   0.672   3.228  17.338 -1.6549 -0.9627 -1.7020
 3223SOL    HW221129   0.598   3.178  17.459  0.1304 -0.9422 -0.0835
 3224SOL     OW21130   4.367   1.617  13.852  0.1847 -0.3419  0.5022
 3224SOL    HW121131   4.349   1.608  13.758  0.2352  0.8719  0.3789
 3224SOL    HW221132   4.312   1.548  13.891  0.0219 -0.7712 -0.4810
 3225SOL     OW21133   0.188   3.843   3.053 -0.2352  0.1877  0.1064
 3225SOL    HW121134   0.157   3.880   2.971  0.6434 -0.9560 -0.7381
 3225SOL    HW221135   0.126   3.875   3.118 -1.3100  0.4106 -1.0226
 3226SOL     OW21136   4.520   0.616   7.963 -0.2925 -0.2652  0.2314
 3226SOL    HW121137   4.520   0.615   8.059 -1.6037  0.7774  0.2420
 3226SOL    HW221138   4.613   0.603   7.945  0.0861 -0.3873  2.2033
 3227SOL     OW21139   0.207   0.958   8.142  0.4812 -0.2046  0.2150
 3227SOL    HW121140   0.192   0.865   8.128 -0.9038 -0.1493  1.1899
 3227SOL    HW221141   0.118   0.994   8.141 -0.8514 -3.5861 -1.9210
 3228SOL     OW21142   0.908   2.308   1.680  0.3791  0.1296  0.0215
 3228SOL    HW121143   0.898   2.216   1.658 -0.7443  0.3611 -0.4283
 3228SOL    HW221144   0.929   2.351   1.597  0.1557 -0.6389 -0.4270
 3229SOL     OW21145   2.183   4.171   8.508  0.2481 -0.3380  0.0425
 3229SOL    HW121146   2.197   4.170   8.603 -0.3971 -0.6378  0.1310
 3229SOL    HW221147   2.203   4.091   8.460 -0.4599  1.5029 -3.2971
 3230SOL     OW21148   3.079   1.600   6.504 -0.0129 -0.1729 -0.4137
 3230SOL    HW121149   3.170   1.573   6.515  0.4143  1.3574 -0.1821
 3230SOL    HW221150   3.057   1.546   6.428  3.7903 -1.1925 -0.7529
 3231SOL     OW21151   2.542   1.356   1.353  0.0978 -0.3145  0.2490
 3231SOL    HW121152   2.556   1.272   1.397 -0.4735  0.4555  1.9144
 3231SOL    HW221153   2.460   1.339   1.307  1.3231  0.4908 -2.1966
 3232SOL     OW21154   4.160   3.696  12.114  0.6035 -0.7904  0.4178
 3232SOL    HW121155   4.204   3.680  12.030 -1.0982  0.1465 -0.6650
 3232SOL    HW221156   4.071   3.720  12.089  1.2903  0.2472 -1.0605
 3233SOL     OW21157   0.142   1.005  11.865  0.0135 -0.8103  0.0763
 3233SOL    HW121158   0.156   0.921  11.909  2.8839 -0.5492 -0.3118
 3233SOL    HW221159   0.126   0.976  11.775 -1.3585  0.2096 -0.0051
 3234SOL     OW21160   2.657   1.801   6.083  0.1207  0.1473  0.1629
 3234SOL    HW121161   2.573   1.758   6.065  1.1365 -1.1474 -1.4387
 3234SOL    HW221162   2.648   1.878   6.027  2.1582  1.0962  1.1318
 3235SOL     OW21163   3.351   3.793   4.012  0.1250 -0.5122 -0.1624
 3235SOL    HW121164   3.352   3.785   4.107  0.0936  1.4667  0.0055
 3235SOL    HW221165   3.258   3.812   3.999 -0.1188 -2.0204 -0.6323
 3236SOL     OW21166   2.834   4.624   3.575  0.4211 -0.1680  0.7903
 3236SOL    HW121167   2.839   4.568   3.498  4.2851  0.5759  0.5078
 3236SOL    HW221168   2.821   4.556   3.641 -0.7457  1.3520  2.1375
 3237SOL     OW21169   1.656   1.300  12.494 -0.2070  0.2500  0.5286
 3237SOL    HW121170   1.628   1.209  12.483  1.6229 -0.2709  0.2291
 3237SOL    HW221171   1.745   1.287  12.526 -1.2037 -4.2500  1.4984
 3238SOL     OW21172   4.633   2.610  17.654  0.0225  0.0218  0.0826
 3238SOL    HW121173   4.677   2.543   0.010 -1.2000 -0.2421  0.7554
 3238SOL    HW221174   4.591   2.548  17.595  0.1819 -0.7606  0.7978
 3239SOL     OW21175   2.068   4.043  13.607 -0.1919  0.0627  0.1790
 3239SOL    HW121176   2.040   4.126  13.645 -0.3763 -0.3084  0.8618
 3239SOL    HW221177   2.159   4.037  13.634  0.0664 -1.7434 -1.1255
 3240SOL     OW21178   2.079   3.028   1.877 -0.5808 -0.0854  0.0449
 3240SOL    HW121179   2.029   3.009   1.957  3.1684  1.0201  2.6533
 3240SOL    HW221180   2.067   3.123   1.875  3.5531  0.4419 -0.2535
 3241SOL     OW21181   2.402   0.123   5.578 -0.2272 -0.0753  0.8258
 3241SOL    HW121182   2.407   0.216   5.557  0.4736 -0.7641 -2.0975
 3241SOL    HW221183   2.309   0.101   5.586 -0.6358  1.4847  0.3498
 3242SOL     OW21184   1.571   1.143   7.927 -0.5783 -0.4870  0.7694
 3242SOL    HW121185   1.510   1.195   7.875  1.3128  1.0120  0.0162
 3242SOL    HW221186   1.650   1.190   7.900 -1.5094 -0.8408 -2.5672
 3243SOL     OW21187   3.016   3.910   2.925 -0.4690  0.2167 -0.7664
 3243SOL    HW121188   3.087   3.972   2.938 -1.5118  1.4070 -0.7159
 3243SOL    HW221189   3.064   3.834   2.891  0.1879  1.4921 -2.6991
 3244SOL     OW21190   1.944   1.994   7.696 -0.4815 -0.2272  0.1014
 3244SOL    HW121191   1.980   1.912   7.730  2.0296  0.2760 -1.4054
 3244SOL    HW221192   1.985   2.052   7.761 -1.0060 -1.3486  1.4252
 3245SOL     OW21193   0.752   1.296  16.137 -0.2157  0.0070 -0.0833
 3245SOL    HW121194   0.712   1.378  16.167 -0.4159 -0.0103 -0.3090
 3245SOL    HW221195   0.807   1.330  16.067 -0.1957  0.0285 -0.0571
 3246SOL     OW21196   1.624   3.739   6.323 -0.3252 -0.6837  0.8891
 3246SOL    HW121197   1.644   3.833   6.323  0.7141 -0.9034  0.0101
 3246SOL    HW221198   1.571   3.737   6.403 -1.4047 -3.1217  0.1181
 3247SOL     OW21199   0.584   2.189   9.930 -0.2691  0.3466 -0.0951
 3247SOL    HW121200   0.586   2.106   9.883 -0.3864 -0.8481  2.0068
 3247SOL    HW221201   0.520   2.240   9.882 -2.2753 -1.6914  0.4317
 3248SOL     OW21202   1.827   0.759   2.271 -0.1987  0.6050 -0.7863
 3248SOL    HW121203   1.834   0.711   2.353 -0.9095  0.2163 -0.9590
 3248SOL    HW221204   1.767   0.829   2.296  2.6258  2.6990  0.2218
 3249SOL     OW21205   2.644   2.511   9.118 -0.3578 -0.3785  0.3582
 3249SOL    HW121206   2.701   2.483   9.047  0.2078  0.9614  0.2698
 3249SOL    HW221207   2.604   2.583   9.069 -3.0612 -1.2115  1.3610
 3250SOL     OW21208   0.612   1.646   4.095 -0.0148  0.4079  0.1180
 3250SOL    HW121209   0.596   1.683   4.182  0.2075  0.5484  0.0983
 3250SOL    HW221210   0.592   1.720   4.037 -3.1619  0.1479  0.8776
 3251SOL     OW21211   1.777   0.222   7.567 -0.0906 -0.0300 -0.3329
 3251SOL    HW121212   1.729   0.143   7.593 -1.4155  1.0145  0.4300
 3251SOL    HW221213   1.796   0.262   7.652  0.3017 -0.1340 -0.3734
 3252SOL     OW21214   2.619   1.777  10.099 -0.2437  0.2586  0.5532
 3252SOL    HW121215   2.579   1.836  10.036  1.0816 -1.0521 -1.5211
 3252SOL    HW221216   2.611   1.693  10.054  2.4232  1.0716 -1.4789
 3253SOL     OW21217   2.122   2.719   0.250 -0.4649 -0.2585  0.0713
 3253SOL    HW121218   2.066   2.746   0.322  0.3118 -0.4083  0.7341
 3253SOL    HW221219   2.204   2.734   0.297 -0.6929  0.4202  0.2572
 3254SOL     OW21220   3.867   1.862   9.425 -0.3974  0.5137  0.3815
 3254SOL    HW121221   3.847   1.897   9.511  0.3448 -0.3624  0.9124
 3254SOL    HW221222   3.931   1.796   9.451 -0.4509  0.3782  0.1755
 3255SOL     OW21223   4.444   1.157   6.467  0.3604  0.1811  0.8269
 3255SOL    HW121224   4.529   1.131   6.432  0.6406  1.6831  0.4176
 3255SOL    HW221225   4.439   1.242   6.425  4.0649 -0.1003 -0.1295
 3256SOL     OW21226   4.432   4.288  13.822  0.2374  0.3440 -0.0623
 3256SOL    HW121227   4.521   4.284  13.787  0.5836  1.3384  0.7424
 3256SOL    HW221228   4.436   4.323  13.911 -1.4622  0.9273 -0.2148
 3257SOL     OW21229   2.394   1.735  15.135 -0.1882  0.3808 -0.3314
 3257SOL    HW121230   2.397   1.652  15.089  0.0003  0.9753 -1.3887
 3257SOL    HW221231   2.453   1.714  15.208 -2.5608  0.7700  1.6757
 3258SOL     OW21232   1.524   3.995   1.000 -0.2205  0.0202  0.5313
 3258SOL    HW121233   1.472   3.916   1.014  0.0501 -0.3522 -0.5580
 3258SOL    HW221234   1.495   4.026   0.914 -0.8496 -2.2244 -0.0572
 3259SOL     OW21235   1.815   0.745  15.970  0.6546 -0.7833  0.6358
 3259SOL    HW121236   1.833   0.669  15.916  1.8236 -0.0876  0.0350
 3259SOL    HW221237   1.724   0.726  15.991 -0.0047  1.6451  0.0178
 3260SOL     OW21238   0.214   1.269   3.471 -0.3623 -0.0394 -0.2681
 3260SOL    HW121239   0.147   1.218   3.516 -1.5375  1.1004 -0.7333
 3260SOL    HW221240   0.291   1.224   3.505 -0.8974 -2.0067 -1.6376
 3261SOL     OW21241   0.144   3.265   7.897  0.7562 -0.9112 -0.0444
 3261SOL    HW121242   0.108   3.184   7.862 -0.5195  0.5345 -2.1321
 3261SOL    HW221243   0.105   3.265   7.985  0.8613 -0.8120  0.0027
 3262SOL     OW21244   3.650   2.659   8.960  0.2086 -0.3792  0.0930
 3262SOL    HW121245   3.676   2.667   9.052  0.3244  0.1143  0.0153
 3262SOL    HW221246   3.675   2.742   8.920  0.4137  0.4247  1.8828
 3263SOL     OW21247   2.828   2.434  10.636 -0.6954  0.5118  0.6665
 3263SOL    HW121248   2.769   2.359  10.635 -3.0496  2.3699  0.1663
 3263SOL    HW221249   2.903   2.398  10.683 -1.1038  1.0260  1.7026
 3264SOL     OW21250   1.499   0.987  13.336  0.3253 -0.4994  0.2929
 3264SOL    HW121251   1.509   1.081  13.353  2.4355 -0.5514 -0.7103
 3264SOL    HW221252   1.458   0.953  13.415  1.0086  0.1189  0.9049
 3265SOL     OW21253   1.324   2.185   7.703  0.4152  0.3231 -0.8463
 3265SOL    HW121254   1.354   2.094   7.698 -2.5077 -0.7103  0.9302
 3265SOL    HW221255   1.388   2.225   7.762 -0.1241  1.7641 -1.2315
 3266SOL     OW21256   4.385   4.607  11.875  0.4338 -0.0000 -0.0071
 3266SOL    HW121257   4.364   4.661  11.798  0.3123  0.4030  0.3076
 3266SOL    HW221258   4.334   4.530  11.849  2.3680 -1.4161  0.3861
 3267SOL     OW21259   4.387   3.947   2.528  0.1856  0.2438  0.1715
 3267SOL    HW121260   4.365   4.000   2.605  0.5697  0.6813 -0.0209
 3267SOL    HW221261   4.315   3.980   2.474  1.2643 -1.0503 -2.0377
 3268SOL     OW21262   0.731   2.986  15.060  0.0135  0.1781 -0.2561
 3268SOL    HW121263   0.699   3.023  14.977 -1.0785  0.0423  0.1013
 3268SOL    HW221264   0.764   2.905  15.021  2.3254  0.8476  0.3060
 3269SOL     OW21265   4.693   2.293   1.873  0.0828  0.0213  0.0038
 3269SOL    HW121266   4.704   2.388   1.869 -0.8752  0.1039 -0.8358
 3269SOL    HW221267   4.620   2.284   1.811 -1.4247 -0.2695  1.8124
 3270SOL     OW21268   2.908   1.416   5.607  0.1660 -0.6450  0.2312
 3270SOL    HW121269   2.915   1.391   5.699  2.7894 -2.4776 -0.4835
 3270SOL    HW221270   2.991   1.463   5.603 -1.0195  1.2581 -2.1043
 3271SOL     OW21271   2.116   2.298   8.563 -0.1864 -0.0702  0.0072
 3271SOL    HW121272   2.133   2.259   8.477 -1.1494 -0.5680  0.0434
 3271SOL    HW221273   2.208   2.324   8.575  0.0139  0.6291 -3.1006
 3272SOL     OW21274   3.005   0.761   6.692  0.3327  0.1119  0.0633
 3272SOL    HW121275   3.025   0.673   6.725  1.0500  0.7979  1.4592
 3272SOL    HW221276   2.927   0.781   6.745  0.1005 -2.1254  0.5675
 3273SOL     OW21277   2.971   1.656   9.779 -0.7609  0.3915  0.0048
 3273SOL    HW121278   2.962   1.575   9.729  0.5249  0.2359  0.0099
 3273SOL    HW221279   2.878   1.660   9.801 -0.6025 -0.5957  0.8562
 3274SOL     OW21280   2.112   0.352   9.234 -0.2867 -0.5540 -0.2605
 3274SOL    HW121281   2.123   0.268   9.191 -0.0959 -0.9216  0.5090
 3274SOL    HW221282   2.128   0.338   9.327 -1.4504 -3.4167 -0.5115
 3275SOL     OW21283   2.259   4.464   0.649  0.2786  0.1134  0.0539
 3275SOL    HW121284   2.256   4.468   0.745 -1.5061 -2.5922  0.1229
 3275SOL    HW221285   2.166   4.465   0.625  0.8797 -3.3095 -2.3343
 3276SOL     OW21286   3.634   4.691  13.673 -0.1995 -0.4743  0.3350
 3276SOL    HW121287   3.671   4.628  13.611 -1.7167  0.0871 -1.1372
 3276SOL    HW221288   3.675   4.663  13.755  0.7511  1.4675  0.5144
 3277SOL     OW21289   1.172   2.017  10.634  0.7935  0.0491 -0.1335
 3277SOL    HW121290   1.120   2.097  10.639 -1.8470 -1.5807 -1.3706
 3277SOL    HW221291   1.189   2.012  10.728  2.2217 -0.5630 -0.4190
 3278SOL     OW21292   4.079   0.482  15.556 -0.2023 -0.9011  0.3136
 3278SOL    HW121293   4.073   0.562  15.608  2.7531 -2.2413  2.6974
 3278SOL    HW221294   4.097   0.413  15.619  0.7401  1.2881  2.4498
 3279SOL     OW21295   3.953   1.844   7.299 -0.2558 -0.3847  0.2757
 3279SOL    HW121296   3.911   1.826   7.383  0.7563 -0.4023  0.7787
 3279SOL    HW221297   4.013   1.770   7.290  1.2796  0.8474  0.4444
 3280SOL     OW21298   0.994   1.481  15.354  0.1063 -1.0362  0.2674
 3280SOL    HW121299   0.912   1.513  15.393  0.2719 -1.4970  0.9855
 3280SOL    HW221300   0.976   1.506  15.263  0.2515 -0.9077  0.2737
 3281SOL     OW21301   3.591   1.629   5.985  0.2762 -0.4437 -0.6586
 3281SOL    HW121302   3.541   1.646   6.065 -1.2453 -1.6651 -1.3403
 3281SOL    HW221303   3.655   1.700   5.978 -1.0604  0.5809 -2.7972
 3282SOL     OW21304   3.832   0.632   9.074 -0.0540 -0.3508 -0.0676
 3282SOL    HW121305   3.923   0.606   9.057 -0.0369 -1.6101  1.9568
 3282SOL    HW221306   3.826   0.579   9.154 -0.1540 -0.4137 -0.1157
 3283SOL     OW21307   0.908   0.647  16.467  0.0713 -0.3409  0.3404
 3283SOL    HW121308   0.817   0.673  16.460  0.4036  1.0701  1.4400
 3283SOL    HW221309   0.940   0.717  16.410  1.5320 -1.3914 -0.1574
 3284SOL     OW21310   2.005   2.865   8.490 -0.3385 -0.5466 -0.2165
 3284SOL    HW121311   1.958   2.867   8.574 -2.7619 -0.4811 -1.5611
 3284SOL    HW221312   1.933   2.836   8.433  0.1977 -1.7948 -0.2671
 3285SOL     OW21313   3.067   3.411   4.028 -0.1136 -0.0541 -0.6030
 3285SOL    HW121314   3.151   3.450   4.004 -0.1076 -0.9661 -2.0561
 3285SOL    HW221315   3.049   3.343   3.964 -1.3868 -0.5728  0.3047
 3286SOL     OW21316   4.183   2.765  11.306  0.3923 -0.9254 -0.3773
 3286SOL    HW121317   4.094   2.791  11.330  0.6589 -2.0813  1.8420
 3286SOL    HW221318   4.231   2.802  11.380  0.6971  0.0731 -1.0883
 3287SOL     OW21319   2.879   1.341   5.882 -0.2367  0.0293  0.0214
 3287SOL    HW121320   2.921   1.288   5.950  2.3225  2.0620 -0.0111
 3287SOL    HW221321   2.797   1.292   5.876  0.2134 -0.2297 -3.9301
 3288SOL     OW21322   4.142   3.906   5.704  0.1755  0.1845 -0.4950
 3288SOL    HW121323   4.049   3.923   5.718  0.1691  0.2132 -0.5692
 3288SOL    HW221324   4.148   3.885   5.610  0.2603 -0.4843 -0.3402
 3289SOL     OW21325   2.075   2.340  14.668 -0.0222  0.0060 -0.4837
 3289SOL    HW121326   2.151   2.374  14.621 -0.4550  0.0227 -1.1654
 3289SOL    HW221327   2.014   2.364  14.598  0.9447  0.8284 -1.0382
 3290SOL     OW21328   2.376   0.333   7.456  0.3658 -0.1791  0.4918
 3290SOL    HW121329   2.317   0.289   7.517 -0.8544  2.3682  1.1613
 3290SOL    HW221330   2.347   0.424   7.448 -0.3997 -0.2049  3.1638
 3291SOL     OW21331   3.572   3.904   4.939  0.1787  0.2201 -0.2918
 3291SOL    HW121332   3.652   3.851   4.939  0.2355  0.3047 -0.7041
 3291SOL    HW221333   3.573   3.911   4.843  0.3154 -1.6609 -0.4273
 3292SOL     OW21334   0.382   0.927   2.131  0.2376  0.0282  0.0269
 3292SOL    HW121335   0.342   0.930   2.043  0.3698 -0.2157 -0.0434
 3292SOL    HW221336   0.309   0.934   2.192  1.0924  0.2693  1.0187
 3293SOL     OW21337   0.773   2.827   3.598 -0.2181  0.2577 -0.0827
 3293SOL    HW121338   0.839   2.851   3.533  1.2795 -0.3812  1.1818
 3293SOL    HW221339   0.771   2.732   3.591 -0.7935  0.2770 -0.1825
 3294SOL     OW21340   0.248   1.713   7.433 -0.2947  0.7057  0.2102
 3294SOL    HW121341   0.273   1.803   7.413  1.7328  0.4398  1.5158
 3294SOL    HW221342   0.269   1.669   7.351  1.3188  2.0771 -0.1163
 3295SOL     OW21343   4.454   0.850   8.427 -0.5895  0.2797  0.3819
 3295SOL    HW121344   4.459   0.810   8.514 -2.9064 -0.9712 -0.0527
 3295SOL    HW221345   4.509   0.924   8.450  0.6657  0.3404 -2.8290
 3296SOL     OW21346   3.343   3.522  13.300  0.5236 -0.5837 -0.2247
 3296SOL    HW121347   3.354   3.428  13.312  0.2595 -0.3638  1.6483
 3296SOL    HW221348   3.424   3.558  13.335  1.1968 -0.4251 -1.9161
 3297SOL     OW21349   2.420   0.405   9.064  1.0418  0.3134 -0.1252
 3297SOL    HW121350   2.451   0.367   9.146 -0.6028 -0.3581  0.1906
 3297SOL    HW221351   2.389   0.491   9.094  1.2039  0.0704  0.7459
 3298SOL     OW21352   1.345   3.143  17.106  0.4750  0.0077  0.2742
 3298SOL    HW121353   1.276   3.147  17.040  0.8347  1.6361 -0.0054
 3298SOL    HW221354   1.419   3.165  17.049  1.4736  1.2859  2.0533
 3299SOL     OW21355   3.956   4.378   4.327 -0.0413 -0.2393 -0.1084
 3299SOL    HW121356   4.012   4.397   4.252  0.3974  0.6299  0.4356
 3299SOL    HW221357   3.882   4.328   4.292 -1.8689  1.9801  0.5541
 3300SOL     OW21358   2.261   0.129   3.332  0.5715  0.0526  0.1162
 3300SOL    HW121359   2.246   0.217   3.297 -1.0310 -0.0623  0.5066
 3300SOL    HW221360   2.331   0.099   3.275 -0.0939 -1.9748  0.3628
 3301SOL     OW21361   0.155   2.121   4.700  0.0203 -0.0925 -0.3017
 3301SOL    HW121362   0.176   2.209   4.668 -0.3372 -0.8295 -2.5799
 3301SOL    HW221363   0.187   2.065   4.629 -0.0546 -0.0990 -0.3300
 3302SOL     OW21364   0.995   0.018   3.739  0.0187 -0.0230  0.4426
 3302SOL    HW121365   1.046   0.097   3.722 -1.3200  0.5339 -0.9968
 3302SOL    HW221366   0.906   0.051   3.750  0.6043  1.9277 -0.7857
 3303SOL     OW21367   1.364   4.585   9.062  0.1192  0.5589 -0.2257
 3303SOL    HW121368   1.336   4.506   9.108  0.0988  0.4700 -0.3897
 3303SOL    HW221369   1.279   4.618   9.034  0.2834  0.2466 -1.0961
 3304SOL     OW21370   3.425   4.078  12.536 -0.4533 -0.5674  0.5411
 3304SOL    HW121371   3.440   4.075  12.630  0.0836 -0.5954  0.4534
 3304SOL    HW221372   3.464   3.993  12.515 -1.0937 -1.5304  3.3017
 3305SOL     OW21373   1.927   0.515  15.737  0.0449  0.5224  0.1524
 3305SOL    HW121374   1.868   0.567  15.682  1.5591  2.0876  0.0286
 3305SOL    HW221375   2.021   0.522  15.717 -0.2924 -0.6328 -1.8435
 3306SOL     OW21376   4.201   3.360   8.528 -0.5326 -0.1309 -0.3566
 3306SOL    HW121377   4.250   3.440   8.545  1.1473 -1.4536  1.0084
 3306SOL    HW221378   4.197   3.324   8.617 -0.8914  2.6472  0.7588
 3307SOL     OW21379   1.881   0.931  16.455 -0.2976 -0.3173 -0.8367
 3307SOL    HW121380   1.818   0.902  16.388 -0.1011  1.2942 -1.7112
 3307SOL    HW221381   1.844   0.895  16.535 -0.7239  0.1750 -0.8144
 3308SOL     OW21382   1.725   0.787   5.344 -0.2240 -0.2438 -0.6468
 3308SOL    HW121383   1.790   0.833   5.398  0.4129  0.3446 -1.9086
 3308SOL    HW221384   1.785   0.753   5.277 -0.8820  0.7959 -1.7642
 3309SOL     OW21385   2.586   2.763   0.145  0.7048 -0.3455  0.6270
 3309SOL    HW121386   2.625   2.817   0.215  3.3810 -2.7463  0.9775
 3309SOL    HW221387   2.560   2.829   0.082  0.3909 -1.2821 -0.2098
 3310SOL     OW21388   0.538   3.880   4.170  0.2043  0.0480 -0.3839
 3310SOL    HW121389   0.621   3.926   4.155 -1.1487  2.4646 -0.5216
 3310SOL    HW221390   0.528   3.889   4.265  0.4213 -2.3169 -0.1389
 3311SOL     OW21391   1.617   0.689   8.613 -0.0352 -0.2936  0.1923
 3311SOL    HW121392   1.567   0.618   8.572 -0.5927  0.0006  0.3740
 3311SOL    HW221393   1.684   0.644   8.665 -1.1213 -2.0227  0.1238
 3312SOL     OW21394   4.457   3.734   3.594 -0.3665  0.3143 -0.3629
 3312SOL    HW121395   4.437   3.648   3.556  1.1633 -0.4295  0.5405
 3312SOL    HW221396   4.487   3.782   3.517  1.5204 -1.3200 -0.6327
 3313SOL     OW21397   1.242   2.001   6.311 -0.0772  0.3320  0.0760
 3313SOL    HW121398   1.281   1.921   6.276  0.2961  0.1434  0.9309
 3313SOL    HW221399   1.310   2.026   6.373  0.7694  1.4078 -1.2965
 3314SOL     OW21400   4.041   1.278   9.935 -0.0330  0.4965  0.3132
 3314SOL    HW121401   4.028   1.269  10.030  0.8312 -0.5429  0.3294
 3314SOL    HW221402   4.130   1.308   9.918 -0.0711 -1.1452 -2.6970
 3315SOL     OW21403   3.166   1.326   0.799  0.0779 -0.2819  0.1272
 3315SOL    HW121404   3.160   1.375   0.717  1.8131  2.4726  1.6343
 3315SOL    HW221405   3.245   1.274   0.783  1.2783  1.1514  1.3951
 3316SOL     OW21406   0.412   4.224   6.195  0.5384 -0.3772 -0.0099
 3316SOL    HW121407   0.462   4.228   6.277 -0.1603  1.7505  0.3148
 3316SOL    HW221408   0.444   4.298   6.144 -1.7739 -0.2099 -1.2352
 3317SOL     OW21409   1.626   4.125  12.828 -0.0346  0.1913 -0.3117
 3317SOL    HW121410   1.691   4.179  12.874  0.0930 -1.6431  1.6821
 3317SOL    HW221411   1.617   4.048  12.884  0.1602  1.3571  1.3571
 3318SOL     OW21412   2.911   2.912   4.374 -0.4671 -0.4082 -0.8161
 3318SOL    HW121413   2.823   2.890   4.342 -0.8209  2.3473 -1.7489
 3318SOL    HW221414   2.928   2.832   4.424 -0.2357  0.1217 -0.0503
 3319SOL     OW21415   3.511   2.058   0.615 -0.6107 -0.2192  0.7127
 3319SOL    HW121416   3.567   2.031   0.688 -2.4104 -1.9899  1.4336
 3319SOL    HW221417   3.586   2.088   0.564 -1.6830 -0.4068 -0.9720
 3320SOL     OW21418   3.765   0.020  14.632  0.2712  0.2779 -0.5261
 3320SOL    HW121419   3.683   0.039  14.677 -0.0695  0.7120 -1.3363
 3320SOL    HW221420   3.808   0.102  14.656  0.9864  0.7614 -3.4738
 3321SOL     OW21421   2.553   4.677   4.700 -0.1418 -0.6676  0.6797
 3321SOL    HW121422   2.550   0.045   4.672 -0.7005 -1.2659 -1.1632
 3321SOL    HW221423   2.595   4.637   4.624  2.0127 -0.7109  1.8911
 3322SOL     OW21424   1.745   2.408   4.499  0.5319  0.4618 -0.5209
 3322SOL    HW121425   1.812   2.360   4.451  0.6502 -0.8232  0.9445
 3322SOL    HW221426   1.720   2.472   4.432  0.2251 -0.3731 -1.2078
 3323SOL     OW21427   1.103   1.259   6.013 -0.1848 -0.0061 -0.6695
 3323SOL    HW121428   1.101   1.312   6.093 -1.6301  0.8319 -1.2703
 3323SOL    HW221429   1.062   1.176   6.036 -0.6847  0.6429  0.7601
 3324SOL     OW21430   1.239   0.386   7.175 -0.5451 -0.0817 -0.4568
 3324SOL    HW121431   1.202   0.408   7.090 -1.4095 -0.1503 -0.1023
 3324SOL    HW221432   1.328   0.366   7.145  0.4833  1.9228  1.2206
 3325SOL     OW21433   1.192   0.604  15.003  0.9508 -0.1423 -0.6264
 3325SOL    HW121434   1.221   0.521  14.964 -1.2384  0.0230 -2.5596
 3325SOL    HW221435   1.212   0.661  14.929 -0.4289  1.8028  0.5032
 3326SOL     OW21436   0.203   2.796  15.782 -0.2487  0.7912 -0.5003
 3326SOL    HW121437   0.285   2.752  15.759 -1.6489 -0.2725 -3.4420
 3326SOL    HW221438   0.209   2.771  15.874  0.1708  0.2944 -0.6549
 3327SOL     OW21439   3.512   3.560   6.847 -0.2759 -0.6738 -0.0990
 3327SOL    HW121440   3.551   3.506   6.778 -0.7178 -2.5157  1.1093
 3327SOL    HW221441   3.575   3.627   6.874  0.8035 -1.3462 -0.9185
 3328SOL     OW21442   2.662   2.357   5.954 -0.2757  0.2164  0.0448
 3328SOL    HW121443   2.662   2.445   5.916 -1.1621  0.1772 -0.0318
 3328SOL    HW221444   2.602   2.316   5.892  0.6380 -2.8332  1.1343
 3329SOL     OW21445   2.576   2.107   8.926 -0.2907  0.0018  0.2258
 3329SOL    HW121446   2.653   2.156   8.895 -0.4209  0.4415  0.6070
 3329SOL    HW221447   2.502   2.167   8.936  0.1434  0.7876 -1.2433
 3330SOL     OW21448   1.703   3.723   3.150  0.3203  0.2212  1.0223
 3330SOL    HW121449   1.725   3.686   3.235  3.8005  0.8453  0.4099
 3330SOL    HW221450   1.623   3.770   3.171  0.2780  0.8912 -0.6487
 3331SOL     OW21451   3.722   1.195   2.717  0.0731 -0.0396  0.1009
 3331SOL    HW121452   3.732   1.132   2.789  0.3606  0.3782  0.4244
 3331SOL    HW221453   3.722   1.277   2.766 -0.2570 -0.5197  0.9159
 3332SOL     OW21454   4.684   1.650   8.468  0.0319  0.5544 -0.0658
 3332SOL    HW121455   4.679   1.556   8.454  0.3513  0.4386  0.5989
 3332SOL    HW221456   0.040   1.671   8.420  1.0238 -3.5061 -0.1885
 3333SOL     OW21457   3.529   2.624   8.630 -0.2498  0.5673  0.0564
 3333SOL    HW121458   3.614   2.606   8.589 -0.0887 -0.1656  0.7111
 3333SOL    HW221459   3.492   2.691   8.574 -0.7239  0.7444  0.5812
 3334SOL     OW21460   3.122   1.484  16.483 -0.1063 -0.5708 -0.2990
 3334SOL    HW121461   3.054   1.444  16.538 -0.4929  2.8563  1.6714
 3334SOL    HW221462   3.201   1.447  16.523  0.4875 -1.2076 -2.0428
 3335SOL     OW21463   0.106   0.440  17.327 -0.5707  0.1017 -0.2263
 3335SOL    HW121464   0.145   0.358  17.296 -2.5259 -0.7033 -0.5183
 3335SOL    HW221465   0.166   0.468  17.397 -0.7878 -2.1517  0.8671
 3336SOL     OW21466   1.974   0.677   3.878 -0.1737  0.4867  0.5370
 3336SOL    HW121467   2.031   0.673   3.800 -0.9182  1.5424 -0.0651
 3336SOL    HW221468   1.913   0.605   3.865  0.9724 -0.1460 -1.3720
 3337SOL     OW21469   2.610   1.499   4.723 -0.0463  0.0575 -0.1024
 3337SOL    HW121470   2.695   1.489   4.680  0.3901 -0.8626  0.9776
 3337SOL    HW221471   2.558   1.431   4.680  0.7788  0.8491 -2.3676
 3338SOL     OW21472   3.293   0.374  12.169 -0.1357  0.1130  0.8227
 3338SOL    HW121473   3.303   0.462  12.132 -0.9303 -0.6829 -1.2547
 3338SOL    HW221474   3.225   0.385  12.236 -0.9918 -2.0302  0.3128
 3339SOL     OW21475   0.104   2.302  11.444 -0.3560  0.0010  0.5288
 3339SOL    HW121476   0.024   2.280  11.397 -1.0457  1.0691  1.2106
 3339SOL    HW221477   0.163   2.236  11.407 -1.5307 -0.3558 -0.7051
 3340SOL     OW21478   3.745   3.484   2.522  0.0881 -0.2383  0.1458
 3340SOL    HW121479   3.680   3.553   2.512 -0.9693 -0.8875  2.6012
 3340SOL    HW221480   3.798   3.489   2.442 -3.1761  1.5961 -1.8913
 3341SOL     OW21481   0.088   0.821   8.640 -0.4290 -0.0168 -0.4222
 3341SOL    HW121482   0.014   0.788   8.692 -0.1073  3.7251  2.4491
 3341SOL    HW221483   0.149   0.752   8.665  0.9828  0.6960 -1.9233
 3342SOL     OW21484   1.464   0.838   7.053 -1.0106  0.4787 -0.1766
 3342SOL    HW121485   1.499   0.927   7.053  0.5208 -0.1115  0.2381
 3342SOL    HW221486   1.370   0.854   7.064 -0.9585 -0.1008  1.1221
 3343SOL     OW21487   3.094   4.007   6.593 -0.2004 -0.7708 -0.6518
 3343SOL    HW121488   3.163   4.048   6.541 -0.0958  0.7625  0.6903
 3343SOL    HW221489   3.109   4.044   6.680 -0.9008 -1.3961 -0.2650
 3344SOL     OW21490   0.950   4.295   6.496  0.2239 -0.1583 -0.0478
 3344SOL    HW121491   0.883   4.307   6.429 -0.0601  2.8815  0.7790
 3344SOL    HW221492   1.012   4.239   6.450  2.4643  2.3594 -0.0920
 3345SOL     OW21493   2.579   2.078   4.352  0.0410  0.4635  0.1524
 3345SOL    HW121494   2.553   1.996   4.394  1.2799  0.1667  0.3323
 3345SOL    HW221495   2.668   2.052   4.329  0.1549 -0.3612  1.4840
 3346SOL     OW21496   0.188   2.290   8.226 -0.3192 -0.1054 -0.7784
 3346SOL    HW121497   0.261   2.229   8.213  1.9877  2.4360  0.1662
 3346SOL    HW221498   0.181   2.331   8.140 -0.1419 -0.8852 -1.1576
 3347SOL     OW21499   0.330   2.820   3.823  0.0373  0.0511  0.4964
 3347SOL    HW121500   0.414   2.863   3.806  0.0043  0.3684  1.1584
 3347SOL    HW221501   0.324   2.760   3.748 -2.9552  2.4559 -1.1635
 3348SOL     OW21502   0.316   1.777   7.030 -0.0959 -0.1409  0.8158
 3348SOL    HW121503   0.323   1.867   6.999 -1.0703 -0.6147 -0.7992
 3348SOL    HW221504   0.407   1.751   7.020  0.0005  0.3288  0.4584
 3349SOL     OW21505   1.491   0.281   4.301 -0.1754  0.5861 -0.2187
 3349SOL    HW121506   1.395   0.276   4.294 -0.2816  0.3831  1.2089
 3349SOL    HW221507   1.497   0.320   4.389 -0.2486 -1.3045  0.6118
 3350SOL     OW21508   0.389   0.084   4.742 -1.1868  0.2744  0.2833
 3350SOL    HW121509   0.344   0.146   4.684 -0.5836 -1.4644 -2.0542
 3350SOL    HW221510   0.475   0.126   4.750 -1.2985  0.2588  1.5290
 3351SOL     OW21511   0.792   0.243  17.583 -0.0902 -0.5393  0.2682
 3351SOL    HW121512   0.885   0.250  17.601  0.2415 -1.7729 -0.9945
 3351SOL    HW221513   0.781   0.230  17.489  0.5954 -1.6783  0.3417
 3352SOL     OW21514   4.709   0.807  17.584 -0.1022 -0.0364 -0.4877
 3352SOL    HW121515   0.061   0.749  17.576 -0.1085  0.1379 -1.7062
 3352SOL    HW221516   0.018   0.884  17.539 -0.0237  1.0177  1.3445
 3353SOL     OW21517   2.603   0.873   5.637  0.3400 -0.7513 -0.1047
 3353SOL    HW121518   2.647   0.883   5.721  1.2331 -0.6889 -0.5799
 3353SOL    HW221519   2.549   0.794   5.641  2.3889 -2.1990 -1.6164
 3354SOL     OW21520   0.738   0.325   5.220 -0.5164 -0.2765  0.1215
 3354SOL    HW121521   0.831   0.341   5.236 -0.2513 -1.1678 -0.5275
 3354SOL    HW221522   0.738   0.243   5.170 -1.7717 -0.2852  0.1388
 3355SOL     OW21523   1.867   4.631  16.045  0.4333  0.0868 -0.1402
 3355SOL    HW121524   1.894   4.574  16.117  1.5812 -1.7455 -2.0215
 3355SOL    HW221525   1.879   4.566  15.976  0.4674 -0.4148  0.3388
 3356SOL     OW21526   1.550   3.617  14.674 -0.1636 -0.2160 -0.5039
 3356SOL    HW121527   1.559   3.649  14.584  2.6357  3.1428  1.0046
 3356SOL    HW221528   1.454   3.612  14.677 -0.1835 -0.3674 -1.1758
 3357SOL     OW21529   4.561   4.262   4.691  0.1607 -0.6236 -0.2712
 3357SOL    HW121530   4.557   4.354   4.718  0.7616 -0.6646 -0.0548
 3357SOL    HW221531   4.560   4.271   4.595 -1.1708  0.0350 -0.1989
 3358SOL     OW21532   3.910   1.229   1.570 -0.3695 -0.3417 -0.3567
 3358SOL    HW121533   3.897   1.166   1.499  0.7971 -1.1572  0.1630
 3358SOL    HW221534   3.936   1.172   1.643 -1.4327 -0.2532  0.0923
 3359SOL     OW21535   2.514   1.199   7.463 -0.3388 -0.2270 -0.0247
 3359SOL    HW121536   2.496   1.114   7.502 -0.0645  0.4003  1.4900
 3359SOL    HW221537   2.561   1.172   7.384 -0.3607 -1.1119  0.2711
 3360SOL     OW21538   0.776   2.104  17.673 -0.0797  0.6445  0.6374
 3360SOL    HW121539   0.711   2.146   0.033  0.3313  1.0835  0.7860
 3360SOL    HW221540   0.831   2.183  17.673  1.2223 -0.2696  0.2253
 3361SOL     OW21541   0.064   1.265   9.278 -0.1218 -0.6462  0.1562
 3361SOL    HW121542   4.718   1.279   9.214  0.0614 -3.0330 -0.5530
 3361SOL    HW221543   0.030   1.305   9.358 -1.3992 -0.4898 -0.4742
 3362SOL     OW21544   3.708   0.651   2.063 -0.1846 -0.4441  0.3408
 3362SOL    HW121545   3.655   0.575   2.088 -1.6583  0.9055  1.2644
 3362SOL    HW221546   3.782   0.634   2.121  1.4046  2.0829 -0.9697
 3363SOL     OW21547   2.000   1.155   6.764  0.1782 -0.1243 -0.7452
 3363SOL    HW121548   2.073   1.139   6.704  0.3294  0.4676 -0.7212
 3363SOL    HW221549   1.919   1.161   6.714  0.9790  3.7568 -1.5824
 3364SOL     OW21550   2.263   0.354   2.630  0.6075  0.0087 -0.3056
 3364SOL    HW121551   2.220   0.402   2.560  0.9187  0.0497 -0.4680
 3364SOL    HW221552   2.343   0.406   2.628  0.7650 -0.2253 -0.0654
 3365SOL     OW21553   3.740   1.764   7.911 -0.2830  0.4886 -0.2846
 3365SOL    HW121554   3.741   1.847   7.863  0.0419  2.0401  2.4050
 3365SOL    HW221555   3.657   1.722   7.887 -0.7031  0.3719  1.3930
 3366SOL     OW21556   1.150   3.188   4.585  0.2424  0.0243  0.5522
 3366SOL    HW121557   1.068   3.231   4.611 -0.6320  0.0472 -2.2310
 3366SOL    HW221558   1.154   3.115   4.646  2.2033 -0.1396  0.2221
 3367SOL     OW21559   0.372   0.057   3.400 -0.1908  0.1113  0.1839
 3367SOL    HW121560   0.460   0.018   3.392 -0.4484 -0.4078 -0.1183
 3367SOL    HW221561   0.315   0.016   3.336  0.4856 -0.0294 -0.3314
 3368SOL     OW21562   3.958   1.664   5.294  0.1324  1.0458  0.6548
 3368SOL    HW121563   4.053   1.654   5.287 -0.4959 -4.6863  0.5152
 3368SOL    HW221564   3.939   1.570   5.297  1.6064  0.7450  0.7640
 3369SOL     OW21565   0.700   1.112   4.809  0.2237 -0.1777 -0.1249
 3369SOL    HW121566   0.668   1.074   4.727  0.3339 -1.4849  0.4255
 3369SOL    HW221567   0.698   1.030   4.859  0.2853 -0.1767 -0.1211
 3370SOL     OW21568   0.091   2.249   6.084  0.3195  0.0874 -0.0580
 3370SOL    HW121569   0.078   2.254   5.989  3.5447  0.4062 -0.4648
 3370SOL    HW221570   0.047   2.332   6.106 -1.6555 -0.2278 -2.7649
 3371SOL     OW21571   3.539   3.166  14.744  0.1237  0.6613  0.0581
 3371SOL    HW121572   3.485   3.096  14.709 -0.0970  0.6328  0.4460
 3371SOL    HW221573   3.628   3.154  14.711 -1.0247 -1.4111 -2.2491
 3372SOL     OW21574   3.244   4.102   3.962  0.0842  0.5961  0.7901
 3372SOL    HW121575   3.225   4.092   4.055 -0.1160  0.5585  0.7441
 3372SOL    HW221576   3.340   4.104   3.957 -0.1425  2.7027 -2.2488
 3373SOL     OW21577   2.406   4.608  13.301  0.3406  0.5006  0.4121
 3373SOL    HW121578   2.470   4.539  13.283 -1.3298 -0.7426 -0.8434
 3373SOL    HW221579   2.383   4.639  13.213  0.3809  0.1504  0.2764
 3374SOL     OW21580   0.761   2.057   8.045  0.2529  0.2340 -0.1423
 3374SOL    HW121581   0.785   1.989   7.982  2.5688 -0.6762  1.7081
 3374SOL    HW221582   0.832   2.057   8.110  0.9500 -3.6672 -0.9356
 3375SOL     OW21583   1.617   2.298   4.217 -0.2516 -0.4524 -0.0565
 3375SOL    HW121584   1.663   2.250   4.287 -0.9915 -0.1455  0.6349
 3375SOL    HW221585   1.687   2.355   4.185 -0.5707  1.2279  2.2503
 3376SOL     OW21586   1.508   1.321   2.979  0.6824  0.6516 -0.2335
 3376SOL    HW121587   1.586   1.290   2.933 -0.4881 -0.7869 -1.2831
 3376SOL    HW221588   1.520   1.281   3.065 -2.9224 -0.7978 -0.4106
 3377SOL     OW21589   2.935   0.699   2.176 -0.1518 -0.0674 -0.7590
 3377SOL    HW121590   2.868   0.668   2.237 -0.1768  0.2679 -0.6107
 3377SOL    HW221591   2.976   0.618   2.147  2.1048  0.2288  1.6024
 3378SOL     OW21592   2.156   4.134   5.078 -0.0410  0.3187  0.4357
 3378SOL    HW121593   2.129   4.162   4.990  1.2624 -0.8289 -0.3447
 3378SOL    HW221594   2.196   4.050   5.055  2.4168  1.5826  0.0510
 3379SOL     OW21595   4.039   1.592   8.739 -0.5400  0.4430 -0.2953
 3379SOL    HW121596   4.018   1.527   8.806  0.9866 -0.8430 -1.0588
 3379SOL    HW221597   3.998   1.537   8.671 -1.2056 -0.5844  0.9369
 3380SOL     OW21598   1.881   3.376  17.076  0.0040  0.3705  0.0434
 3380SOL    HW121599   1.912   3.439  17.140 -0.7013  0.4199  0.3408
 3380SOL    HW221600   1.816   3.431  17.032  0.3035  1.1622  0.5907
 3381SOL     OW21601   0.352   0.580   6.739  0.1221 -0.3949  0.1101
 3381SOL    HW121602   0.314   0.661   6.771  0.0609 -0.3209 -0.1467
 3381SOL    HW221603   0.416   0.560   6.807 -1.4215 -0.1429  1.6220
 3382SOL     OW21604   3.219   4.053   7.497  0.3246 -0.0722 -0.1607
 3382SOL    HW121605   3.148   4.073   7.558  0.9826  2.0637 -0.0929
 3382SOL    HW221606   3.242   4.139   7.462 -1.1925  0.2854 -0.2673
 3383SOL     OW21607   3.555   3.937   6.308  0.0547 -0.4439 -0.0377
 3383SOL    HW121608   3.612   3.917   6.382 -0.8591 -0.1753  0.7320
 3383SOL    HW221609   3.613   3.955   6.233  0.4754  1.5011  0.7596
 3384SOL     OW21610   0.697   3.844   2.967  0.1688  0.2025 -0.0817
 3384SOL    HW121611   0.676   3.899   2.891  1.9336 -2.2698 -2.3563
 3384SOL    HW221612   0.624   3.860   3.027 -2.9576  1.1248 -4.1210
 3385SOL     OW21613   1.912   0.808   1.095  0.1046 -0.4425 -0.2761
 3385SOL    HW121614   1.911   0.786   1.189 -0.0417  0.5759 -0.0378
 3385SOL    HW221615   1.867   0.892   1.091 -1.3584 -1.1194  2.2168
 3386SOL     OW21616   2.964   0.119   3.530 -0.1821  0.6930  0.1435
 3386SOL    HW121617   2.947   0.132   3.437 -1.0505 -0.2245  0.1744
 3386SOL    HW221618   2.904   0.047   3.549  1.3075 -0.8095 -0.8826
 3387SOL     OW21619   3.939   1.556   1.759  0.3439  0.0275  0.3351
 3387SOL    HW121620   3.898   1.634   1.796 -0.8167 -0.7699  0.7300
 3387SOL    HW221621   3.913   1.489   1.822  2.0251 -1.5652 -0.6627
 3388SOL     OW21622   3.770   0.497   9.323  0.1001  0.1935 -0.3508
 3388SOL    HW121623   3.738   0.567   9.380 -0.0010 -0.7885  0.7881
 3388SOL    HW221624   3.806   0.428   9.378 -0.1849  0.0680 -0.3259
 3389SOL     OW21625   4.581   0.651  11.657 -0.2867  0.1627 -0.2010
 3389SOL    HW121626   4.598   0.745  11.652  0.1518  0.1449  1.0055
 3389SOL    HW221627   4.535   0.625  11.577 -0.5359  0.5523 -0.1836
 3390SOL     OW21628   3.679   1.995   8.683  0.1011 -0.4143  0.2315
 3390SOL    HW121629   3.648   1.905   8.691 -1.7061  0.2739  1.0863
 3390SOL    HW221630   3.649   2.023   8.770  1.5496  0.6240  0.3865
 3391SOL     OW21631   1.418   0.095  16.861  0.1340 -0.4288  0.0668
 3391SOL    HW121632   1.407   0.170  16.803 -1.2731 -0.1275  0.7472
 3391SOL    HW221633   1.387   0.117  16.949  2.3807  1.6009  0.3410
 3392SOL     OW21634   2.758   1.854   9.855 -1.1358  0.4945 -0.2376
 3392SOL    HW121635   2.709   1.776   9.879  1.3807 -1.1844 -0.5636
 3392SOL    HW221636   2.699   1.881   9.785  0.3425  1.8590 -0.9805
 3393SOL     OW21637   2.251   2.529  10.953 -0.1984 -0.1478  0.1743
 3393SOL    HW121638   2.313   2.478  11.005 -0.2701 -1.5927 -1.1615
 3393SOL    HW221639   2.203   2.578  11.020 -1.3123  0.6160 -1.1786
 3394SOL     OW21640   3.807   2.439   3.416 -0.0344  0.0794 -0.2856
 3394SOL    HW121641   3.846   2.443   3.328  0.6287  0.2453  0.0154
 3394SOL    HW221642   3.885   2.437   3.470 -1.2068 -1.3840  1.3247
 3395SOL     OW21643   2.814   0.337   7.847 -0.3064 -0.3843 -0.3935
 3395SOL    HW121644   2.864   0.256   7.842 -2.1163 -1.4723 -0.7962
 3395SOL    HW221645   2.864   0.387   7.783 -1.4850  1.3760  0.0394
 3396SOL     OW21646   2.009   2.318   5.860  0.1691 -0.1529  0.5374
 3396SOL    HW121647   1.931   2.263   5.859 -0.4279  0.7153 -0.8773
 3396SOL    HW221648   1.988   2.362   5.778 -1.5761 -0.6400  0.7385
 3397SOL     OW21649   1.649   2.444  13.743  0.3112  0.5204  0.6684
 3397SOL    HW121650   1.666   2.361  13.699 -0.8359  0.4327  0.4141
 3397SOL    HW221651   1.644   2.502  13.667 -0.0978 -0.8404 -0.3507
 3398SOL     OW21652   3.515   0.710   3.622 -0.1336 -0.1356  0.4999
 3398SOL    HW121653   3.490   0.802   3.629 -3.4698 -1.1492  2.0202
 3398SOL    HW221654   3.550   0.689   3.708  1.4193  0.0848 -0.0738
 3399SOL     OW21655   4.178   4.721   8.857  0.1915  0.1883  0.0835
 3399SOL    HW121656   4.090   4.722   8.895 -0.9991 -0.2436 -2.6275
 3399SOL    HW221657   4.215   0.084   8.876 -0.5407  0.3572  0.7591
 3400SOL     OW21658   3.645   0.384   5.607  0.1867 -0.4202  0.6017
 3400SOL    HW121659   3.700   0.376   5.684  0.1124 -0.9235  0.5979
 3400SOL    HW221660   3.570   0.428   5.646 -0.3374 -0.3243 -0.4918
 3401SOL     OW21661   3.550   4.243   6.463 -0.0425 -0.7550  0.0392
 3401SOL    HW121662   3.546   4.313   6.528 -0.3708  0.8645 -1.7089
 3401SOL    HW221663   3.471   4.191   6.478  0.6505 -1.0346  2.7925
 3402SOL     OW21664   3.914   2.282  10.205  0.0961  0.3882 -0.1959
 3402SOL    HW121665   3.895   2.270  10.111 -0.1362  0.8483 -0.2061
 3402SOL    HW221666   3.939   2.374  10.200  1.5324 -0.0420 -0.8884
 3403SOL     OW21667   0.947   1.351   9.080 -0.2700 -0.6553 -0.3299
 3403SOL    HW121668   0.989   1.300   9.011  4.1453  2.1403  0.3305
 3403SOL    HW221669   1.007   1.333   9.153  0.8692  1.1921 -0.8208
 3404SOL     OW21670   3.088   2.470   3.751 -0.2845  0.1558 -0.2221
 3404SOL    HW121671   3.016   2.415   3.783  2.3922 -2.2930  1.5999
 3404SOL    HW221672   3.142   2.487   3.828  4.0823  1.2901 -3.5496
 3405SOL     OW21673   2.371   3.800   7.906 -0.1023  0.4383  0.0669
 3405SOL    HW121674   2.353   3.716   7.865  0.6014  0.8291 -1.0400
 3405SOL    HW221675   2.340   3.862   7.841 -0.6684 -0.7498 -0.8046
 3406SOL     OW21676   4.666   2.320   3.267  0.3243  0.1239 -0.3627
 3406SOL    HW121677   4.723   2.317   3.345 -2.1443 -1.2302  1.3781
 3406SOL    HW221678   4.720   2.353   3.195  1.1372 -0.0970  0.1355
 3407SOL     OW21679   1.352   2.627   6.049  0.2927  0.2116  0.0359
 3407SOL    HW121680   1.340   2.568   5.975 -0.6728  0.7620 -0.2345
 3407SOL    HW221681   1.343   2.713   6.009 -1.1016 -0.5408 -1.2544
 3408SOL     OW21682   0.140   1.941   3.053  0.1857  0.6141  0.4974
 3408SOL    HW121683   0.076   2.004   3.020  2.2001  3.0375  1.1852
 3408SOL    HW221684   0.197   2.007   3.094 -1.7945  1.6317  1.6037
 3409SOL     OW21685   0.166   3.315   3.702  0.6039  0.0494 -0.0350
 3409SOL    HW121686   0.118   3.298   3.783  3.2707  0.0695  1.5590
 3409SOL    HW221687   0.254   3.291   3.733  0.7830 -0.0390 -0.6131
 3410SOL     OW21688   0.132   1.613   5.068  0.3012 -0.7574  0.1464
 3410SOL    HW121689   0.156   1.526   5.039  0.2056 -1.0031  0.8089
 3410SOL    HW221690   0.065   1.624   5.000  0.3487 -2.3686 -0.1621
 3411SOL     OW21691   1.310   3.107   0.606  0.2919  0.4183 -0.1952
 3411SOL    HW121692   1.360   3.168   0.660 -0.7653  1.7726 -0.7372
 3411SOL    HW221693   1.281   3.049   0.677 -1.5355  0.1981 -1.1097
 3412SOL     OW21694   3.057   2.426   5.150 -0.4962 -0.3667 -0.1717
 3412SOL    HW121695   3.093   2.349   5.106  0.4247  0.0551 -0.1526
 3412SOL    HW221696   2.982   2.455   5.100 -1.1049  0.6087  1.3067
 3413SOL     OW21697   0.065   1.687  16.317  0.3266 -0.6739  0.0513
 3413SOL    HW121698   0.032   1.599  16.300 -1.6235  0.0707 -0.0904
 3413SOL    HW221699   0.090   1.708  16.227  0.4220  0.9196  0.4555
 3414SOL     OW21700   0.049   3.042   5.663  0.1469  0.3797  0.1571
 3414SOL    HW121701   0.047   3.069   5.571 -1.3386 -1.0530 -0.2447
 3414SOL    HW221702   4.678   3.024   5.665  0.8072 -3.0647 -0.0674
 3415SOL     OW21703   4.116   4.261   4.502  0.6928  0.0210 -0.3239
 3415SOL    HW121704   4.063   4.291   4.576 -0.9066  0.2855 -1.5702
 3415SOL    HW221705   4.075   4.309   4.429 -0.4783 -0.5006 -0.0007
 3416SOL     OW21706   2.158   0.976   0.315  0.6561 -0.1366 -0.3001
 3416SOL    HW121707   2.104   1.049   0.346 -1.3142 -0.8719 -1.9649
 3416SOL    HW221708   2.176   0.933   0.399  0.9553 -0.6452 -0.6258
 3417SOL     OW21709   3.950   3.343   8.938 -0.1342 -0.0530 -0.2018
 3417SOL    HW121710   3.887   3.271   8.934  1.0399 -1.1382  0.8050
 3417SOL    HW221711   4.021   3.291   8.899  0.2950 -2.4522  3.8067
 3418SOL     OW21712   3.058   1.557   8.092  0.0275 -0.5632  0.3404
 3418SOL    HW121713   3.141   1.536   8.048 -1.1389 -1.9780 -1.2238
 3418SOL    HW221714   3.007   1.562   8.011  0.9386 -0.7081 -0.2417
 3419SOL     OW21715   4.018   2.034   4.140  0.2581 -0.3068 -0.0468
 3419SOL    HW121716   4.020   2.032   4.236  1.5753  1.6288 -0.0334
 3419SOL    HW221717   3.949   2.095   4.114  0.6658 -0.4119 -1.3598
 3420SOL     OW21718   2.502   4.142   8.827  0.6888 -0.3943 -0.0853
 3420SOL    HW121719   2.532   4.064   8.781  1.5387  0.1859 -0.5009
 3420SOL    HW221720   2.564   4.166   8.896  0.3369  0.6752 -0.1380
 3421SOL     OW21721   2.296   1.005   5.795  0.0441 -0.7773  0.0190
 3421SOL    HW121722   2.270   1.096   5.812  0.2171 -0.6470 -0.4001
 3421SOL    HW221723   2.320   0.968   5.879  1.2165  0.2953  0.1617
 3422SOL     OW21724   3.821   2.220   6.807 -0.1834 -0.1701 -0.5034
 3422SOL    HW121725   3.781   2.286   6.750  0.4621 -0.0290 -0.7911
 3422SOL    HW221726   3.779   2.139   6.779 -1.5718  0.7048 -0.9091
 3423SOL     OW21727   2.519   0.078   0.930  0.5619 -0.4295 -0.1770
 3423SOL    HW121728   2.561   0.145   0.876  1.8837 -0.3160  1.0175
 3423SOL    HW221729   2.440   0.074   0.876 -0.7011 -1.3636  1.7349
 3424SOL     OW21730   3.645   2.952   1.073 -0.1974 -0.1343 -1.2591
 3424SOL    HW121731   3.738   2.977   1.077  0.5019 -2.8540 -0.1973
 3424SOL    HW221732   3.643   2.869   1.120 -1.5464  0.1860 -0.7714
 3425SOL     OW21733   0.821   0.869   7.231 -0.8340 -0.2853 -0.3827
 3425SOL    HW121734   0.733   0.903   7.220 -0.1519  1.6983  0.2546
 3425SOL    HW221735   0.807   0.814   7.308  0.7884  0.6917  0.6085
 3426SOL     OW21736   3.634   0.405   8.675  0.2543 -0.0679 -0.4029
 3426SOL    HW121737   3.721   0.431   8.703  0.1289  0.0369 -0.1072
 3426SOL    HW221738   3.615   0.464   8.603  2.0666  0.1240 -0.7131
 3427SOL     OW21739   0.731   2.971   1.341  0.0086  0.5644  0.1663
 3427SOL    HW121740   0.734   2.917   1.263 -1.5296  0.7114  0.0058
 3427SOL    HW221741   0.695   2.915   1.410 -0.4634 -0.5815 -1.0156
 3428SOL     OW21742   3.662   0.863  16.521 -0.2489 -0.1027  0.5129
 3428SOL    HW121743   3.624   0.917  16.591 -0.8696  1.3068 -0.9219
 3428SOL    HW221744   3.721   0.924  16.477 -0.3454  0.9095  1.7925
 3429SOL     OW21745   2.189   3.152   7.405  0.1743  0.2933 -0.9819
 3429SOL    HW121746   2.237   3.131   7.485  1.1390  0.4674 -1.5159
 3429SOL    HW221747   2.117   3.206   7.438  1.6910  0.1391  2.6131
 3430SOL     OW21748   3.097   4.442   0.349  0.8144  0.6847  0.1922
 3430SOL    HW121749   3.028   4.508   0.357  0.4560  0.2128  1.0226
 3430SOL    HW221750   3.173   4.493   0.320  2.8295 -2.7563 -0.5549
 3431SOL     OW21751   0.873   2.479   5.452  0.1272 -0.3122 -0.2672
 3431SOL    HW121752   0.935   2.547   5.424  0.7179 -0.1089  1.5106
 3431SOL    HW221753   0.788   2.523   5.450 -0.8761 -2.0934  2.6884
 3432SOL     OW21754   1.273   3.549   6.314 -0.0577 -0.0746  0.6408
 3432SOL    HW121755   1.229   3.626   6.352 -2.0798 -0.5797 -0.6567
 3432SOL    HW221756   1.210   3.528   6.245  1.1540  1.3461 -0.8914
 3433SOL     OW21757   1.423   2.071   9.829  0.0309  0.3578  0.1755
 3433SOL    HW121758   1.456   2.007   9.765 -1.5266 -0.1302 -0.1335
 3433SOL    HW221759   1.503   2.123   9.840  0.7082 -0.1771 -2.0741
 3434SOL     OW21760   0.816   3.784   0.252 -0.4796  0.5554 -0.0899
 3434SOL    HW121761   0.845   3.753   0.167  0.7887 -2.2501  1.3480
 3434SOL    HW221762   0.905   3.791   0.288  0.2427 -0.9685 -1.6053
 3435SOL     OW21763   2.281   3.651  14.811  0.0482 -0.8206  0.0088
 3435SOL    HW121764   2.366   3.635  14.852  0.9293 -4.3928 -3.1867
 3435SOL    HW221765   2.269   3.745  14.799  0.1177 -0.9671 -1.1961
 3436SOL     OW21766   0.031   3.193  14.517 -0.1749  0.1439  0.1425
 3436SOL    HW121767   0.099   3.190  14.448  0.2404 -2.3417  0.6492
 3436SOL    HW221768   4.679   3.186  14.459 -1.0223  0.7170  1.1856
 3437SOL     OW21769   4.482   2.841   8.214  0.1748  0.3801 -0.3569
 3437SOL    HW121770   4.428   2.768   8.183  1.6033 -0.7335 -0.2108
 3437SOL    HW221771   4.562   2.831   8.163  0.8932  0.6912  0.7220
 3438SOL     OW21772   1.773   0.201   3.750  0.5988  0.1696 -0.2702
 3438SOL    HW121773   1.858   0.240   3.731  0.6070  1.0321  1.4538
 3438SOL    HW221774   1.711   0.266   3.718 -2.2762 -1.6127  1.5898
 3439SOL     OW21775   3.874   1.739   8.870  0.0347 -0.7774 -0.4418
 3439SOL    HW121776   3.939   1.722   8.802  0.0197 -3.2725  0.1875
 3439SOL    HW221777   3.895   1.832   8.878 -1.2244 -0.5523  0.2456
 3440SOL     OW21778   0.998   0.401   5.226  0.4104  0.0465  0.3815
 3440SOL    HW121779   1.077   0.428   5.180 -0.2219 -1.8250 -1.7984
 3440SOL    HW221780   1.034   0.324   5.268 -1.4730 -1.9619 -1.6951
 3441SOL     OW21781   1.360   2.430  17.582 -0.3264  0.2028  0.4754
 3441SOL    HW121782   1.437   2.446  17.527  0.0695 -0.7831  0.7510
 3441SOL    HW221783   1.359   2.335  17.595  2.3396 -0.0810 -1.4451
 3442SOL     OW21784   1.151   2.450   3.098  0.0231  0.2542 -0.5839
 3442SOL    HW121785   1.228   2.449   3.155 -0.7612  0.2274  0.4769
 3442SOL    HW221786   1.172   2.521   3.038  0.7972  0.7066  0.2257
 3443SOL     OW21787   1.738   4.306   3.421  0.0683 -0.3884  0.4084
 3443SOL    HW121788   1.807   4.241   3.408  1.5139  1.3725 -0.7471
 3443SOL    HW221789   1.722   4.300   3.515  1.0250  1.2315  0.6796
 3444SOL     OW21790   1.745   2.922  16.168 -0.2812  0.2509  0.0818
 3444SOL    HW121791   1.776   2.853  16.226 -2.9189 -1.2475 -0.2997
 3444SOL    HW221792   1.795   2.912  16.087 -0.2848 -1.1276  0.2597
 3445SOL     OW21793   3.961   3.608   2.119  0.0478  0.3672  0.1434
 3445SOL    HW121794   4.040   3.570   2.081  0.3330  0.3695  0.7451
 3445SOL    HW221795   3.967   3.567   2.205 -0.6928  1.5848  0.7711
 3446SOL     OW21796   2.796   1.273  10.731 -0.0299  0.2009  0.4646
 3446SOL    HW121797   2.762   1.352  10.691 -1.3866 -1.8671 -2.4720
 3446SOL    HW221798   2.751   1.263  10.816 -1.4797 -1.6626 -0.5063
 3447SOL     OW21799   1.961   0.298   8.499 -0.0711  0.7122 -0.2868
 3447SOL    HW121800   2.045   0.336   8.526  0.0958 -0.0439  0.2761
 3447SOL    HW221801   1.905   0.374   8.495 -0.5306  0.3453 -0.7182
 3448SOL     OW21802   0.678   2.280   1.426  0.2604 -0.1476 -0.1922
 3448SOL    HW121803   0.676   2.209   1.491 -0.7972  0.5305  0.5133
 3448SOL    HW221804   0.709   2.242   1.344 -1.1006  0.0057 -0.7671
 3449SOL     OW21805   3.226   1.010  13.709  0.0635  0.2601  0.0631
 3449SOL    HW121806   3.190   0.997  13.797  2.6157 -2.3305  0.7276
 3449SOL    HW221807   3.176   0.942  13.666  0.8349 -0.9378  1.0609
 3450SOL     OW21808   2.647   1.586  16.632 -1.1172 -0.0518  0.4199
 3450SOL    HW121809   2.587   1.626  16.694 -0.3697  0.8037  0.5832
 3450SOL    HW221810   2.649   1.494  16.658  0.2639 -0.2707 -0.4493
 3451SOL     OW21811   1.748   1.366   3.333 -0.5296  1.3810 -0.0616
 3451SOL    HW121812   1.661   1.331   3.311  0.6607 -0.4403 -1.7604
 3451SOL    HW221813   1.741   1.374   3.428 -2.3410 -0.9435 -0.0028
 3452SOL     OW21814   0.627   1.044   4.557 -0.6889  0.2273  0.4869
 3452SOL    HW121815   0.602   0.958   4.523 -2.5942  1.0004 -0.1003
 3452SOL    HW221816   0.624   1.086   4.471 -1.0729 -1.2231 -0.2073
 3453SOL     OW21817   0.795   0.147   2.221 -0.7531 -0.2106 -0.2540
 3453SOL    HW121818   0.853   0.213   2.184 -0.9555 -1.1545 -2.2884
 3453SOL    HW221819   0.711   0.159   2.176  0.5583 -0.4734 -2.7481
 3454SOL     OW21820   3.107   0.227   8.644 -0.0033 -0.2879 -0.2102
 3454SOL    HW121821   3.171   0.212   8.714  2.0846  0.3410 -1.9707
 3454SOL    HW221822   3.098   0.137   8.614  0.8904  0.4689 -2.7551
 3455SOL     OW21823   2.974   4.696   2.582 -0.4795  0.2387  0.0430
 3455SOL    HW121824   2.898   4.699   2.524 -0.4327  0.5512 -0.0058
 3455SOL    HW221825   3.040   4.711   2.514 -0.5122 -0.9096 -0.2361
 3456SOL     OW21826   0.688   2.368   4.855  0.4482  0.5307  0.2734
 3456SOL    HW121827   0.640   2.385   4.774 -1.8518 -0.6027  1.3993
 3456SOL    HW221828   0.685   2.452   4.900  1.4892  1.7571 -1.9311
 3457SOL     OW21829   1.384   2.506   3.225  0.4918  0.2757  0.1844
 3457SOL    HW121830   1.470   2.548   3.234  0.7360 -0.1541 -0.1309
 3457SOL    HW221831   1.406   2.418   3.257  0.5637  0.0124 -0.5885
 3458SOL     OW21832   0.204   3.490   4.015 -0.0418  0.6966 -0.1288
 3458SOL    HW121833   0.164   3.415   3.972 -0.7206  2.6711 -2.9613
 3458SOL    HW221834   0.153   3.481   4.095 -0.5108  1.0304 -0.3906
 3459SOL     OW21835   0.745   1.719  14.781 -0.0768 -0.0192  0.1501
 3459SOL    HW121836   0.746   1.751  14.691  0.2183 -5.0969 -1.6358
 3459SOL    HW221837   0.805   1.782  14.821 -0.1258 -0.4988  0.9707
 3460SOL     OW21838   3.650   1.570  14.435  0.3891 -0.5247 -0.7366
 3460SOL    HW121839   3.714   1.573  14.506  0.1823 -0.5978 -0.5472
 3460SOL    HW221840   3.587   1.631  14.473  2.0472  0.4041  0.5539
 3461SOL     OW21841   2.254   2.062   7.582  0.4330  0.1086 -0.6313
 3461SOL    HW121842   2.213   1.988   7.627  1.3834  1.6801  2.7203
 3461SOL    HW221843   2.285   2.014   7.505 -0.7526  0.4798 -1.3458
 3462SOL     OW21844   1.779   0.208   4.639 -0.3659 -0.0014 -0.0989
 3462SOL    HW121845   1.841   0.136   4.638  1.4135  1.4945  1.7551
 3462SOL    HW221846   1.732   0.200   4.723 -1.0203  0.0529 -0.4588
 3463SOL     OW21847   1.724   3.489   7.744 -0.1784 -0.0453 -0.1878
 3463SOL    HW121848   1.689   3.400   7.751 -0.6192  0.1896  0.4915
 3463SOL    HW221849   1.740   3.507   7.836  0.7969 -1.2548 -0.1273
 3464SOL     OW21850   4.313   0.957  11.218  0.0271  0.6739  0.4881
 3464SOL    HW121851   4.380   0.945  11.150 -1.5755 -1.0340 -0.7743
 3464SOL    HW221852   4.255   1.024  11.182 -1.2954 -0.5525  0.3292
 3465SOL     OW21853   2.369   3.509   1.434 -0.6008  0.4868  0.2101
 3465SOL    HW121854   2.284   3.469   1.452  0.8889 -2.0249  1.7507
 3465SOL    HW221855   2.338   3.584   1.383 -1.7859  0.6884  1.2290
 3466SOL     OW21856   0.463   0.718  13.088 -0.6558  0.3844  0.0461
 3466SOL    HW121857   0.454   0.776  13.164 -1.5357 -0.2377  0.4148
 3466SOL    HW221858   0.551   0.682  13.101 -1.4843 -0.8977  2.1233
 3467SOL     OW21859   2.918   0.040   1.370 -0.1072 -0.2818  0.0522
 3467SOL    HW121860   2.868   0.058   1.291 -1.3292  0.7797  1.0543
 3467SOL    HW221861   2.938   0.128   1.403 -1.9932  0.1672  0.0261
 3468SOL     OW21862   1.020   4.378   3.588 -0.0160  0.3992 -0.0226
 3468SOL    HW121863   1.076   4.324   3.643  0.2476  0.3845 -0.3028
 3468SOL    HW221864   0.938   4.383   3.636  0.0851  3.5461 -0.1821
 3469SOL     OW21865   1.630   2.637   6.273 -0.0973 -0.1121 -0.3811
 3469SOL    HW121866   1.613   2.664   6.363 -1.5774  1.5276 -1.1551
 3469SOL    HW221867   1.648   2.544   6.284 -0.1626  0.1158  1.6446
 3470SOL     OW21868   3.707   1.899   8.321 -0.1457 -0.1623  0.0545
 3470SOL    HW121869   3.682   1.977   8.272  0.6230 -0.0820 -0.2088
 3470SOL    HW221870   3.801   1.916   8.323 -0.4228  1.1275  1.8227
 3471SOL     OW21871   2.056   3.359   2.598  0.3582 -0.5631  0.2796
 3471SOL    HW121872   2.093   3.390   2.516  1.3516 -0.2091  0.8727
 3471SOL    HW221873   2.129   3.349   2.659 -0.9806  1.4307  2.2207
 3472SOL     OW21874   1.561   1.469   8.244 -0.2657 -0.1829 -0.1389
 3472SOL    HW121875   1.635   1.528   8.248 -0.6186  0.2862 -0.5065
 3472SOL    HW221876   1.504   1.505   8.312  1.5674 -0.1980  1.4074
 3473SOL     OW21877   4.295   2.483   5.161  0.0724  0.0329  0.2590
 3473SOL    HW121878   4.334   2.552   5.215 -1.4587 -0.2556  1.7615
 3473SOL    HW221879   4.370   2.427   5.143 -0.5217 -0.3962 -0.8452
 3474SOL     OW21880   0.611   2.878   2.784 -0.3668  0.0373  0.2688
 3474SOL    HW121881   0.653   2.932   2.851 -0.4520 -0.0725  0.4119
 3474SOL    HW221882   0.687   2.855   2.731 -0.9048 -0.7978 -0.1358
 3475SOL     OW21883   3.148   4.019   4.533 -0.1286 -0.6301  0.1769
 3475SOL    HW121884   3.179   4.048   4.618  1.0261 -2.3908  0.3468
 3475SOL    HW221885   3.149   3.924   4.533  0.6435 -0.6262 -1.4018
 3476SOL     OW21886   0.578   2.829   3.221 -0.1511 -0.3256  0.3033
 3476SOL    HW121887   0.584   2.921   3.246 -2.9711  0.7212 -2.9164
 3476SOL    HW221888   0.654   2.813   3.166  1.4015  2.4710  1.6064
 3477SOL     OW21889   1.957   0.246  10.676 -0.4198 -0.2422  0.0801
 3477SOL    HW121890   1.909   0.249  10.759 -3.3653 -0.3713 -1.6378
 3477SOL    HW221891   1.992   0.158  10.670  1.1880  0.4874 -1.3079
 3478SOL     OW21892   4.053   4.373   9.342 -0.4306  0.0884 -0.1741
 3478SOL    HW121893   4.089   4.450   9.384  0.9337 -0.8382  0.3498
 3478SOL    HW221894   3.971   4.413   9.313  0.0917  1.9906  1.0299
 3479SOL     OW21895   2.292   0.192   4.668 -0.2057 -0.2592 -0.6041
 3479SOL    HW121896   2.273   0.144   4.587  0.5093 -1.9110  0.1975
 3479SOL    HW221897   2.306   0.114   4.721  3.1636 -0.1447 -1.2780
 3480SOL     OW21898   2.570   4.188   4.325  0.1930  0.5422  1.0457
 3480SOL    HW121899   2.481   4.158   4.305  0.1053 -0.3053  2.6994
 3480SOL    HW221900   2.584   4.238   4.245  1.5840  1.4779  1.8906
 3481SOL     OW21901   1.720   4.122   1.153 -0.1037  0.4973 -0.4217
 3481SOL    HW121902   1.759   4.189   1.097  0.0410  3.3164  3.0431
 3481SOL    HW221903   1.648   4.092   1.097 -0.9307  1.7770 -0.0375
 3482SOL     OW21904   1.603   1.638   4.547 -0.2947 -0.3904  0.1270
 3482SOL    HW121905   1.603   1.731   4.571 -1.5685 -0.7736  1.6464
 3482SOL    HW221906   1.572   1.635   4.457  4.2297  2.9328 -1.5119
 3483SOL     OW21907   0.879   3.524  14.048 -0.2468  0.0097 -0.1289
 3483SOL    HW121908   0.964   3.547  14.012  0.6503  0.1282  2.0839
 3483SOL    HW221909   0.894   3.514  14.141 -1.2353  1.0329  0.1477
 3484SOL     OW21910   1.421   2.708   4.335 -0.0229  0.1697 -0.2968
 3484SOL    HW121911   1.400   2.769   4.406 -0.4275 -1.7421  1.2139
 3484SOL    HW221912   1.405   2.757   4.254  0.8070 -0.6811 -0.9750
 3485SOL     OW21913   1.407   2.355   7.936  0.1839 -0.1184  0.2966
 3485SOL    HW121914   1.466   2.426   7.963  1.2910  0.1171 -2.7399
 3485SOL    HW221915   1.410   2.306   8.018 -0.9525 -1.4979 -0.5017
 3486SOL     OW21916   0.522   2.990   6.339 -0.3947  0.0445  0.2764
 3486SOL    HW121917   0.467   2.931   6.286 -0.6359  2.0757 -1.7207
 3486SOL    HW221918   0.572   3.032   6.269  2.3216 -0.1891  2.0601
 3487SOL     OW21919   3.551   4.683  13.281 -0.8523  0.0527 -0.0209
 3487SOL    HW121920   3.622   4.643  13.332 -2.1062 -1.6323  0.4207
 3487SOL    HW221921   3.478   4.649  13.333 -1.0713 -0.7471 -0.8593
 3488SOL     OW21922   3.040   4.204   3.592  0.1451 -0.5978 -0.4814
 3488SOL    HW121923   3.070   4.189   3.502 -1.1152 -0.2289 -0.9733
 3488SOL    HW221924   3.089   4.285   3.603  1.4830 -1.3835 -0.7416
 3489SOL     OW21925   3.424   1.592   1.864  0.2245 -0.2379  0.3865
 3489SOL    HW121926   3.466   1.532   1.926 -2.4126 -1.8631  0.5877
 3489SOL    HW221927   3.336   1.597   1.901  0.5466 -0.0166  1.1120
 3490SOL     OW21928   1.111   3.206   4.081  0.3104 -0.1708  0.3315
 3490SOL    HW121929   1.083   3.239   4.166 -1.5851 -0.4047 -0.1843
 3490SOL    HW221930   1.102   3.110   4.082  1.1025 -0.2588 -1.4547
 3491SOL     OW21931   2.812   0.922   8.436 -0.3710  0.0615  0.0275
 3491SOL    HW121932   2.830   0.863   8.362 -1.1923  2.6168 -2.1890
 3491SOL    HW221933   2.817   0.853   8.502  0.7340  0.9758  0.8787
 3492SOL     OW21934   0.955   2.114   5.480  0.2043 -0.2489  0.3319
 3492SOL    HW121935   0.966   2.171   5.556  1.1250 -0.4977  0.3743
 3492SOL    HW221936   1.045   2.104   5.451  0.5025  0.2784  1.0780
 3493SOL     OW21937   0.804   2.778   7.165 -0.4988 -0.4565  0.2943
 3493SOL    HW121938   0.876   2.810   7.219  2.0815 -2.6405 -1.8926
 3493SOL    HW221939   0.844   2.780   7.078  1.8196 -1.2261  1.3539
 3494SOL     OW21940   4.375   1.391  15.246  0.4363  0.4768 -0.1846
 3494SOL    HW121941   4.283   1.375  15.268  0.9805 -0.4736  1.3878
 3494SOL    HW221942   4.376   1.480  15.280 -1.1999 -0.0743  1.3536
 3495SOL     OW21943   0.167   0.657   3.752 -0.3652  0.1288 -0.3626
 3495SOL    HW121944   0.118   0.583   3.716 -0.2727 -0.0746 -0.0743
 3495SOL    HW221945   0.242   0.610   3.788  0.4550  1.2319 -0.6421
 3496SOL     OW21946   2.616   3.058   7.335 -0.1692  0.1663  0.0048
 3496SOL    HW121947   2.603   3.148   7.304  4.0401  0.9728  0.5427
 3496SOL    HW221948   2.550   3.020   7.277 -1.5271 -0.1315  1.7770
 3497SOL     OW21949   2.297   2.223  10.827  0.1123  0.6204  0.4864
 3497SOL    HW121950   2.297   2.181  10.913  3.3978  1.0491  0.6665
 3497SOL    HW221951   2.306   2.144  10.774  1.6410  1.4601 -0.4891
 3498SOL     OW21952   3.376   4.214   7.002 -0.0485 -0.3336  0.4078
 3498SOL    HW121953   3.348   4.267   6.928 -1.3101  0.0671  1.1793
 3498SOL    HW221954   3.464   4.251   7.009 -0.1479  0.0687 -0.4765
 3499SOL     OW21955   2.880   1.996  12.945 -0.7941 -0.5557  0.0317
 3499SOL    HW121956   2.847   2.029  12.861 -0.0271  2.4527  0.9033
 3499SOL    HW221957   2.831   2.046  13.010 -0.1922 -0.7018  0.5945
 3500SOL     OW21958   0.203   3.337   2.756  0.4483 -0.3895  0.2660
 3500SOL    HW121959   0.139   3.384   2.808 -0.1926  0.6329 -1.4813
 3500SOL    HW221960   0.212   3.254   2.804  1.8743  0.0558  0.7692
 3501SOL     OW21961   1.806   2.998   9.179  0.2206 -0.1049 -0.5091
 3501SOL    HW121962   1.850   2.914   9.189 -0.0360 -0.2406 -0.4953
 3501SOL    HW221963   1.864   3.070   9.202 -3.3852  2.4477  0.6924
 3502SOL     OW21964   0.389   3.864  12.288  0.2683 -0.0134 -0.5159
 3502SOL    HW121965   0.397   3.875  12.193  1.4341  1.8155 -0.1892
 3502SOL    HW221966   0.294   3.872  12.282 -0.0034 -3.0131 -0.3122
 3503SOL     OW21967   2.824   3.651   4.020  0.5504 -0.2170  0.4029
 3503SOL    HW121968   2.823   3.557   3.999 -1.5480 -0.2374  0.5192
 3503SOL    HW221969   2.849   3.651   4.113  0.2631 -2.6983  0.4948
 3504SOL     OW21970   0.042   2.314  14.953  0.3121 -0.8076  0.1816
 3504SOL    HW121971   0.065   2.327  15.045 -0.7317  0.3232  0.2837
 3504SOL    HW221972   0.081   2.394  14.918 -0.4299  0.6771  2.7455
 3505SOL     OW21973   4.705   2.949  17.195 -0.4218 -0.0120 -0.5313
 3505SOL    HW121974   4.639   2.933  17.128  0.6037  0.2221 -1.5924
 3505SOL    HW221975   0.041   2.875  17.187  1.1309  0.9005  2.4319
 3506SOL     OW21976   0.997   2.193   9.605 -0.3459  0.0291  0.0366
 3506SOL    HW121977   1.077   2.153   9.572 -2.1130 -1.1713 -2.7527
 3506SOL    HW221978   1.030   2.279   9.630  1.5567 -0.7909  0.3118
 3507SOL     OW21979   1.349   1.228   4.330 -0.2612  0.5114  0.4332
 3507SOL    HW121980   1.314   1.156   4.276 -0.7601  0.6570  0.5679
 3507SOL    HW221981   1.402   1.271   4.263  0.4630  2.4027  2.2529
 3508SOL     OW21982   4.003   1.689   7.564  0.9740  0.0496  0.4861
 3508SOL    HW121983   4.050   1.743   7.627  1.0494 -0.8762  1.2320
 3508SOL    HW221984   3.984   1.614   7.621 -1.9948  0.1759 -0.3488
 3509SOL     OW21985   4.255   0.080   1.835  0.0949  0.7285 -0.3298
 3509SOL    HW121986   4.172   0.038   1.854  0.1016  0.6689 -0.4365
 3509SOL    HW221987   4.322   0.013   1.820 -0.9435 -0.5320  0.7471
 3510SOL     OW21988   1.908   0.076  13.752  0.4568 -0.1936 -0.5365
 3510SOL    HW121989   1.947   0.006  13.804 -0.2832 -0.6895 -0.6573
 3510SOL    HW221990   1.818   0.044  13.746  0.2550  0.1266  0.7637
 3511SOL     OW21991   4.444   2.036   0.929 -0.6404  0.2347 -0.0757
 3511SOL    HW121992   4.466   2.077   0.845  0.4139 -1.6243 -0.6962
 3511SOL    HW221993   4.517   1.977   0.944 -0.8665 -0.4272 -1.6174
 3512SOL     OW21994   2.225   0.491   0.285  0.2234 -0.0686  0.5034
 3512SOL    HW121995   2.165   0.475   0.213 -0.3635 -0.3211  1.0497
 3512SOL    HW221996   2.232   0.399   0.313 -0.1947 -0.2919 -0.1300
 3513SOL     OW21997   3.580   4.639   8.076 -0.3882  0.2179 -0.2711
 3513SOL    HW121998   3.664   4.648   8.032 -0.4099  2.2439  0.0851
 3513SOL    HW221999   3.604   4.677   8.161 -0.7633  1.0558 -0.5321
 3514SOL     OW22000   1.456   0.140   6.152  0.2742 -0.1093 -0.2424
 3514SOL    HW122001   1.503   0.210   6.107 -0.0073  1.0202  1.2267
 3514SOL    HW222002   1.518   0.068   6.158 -0.3025 -0.5702  0.1216
 3515SOL     OW22003   2.683   4.124   6.983  0.5565 -0.0248 -0.2125
 3515SOL    HW122004   2.655   4.043   7.026  0.1282 -0.5117 -1.4040
 3515SOL    HW222005   2.704   4.085   6.898  2.8526  0.2591  0.2051
 3516SOL     OW22006   3.897   0.167   1.504  0.5610  0.2056 -0.2823
 3516SOL    HW122007   3.810   0.131   1.487 -0.5328  3.6229 -2.0154
 3516SOL    HW222008   3.948   0.087   1.494  0.3740 -0.0971  1.1389
 3517SOL     OW22009   1.178   0.480  14.547  0.2069  0.1044  0.3558
 3517SOL    HW122010   1.205   0.388  14.548  0.1352  0.1064  2.2096
 3517SOL    HW222011   1.244   0.517  14.488 -0.5386  0.4499 -0.2669
 3518SOL     OW22012   2.541   4.481   8.890  0.5841  0.0972  0.1122
 3518SOL    HW122013   2.593   4.507   8.815  1.4470 -1.2178  0.2448
 3518SOL    HW222014   2.578   4.395   8.912  2.9516  0.8674 -0.9357
 3519SOL     OW22015   0.718   2.120   9.125 -0.0751 -1.0979 -0.0304
 3519SOL    HW122016   0.686   2.102   9.213  1.1921 -1.4843  0.3519
 3519SOL    HW222017   0.810   2.143   9.140 -0.1500 -1.0809  0.4085
 3520SOL     OW22018   1.218   4.453   7.529  0.2329  0.6931 -0.7612
 3520SOL    HW122019   1.250   4.366   7.504 -1.1451  0.2671 -1.0577
 3520SOL    HW222020   1.261   4.461   7.614  1.7344  3.5380 -1.7760
 3521SOL     OW22021   2.223   2.304   1.952  0.1863 -0.5774 -0.0082
 3521SOL    HW122022   2.180   2.388   1.935  1.8634  0.4377  0.7593
 3521SOL    HW222023   2.306   2.337   1.984 -1.5762  1.8231  2.1121
 3522SOL     OW22024   3.266   3.368   8.873 -0.3483  0.1779  0.4478
 3522SOL    HW122025   3.226   3.455   8.862  0.3110  0.1808 -2.1188
 3522SOL    HW222026   3.197   3.302   8.871 -0.8540  0.6694  1.6218
 3523SOL     OW22027   0.058   3.373   5.443  0.2685 -0.2689 -0.2884
 3523SOL    HW122028   0.091   3.283   5.443  0.0613 -0.3415  1.1021
 3523SOL    HW222029   4.687   3.360   5.441 -0.0008  1.3602  1.0506
 3524SOL     OW22030   2.811   3.458   4.642 -0.3604 -0.2366  0.1768
 3524SOL    HW122031   2.731   3.509   4.648 -0.1225  0.2468 -0.7557
 3524SOL    HW222032   2.784   3.405   4.566 -0.2052  1.4670 -1.0633
 3525SOL     OW22033   1.709   4.309  17.539 -0.3771 -0.0290  0.0023
 3525SOL    HW122034   1.784   4.281  17.487 -0.2134  1.4167 -0.5369
 3525SOL    HW222035   1.678   4.382  17.486 -0.4170  0.0876  0.1869
 3526SOL     OW22036   0.569   0.057   5.934 -0.4105 -0.0847  0.7870
 3526SOL    HW122037   0.632   0.083   6.001 -1.8924  1.0642  1.7565
 3526SOL    HW222038   0.616   0.080   5.854  0.8853 -2.0958  0.9937
 3527SOL     OW22039   4.162   3.766  15.291 -0.0472  0.0730 -0.4505
 3527SOL    HW122040   4.088   3.802  15.340 -0.7129 -2.0765  0.1204
 3527SOL    HW222041   4.138   3.673  15.293 -1.4466  0.4023 -2.1299
 3528SOL     OW22042   0.128   0.446  12.239 -0.4883  0.4490  0.1080
 3528SOL    HW122043   0.193   0.386  12.275  3.3591  3.8018 -1.1711
 3528SOL    HW222044   0.050   0.392  12.222  1.5331 -2.8144  1.1592
 3529SOL     OW22045   3.088   1.804   6.205 -0.6855 -0.9033 -0.1439
 3529SOL    HW122046   3.021   1.861   6.242  1.1638  0.8365  0.4825
 3529SOL    HW222047   3.020   1.752   6.160 -1.0245 -0.9878  0.4633
 3530SOL     OW22048   2.743   3.561   8.525 -0.1480  0.1573  0.6589
 3530SOL    HW122049   2.655   3.598   8.536 -1.5809 -3.0389  0.0401
 3530SOL    HW222050   2.762   3.537   8.615  1.1924  0.6657  0.5059
 3531SOL     OW22051   3.270   3.220   2.411 -0.1198  0.0973  0.5914
 3531SOL    HW122052   3.312   3.165   2.344  0.6026 -1.1230  2.0565
 3531SOL    HW222053   3.201   3.262   2.359 -0.4237 -0.3177  0.6586
 3532SOL     OW22054   1.277   1.036   8.282  0.0492 -0.4617  0.1074
 3532SOL    HW122055   1.270   1.109   8.342  1.4858 -1.4451  1.4683
 3532SOL    HW222056   1.367   1.005   8.293 -0.7430 -1.6046  3.1802
 3533SOL     OW22057   0.046   1.028  11.086  0.4651  0.1019 -0.3577
 3533SOL    HW122058   4.700   0.963  11.096  0.7344 -0.1095  0.1723
 3533SOL    HW222059   0.018   1.101  11.141 -2.3852 -1.8136  0.7424
 3534SOL     OW22060   3.664   0.814   6.144  0.3583 -0.7657  0.6357
 3534SOL    HW122061   3.696   0.723   6.144 -1.1405 -1.2914  2.9746
 3534SOL    HW222062   3.693   0.850   6.060  0.8584  0.5560  1.3968
 3535SOL     OW22063   2.150   2.891  10.621 -0.5823 -0.0297  0.2105
 3535SOL    HW122064   2.111   2.816  10.666 -0.5948  0.0297  0.2976
 3535SOL    HW222065   2.217   2.852  10.564  0.4515  1.5447  0.3682
 3536SOL     OW22066   2.344   1.378  10.826  0.1989  0.3031 -0.3890
 3536SOL    HW122067   2.437   1.389  10.846 -0.7015  2.2014  2.6489
 3536SOL    HW222068   2.347   1.371  10.730  1.0110 -0.0188 -0.3407
 3537SOL     OW22069   0.364   0.502   1.329 -0.1795  0.1139  0.2827
 3537SOL    HW122070   0.392   0.450   1.254  1.7288  0.5866  0.6696
 3537SOL    HW222071   0.283   0.452   1.339 -0.1426  0.1310  0.6662
 3538SOL     OW22072   1.700   4.054   6.790 -0.3837  0.1803 -0.2039
 3538SOL    HW122073   1.723   3.977   6.842 -0.2423 -0.6656 -1.5339
 3538SOL    HW222074   1.639   4.012   6.729 -0.2420 -0.3885  0.0402
 3539SOL     OW22075   3.872   1.184  14.201 -0.4215 -0.1265  0.3836
 3539SOL    HW122076   3.860   1.239  14.124 -5.3618 -0.5081  0.8205
 3539SOL    HW222077   3.783   1.181  14.237 -0.8282  0.3812 -0.5837
 3540SOL     OW22078   1.907   0.673   5.183  0.3264 -0.4031  0.0057
 3540SOL    HW122079   1.905   0.628   5.098 -0.9823 -0.1268 -0.1176
 3540SOL    HW222080   1.989   0.636   5.216  1.0212 -0.5266 -1.8418
 3541SOL     OW22081   3.222   3.867   8.349  0.1013  0.3356 -0.6588
 3541SOL    HW122082   3.199   3.833   8.263 -0.4588  0.8448 -0.7103
 3541SOL    HW222083   3.316   3.878   8.339  0.3434 -1.4848 -0.4510
 3542SOL     OW22084   2.748   1.010   3.270 -0.0113 -0.1632  0.1632
 3542SOL    HW122085   2.810   0.981   3.204  1.0042  1.7675  0.2679
 3542SOL    HW222086   2.769   1.103   3.257  1.0765 -0.0392  2.7250
 3543SOL     OW22087   2.550   0.008   9.017 -0.3446  0.5604  0.2677
 3543SOL    HW122088   2.455   0.021   9.021 -0.4227  0.0298  0.0965
 3543SOL    HW222089   2.549   4.638   8.997 -0.4567  1.3956 -3.5884
 3544SOL     OW22090   1.397   1.630   7.236  0.2355 -0.3286 -0.2064
 3544SOL    HW122091   1.332   1.649   7.168  1.8883  0.6134 -1.5168
 3544SOL    HW222092   1.405   1.536   7.217 -1.1023 -0.6209  0.6751
 3545SOL     OW22093   2.056   1.185   2.680  0.5266  0.2814 -0.2071
 3545SOL    HW122094   2.016   1.110   2.636  3.4756  0.0546 -2.4883
 3545SOL    HW222095   2.128   1.132   2.713 -1.4533 -1.6281  1.0844
 3546SOL     OW22096   3.251   3.876   0.391  0.3654  0.1527 -0.5240
 3546SOL    HW122097   3.341   3.879   0.424  0.7754  1.9245 -1.7605
 3546SOL    HW222098   3.204   3.904   0.469 -0.9389 -1.1675 -0.8484
 3547SOL     OW22099   1.429   2.346   4.643  0.0077  0.2460  0.4404
 3547SOL    HW122100   1.483   2.416   4.681  2.0016 -0.8348 -0.4108
 3547SOL    HW222101   1.426   2.381   4.554 -1.7296  1.2602  0.8917
 3548SOL     OW22102   0.460   1.497   4.848  0.2079 -0.5555  0.1775
 3548SOL    HW122103   0.543   1.501   4.896  0.2658  2.7653 -0.1971
 3548SOL    HW222104   0.488   1.537   4.766 -2.9888  0.4831 -0.4331
 3549SOL     OW22105   4.300   1.796  11.983 -0.1759 -0.5296  0.4007
 3549SOL    HW122106   4.273   1.874  11.935 -0.8131  0.1444  1.8608
 3549SOL    HW222107   4.309   1.837  12.069  0.7047 -1.5283  0.7957
 3550SOL     OW22108   1.063   1.706   3.141  0.1273  0.4516  0.3649
 3550SOL    HW122109   1.118   1.628   3.153 -1.6806 -0.5587  1.9432
 3550SOL    HW222110   1.134   1.764   3.167  0.6774 -0.7183  1.4617
 3551SOL     OW22111   2.188   0.761   5.469  0.3400  0.3875 -0.2287
 3551SOL    HW122112   2.241   0.817   5.525  1.2527  0.1085 -0.8176
 3551SOL    HW222113   2.124   0.824   5.437  1.6043  1.2476 -1.0319
 3552SOL     OW22114   1.428   4.136   8.668 -0.3992 -0.1047 -0.0171
 3552SOL    HW122115   1.415   4.211   8.611 -0.0660 -0.5466 -0.6788
 3552SOL    HW222116   1.354   4.142   8.727  0.2537 -0.2283  0.8208
 3553SOL     OW22117   3.041   4.381  16.403  0.5652 -0.0828 -0.1584
 3553SOL    HW122118   2.954   4.382  16.444  0.0492 -0.9662 -1.2243
 3553SOL    HW222119   3.058   4.287  16.411  2.1813  0.3870  1.7795
 3554SOL     OW22120   4.001   0.293   3.516 -0.0848 -0.4318  0.2490
 3554SOL    HW122121   3.912   0.325   3.532 -0.2343  0.0790 -1.5781
 3554SOL    HW222122   3.976   0.204   3.542 -0.8393 -0.1523  0.4899
 3555SOL     OW22123   4.349   1.708   0.359  0.0897 -0.4138 -0.5305
 3555SOL    HW122124   4.310   1.669   0.438 -1.4432  2.4942  0.1316
 3555SOL    HW222125   4.317   1.798   0.365  3.0192  0.6671 -0.9698
 3556SOL     OW22126   1.399   2.834  13.818  0.3471  0.5059 -0.0475
 3556SOL    HW122127   1.493   2.851  13.808  0.5935 -1.5337 -1.0424
 3556SOL    HW222128   1.378   2.915  13.865 -0.1523  0.3747 -0.0457
 3557SOL     OW22129   0.409   1.951   2.803 -0.1939 -0.0411 -0.0949
 3557SOL    HW122130   0.477   2.017   2.815 -0.0619 -0.3035  0.5882
 3557SOL    HW222131   0.342   2.005   2.761  0.1509 -0.4373 -1.1481
 3558SOL     OW22132   1.109   2.982   4.755 -0.2657 -0.1547  0.0089
 3558SOL    HW122133   1.134   2.890   4.762 -0.7898 -0.2448  0.6504
 3558SOL    HW222134   1.103   3.009   4.846 -0.2760  1.2550 -0.4082
 3559SOL     OW22135   0.565   2.045   8.726 -0.0559 -0.1980  0.0526
 3559SOL    HW122136   0.585   2.008   8.812 -0.8335  0.2594  0.4286
 3559SOL    HW222137   0.610   1.974   8.681  0.0008  0.4108 -0.8404
 3560SOL     OW22138   4.292   3.612   5.627  0.3779 -0.0106 -0.1261
 3560SOL    HW122139   4.202   3.636   5.604  0.9454  0.7685 -1.5414
 3560SOL    HW222140   4.346   3.631   5.550  0.9464 -0.1033  0.2481
 3561SOL     OW22141   2.382   2.990   2.848  0.2788  0.4064  0.7197
 3561SOL    HW122142   2.319   2.967   2.780 -0.1821  1.8326  0.6628
 3561SOL    HW222143   2.444   3.028   2.786 -1.1882 -2.9739 -2.8177
 3562SOL     OW22144   2.905   0.581  16.708 -0.2885 -0.3493 -0.1647
 3562SOL    HW122145   2.894   0.653  16.647  0.8807 -0.5420 -0.5909
 3562SOL    HW222146   2.917   0.501  16.656  0.5678 -1.1603  1.2719
 3563SOL     OW22147   0.299   2.311  10.465  0.6346 -0.2042  0.0505
 3563SOL    HW122148   0.207   2.285  10.467  0.2842  0.9903 -0.6418
 3563SOL    HW222149   0.318   2.325  10.558  0.1517 -0.4127  0.1774
 3564SOL     OW22150   1.543   3.075  10.305 -0.7246 -0.2642  0.8127
 3564SOL    HW122151   1.604   3.031  10.246 -0.3544  2.2226 -0.6414
 3564SOL    HW222152   1.459   3.082  10.261  0.1762  0.4219 -0.7805
 3565SOL     OW22153   1.080   0.643   7.830  0.1063  0.0727  0.1918
 3565SOL    HW122154   1.137   0.628   7.755  1.3505 -0.0082  1.1426
 3565SOL    HW222155   1.129   0.711   7.876  2.0038  0.2882 -2.1772
 3566SOL     OW22156   3.472   4.004   1.291  0.5610  0.6126  0.0350
 3566SOL    HW122157   3.461   3.909   1.294 -0.7186  0.7386 -0.9850
 3566SOL    HW222158   3.388   4.030   1.254  0.9333 -2.1821 -2.7487
 3567SOL     OW22159   4.651   2.677  13.243 -0.4322 -0.3633 -0.4382
 3567SOL    HW122160   4.587   2.669  13.173  0.4312 -2.0216 -1.0479
 3567SOL    HW222161   4.609   2.605  13.290 -0.2636 -0.0407  0.2057
 3568SOL     OW22162   1.854   2.061   5.127 -0.8139  0.1389  0.1638
 3568SOL    HW122163   1.919   2.004   5.085 -1.4593 -0.4738  0.0030
 3568SOL    HW222164   1.814   2.002   5.192 -3.4388  1.6905 -0.0577
 3569SOL     OW22165   3.940   1.878  10.423  0.0169  0.4048  0.1934
 3569SOL    HW122166   3.888   1.958  10.419  0.1154  0.3559 -2.2242
 3569SOL    HW222167   4.015   1.895  10.481 -1.2467  0.0408  1.9189
 3570SOL     OW22168   0.190   3.906   5.887 -0.3455 -0.4097  0.3497
 3570SOL    HW122169   0.232   3.980   5.931 -1.7319 -0.9277  2.5789
 3570SOL    HW222170   0.269   3.855   5.873  0.3868  0.9191 -0.4248
 3571SOL     OW22171   4.529   1.677   8.810 -0.1915 -0.1978 -0.6266
 3571SOL    HW122172   4.441   1.641   8.821  0.8865 -2.5799  0.1054
 3571SOL    HW222173   4.508   1.750   8.752 -3.1698  0.8789  1.8266
 3572SOL     OW22174   0.818   2.728   9.160  0.1903  0.1130  0.7399
 3572SOL    HW122175   0.820   2.809   9.110 -0.9617 -1.7809 -2.4194
 3572SOL    HW222176   0.746   2.744   9.221  0.3710 -2.8982  1.7305
 3573SOL     OW22177   3.725   2.131   2.901 -0.3056 -0.0145  0.6588
 3573SOL    HW122178   3.699   2.202   2.961  0.3239 -1.5255  2.7233
 3573SOL    HW222179   3.781   2.177   2.840 -1.9269  1.6769  0.4317
 3574SOL     OW22180   0.741   4.056   1.813 -0.5513 -0.2972  0.5165
 3574SOL    HW122181   0.735   4.043   1.719 -0.1029  0.6728  0.3471
 3574SOL    HW222182   0.671   4.121   1.806 -0.7670 -0.6035 -0.1590
 3575SOL     OW22183   0.656   3.280   6.289  0.7529  0.3091 -0.3761
 3575SOL    HW122184   0.609   3.220   6.231  1.9761 -1.6325  0.6443
 3575SOL    HW222185   0.603   3.357   6.266  1.4743  1.1733  0.8904
 3576SOL     OW22186   2.637   4.673   4.975  0.9329  0.1344 -0.0634
 3576SOL    HW122187   2.608   4.681   4.885 -1.0093 -0.4847  0.5107
 3576SOL    HW222188   2.567   4.621   5.013  1.2343  0.5433  1.0671
 3577SOL     OW22189   3.306   4.543  12.344 -0.3328 -0.1240 -0.2237
 3577SOL    HW122190   3.232   4.495  12.379 -0.6300  0.4242 -0.1106
 3577SOL    HW222191   3.325   4.479  12.275  1.5048 -1.9529  1.9940
 3578SOL     OW22192   4.119   0.764  15.138 -0.4406  0.7322  0.1981
 3578SOL    HW122193   4.155   0.814  15.212 -0.0932  3.2838 -1.7023
 3578SOL    HW222194   4.116   0.678  15.181  1.8947  0.3859 -0.2978
 3579SOL     OW22195   3.615   3.578   3.874  0.3805  0.4624  0.2841
 3579SOL    HW122196   3.681   3.600   3.808 -0.5586 -0.1963 -0.8823
 3579SOL    HW222197   3.540   3.557   3.818  1.3403  1.2861 -1.2916
 3580SOL     OW22198   4.372   0.814   3.201  0.0087 -0.6200 -0.4198
 3580SOL    HW122199   4.354   0.878   3.270  1.1554  1.3164 -1.9337
 3580SOL    HW222200   4.412   0.874   3.138  0.2537  0.2623  0.5772
 3581SOL     OW22201   3.492   2.053   6.944 -0.1414 -0.2089 -0.9952
 3581SOL    HW122202   3.532   2.055   7.031 -1.2040  1.2727 -0.5555
 3581SOL    HW222203   3.577   2.028   6.907  0.4965  0.3779  0.0662
 3582SOL     OW22204   2.537   1.480  12.770  0.7817  0.0088  0.0951
 3582SOL    HW122205   2.543   1.556  12.711  0.7251 -1.7457 -2.1842
 3582SOL    HW222206   2.619   1.432  12.763 -0.1426 -1.7756  1.7248
 3583SOL     OW22207   1.226   2.165  16.212  0.6724 -0.0913 -0.5544
 3583SOL    HW122208   1.187   2.141  16.296  0.4938 -0.7481 -0.8259
 3583SOL    HW222209   1.266   2.083  16.183  0.4124  0.0910 -1.4516
 3584SOL     OW22210   4.059   1.681   3.512 -0.3661  0.3500  0.6136
 3584SOL    HW122211   3.982   1.649   3.464 -1.4581  3.4823  0.2865
 3584SOL    HW222212   4.070   1.763   3.464  0.4918  0.9395  1.8337
 3585SOL     OW22213   3.498   1.794   8.896 -1.1922  0.2469  0.5043
 3585SOL    HW122214   3.489   1.840   8.980 -1.3733 -0.4046  0.8411
 3585SOL    HW222215   3.403   1.795   8.880 -1.2009 -0.1420  0.5291
 3586SOL     OW22216   0.019   1.066  10.180 -0.2081  0.0459  0.0364
 3586SOL    HW122217   0.048   1.017  10.256  1.1350  1.6693  0.5663
 3586SOL    HW222218   4.698   1.000  10.126 -0.2895  0.4691 -0.4192
 3587SOL     OW22219   2.252   3.118   0.429  0.2867  0.4306  0.1636
 3587SOL    HW122220   2.277   3.081   0.344  2.6035  4.0087 -0.7197
 3587SOL    HW222221   2.325   3.178   0.441  0.8405 -0.5238  1.5832
 3588SOL     OW22222   3.724   1.494   3.625  0.1800 -0.0494  0.2553
 3588SOL    HW122223   3.685   1.521   3.708 -0.0202 -1.0882  0.5102
 3588SOL    HW222224   3.642   1.462   3.586 -0.0537  1.3277 -0.3579
 3589SOL     OW22225   4.664   3.627   2.316 -0.0911 -0.2415 -0.2907
 3589SOL    HW122226   4.648   3.567   2.243 -1.9971  2.2853 -1.9471
 3589SOL    HW222227   0.014   3.579   2.354 -0.1204 -0.3745 -0.3994
 3590SOL     OW22228   3.753   0.219   6.115  0.1869  0.2730  0.6449
 3590SOL    HW122229   3.673   0.167   6.109  0.0098  0.6797 -0.4604
 3590SOL    HW222230   3.801   0.176   6.186 -0.2415 -0.3150  0.5830
 3591SOL     OW22231   3.235   1.984   6.909  0.5613  0.1438 -0.4113
 3591SOL    HW122232   3.327   2.003   6.925  0.5622 -0.1138 -0.1170
 3591SOL    HW222233   3.219   2.051   6.843 -0.1317 -0.0146 -0.4065
 3592SOL     OW22234   1.283   0.554   7.660  0.6355  0.4745  0.4634
 3592SOL    HW122235   1.329   0.588   7.584 -1.2284  0.6643 -0.5846
 3592SOL    HW222236   1.311   0.464   7.673  0.4494  0.3949  0.3177
 3593SOL     OW22237   3.782   2.489   4.311 -0.8730 -0.0063  0.3201
 3593SOL    HW122238   3.722   2.492   4.236 -0.6101 -1.4982  0.0575
 3593SOL    HW222239   3.859   2.526   4.269 -1.0831  0.5243  0.4015
 3594SOL     OW22240   4.573   0.843  10.103  0.1930  0.1962  0.0038
 3594SOL    HW122241   4.518   0.807  10.032  1.0720  1.1091 -1.1403
 3594SOL    HW222242   4.596   0.765  10.154 -0.8526  0.9815  1.6662
 3595SOL     OW22243   2.395   3.363  15.115  0.2937 -0.3097  0.1794
 3595SOL    HW122244   2.329   3.432  15.113  0.6597  0.0775  1.5585
 3595SOL    HW222245   2.339   3.290  15.090 -0.3031  0.3600 -0.4192
 3596SOL     OW22246   1.661   2.154   9.782  0.2451 -0.2022  0.0712
 3596SOL    HW122247   1.708   2.108   9.712 -1.5445 -1.1978 -0.4525
 3596SOL    HW222248   1.732   2.196   9.831  1.1588  0.9790 -2.2403
 3597SOL     OW22249   3.921   2.855   2.312 -0.1749 -0.1885 -0.2732
 3597SOL    HW122250   3.933   2.803   2.392 -0.4637  1.0858  0.5965
 3597SOL    HW222251   3.981   2.804   2.257 -1.2198 -1.6753 -0.0167
 3598SOL     OW22252   0.186   3.431  12.292 -0.0662  0.2471 -0.7068
 3598SOL    HW122253   0.199   3.492  12.365 -2.1338  1.7461 -1.5823
 3598SOL    HW222254   0.115   3.466  12.239  0.4454 -1.6840 -2.6696
 3599SOL     OW22255   2.789   0.613   7.274 -0.0367 -0.0909  0.3125
 3599SOL    HW122256   2.751   0.675   7.212 -1.2620 -0.6245  0.5080
 3599SOL    HW222257   2.784   0.657   7.359  1.6183 -0.4468  0.5934
 3600SOL     OW22258   1.021   2.894   6.027 -0.8241 -0.7240 -0.1964
 3600SOL    HW122259   1.076   2.970   6.047  0.4569 -1.4522 -0.9692
 3600SOL    HW222260   1.072   2.848   5.961 -0.1121  0.4715 -0.4790
 3601SOL     OW22261   4.403   2.942  10.205 -0.0430  0.2441  0.3599
 3601SOL    HW122262   4.372   2.875  10.266  0.6749  0.1101  0.5772
 3601SOL    HW222263   4.327   3.000  10.209  0.5750  0.9777  1.4785
 3602SOL     OW22264   3.366   2.815   7.079  0.1673  0.2758 -0.0604
 3602SOL    HW122265   3.392   2.868   7.154  1.7286  1.7900 -1.7084
 3602SOL    HW222266   3.441   2.823   7.021  0.6255 -1.8066  0.2382
 3603SOL     OW22267   2.308   3.012   4.003  0.0846  0.0033 -0.3083
 3603SOL    HW122268   2.252   3.013   4.080  0.7818  1.9500  0.1871
 3603SOL    HW222269   2.388   3.052   4.039  0.9574 -0.8821 -1.2655
 3604SOL     OW22270   0.536   4.245   1.773 -0.0586 -1.1244 -0.0651
 3604SOL    HW122271   0.447   4.254   1.808  0.0009 -1.1296  0.0883
 3604SOL    HW222272   0.513   4.202   1.690 -2.2035  1.6518 -0.8870
 3605SOL     OW22273   2.712   2.989   1.957 -0.0429 -0.0395  0.1251
 3605SOL    HW122274   2.618   2.970   1.960 -0.3706  1.6108  0.3616
 3605SOL    HW222275   2.719   3.042   2.036  2.4926 -0.1981 -0.0147
 3606SOL     OW22276   1.109   1.652   5.200  0.0751 -0.3810 -0.3547
 3606SOL    HW122277   1.171   1.641   5.128 -0.2415  1.6635 -0.9275
 3606SOL    HW222278   1.100   1.565   5.240  0.1142 -0.2004  0.0524
 3607SOL     OW22279   4.032   3.038   1.788  0.4399  0.0297 -0.4354
 3607SOL    HW122280   4.119   3.005   1.808  0.9347  1.7185  0.1851
 3607SOL    HW222281   4.066   3.127   1.788  0.0165  0.1964 -1.1491
 3608SOL     OW22282   1.236   3.748   5.317 -0.3326 -0.3621 -0.3703
 3608SOL    HW122283   1.295   3.738   5.242  1.4734 -0.9597  1.1144
 3608SOL    HW222284   1.299   3.779   5.382 -0.6822  2.4696 -1.3606
 3609SOL     OW22285   4.629   1.232  11.232  0.3162  0.6373  0.1799
 3609SOL    HW122286   4.590   1.273  11.310 -2.9787 -0.8477 -0.7505
 3609SOL    HW222287   4.589   1.283  11.162 -1.3134  0.2603  0.8343
 3610SOL     OW22288   2.510   4.384  10.860  0.3341 -0.1183 -0.1644
 3610SOL    HW122289   2.571   4.457  10.847 -0.7161  0.3624 -2.3960
 3610SOL    HW222290   2.574   4.313  10.862 -0.0123 -0.4396 -0.5516
 3611SOL     OW22291   4.070   4.398   1.067 -0.6564 -0.4677 -0.0608
 3611SOL    HW122292   4.124   4.462   1.114 -0.7052 -1.3829  1.2642
 3611SOL    HW222293   4.130   4.365   1.001 -1.0174  2.3595 -1.7990
 3612SOL     OW22294   1.494   3.529   6.175  0.9691 -0.3149  0.1933
 3612SOL    HW122295   1.413   3.510   6.223  0.3837  0.5560 -0.4466
 3612SOL    HW222296   1.545   3.587   6.232  0.4006 -2.1579  2.6086
 3613SOL     OW22297   0.316   0.609   5.200 -0.0052  0.4709  0.1295
 3613SOL    HW122298   0.253   0.584   5.268 -1.0680 -0.3551 -1.1486
 3613SOL    HW222299   0.396   0.572   5.236 -0.3071  1.6839  2.0613
 3614SOL     OW22300   2.900   0.871   5.227  0.0107  0.0646 -0.0203
 3614SOL    HW122301   2.875   0.944   5.170  1.5252 -1.7586 -2.9987
 3614SOL    HW222302   2.816   0.850   5.267 -0.1125 -0.3244 -0.4838
 3615SOL     OW22303   4.200   1.300   8.555 -0.2384  0.4917  0.2605
 3615SOL    HW122304   4.267   1.283   8.621 -0.1141 -2.0566 -0.5438
 3615SOL    HW222305   4.245   1.355   8.490  1.7677 -0.5816  0.7396
 3616SOL     OW22306   0.481   0.441   2.209 -0.4262 -0.2010 -0.2375
 3616SOL    HW122307   0.483   0.537   2.209 -0.8267 -0.1898  2.5597
 3616SOL    HW222308   0.402   0.429   2.260 -0.6134 -0.5240 -0.6039
 3617SOL     OW22309   1.695   4.646  14.003 -0.1705 -0.4904  0.0934
 3617SOL    HW122310   1.747   4.706  14.058 -1.8243 -0.5115  1.6932
 3617SOL    HW222311   1.733   4.561  14.023  0.1923 -0.1640  0.8058
 3618SOL     OW22312   0.658   1.352   3.557 -0.1579 -0.0254  0.7569
 3618SOL    HW122313   0.582   1.308   3.519  0.6025  1.6865 -2.6666
 3618SOL    HW222314   0.653   1.440   3.519 -0.8402 -1.0436 -1.4466
 3619SOL     OW22315   3.307   2.207   7.683 -0.0493 -0.1195  0.3429
 3619SOL    HW122316   3.343   2.175   7.765  0.0844 -0.6852  0.0617
 3619SOL    HW222317   3.359   2.162   7.616 -1.3595  0.3871 -1.0128
 3620SOL     OW22318   0.431   2.972  10.078 -0.2147  0.6388 -0.0782
 3620SOL    HW122319   0.353   2.985  10.132 -1.1172  1.1820 -1.5035
 3620SOL    HW222320   0.491   2.928  10.138 -0.9029 -1.7867 -1.1779
 3621SOL     OW22321   3.825   0.695  13.152 -0.5620 -0.3621  0.0382
 3621SOL    HW122322   3.769   0.766  13.121  1.7874  1.4234 -0.1064
 3621SOL    HW222323   3.797   0.692  13.243  0.1544 -1.0733  0.2371
 3622SOL     OW22324   1.944   1.084  16.009  0.2809  0.0873 -0.4730
 3622SOL    HW122325   1.866   1.127  16.045 -0.2740  0.8991 -2.6671
 3622SOL    HW222326   1.920   0.992  15.997  0.0960  0.2320 -1.2256
 3623SOL     OW22327   3.525   3.221   1.148  0.0167 -0.7263 -0.2556
 3623SOL    HW122328   3.474   3.286   1.098  0.1276  0.6031  1.3590
 3623SOL    HW222329   3.536   3.159   1.076 -1.8674 -0.3911 -0.8520
 3624SOL     OW22330   1.565   1.310   9.072 -0.5238 -1.1709  0.3622
 3624SOL    HW122331   1.658   1.325   9.062 -0.5634 -1.3633 -0.2535
 3624SOL    HW222332   1.547   1.308   8.978 -0.6951  0.5639  0.3670
 3625SOL     OW22333   1.033   0.999  14.669  0.1570 -0.0242 -0.3718
 3625SOL    HW122334   1.123   1.023  14.649 -0.8319  2.6812 -1.6178
 3625SOL    HW222335   1.039   0.910  14.635  1.4211  0.1352 -0.5711
 3626SOL     OW22336   3.878   4.287   8.054 -0.3215 -0.3576  0.4192
 3626SOL    HW122337   3.882   4.192   8.045 -2.1550 -0.3258 -0.6248
 3626SOL    HW222338   3.784   4.306   8.049 -0.4377 -0.8058  0.8433
 3627SOL     OW22339   4.275   4.405   0.846  0.5087  0.1090  0.3637
 3627SOL    HW122340   4.256   4.349   0.771 -1.6147 -1.8494  2.3776
 3627SOL    HW222341   4.369   4.419   0.833  0.0465  2.2587 -0.6613
 3628SOL     OW22342   3.001   2.064  13.982  0.4458 -0.2444 -0.5145
 3628SOL    HW122343   3.056   2.117  13.925 -0.5413 -0.3605 -1.5618
 3628SOL    HW222344   2.940   2.130  14.013  1.4592  0.8542 -0.8564
 3629SOL     OW22345   4.267   3.250   7.687 -0.4371  0.1856  0.0326
 3629SOL    HW122346   4.220   3.332   7.673 -2.0488 -0.4978  1.2818
 3629SOL    HW222347   4.272   3.247   7.782  0.1466  1.0351  0.0257
 3630SOL     OW22348   4.202   3.849   4.424  0.2997  0.0544 -0.1348
 3630SOL    HW122349   4.145   3.854   4.500  1.3373  2.8862  0.4520
 3630SOL    HW222350   4.276   3.898   4.461 -0.4446  0.0176  1.3948
 3631SOL     OW22351   3.089   1.235   9.404 -0.3755  0.9433 -0.4569
 3631SOL    HW122352   3.047   1.306   9.452  0.4008  0.0676  1.4811
 3631SOL    HW222353   3.015   1.206   9.350 -0.3849  0.0124  0.0549
 3632SOL     OW22354   0.610   4.180   8.985 -0.0778  0.4362  0.3328
 3632SOL    HW122355   0.602   4.211   8.895 -0.7304  0.3432  0.3597
 3632SOL    HW222356   0.538   4.119   8.997  0.6796 -0.6486 -0.5850
 3633SOL     OW22357   2.324   3.041   5.511  0.2921  0.0037 -0.0258
 3633SOL    HW122358   2.335   2.977   5.581 -0.6706 -0.5448 -0.3798
 3633SOL    HW222359   2.229   3.034   5.497  0.1595  2.2421 -0.3054
 3634SOL     OW22360   2.681   3.621  16.728  0.1319  0.0792  0.8425
 3634SOL    HW122361   2.773   3.615  16.704 -0.7546  0.4086 -2.6423
 3634SOL    HW222362   2.649   3.531  16.720  3.6742 -0.8729 -2.2906
 3635SOL     OW22363   1.380   1.526  12.142  0.1486 -0.4378  0.1268
 3635SOL    HW122364   1.297   1.499  12.103  0.1086  1.1183 -0.8796
 3635SOL    HW222365   1.350   1.614  12.166 -2.9707 -1.4952  0.0365
 3636SOL     OW22366   0.335   1.891   3.853 -0.2800  0.4429 -0.9730
 3636SOL    HW122367   0.255   1.883   3.800 -0.3832  0.1758 -0.7741
 3636SOL    HW222368   0.302   1.938   3.930  0.4767 -0.4763 -0.0860
 3637SOL     OW22369   0.753   2.980  13.157 -0.5650 -0.0224  0.1858
 3637SOL    HW122370   0.796   3.053  13.201  1.4138 -0.4268 -1.1045
 3637SOL    HW222371   0.820   2.911  13.155 -0.5377  0.0123 -0.0339
 3638SOL     OW22372   3.718   0.925   7.406  0.4994  0.2923  0.4305
 3638SOL    HW122373   3.732   0.834   7.433 -3.0959 -0.6337 -0.8909
 3638SOL    HW222374   3.808   0.952   7.388 -0.0502  1.3154 -0.7286
 3639SOL     OW22375   1.806   0.589   6.651 -0.6288 -0.0086  0.0761
 3639SOL    HW122376   1.822   0.681   6.670  0.5318  0.6968 -4.1517
 3639SOL    HW222377   1.714   0.588   6.625 -1.0678 -2.0149  1.7175
 3640SOL     OW22378   0.064   0.689   2.739  0.2024 -0.7584 -0.3320
 3640SOL    HW122379   4.695   0.708   2.755  0.1060  0.0354 -1.8513
 3640SOL    HW222380   0.079   0.611   2.793  1.6289  1.3007  2.2556
 3641SOL     OW22381   1.642   0.519   6.880 -0.0692 -0.8766  0.4273
 3641SOL    HW122382   1.667   0.430   6.853  1.8988  0.3148 -1.7375
 3641SOL    HW222383   1.717   0.547   6.932 -0.2818  0.6797 -0.0957
 3642SOL     OW22384   0.778   0.202  13.716  0.0066  0.2858 -0.5494
 3642SOL    HW122385   0.708   0.251  13.758 -1.1083 -0.6404 -1.2982
 3642SOL    HW222386   0.847   0.205  13.782 -0.4380  2.3868 -0.1943
 3643SOL     OW22387   3.789   2.688   7.652  0.0630  0.4870 -0.0430
 3643SOL    HW122388   3.773   2.773   7.693  1.0700  0.6342  0.0530
 3643SOL    HW222389   3.705   2.678   7.607  0.8808 -2.2626 -0.9509
 3644SOL     OW22390   0.500   3.498   0.916  0.2464  0.0638  0.1295
 3644SOL    HW122391   0.581   3.544   0.895 -0.0245 -0.3644 -1.8662
 3644SOL    HW222392   0.443   3.527   0.845 -0.9816 -1.5239  0.4674
 3645SOL     OW22393   2.545   0.015   3.533 -0.0250 -0.3755  0.0564
 3645SOL    HW122394   2.541   4.663   3.475 -1.7145 -0.9885  0.9807
 3645SOL    HW222395   2.631   4.723   3.571  0.3731  1.4210 -0.0983
 3646SOL     OW22396   0.498   0.587   6.983  0.1540  0.5270 -0.2209
 3646SOL    HW122397   0.467   0.554   7.067  2.2770 -1.7595 -0.3309
 3646SOL    HW222398   0.510   0.680   6.997 -1.4498  1.0991 -2.5676
 3647SOL     OW22399   3.424   2.966   8.193  0.1008  0.0045  0.1730
 3647SOL    HW122400   3.454   3.034   8.254 -1.4659  0.9430 -0.1078
 3647SOL    HW222401   3.433   3.009   8.107 -1.1672 -0.8868 -0.4032
 3648SOL     OW22402   2.395   0.808   3.823 -0.7340 -0.1179  0.5174
 3648SOL    HW122403   2.392   0.713   3.809  0.8414  0.4857 -3.7599
 3648SOL    HW222404   2.490   0.820   3.817 -0.5825 -0.9276  1.3534
 3649SOL     OW22405   0.600   1.806   8.575  0.2195  0.0741  0.2269
 3649SOL    HW122406   0.527   1.817   8.513 -0.0515 -0.7390  0.3915
 3649SOL    HW222407   0.578   1.727   8.624 -1.7838 -1.5841 -3.2881
 3650SOL     OW22408   2.656   3.679   4.687  0.5201 -0.2453  0.2966
 3650SOL    HW122409   2.630   3.647   4.773 -0.5047  0.4475  0.2457
 3650SOL    HW222410   2.730   3.739   4.698 -0.8824  1.3337  1.1831
 3651SOL     OW22411   1.702   4.317   4.023  0.1377 -0.3826  0.9672
 3651SOL    HW122412   1.643   4.372   3.972  0.5501 -0.6420  0.2262
 3651SOL    HW222413   1.756   4.372   4.081 -2.1691  0.1752  2.5801
 3652SOL     OW22414   4.198   3.508   2.028 -0.1431 -0.2175 -0.0117
 3652SOL    HW122415   4.183   3.484   1.936 -1.8616  0.0451  0.2134
 3652SOL    HW222416   4.290   3.533   2.021 -0.5764  0.6780 -2.7065
 3653SOL     OW22417   2.479   1.405   9.526 -0.2540 -0.0104  0.1509
 3653SOL    HW122418   2.421   1.409   9.449  0.9446 -0.0167 -0.7473
 3653SOL    HW222419   2.440   1.481   9.570 -2.0604 -0.3763 -0.8080
 3654SOL     OW22420   4.492   3.094   3.643  0.5223 -0.1873  0.0866
 3654SOL    HW122421   4.563   3.127   3.589 -0.9059  0.2479 -1.5466
 3654SOL    HW222422   4.506   3.000   3.631 -0.2539  0.0207 -2.4990
 3655SOL     OW22423   2.329   2.365   7.350  0.4004  0.1037  0.5919
 3655SOL    HW122424   2.422   2.361   7.371  1.0196 -0.6433 -2.2531
 3655SOL    HW222425   2.320   2.393   7.259 -2.0335 -2.6639 -0.0281
 3656SOL     OW22426   0.621   2.915   4.000  0.7279 -0.1297 -0.6576
 3656SOL    HW122427   0.699   2.953   4.041  0.0519  0.3446  0.1965
 3656SOL    HW222428   0.587   2.855   4.067  0.8020  2.8498  2.0675
 3657SOL     OW22429   2.278   4.111  14.290  0.1584  0.2125  0.4865
 3657SOL    HW122430   2.276   4.114  14.195 -2.8258 -1.4698  0.4947
 3657SOL    HW222431   2.363   4.067  14.299 -0.9445 -2.2857 -1.2620
 3658SOL     OW22432   4.038   2.564   9.015 -0.5815  0.4964  0.0339
 3658SOL    HW122433   4.083   2.631   8.964  1.3596  2.1672  3.9997
 3658SOL    HW222434   4.037   2.490   8.953 -0.4014 -1.4610  2.3497
 3659SOL     OW22435   2.096   0.992   4.155 -0.3535  0.3027  0.2989
 3659SOL    HW122436   2.135   1.066   4.109 -0.8666 -0.2130 -0.9697
 3659SOL    HW222437   2.123   0.928   4.089  1.1275  0.2748  0.9246
 3660SOL     OW22438   2.058   2.311  16.602 -0.3205  0.3051 -0.1913
 3660SOL    HW122439   2.110   2.235  16.577  0.5497  1.1009 -0.8074
 3660SOL    HW222440   2.128   2.361  16.645 -0.9891  1.1763 -0.1218
 3661SOL     OW22441   2.424   1.687   3.143  0.5311 -0.5914  0.0349
 3661SOL    HW122442   2.336   1.652   3.133 -0.9654  3.4057 -0.4911
 3661SOL    HW222443   2.431   1.744   3.067  0.6737 -0.0975  0.4223
 3662SOL     OW22444   1.557   4.006   4.807  0.2929  0.1689  0.2413
 3662SOL    HW122445   1.626   3.962   4.757 -0.8285 -2.9418  1.3808
 3662SOL    HW222446   1.588   3.997   4.897  1.9265 -1.3853 -0.4838
 3663SOL     OW22447   0.532   0.338   3.754  0.0947  0.0908 -0.2036
 3663SOL    HW122448   0.518   0.397   3.828  1.7692  1.0807 -0.6638
 3663SOL    HW222449   0.576   0.268   3.803 -0.5463 -0.8196 -0.9344
 3664SOL     OW22450   0.817   0.881   2.972 -0.2571  0.1363 -0.6305
 3664SOL    HW122451   0.848   0.822   3.041 -0.5833  0.4046 -0.2577
 3664SOL    HW222452   0.806   0.966   3.014 -0.8648  1.3051 -3.1592
 3665SOL     OW22453   3.338   1.251   5.991  0.5901  0.5407 -0.6101
 3665SOL    HW122454   3.255   1.239   6.036  0.0380  2.3741 -1.1449
 3665SOL    HW222455   3.403   1.216   6.051 -0.4931 -0.4101 -0.0041
 3666SOL     OW22456   1.917   0.879   7.244 -0.0499 -0.0472 -0.7084
 3666SOL    HW122457   1.893   0.961   7.200  1.8082 -0.2570 -2.0995
 3666SOL    HW222458   2.009   0.902   7.254 -0.3307  0.0832  1.6537
 3667SOL     OW22459   3.865   3.949   0.083  0.3889 -0.7328  0.4282
 3667SOL    HW122460   3.936   3.994   0.129 -0.9728  0.2210  1.6308
 3667SOL    HW222461   3.836   3.884   0.148 -0.3647 -1.4409 -0.6176
 3668SOL     OW22462   4.406   2.107   9.507  0.3642  0.3698  0.3729
 3668SOL    HW122463   4.415   2.166   9.582  1.5036 -1.2434  1.5040
 3668SOL    HW222464   4.477   2.137   9.451 -1.7515  2.1555 -1.3898
 3669SOL     OW22465   4.006   0.266  12.085 -0.4748  0.8206  0.8776
 3669SOL    HW122466   4.066   0.260  12.010  0.3257  1.4415  1.4677
 3669SOL    HW222467   4.060   0.203  12.134 -1.6490 -1.9839 -1.4386
 3670SOL     OW22468   4.262   0.116  11.990 -0.4268  0.5467  0.0572
 3670SOL    HW122469   4.349   0.104  12.026  0.0094  1.4392 -0.6919
 3670SOL    HW222470   4.268   0.075  11.904  0.6787  0.3025  0.2562
 3671SOL     OW22471   2.083   1.219   2.998 -0.7789 -0.5646  0.0416
 3671SOL    HW122472   2.051   1.287   2.937  2.6046 -0.7982 -1.9532
 3671SOL    HW222473   2.123   1.151   2.944 -1.0687 -0.5544 -0.1872
 3672SOL     OW22474   2.753   2.388   6.981 -0.1757 -0.7310 -0.4487
 3672SOL    HW122475   2.767   2.310   7.035  2.0305  1.1902  1.7696
 3672SOL    HW222476   2.694   2.354   6.914 -0.2019 -1.0740 -0.2482
 3673SOL     OW22477   3.498   2.839   4.350  0.0672 -0.0492 -0.1824
 3673SOL    HW122478   3.402   2.845   4.355  0.0250 -0.3378 -0.7218
 3673SOL    HW222479   3.502   2.864   4.258  0.6594  0.6871  0.0470
 3674SOL     OW22480   2.895   3.881   0.718  0.0288  0.6643  0.3524
 3674SOL    HW122481   2.845   3.812   0.762 -0.7465  1.4493  0.7134
 3674SOL    HW222482   2.982   3.871   0.756  0.5531  3.3690 -0.1241
 3675SOL     OW22483   0.319   2.167   2.656 -0.4798  0.0869  0.5977
 3675SOL    HW122484   0.399   2.142   2.610 -0.5605  1.6432 -0.3667
 3675SOL    HW222485   0.254   2.168   2.586 -0.1804 -0.6328  0.3130
 3676SOL     OW22486   2.622   2.282  15.451 -0.1372 -0.0032  0.1710
 3676SOL    HW122487   2.557   2.239  15.397 -1.0662  1.9600 -0.2842
 3676SOL    HW222488   2.616   2.232  15.532 -2.5414  1.5825  0.9848
 3677SOL     OW22489   0.941   1.899   9.602 -0.1817  0.0140  0.2060
 3677SOL    HW122490   0.973   1.823   9.650 -0.4611 -1.5150 -2.0565
 3677SOL    HW222491   0.968   1.958   9.673  0.5402  1.3367 -1.1558
 3678SOL     OW22492   3.579   0.022   9.704  0.3794 -0.2028  0.0794
 3678SOL    HW122493   3.529   0.046   9.782  0.8296  1.3020 -0.1017
 3678SOL    HW222494   3.587   0.093   9.640 -2.8682 -0.0272 -0.1013
 3679SOL     OW22495   3.187   3.526   6.439  0.1346  0.0299 -0.5320
 3679SOL    HW122496   3.099   3.488   6.429  0.9525 -2.0154 -0.0756
 3679SOL    HW222497   3.161   3.579   6.514 -2.7211  0.2131 -1.6529
 3680SOL     OW22498   3.476   0.768   5.920  0.6336 -0.8280 -0.1308
 3680SOL    HW122499   3.436   0.837   5.972 -0.9064 -0.9195 -1.2037
 3680SOL    HW222500   3.528   0.824   5.862 -0.1149  0.3903  0.3893
 3681SOL     OW22501   2.005   3.246  12.785  0.2988 -0.4384  0.0188
 3681SOL    HW122502   2.079   3.237  12.844 -0.1182  0.6171  0.7114
 3681SOL    HW222503   1.979   3.154  12.776  1.6554 -0.5847 -2.5886
 3682SOL     OW22504   3.912   4.013   7.989  0.2743  0.0006  0.5042
 3682SOL    HW122505   3.878   3.931   7.953 -2.3963  0.9687  0.8589
 3682SOL    HW222506   3.999   4.014   7.949  0.2420  0.3588  0.4403
 3683SOL     OW22507   3.581   0.590   5.279 -0.7970  0.6869 -0.0328
 3683SOL    HW122508   3.598   0.646   5.355  2.0384  1.3176 -1.1409
 3683SOL    HW222509   3.667   0.549   5.268 -0.8080  0.1990  1.7072
 3684SOL     OW22510   4.102   2.534   2.054  0.5874  0.0731 -0.2482
 3684SOL    HW122511   4.077   2.620   2.021 -0.2775  0.5374  1.6180
 3684SOL    HW222512   4.018   2.491   2.038  0.9207 -1.1950  1.4010
 3685SOL     OW22513   3.367   1.579   2.699 -0.7843 -0.9746  0.0368
 3685SOL    HW122514   3.325   1.526   2.632 -0.5668 -0.3447 -0.5968
 3685SOL    HW222515   3.438   1.622   2.650  0.7175 -2.6844  0.7051
 3686SOL     OW22516   1.361   4.475   4.081  0.5800 -0.1775 -0.2700
 3686SOL    HW122517   1.280   4.458   4.032 -0.3248  0.7744  0.8986
 3686SOL    HW222518   1.412   4.394   4.083 -0.6886 -1.0301 -1.5877
 3687SOL     OW22519   1.281   0.898   9.029  0.0565 -0.0542 -0.2466
 3687SOL    HW122520   1.250   0.910   8.940 -2.6541 -0.2439  0.6818
 3687SOL    HW222521   1.278   0.987   9.067 -2.2752 -0.6848  1.0506
 3688SOL     OW22522   3.454   0.029   9.206 -0.5296  0.2777  0.2699
 3688SOL    HW122523   3.379   4.697   9.189  0.0010 -0.1429 -0.6716
 3688SOL    HW222524   3.482   0.045   9.116  1.1930 -1.8023  0.4446
 3689SOL     OW22525   2.369   1.789   1.365 -0.2294  0.2564  0.0727
 3689SOL    HW122526   2.424   1.729   1.415 -0.4006 -0.4631 -0.6193
 3689SOL    HW222527   2.354   1.749   1.280 -1.7420 -1.3131  1.0728
 3690SOL     OW22528   1.996   2.296  10.139 -0.2914 -0.3840 -0.6507
 3690SOL    HW122529   1.915   2.245  10.150  0.1553 -0.7675  0.9081
 3690SOL    HW222530   1.978   2.363  10.074  0.5958  0.0745 -0.4198
 3691SOL     OW22531   4.000   2.788   2.578 -0.1587  0.2867  0.1187
 3691SOL    HW122532   4.081   2.838   2.571 -0.1586  0.4845  1.5573
 3691SOL    HW222533   4.038   2.711   2.621  1.0436  1.4095  1.0787
 3692SOL     OW22534   1.818   1.026  13.335  0.4156  0.7497  0.1550
 3692SOL    HW122535   1.813   1.114  13.370  1.9723  0.7800  0.3069
 3692SOL    HW222536   1.806   0.978  13.417 -0.0987  1.2279  0.3530
 3693SOL     OW22537   0.082   2.968   6.359 -1.0284 -0.9534  0.2030
 3693SOL    HW122538   0.128   3.012   6.287 -0.1581 -0.0915  1.2811
 3693SOL    HW222539   0.020   3.032   6.393  0.1938 -0.1747  0.9915
 3694SOL     OW22540   4.026   3.241   2.044 -0.1731  0.3185  0.0034
 3694SOL    HW122541   3.964   3.169   2.052 -0.9562  1.1406  1.3899
 3694SOL    HW222542   3.990   3.301   1.978  1.0700 -0.3902 -1.3264
 3695SOL     OW22543   0.485   3.674   1.710  0.2286 -0.3275 -0.0475
 3695SOL    HW122544   0.512   3.697   1.799 -1.0498  2.0905 -0.2984
 3695SOL    HW222545   0.480   3.578   1.714  0.1655 -0.3964 -1.7213
 3696SOL     OW22546   3.539   2.432   7.630  0.2238  0.2798 -0.2593
 3696SOL    HW122547   3.586   2.504   7.588  0.2177  0.6148  0.3042
 3696SOL    HW222548   3.529   2.470   7.717 -1.2220 -2.3430  0.7141
 3697SOL     OW22549   3.163   4.598   1.382  0.2355  0.0286  0.2822
 3697SOL    HW122550   3.096   4.667   1.384  0.0837 -0.1184  0.2871
 3697SOL    HW222551   3.171   4.584   1.287 -1.0536 -1.3974  0.3943
 3698SOL     OW22552   3.092   3.838   9.775 -0.1322 -0.2567  0.7889
 3698SOL    HW122553   3.135   3.892   9.840 -1.7672 -0.6805  2.2235
 3698SOL    HW222554   3.092   3.752   9.817  1.7972 -1.9282 -2.5895
 3699SOL     OW22555   1.492   1.333   1.852 -0.0154 -0.2211  0.1104
 3699SOL    HW122556   1.533   1.328   1.938 -1.8785  3.5601  1.2031
 3699SOL    HW222557   1.407   1.296   1.874 -0.2442  0.9154  1.1218
 3700SOL     OW22558   1.458   1.339   2.422 -0.1771  0.1085 -0.1461
 3700SOL    HW122559   1.378   1.374   2.384  0.3532  0.5399 -0.8873
 3700SOL    HW222560   1.499   1.420   2.454 -0.9678  0.4235  0.0503
 3701SOL     OW22561   1.736   3.147   4.255 -0.4741 -0.7915 -0.5112
 3701SOL    HW122562   1.700   3.226   4.295  1.9601 -1.0723  2.2281
 3701SOL    HW222563   1.776   3.182   4.176  1.0588  0.4981  0.8372
 3702SOL     OW22564   3.459   0.396   8.894 -0.4138  0.8068 -0.2517
 3702SOL    HW122565   3.505   0.404   8.810  0.8953 -0.2947  0.3550
 3702SOL    HW222566   3.430   0.486   8.904  1.9054  1.3542  1.4867
 3703SOL     OW22567   3.595   1.727  13.759 -1.0274 -0.1369 -1.2271
 3703SOL    HW122568   3.608   1.821  13.756 -0.1174 -0.1747  2.0587
 3703SOL    HW222569   3.559   1.716  13.847  0.0058 -0.1173 -0.7982
 3704SOL     OW22570   1.164   3.137   6.129  0.1047 -0.7030 -0.1162
 3704SOL    HW122571   1.232   3.203   6.111  0.5329 -1.0221  0.3221
 3704SOL    HW222572   1.084   3.190   6.133  1.2943  1.1647 -1.4277
 3705SOL     OW22573   0.611   4.324   7.688  0.2952 -0.3709  0.4891
 3705SOL    HW122574   0.662   4.327   7.770  3.4069 -0.8136 -1.4216
 3705SOL    HW222575   0.573   4.236   7.684  0.6317 -0.5138  0.4072
 3706SOL     OW22576   0.919   2.770   4.125 -0.1909 -0.0165  0.3635
 3706SOL    HW122577   0.874   2.767   4.209  1.3982 -1.7176  1.1277
 3706SOL    HW222578   0.855   2.737   4.061 -1.0906  1.8415  0.2858
 3707SOL     OW22579   2.601   2.036   5.940  0.3406  0.1627 -0.2565
 3707SOL    HW122580   2.617   2.036   5.846 -0.0248 -1.2816 -0.3216
 3707SOL    HW222581   2.653   2.103   5.984  0.1320 -1.1020  1.9161
 3708SOL     OW22582   4.643   1.885  11.274  0.0554 -0.2287 -0.4850
 3708SOL    HW122583   4.574   1.853  11.333  0.0241  0.7569  0.0144
 3708SOL    HW222584   4.635   1.975  11.306  0.6317 -0.2696 -0.2211
 3709SOL     OW22585   2.884   3.345  11.987  0.3549 -0.1147 -0.0436
 3709SOL    HW122586   2.953   3.286  12.016  1.5949 -0.0181 -2.7840
 3709SOL    HW222587   2.926   3.423  11.949  0.1427 -0.8192 -1.7431
 3710SOL     OW22588   2.825   4.704   5.507 -0.4510  0.1743  0.3267
 3710SOL    HW122589   2.867   4.632   5.461  0.3979 -1.3662  3.5989
 3710SOL    HW222590   2.869   4.704   5.591 -3.0260  2.1762  1.7000
 3711SOL     OW22591   3.215   1.816   2.706 -0.3170  0.0530  0.1154
 3711SOL    HW122592   3.273   1.740   2.710 -1.2672 -0.6158  1.2437
 3711SOL    HW222593   3.147   1.789   2.644 -0.8937  1.5130  0.1331
 3712SOL     OW22594   3.041   2.888  13.206  0.1938  0.2215 -0.2583
 3712SOL    HW122595   3.127   2.907  13.170 -0.7044 -1.3633 -3.3169
 3712SOL    HW222596   3.028   2.795  13.187  0.6366  0.4351 -1.6075
 3713SOL     OW22597   1.852   1.651   1.262  0.7711  0.7074 -0.2477
 3713SOL    HW122598   1.920   1.621   1.202 -0.2852 -1.3408 -0.4331
 3713SOL    HW222599   1.776   1.598   1.236  0.8358  0.2008  0.5906
 3714SOL     OW22600   2.324   2.947   0.216 -0.7563 -0.6221  0.1501
 3714SOL    HW122601   2.413   2.957   0.183 -1.7588 -0.8403 -2.6426
 3714SOL    HW222602   2.326   2.870   0.272 -1.6052 -0.0955  0.9055
 3715SOL     OW22603   2.501   0.102   7.415  0.3018 -0.1895 -0.1781
 3715SOL    HW122604   2.544   0.094   7.501 -1.1630 -0.1366  0.5598
 3715SOL    HW222605   2.447   0.180   7.427  0.0955 -0.6245  1.7746
 3716SOL     OW22606   1.369   3.126  12.517  0.3054  0.5335 -0.0093
 3716SOL    HW122607   1.326   3.211  12.505  0.9272  0.4734 -2.7143
 3716SOL    HW222608   1.462   3.149  12.526  0.3582  0.6062 -0.6737
 3717SOL     OW22609   1.071   2.416   6.315  0.0571 -0.7167  0.1221
 3717SOL    HW122610   1.156   2.458   6.300  0.0676  0.1812  2.6837
 3717SOL    HW222611   1.007   2.474   6.274 -1.2498 -2.5364 -0.3607
 3718SOL     OW22612   2.712   2.610   7.983  0.1774  0.2436  0.0016
 3718SOL    HW122613   2.697   2.651   8.068  1.9971  0.9491 -0.0070
 3718SOL    HW222614   2.650   2.666   7.935  1.1675 -0.5253 -2.1606
 3719SOL     OW22615   1.015   3.039   1.383 -0.1728  0.0758 -0.1771
 3719SOL    HW122616   1.023   3.106   1.451 -0.3325 -0.3861  0.2910
 3719SOL    HW222617   0.924   3.015   1.396 -0.0678 -0.3987 -0.3179
 3720SOL     OW22618   0.360   4.360   9.074 -0.4187  0.4816  1.0983
 3720SOL    HW122619   0.407   4.277   9.085  0.3413  0.8482  0.6046
 3720SOL    HW222620   0.373   4.391   8.985  1.9475  2.0528  1.9932
 3721SOL     OW22621   0.289   4.005   2.775  0.0607  0.2594  0.3132
 3721SOL    HW122622   0.377   3.976   2.750  1.5263  2.5537  2.7546
 3721SOL    HW222623   0.256   4.000   2.686 -0.8300  0.2926  0.6401
 3722SOL     OW22624   1.558   3.478   6.469  0.0758  0.5858  0.0951
 3722SOL    HW122625   1.470   3.502   6.440  1.2106  1.9505 -2.1938
 3722SOL    HW222626   1.544   3.383   6.476 -1.1201  0.6905 -0.9218
 3723SOL     OW22627   2.553   3.239   0.720 -0.0735 -0.3013 -0.6760
 3723SOL    HW122628   2.484   3.273   0.663 -0.8770  0.6454  0.8746
 3723SOL    HW222629   2.564   3.158   0.671 -2.1773  1.6098 -4.3740
 3724SOL     OW22630   4.123   2.611   5.644  0.2748 -0.0158  0.1487
 3724SOL    HW122631   4.121   2.701   5.676 -1.3259 -0.3688  1.0402
 3724SOL    HW222632   4.121   2.570   5.730 -2.2503  1.1091  0.6109
 3725SOL     OW22633   0.866   0.036   8.511 -0.5517  0.4949 -0.4765
 3725SOL    HW122634   0.926   0.003   8.443 -1.3503 -0.2195 -0.8343
 3725SOL    HW222635   0.839   0.123   8.482 -0.1658  0.2896 -1.4674
 3726SOL     OW22636   0.247   2.734   3.012 -0.1739  0.2980  1.0534
 3726SOL    HW122637   0.324   2.679   3.024  0.3948  1.2226  1.6316
 3726SOL    HW222638   0.241   2.708   2.920 -2.1028 -0.6968  1.4527
 3727SOL     OW22639   3.014   1.846   8.485  0.0437 -0.3002 -0.1265
 3727SOL    HW122640   3.068   1.865   8.562 -2.4213 -0.4095  1.6165
 3727SOL    HW222641   2.924   1.864   8.510  0.1483 -0.6000  0.4718
 3728SOL     OW22642   0.866   0.256  10.640  0.1024 -0.0108 -0.2111
 3728SOL    HW122643   0.793   0.268  10.701 -0.1406 -0.8707 -0.3295
 3728SOL    HW222644   0.927   0.329  10.654  1.0761 -0.9286  0.2812
 3729SOL     OW22645   4.645   0.989  13.593  0.0309 -0.1370 -0.2627
 3729SOL    HW122646   4.722   0.942  13.562 -0.1008  0.1815 -1.0649
 3729SOL    HW222647   4.635   1.064  13.535 -0.3444 -0.5050 -0.6796
 3730SOL     OW22648   3.266   1.171   4.670  0.2330 -0.0107  0.4673
 3730SOL    HW122649   3.356   1.187   4.697  0.5654  0.7579 -1.0464
 3730SOL    HW222650   3.270   1.225   4.590  0.4096 -0.0573  0.4437
 3731SOL     OW22651   2.310   1.183  13.830  0.0371  0.3208 -0.3925
 3731SOL    HW122652   2.274   1.101  13.865 -2.0263  0.8088 -1.4198
 3731SOL    HW222653   2.349   1.146  13.751 -0.7427 -0.4223 -0.4277
 3732SOL     OW22654   0.962   2.241   4.252 -0.1340  0.2257 -0.0866
 3732SOL    HW122655   0.915   2.302   4.196 -1.1351 -1.5169 -1.1762
 3732SOL    HW222656   0.960   2.160   4.200  0.4369 -0.5627  1.1080
 3733SOL     OW22657   3.875   2.231   4.024  0.0778 -0.1323  0.1728
 3733SOL    HW122658   3.800   2.290   4.015 -0.0436  0.0005  1.9641
 3733SOL    HW222659   3.937   2.297   4.057  0.0250  0.1475 -0.2882
 3734SOL     OW22660   3.439   0.713   7.006  0.0659  0.6302 -0.0562
 3734SOL    HW122661   3.475   0.684   7.090 -0.3260  0.0399 -0.1003
 3734SOL    HW222662   3.498   0.786   6.986  0.7597 -0.1192 -0.7462
 3735SOL     OW22663   4.684   3.508   0.910 -0.2809 -0.0151 -0.5326
 3735SOL    HW122664   4.654   3.420   0.886  1.3062 -1.1771  1.7779
 3735SOL    HW222665   4.638   3.554   0.840  0.6028 -1.0054 -1.7709
 3736SOL     OW22666   2.669   2.549   6.484 -0.4075  0.5265  0.4154
 3736SOL    HW122667   2.706   2.513   6.403 -0.2387  1.9360 -0.1300
 3736SOL    HW222668   2.594   2.490   6.486  1.4400 -1.8405 -0.0706
 3737SOL     OW22669   4.680   0.387   7.926 -0.3536  0.0430 -0.6469
 3737SOL    HW122670   4.623   0.319   7.963  2.6440 -1.0659  1.8898
 3737SOL    HW222671   4.645   0.392   7.837  0.0964 -1.8202 -0.9275
 3738SOL     OW22672   1.058   0.705   5.033 -0.3578 -0.6083  0.3677
 3738SOL    HW122673   1.092   0.791   5.006 -2.3465  0.0096 -0.2014
 3738SOL    HW222674   1.134   0.673   5.081  0.8086  0.8789 -0.4782
 3739SOL     OW22675   0.962   0.044  10.789  0.3526  0.2301 -0.5951
 3739SOL    HW122676   0.906   4.698  10.758  0.8527 -0.1258 -0.7055
 3739SOL    HW222677   0.939   0.111  10.725 -1.1684  1.7222  1.5335
 3740SOL     OW22678   3.333   3.285   8.080 -0.7656 -0.1227  0.3035
 3740SOL    HW122679   3.330   3.364   8.025 -0.2218  0.4344  1.0744
 3740SOL    HW222680   3.400   3.230   8.040 -0.2852 -0.2689  1.2990
 3741SOL     OW22681   2.938   3.685   4.271  0.1446  0.5082 -0.7365
 3741SOL    HW122682   2.938   3.685   4.367  2.1336 -1.6638 -0.7353
 3741SOL    HW222683   2.924   3.778   4.255 -1.5568  0.9587  3.3445
 3742SOL     OW22684   2.012   4.722   1.004  0.0503  0.3334  0.0817
 3742SOL    HW122685   2.057   0.021   1.085 -0.6166  0.5495  0.3922
 3742SOL    HW222686   1.920   0.003   1.029 -0.3892 -1.0489 -1.2768
 3743SOL     OW22687   0.386   1.251   4.782 -0.3108  0.0749 -0.2029
 3743SOL    HW122688   0.404   1.344   4.788  2.7868 -0.5269 -0.2453
 3743SOL    HW222689   0.479   1.230   4.787  0.0294  1.1257 -2.3294
 3744SOL     OW22690   1.233   4.119   3.354 -0.6398 -0.5213 -0.2536
 3744SOL    HW122691   1.210   4.070   3.275 -0.9859  0.3148 -0.6629
 3744SOL    HW222692   1.196   4.062   3.422 -0.0151 -2.6354 -1.6809
 3745SOL     OW22693   3.338   4.256   7.390 -0.4873  1.1231 -0.2107
 3745SOL    HW122694   3.377   4.199   7.324 -0.7885  1.4900 -0.7110
 3745SOL    HW222695   3.414   4.304   7.424 -0.7682  1.8908 -0.6678
 3746SOL     OW22696   1.790   1.439   5.600 -0.1645 -0.0802 -0.1294
 3746SOL    HW122697   1.800   1.392   5.517  1.9832  0.1127  0.0301
 3746SOL    HW222698   1.739   1.515   5.573 -0.4748 -0.8493 -1.6903
 3747SOL     OW22699   0.376   1.210   6.850 -0.6309  0.0848 -0.1912
 3747SOL    HW122700   0.408   1.299   6.839 -1.2923  0.3627  0.1391
 3747SOL    HW222701   0.282   1.210   6.868  0.0473  3.3282  3.2038
 3748SOL     OW22702   2.381   2.061   7.951 -0.2320  0.4474 -0.0209
 3748SOL    HW122703   2.397   2.122   7.880  0.3653 -1.2697 -1.3495
 3748SOL    HW222704   2.444   1.990   7.939 -0.5744  0.3527 -1.2426
 3749SOL     OW22705   4.722   1.504   0.232  0.3080 -0.1076 -0.5547
 3749SOL    HW122706   0.051   1.574   0.192  1.3256 -1.0398 -0.8211
 3749SOL    HW222707   4.637   1.528   0.194 -0.1120 -1.5064 -0.5029
 3750SOL     OW22708   3.278   2.218  16.937  0.1394 -0.2424  0.7002
 3750SOL    HW122709   3.308   2.302  16.973  1.5488 -0.3106 -0.3395
 3750SOL    HW222710   3.351   2.170  16.975  0.4430 -1.0806 -0.9664
 3751SOL     OW22711   1.181   3.078   6.940 -0.5672 -0.1339  0.0871
 3751SOL    HW122712   1.214   3.082   6.850 -2.1968 -0.2905 -0.5176
 3751SOL    HW222713   1.231   3.004   6.975 -0.8752 -0.4427 -0.1318
 3752SOL     OW22714   3.696   1.978   4.741 -0.1303  0.3270 -0.7471
 3752SOL    HW122715   3.640   1.989   4.818 -0.1227  2.8091 -1.0949
 3752SOL    HW222716   3.676   1.887   4.719 -1.3205  0.0207  1.6419
 3753SOL     OW22717   0.047   2.961   6.059  0.1458 -0.2494  0.2513
 3753SOL    HW122718   0.048   3.052   6.028 -1.4865 -0.1052  0.6195
 3753SOL    HW222719   4.683   2.954   6.097  0.1764 -1.4515  0.0911
 3754SOL     OW22720   3.141   4.535   4.137 -0.0506 -0.5616 -0.0950
 3754SOL    HW122721   3.153   4.493   4.222  1.3918  3.3763  1.6868
 3754SOL    HW222722   3.046   4.526   4.137  0.0748 -1.8758 -2.1839
 3755SOL     OW22723   2.007   0.388   4.697 -0.4053  0.0211  0.1144
 3755SOL    HW122724   2.041   0.397   4.608 -2.4102 -0.9677 -0.7610
 3755SOL    HW222725   1.918   0.355   4.682 -0.0286 -1.8651  1.9401
 3756SOL     OW22726   0.368   3.468  13.843  0.9069 -0.3040 -0.1980
 3756SOL    HW122727   0.451   3.469  13.891  1.1029  0.9026 -0.5748
 3756SOL    HW222728   0.387   3.496  13.754  2.6318  2.0735  0.9096
 3757SOL     OW22729   4.575   0.752  14.763  0.2008 -0.0930 -0.0095
 3757SOL    HW122730   4.485   0.782  14.771 -0.1087 -0.8622 -0.6452
 3757SOL    HW222731   4.574   0.672  14.815 -1.9851  0.9655  1.5581
 3758SOL     OW22732   1.948   4.405   8.679  0.3955  0.0375  0.1378
 3758SOL    HW122733   1.890   4.476   8.706 -1.3565 -1.0819 -0.7031
 3758SOL    HW222734   2.026   4.433   8.726  0.7725 -2.3711  0.9506
 3759SOL     OW22735   3.560   2.128   3.807  0.1746 -0.2403 -0.1062
 3759SOL    HW122736   3.650   2.097   3.820 -0.2210  0.4410  4.3166
 3759SOL    HW222737   3.546   2.122   3.713 -1.3143  0.0780  0.0970
 3760SOL     OW22738   2.218   4.661  11.953  0.4498  0.1582  0.6156
 3760SOL    HW122739   2.179   4.644  12.039  0.7345  0.9731  0.9078
 3760SOL    HW222740   2.259   4.577  11.935 -0.2544  0.5252 -2.8703
 3761SOL     OW22741   4.706   0.981   4.740  0.6323 -0.2429 -0.0816
 3761SOL    HW122742   0.068   1.006   4.707  1.6254  0.0228  2.7471
 3761SOL    HW222743   4.715   1.001   4.833  2.3916  2.1965 -0.7770
 3762SOL     OW22744   1.007   3.992  11.686 -0.0669 -0.2571 -0.1374
 3762SOL    HW122745   1.033   3.955  11.770 -1.3348  2.5254  1.4922
 3762SOL    HW222746   1.043   3.932  11.621  1.2994  0.8744 -0.4195
 3763SOL     OW22747   1.556   0.559   6.550 -0.2670 -0.0228 -0.3810
 3763SOL    HW122748   1.540   0.470   6.519  0.3025 -0.4027  0.4241
 3763SOL    HW222749   1.473   0.607   6.549 -0.5201 -0.4742 -0.8603
 3764SOL     OW22750   0.231   0.936  17.276 -0.0523 -0.4746  0.0247
 3764SOL    HW122751   0.171   0.914  17.205 -2.1783  1.4436  1.2178
 3764SOL    HW222752   0.174   0.987  17.334 -0.0576 -0.6672  0.1854
 3765SOL     OW22753   0.821   4.653  16.110 -0.1476  0.3576 -0.7505
 3765SOL    HW122754   0.811   4.695  16.024  1.8142 -0.0900 -1.2101
 3765SOL    HW222755   0.828   0.001  16.174  1.0501  1.3827 -2.0272
 3766SOL     OW22756   0.232   0.030   3.163  0.1277  0.6117 -0.4903
 3766SOL    HW122757   0.139   0.012   3.173  0.3389 -0.1294  0.1693
 3766SOL    HW222758   0.240   0.010   3.070 -2.7033  0.8733 -0.7909
 3767SOL     OW22759   2.625   0.286   5.683  0.0895 -0.3917 -0.5402
 3767SOL    HW122760   2.678   0.248   5.613  0.8264 -2.4957  1.1578
 3767SOL    HW222761   2.559   0.333   5.632 -0.5570 -0.4481  0.2413
 3768SOL     OW22762   2.982   0.265   7.129 -0.2650 -0.1097  0.0876
 3768SOL    HW122763   2.975   0.177   7.167 -0.9705 -1.2687 -2.6767
 3768SOL    HW222764   2.896   0.299   7.151 -0.4838  0.7770 -2.1271
 3769SOL     OW22765   1.605   0.757  11.312  1.0430  0.3281  0.4840
 3769SOL    HW122766   1.512   0.772  11.332  0.7795  1.0955 -1.3379
 3769SOL    HW222767   1.606   0.699  11.237 -0.0346  1.5552 -0.4875
 3770SOL     OW22768   3.923   2.363  17.675 -0.4394 -0.1303 -0.2776
 3770SOL    HW122769   3.961   2.447  17.649  1.5548 -1.3528 -1.3548
 3770SOL    HW222770   3.828   2.375  17.675  0.0462  3.6930 -0.6006
 3771SOL     OW22771   2.842   1.938   4.388  0.2148 -0.1915  0.8743
 3771SOL    HW122772   2.765   1.889   4.416 -1.1302  0.1780 -2.3144
 3771SOL    HW222773   2.919   1.902   4.433  2.2665  2.7230 -0.2769
 3772SOL     OW22774   3.105   0.045   4.495 -0.1068  0.1990 -0.3136
 3772SOL    HW122775   3.177   4.708   4.476 -1.3872 -0.8824 -1.6411
 3772SOL    HW222776   3.094   0.009   4.584  0.2714 -0.3215 -0.4748
 3773SOL     OW22777   1.615   0.334   3.531  0.1169  0.5019  0.4265
 3773SOL    HW122778   1.651   0.265   3.476 -0.2429 -0.4914  1.4374
 3773SOL    HW222779   1.646   0.418   3.496  2.5199  1.0592  3.8546
 3774SOL     OW22780   0.490   0.508   7.559  0.4167 -0.0206 -0.4872
 3774SOL    HW122781   0.478   0.475   7.648  1.0384  1.5801  0.1978
 3774SOL    HW222782   0.485   0.432   7.501 -2.3409 -0.1409 -0.0955
 3775SOL     OW22783   1.398   4.120   5.215 -0.3318  0.0492 -0.0288
 3775SOL    HW122784   1.477   4.067   5.222 -1.0075 -1.0442 -0.7239
 3775SOL    HW222785   1.434   4.208   5.204  0.1014  0.0515  1.2886
 3776SOL     OW22786   3.118   3.241   6.189 -0.2722 -0.1080  0.1983
 3776SOL    HW122787   3.195   3.282   6.229 -0.7920 -0.5362  1.6476
 3776SOL    HW222788   3.053   3.302   6.223  0.6461  0.4564  0.9413
 3777SOL     OW22789   1.855   2.959  10.814  0.1501 -0.0251 -0.2253
 3777SOL    HW122790   1.781   2.899  10.813 -0.1254  0.2850  2.1174
 3777SOL    HW222791   1.865   2.981  10.721  0.8609 -0.9694 -0.3703
 3778SOL     OW22792   1.002   4.028   5.976 -0.1499 -0.0869 -0.2534
 3778SOL    HW122793   0.991   4.067   6.063 -1.5426  1.6774 -1.2294
 3778SOL    HW222794   1.096   4.039   5.962 -0.2079  1.1348  0.3456
 3779SOL     OW22795   0.529   2.313  17.583  0.4276  0.5050  0.0418
 3779SOL    HW122796   0.573   2.396  17.601 -0.6182  0.6653  1.8216
 3779SOL    HW222797   0.550   2.265  17.663  1.4149  1.0778  0.1245
 3780SOL     OW22798   4.269   3.361   8.257 -0.1348  0.2440  0.6603
 3780SOL    HW122799   4.246   3.364   8.350 -0.2412  2.4927  0.5562
 3780SOL    HW222800   4.211   3.426   8.219 -1.5436 -0.3032  1.8929
 3781SOL     OW22801   2.704   1.227   2.951 -0.1933 -0.2069 -0.0123
 3781SOL    HW122802   2.766   1.163   2.917 -0.1976  0.9543 -2.2163
 3781SOL    HW222803   2.625   1.177   2.972  0.2089  0.2956  2.5772
 3782SOL     OW22804   0.384   3.426   4.668 -0.3730 -0.1674  0.1491
 3782SOL    HW122805   0.349   3.502   4.715  0.2344 -0.3760  0.9373
 3782SOL    HW222806   0.441   3.473   4.607 -0.5230  0.3779  0.4301
 3783SOL     OW22807   2.655   0.727   3.126 -0.1764  0.6150 -0.3720
 3783SOL    HW122808   2.711   0.789   3.079  0.9141 -1.8617 -2.3544
 3783SOL    HW222809   2.725   0.703   3.187  1.6071  0.7596 -2.3234
 3784SOL     OW22810   0.732   3.878  12.035  0.2082 -0.5273  0.1051
 3784SOL    HW122811   0.668   3.926  11.983 -1.6005 -2.2563  0.7445
 3784SOL    HW222812   0.780   3.827  11.970  0.5179  0.8724 -0.7626
 3785SOL     OW22813   3.320   3.234   2.999  0.4185 -0.0623  0.0853
 3785SOL    HW122814   3.359   3.198   3.078 -2.7923 -0.6793  1.3933
 3785SOL    HW222815   3.382   3.301   2.969  0.4354  0.6963  1.7777
 3786SOL     OW22816   0.865   3.239   4.922 -0.0724  0.6167 -0.2336
 3786SOL    HW122817   0.901   3.279   4.843 -1.5342 -0.2106 -1.3132
 3786SOL    HW222818   0.807   3.310   4.950  0.4743  0.9178  0.1359
 3787SOL     OW22819   0.991   2.368   2.521 -0.5733  0.0286 -0.1512
 3787SOL    HW122820   1.083   2.348   2.508 -0.6728 -0.0079 -0.8103
 3787SOL    HW222821   0.972   2.386   2.613  0.5588 -1.0316  0.2859
 3788SOL     OW22822   4.384   0.738   5.432 -0.4167 -0.2144  0.4667
 3788SOL    HW122823   4.368   0.644   5.439  2.3302 -0.7548 -0.3102
 3788SOL    HW222824   4.474   0.752   5.401  0.5060 -3.3762  1.7213
 3789SOL     OW22825   2.441   1.852   2.943 -0.0105 -0.6016 -0.2329
 3789SOL    HW122826   2.383   1.918   2.903 -0.7255  1.0373  3.4204
 3789SOL    HW222827   2.513   1.912   2.964 -0.3092 -0.6026  0.8194
 3790SOL     OW22828   2.810   0.917  11.343 -1.1060  0.3520 -0.1252
 3790SOL    HW122829   2.879   0.943  11.405  0.9689 -1.5431 -1.6548
 3790SOL    HW222830   2.820   0.976  11.269 -0.5878 -0.1896 -0.4858
 3791SOL     OW22831   2.419   0.714   8.069 -0.1604  0.7367 -0.2276
 3791SOL    HW122832   2.455   0.690   7.984  1.0150 -0.4322  0.5876
 3791SOL    HW222833   2.326   0.710   8.049 -0.0557 -1.8127 -0.2225
 3792SOL     OW22834   2.075   1.084   6.056  0.4188  0.1034  0.1137
 3792SOL    HW122835   1.989   1.059   6.023  0.4100  0.5821 -0.2239
 3792SOL    HW222836   2.108   1.135   5.982 -2.6534  0.2228 -1.1901
 3793SOL     OW22837   4.395   0.371  15.246  0.1534 -0.6063 -0.2309
 3793SOL    HW122838   4.342   0.451  15.256 -0.0085 -0.5190 -1.8814
 3793SOL    HW222839   4.353   0.317  15.313 -0.6441 -1.3895 -1.3539
 3794SOL     OW22840   4.235   2.909   6.639  0.1796  0.6259  0.4308
 3794SOL    HW122841   4.208   2.847   6.706  2.8780 -1.5290 -0.4694
 3794SOL    HW222842   4.161   2.891   6.581 -1.0505 -1.9894  2.8211
 3795SOL     OW22843   1.817   3.301   5.072 -0.3295  0.0404  0.1400
 3795SOL    HW122844   1.804   3.382   5.120 -1.6094 -0.6394  0.9390
 3795SOL    HW222845   1.763   3.323   4.995  1.1158 -1.0091 -1.1794
 3796SOL     OW22846   0.595   0.616   8.510 -0.1022  0.1820  0.2490
 3796SOL    HW122847   0.619   0.598   8.601  1.6816  0.9475 -0.0738
 3796SOL    HW222848   0.666   0.572   8.463 -0.2824 -1.0541  1.1481
 3797SOL     OW22849   4.264   2.368  14.821  0.0843  0.1495 -0.0550
 3797SOL    HW122850   4.201   2.394  14.888  0.2201  1.5744 -0.4868
 3797SOL    HW222851   4.267   2.273  14.836  0.9586 -0.1241 -1.9479
 3798SOL     OW22852   3.891   1.694   2.845  0.2262 -0.2712 -0.0799
 3798SOL    HW122853   3.820   1.754   2.823  0.6478  0.0839 -0.4559
 3798SOL    HW222854   3.879   1.624   2.782 -1.1556 -0.4154  0.3329
 3799SOL     OW22855   0.685   0.051   6.822 -0.2153 -0.5210  0.1612
 3799SOL    HW122856   0.648   0.129   6.863  3.4018  1.8346 -1.0524
 3799SOL    HW222857   0.630   4.703   6.854 -0.4014 -1.2303 -1.7133
 3800SOL     OW22858   2.888   0.577   4.076 -0.1231  0.1842  0.0223
 3800SOL    HW122859   2.896   0.666   4.109 -1.3086  0.8726 -1.5447
 3800SOL    HW222860   2.955   0.528   4.124  1.1969  0.5974 -1.4142
 3801SOL     OW22861   2.750   3.497   7.572  0.4782  0.3481 -0.1520
 3801SOL    HW122862   2.747   3.404   7.595  1.7569  0.5098  0.7035
 3801SOL    HW222863   2.756   3.539   7.658  3.4394 -1.5573  0.5960
 3802SOL     OW22864   3.532   0.615   7.274 -0.3580 -0.4284  0.5087
 3802SOL    HW122865   3.476   0.653   7.342 -2.3290 -1.8222 -0.3345
 3802SOL    HW222866   3.618   0.622   7.316 -0.5524  1.1050  0.6402
 3803SOL     OW22867   3.180   3.206   4.779  0.2001  0.4999  0.2717
 3803SOL    HW122868   3.174   3.246   4.865  0.5447  2.7016 -0.7439
 3803SOL    HW222869   3.265   3.163   4.787  0.7991  1.2631 -1.9354
 3804SOL     OW22870   1.389   3.703   7.376 -0.0336  0.5029 -0.3472
 3804SOL    HW122871   1.351   3.620   7.348 -0.1309 -0.0443  1.4344
 3804SOL    HW222872   1.314   3.752   7.410 -0.2281  0.1596 -0.2848
 3805SOL     OW22873   4.188   0.212   2.305 -0.1898 -0.0658 -0.1880
 3805SOL    HW122874   4.279   0.184   2.315  0.0809  0.0623 -2.2324
 3805SOL    HW222875   4.177   0.277   2.373  1.6226  0.0196  0.0275
 3806SOL     OW22876   0.895   4.517  14.688  0.0325  0.4408  0.5424
 3806SOL    HW122877   0.853   4.585  14.740 -1.1924  0.3107 -0.2661
 3806SOL    HW222878   0.914   4.456  14.759 -1.6160 -0.0627  0.5466
 3807SOL     OW22879   3.738   3.950   4.217 -0.1997 -0.1755  0.4509
 3807SOL    HW122880   3.709   3.900   4.140 -0.3401  1.1583 -0.3689
 3807SOL    HW222881   3.830   3.946   4.189 -0.5088 -1.2073 -0.4627
 3808SOL     OW22882   2.189   2.866   9.011 -0.3853  0.1479 -0.4583
 3808SOL    HW122883   2.110   2.850   8.959  0.4503  1.1785 -2.0522
 3808SOL    HW222884   2.223   2.777   9.003 -1.3747 -0.5321  2.7510
 3809SOL     OW22885   2.064   2.726   4.785  0.1140  0.4080  0.2231
 3809SOL    HW122886   2.058   2.795   4.850 -1.9488 -0.3941  0.8602
 3809SOL    HW222887   2.091   2.647   4.832 -1.4240 -1.6285 -2.3310
 3810SOL     OW22888   2.849   0.757   0.973  0.6510  0.5848 -0.1978
 3810SOL    HW122889   2.911   0.792   0.910  2.4059 -3.5740 -0.7748
 3810SOL    HW222890   2.838   0.672   0.931 -0.8474  1.0739 -0.8102
 3811SOL     OW22891   0.718   0.744   4.176 -0.1997  0.1216 -0.2710
 3811SOL    HW122892   0.769   0.665   4.159 -2.8280 -1.7277  0.4609
 3811SOL    HW222893   0.791   0.805   4.167  0.1230 -0.2606 -0.2558
 3812SOL     OW22894   1.805   2.335   4.774 -0.1433  0.0359 -0.3377
 3812SOL    HW122895   1.774   2.356   4.686 -0.3016  0.4854 -0.1701
 3812SOL    HW222896   1.900   2.342   4.762 -0.0759 -2.3932 -1.3388
 3813SOL     OW22897   4.633   4.606   3.601  0.3866  0.5245  0.0477
 3813SOL    HW122898   4.587   4.686   3.578 -1.6083 -0.6460 -0.0742
 3813SOL    HW222899   4.637   4.601   3.697 -0.8494  1.8263  0.1692
 3814SOL     OW22900   2.661   1.979   5.661  0.3133 -0.0481 -0.5440
 3814SOL    HW122901   2.687   2.015   5.576  0.4207  1.0963 -0.0182
 3814SOL    HW222902   2.646   1.886   5.645  0.9916 -0.2953  0.2406
 3815SOL     OW22903   1.961   1.510   8.694  0.1852  0.9763  0.3133
 3815SOL    HW122904   1.973   1.545   8.782  1.7060  0.2900  0.3679
 3815SOL    HW222905   1.865   1.501   8.688  0.3061 -1.3092  1.8416
 3816SOL     OW22906   1.911   4.141   4.212 -0.2465 -0.0942  0.0134
 3816SOL    HW122907   1.991   4.109   4.172  1.2177  0.0347  2.8337
 3816SOL    HW222908   1.884   4.207   4.148 -1.8603  0.0684  0.8471
 3817SOL     OW22909   2.994   3.895  15.983 -0.2983  0.0425 -0.1222
 3817SOL    HW122910   2.949   3.926  16.062 -2.3155  1.1198 -1.6909
 3817SOL    HW222911   2.930   3.836  15.942 -1.6455  1.8086 -0.5638
 3818SOL     OW22912   3.362   4.150   2.743 -0.1409  0.2146  0.7249
 3818SOL    HW122913   3.370   4.175   2.651 -0.8076 -0.7320  0.4082
 3818SOL    HW222914   3.372   4.229   2.795  1.2585  0.6961 -0.2941
 3819SOL     OW22915   2.348   3.220   8.405  0.0012  0.0462 -0.5240
 3819SOL    HW122916   2.440   3.194   8.403  0.8512  3.0641  0.3792
 3819SOL    HW222917   2.350   3.291   8.469 -1.4726  0.2031 -0.6365
 3820SOL     OW22918   2.401   1.201  14.851  0.4867  0.6485  0.0768
 3820SOL    HW122919   2.435   1.112  14.845 -0.3033  0.1482  2.7949
 3820SOL    HW222920   2.359   1.208  14.765  2.4613  1.3792 -0.8312
 3821SOL     OW22921   4.566   0.874   5.174 -0.1865 -0.3546 -0.2489
 3821SOL    HW122922   4.503   0.920   5.119  1.0626 -0.7277 -2.0033
 3821SOL    HW222923   4.629   0.946   5.172  0.4480 -0.9263 -1.0301
 3822SOL     OW22924   3.507   3.823   2.917 -0.0737 -0.8293 -0.1161
 3822SOL    HW122925   3.519   3.849   2.825 -0.4968  2.2346  0.6986
 3822SOL    HW222926   3.588   3.850   2.959 -0.9017  1.6429 -0.0512
 3823SOL     OW22927   2.660   2.365   9.491  0.3380  0.3472 -0.3301
 3823SOL    HW122928   2.699   2.449   9.467 -1.8136  2.0069  1.9904
 3823SOL    HW222929   2.726   2.304   9.459  0.5606  1.7912 -2.6518
 3824SOL     OW22930   3.284   0.104   5.043  0.4223  0.1325 -0.1905
 3824SOL    HW122931   3.248   0.160   5.112 -0.3247  0.1905 -0.6331
 3824SOL    HW222932   3.301   0.168   4.975  1.9508  1.0426  1.0340
 3825SOL     OW22933   0.286   3.217  14.377 -0.0805  0.3756 -0.2478
 3825SOL    HW122934   0.363   3.250  14.330  0.8142  1.3877  1.9309
 3825SOL    HW222935   0.296   3.122  14.377 -0.1121  0.3666 -1.4051
 3826SOL     OW22936   1.627   3.572  12.612  0.0808 -0.2768  0.2619
 3826SOL    HW122937   1.590   3.542  12.696 -0.7576  0.4997  0.1634
 3826SOL    HW222938   1.719   3.589  12.633  0.0648 -1.4942  1.3622
 3827SOL     OW22939   2.477   0.087   9.650  0.2705 -0.5346 -0.1021
 3827SOL    HW122940   2.485   0.081   9.555 -2.0471 -4.0220 -0.1066
 3827SOL    HW222941   2.562   0.063   9.686  0.7993  1.7096  0.1533
 3828SOL     OW22942   2.424   4.265  12.094  0.3291  0.0258 -0.0761
 3828SOL    HW122943   2.331   4.250  12.109  0.3973 -0.4447 -0.1376
 3828SOL    HW222944   2.406   4.330  12.026  3.8982  1.8558  0.7054
 3829SOL     OW22945   2.687   1.873   2.729  0.2796 -0.0747 -0.3474
 3829SOL    HW122946   2.697   1.797   2.786  1.8283  1.2054  1.1003
 3829SOL    HW222947   2.757   1.932   2.759 -0.2229  1.0699 -1.4516
 3830SOL     OW22948   0.535   4.189   4.899 -0.2113  0.0397  0.5930
 3830SOL    HW122949   0.528   4.267   4.844  0.0216 -0.7865 -0.6154
 3830SOL    HW222950   0.600   4.146   4.844  0.0837  0.2264  0.7927
 3831SOL     OW22951   4.341   0.670   0.127 -0.3976  0.3637 -0.0605
 3831SOL    HW122952   4.339   0.601   0.062  0.4839  0.3533 -0.0704
 3831SOL    HW222953   4.307   0.736   0.067  1.7050  0.4851 -1.1074
 3832SOL     OW22954   3.737   0.671  14.764 -0.1071 -0.3789 -0.0142
 3832SOL    HW122955   3.697   0.619  14.834 -2.8387  1.0715 -0.5041
 3832SOL    HW222956   3.669   0.650  14.700  0.7956  1.1713 -1.4984
 3833SOL     OW22957   4.569   2.068  11.619 -0.1582 -0.2190 -0.2123
 3833SOL    HW122958   4.509   2.007  11.577  0.4076 -1.7690  1.2574
 3833SOL    HW222959   4.642   2.010  11.640 -0.1647  0.5966  2.0209
 3834SOL     OW22960   3.236   0.057   7.994 -0.5909 -0.2325  0.0406
 3834SOL    HW122961   3.324   0.093   7.999 -0.6496 -0.5295  3.0622
 3834SOL    HW222962   3.218   0.034   8.085 -1.2043  0.2087  0.0260
 3835SOL     OW22963   1.663   3.207   7.739  0.8002  0.4106  0.0757
 3835SOL    HW122964   1.579   3.205   7.693  1.2747 -3.6109 -0.6129
 3835SOL    HW222965   1.637   3.162   7.819 -3.9545 -0.9834 -2.3051
 3836SOL     OW22966   1.967   4.187   6.603  0.0375 -0.2338  0.0395
 3836SOL    HW122967   1.877   4.157   6.611 -0.1017  0.2458  0.3164
 3836SOL    HW222968   1.995   4.170   6.513 -0.2211 -1.3387  0.1706
 3837SOL     OW22969   3.757   3.151  12.323 -0.6232  0.2879  0.1657
 3837SOL    HW122970   3.718   3.067  12.300  0.8110 -0.5842  0.9175
 3837SOL    HW222971   3.812   3.126  12.397 -0.5877 -0.3991 -0.0979
 3838SOL     OW22972   2.069   0.578   3.033 -0.0144  0.6674  0.3655
 3838SOL    HW122973   2.122   0.511   2.990  0.9168  1.9376 -0.4757
 3838SOL    HW222974   2.061   0.644   2.964  0.3012  2.7636  2.3693
 3839SOL     OW22975   2.469   1.657   6.997  0.4973  0.1380 -0.3630
 3839SOL    HW122976   2.392   1.629   7.047  1.8876  0.6360  2.0779
 3839SOL    HW222977   2.492   1.572   6.959  1.1001  0.7180 -1.2879
 3840SOL     OW22978   0.662   1.040  16.224 -0.7040  0.2626 -0.1586
 3840SOL    HW122979   0.672   1.133  16.202  0.5231 -0.1566 -1.3736
 3840SOL    HW222980   0.641   1.050  16.317  0.3719 -2.1939  0.3404
 3841SOL     OW22981   3.910   3.418   1.042 -0.0301  0.3054  0.2733
 3841SOL    HW122982   3.940   3.343   0.992  0.6413 -0.5526  1.9761
 3841SOL    HW222983   3.823   3.432   1.005 -0.3357 -2.5992 -0.0793
 3842SOL     OW22984   3.349   4.336   6.762  0.1457 -0.2615 -0.2582
 3842SOL    HW122985   3.260   4.347   6.730  0.8045  0.0009 -1.9989
 3842SOL    HW222986   3.406   4.366   6.691 -0.1390  0.5735 -0.1347
 3843SOL     OW22987   0.323   3.498   6.571  0.1500  0.2578 -0.5247
 3843SOL    HW122988   0.407   3.544   6.559 -0.1517  0.7734 -0.6760
 3843SOL    HW222989   0.338   3.405   6.583 -4.4801 -0.5976 -1.4713
 3844SOL     OW22990   0.404   1.177   1.005  0.2998  0.2860  0.4392
 3844SOL    HW122991   0.320   1.152   0.966 -0.7336  1.0157  2.1663
 3844SOL    HW222992   0.464   1.110   0.973  2.4935  2.6245 -0.2922
 3845SOL     OW22993   0.686   1.473  16.498 -0.0482  0.7038  0.3078
 3845SOL    HW122994   0.656   1.469  16.407  2.2914  0.1870 -0.4418
 3845SOL    HW222995   0.769   1.521  16.494 -0.1872  0.8017 -1.5846
 3846SOL     OW22996   3.069   3.907   8.579 -0.0676  0.6073  0.0285
 3846SOL    HW122997   3.125   3.892   8.503  0.8801 -0.7293  0.9888
 3846SOL    HW222998   3.086   3.825   8.624  0.2365  0.9846  0.6030
 3847SOL     OW22999   1.499   1.448  12.717 -0.3777  0.5327 -0.8992
 3847SOL    HW123000   1.551   1.473  12.641 -0.6624  0.3369 -1.1548
 3847SOL    HW223001   1.408   1.447  12.690 -1.3667  1.9728  2.3701
 3848SOL     OW23002   1.525   0.035   1.024  0.4662  0.1717 -0.6409
 3848SOL    HW123003   1.435   0.003   1.031 -0.0449  1.8411  0.2805
 3848SOL    HW223004   1.528   0.030   0.928 -0.3744 -0.1375 -0.6552
 3849SOL     OW23005   0.433   2.431  17.136 -0.2051  0.2653  0.0349
 3849SOL    HW123006   0.484   2.381  17.073  1.5110  2.1942 -0.1330
 3849SOL    HW223007   0.434   2.365  17.205 -2.3934  0.9108  0.6808
 3850SOL     OW23008   1.688   4.341   0.142  0.1468  0.2126  0.3655
 3850SOL    HW123009   1.641   4.324   0.060  1.1216  3.2926 -0.8424
 3850SOL    HW223010   1.759   4.403   0.121 -0.4427  0.7145 -0.1510
 3851SOL     OW23011   2.362   0.812   4.092  0.3078  0.7193 -0.3651
 3851SOL    HW123012   2.287   0.757   4.114  1.7186 -0.4586  1.5106
 3851SOL    HW223013   2.364   0.814   3.996  1.4821 -0.4868 -0.3653
 3852SOL     OW23014   1.766   0.575  13.072 -0.0272 -0.7473 -0.4365
 3852SOL    HW123015   1.691   0.528  13.110 -2.1967  1.7410 -1.6738
 3852SOL    HW223016   1.843   0.540  13.117  2.0346 -0.4443 -3.6939
 3853SOL     OW23017   2.860   0.776   7.046  0.9284  0.4334 -0.3486
 3853SOL    HW123018   2.816   0.823   6.975 -1.3213  1.4264  1.6996
 3853SOL    HW223019   2.841   0.685   7.023  1.5054 -0.3605  2.3079
 3854SOL     OW23020   2.278   2.876   6.689 -0.0452 -0.3738  0.4409
 3854SOL    HW123021   2.247   2.785   6.686 -2.3443  0.4813 -1.3927
 3854SOL    HW223022   2.369   2.872   6.718  0.2770  0.7527 -0.4098
 3855SOL     OW23023   2.003   2.470   0.703  0.2381  0.2330  0.5414
 3855SOL    HW123024   1.998   2.413   0.626 -1.3804  0.8645  0.1776
 3855SOL    HW223025   2.014   2.404   0.771 -0.5969 -0.9703 -0.4709
 3856SOL     OW23026   2.647   0.266   3.819  0.5215 -0.0810 -0.3668
 3856SOL    HW123027   2.681   0.328   3.883 -0.6063  0.2360 -0.0692
 3856SOL    HW223028   2.557   0.266   3.851  0.6074 -1.0759 -0.1355
 3857SOL     OW23029   2.411   0.251   8.683  0.3098 -0.0976 -0.6980
 3857SOL    HW123030   2.493   0.248   8.733  0.2603 -3.8174 -0.8758
 3857SOL    HW223031   2.404   0.346   8.677 -0.5910 -0.0829  0.7538
 3858SOL     OW23032   0.788   3.223   7.795 -0.3166 -0.1673 -0.9021
 3858SOL    HW123033   0.836   3.258   7.870  1.5076 -1.1608 -1.6273
 3858SOL    HW223034   0.720   3.172   7.838 -0.5877  0.7914 -0.1736
 3859SOL     OW23035   2.311   0.850   6.662 -0.6062  0.2083 -0.2055
 3859SOL    HW123036   2.361   0.814   6.735  0.7079  1.4059 -0.5183
 3859SOL    HW223037   2.314   0.793   6.585 -0.0067 -0.7113  0.5067
 3860SOL     OW23038   2.474   2.165  17.453  0.0131 -0.1855  0.5174
 3860SOL    HW123039   2.565   2.145  17.427 -0.0137 -0.5598  0.7077
 3860SOL    HW223040   2.462   2.101  17.524  2.3498 -1.3103 -0.0991
 3861SOL     OW23041   0.219   0.867   2.618 -0.4379  0.1759 -0.1661
 3861SOL    HW123042   0.146   0.812   2.646 -0.2058 -0.7476 -1.3853
 3861SOL    HW223043   0.266   0.806   2.561 -1.8980  1.3396 -2.6536
 3862SOL     OW23044   1.557   3.812  17.602 -0.1141 -0.4113  0.0242
 3862SOL    HW123045   1.611   3.890  17.591 -2.2567  1.1661  0.7534
 3862SOL    HW223046   1.601   3.769  17.675 -0.4935  0.1085  0.5482
 3863SOL     OW23047   2.219   4.135   8.769  0.1969  0.1688  0.0736
 3863SOL    HW123048   2.295   4.186   8.796 -0.1493  1.2182 -0.9165
 3863SOL    HW223049   2.220   4.069   8.838 -1.1954 -1.0956 -1.1254
 3864SOL     OW23050   3.337   0.773   5.160 -0.4480 -0.2603  0.2169
 3864SOL    HW123051   3.267   0.805   5.218  0.5068 -1.5812  2.0990
 3864SOL    HW223052   3.413   0.779   5.218 -0.6445 -1.6057  0.6022
 3865SOL     OW23053   3.277   2.470   3.492  0.0339 -0.0960 -0.0911
 3865SOL    HW123054   3.305   2.461   3.583 -1.9610  0.3974  0.5779
 3865SOL    HW223055   3.208   2.404   3.483  1.9185 -2.0740 -0.0626
 3866SOL     OW23056   3.449   3.797   5.171 -0.7088  0.1114 -0.3127
 3866SOL    HW123057   3.508   3.722   5.161  0.3825  0.6115  2.2206
 3866SOL    HW223058   3.456   3.840   5.086 -0.0932  2.1321  0.7742
 3867SOL     OW23059   1.025   2.111   8.517  0.7047  0.3039  0.4256
 3867SOL    HW123060   1.009   2.193   8.563  0.1781  1.1871 -1.3104
 3867SOL    HW223061   1.002   2.056   8.592  0.1682  0.4859  0.3965
 3868SOL     OW23062   2.829   1.266   3.198 -0.0867 -0.3447 -0.3495
 3868SOL    HW123063   2.773   1.317   3.256  1.7504  0.9065  0.3169
 3868SOL    HW223064   2.795   1.297   3.114  0.1893 -0.7542 -0.6149
 3869SOL     OW23065   1.596   1.407   9.651 -0.3530 -0.8158 -0.1847
 3869SOL    HW123066   1.569   1.476   9.712 -0.6362  0.7384 -2.0580
 3869SOL    HW223067   1.536   1.334   9.662  1.7990 -1.9425  3.8966
 3870SOL     OW23068   4.258   4.399   8.162  0.3233 -0.6887 -0.5196
 3870SOL    HW123069   4.231   4.490   8.171  0.0662 -1.0183  1.8721
 3870SOL    HW223070   4.216   4.357   8.236 -1.0513  2.0200  0.2233
 3871SOL     OW23071   3.301   3.056   2.631  0.4339 -0.1108  0.3503
 3871SOL    HW123072   3.322   2.973   2.590 -1.4620 -0.9108  0.9707
 3871SOL    HW223073   3.288   3.113   2.555 -0.4897 -0.2197  0.4297
 3872SOL     OW23074   3.327   3.197   7.732 -0.4510 -0.4841 -0.3186
 3872SOL    HW123075   3.292   3.138   7.799 -2.9072 -0.2450 -1.3693
 3872SOL    HW223076   3.353   3.133   7.666 -1.7961  0.9580 -2.2641
 3873SOL     OW23077   4.050   0.757   6.462 -0.1517  0.2680  0.0018
 3873SOL    HW123078   3.961   0.749   6.495  0.5258 -1.1354  1.5224
 3873SOL    HW223079   4.049   0.810   6.382  1.4814 -0.6527 -0.6331
 3874SOL     OW23080   4.332   4.330   2.742 -0.0186  0.0366 -0.0477
 3874SOL    HW123081   4.392   4.375   2.802 -1.2892  2.8002 -0.8273
 3874SOL    HW223082   4.376   4.358   2.662  1.0325  1.3651  0.9891
 3875SOL     OW23083   2.868   0.928   3.598 -0.0780 -0.4291  0.0996
 3875SOL    HW123084   2.905   0.897   3.515 -1.6019  0.6502 -0.9808
 3875SOL    HW223085   2.904   1.016   3.588 -0.0037 -0.5558 -0.7585
 3876SOL     OW23086   4.281   1.745   4.478  0.4324  0.2657  0.3849
 3876SOL    HW123087   4.350   1.811   4.479  0.0764  0.7095 -3.3732
 3876SOL    HW223088   4.225   1.783   4.545  0.1215 -0.7070  0.6829
 3877SOL     OW23089   3.583   4.635   2.971  0.2258 -0.2997 -0.3501
 3877SOL    HW123090   3.502   4.676   2.943  1.5757  3.3239  1.0713
 3877SOL    HW223091   3.652   4.671   2.915 -2.2764  0.5443 -2.8469
 3878SOL     OW23092   2.214   4.542  10.507  1.0662  0.4614 -0.9795
 3878SOL    HW123093   2.310   4.540  10.505  1.1137  0.4945  0.7341
 3878SOL    HW223094   2.200   4.514  10.598 -1.9172 -0.9696 -1.9044
 3879SOL     OW23095   4.458   2.446   5.516 -0.0572 -0.1375 -0.2118
 3879SOL    HW123096   4.454   2.536   5.482  0.6711 -0.5983 -1.4954
 3879SOL    HW223097   4.372   2.413   5.489 -0.2751  1.3538 -1.3610
 3880SOL     OW23098   1.334   4.457   2.316 -0.1587 -0.1488  0.0648
 3880SOL    HW123099   1.352   4.530   2.375  0.9787  0.5187 -1.1272
 3880SOL    HW223100   1.305   4.383   2.370  0.0528 -0.4548 -0.2408
 3881SOL     OW23101   1.515   1.091   6.791  0.3011  0.8243 -0.0549
 3881SOL    HW123102   1.551   1.013   6.749 -0.9564  0.0356  0.3295
 3881SOL    HW223103   1.538   1.071   6.882  2.0580  0.2539 -0.6313
 3882SOL     OW23104   4.267   4.437   4.729 -0.0447  0.3632 -0.4437
 3882SOL    HW123105   4.283   4.345   4.709  0.8561  0.8262 -1.8647
 3882SOL    HW223106   4.288   4.474   4.643 -1.0082  0.1597 -0.7747
 3883SOL     OW23107   4.025   3.358  10.048 -0.0685 -0.3552  0.0132
 3883SOL    HW123108   4.115   3.386  10.068 -0.1133 -0.4161  0.3080
 3883SOL    HW223109   4.045   3.286   9.989 -0.7465  0.3770 -1.1063
 3884SOL     OW23110   2.116   2.966   4.189 -0.4992 -0.4961  0.2166
 3884SOL    HW123111   2.030   2.935   4.161  0.5970 -2.2183 -1.3055
 3884SOL    HW223112   2.112   2.956   4.284 -2.2197  1.5457  0.3477
 3885SOL     OW23113   1.617   0.404  13.256  0.4956  0.5424 -0.1029
 3885SOL    HW123114   1.670   0.421  13.334  0.0357 -2.1750  0.7922
 3885SOL    HW223115   1.605   0.309  13.250 -0.2785  0.6137  0.3378
 3886SOL     OW23116   2.762   0.842   4.079 -0.2972  0.6687 -0.0969
 3886SOL    HW123117   2.712   0.791   4.016  0.4303  0.3198 -0.3844
 3886SOL    HW223118   2.683   0.888   4.107 -1.7634 -0.3587 -2.6403
 3887SOL     OW23119   1.295   3.062  13.160  0.4927 -0.8956  0.6551
 3887SOL    HW123120   1.283   3.155  13.139  1.2946 -0.8158  0.5440
 3887SOL    HW223121   1.390   3.050  13.165  0.3364 -2.2045  0.1883
 3888SOL     OW23122   1.895   2.553   6.538 -0.6052  0.4401 -0.0451
 3888SOL    HW123123   1.824   2.514   6.486 -0.4066  0.3918 -0.2806
 3888SOL    HW223124   1.942   2.601   6.470 -0.5782  0.7082  0.1663
 3889SOL     OW23125   3.974   2.547   6.694  0.1659  0.1834 -0.2252
 3889SOL    HW123126   3.961   2.633   6.653  0.1613  0.2343 -0.1159
 3889SOL    HW223127   3.927   2.551   6.777 -0.4404 -1.1375 -0.5054
 3890SOL     OW23128   1.332   1.753   8.462  0.2309 -0.0805  0.3390
 3890SOL    HW123129   1.242   1.722   8.456  0.3478 -0.7923  2.3274
 3890SOL    HW223130   1.367   1.664   8.456 -0.6373 -0.5092  1.8372
 3891SOL     OW23131   2.191   3.525  15.078  0.1451  0.0394 -0.0285
 3891SOL    HW123132   2.196   3.528  14.983  0.2529 -0.1932 -0.0290
 3891SOL    HW223133   2.096   3.535  15.092  0.0995  0.1706 -0.4330
 3892SOL     OW23134   0.807   1.607   7.087 -0.0398 -0.1181  0.3510
 3892SOL    HW123135   0.838   1.566   7.168  1.8544  0.3394 -0.1377
 3892SOL    HW223136   0.882   1.581   7.033  0.5458  1.0734  0.5825
 3893SOL     OW23137   2.859   0.759   8.235 -0.4731 -0.0360  0.2990
 3893SOL    HW123138   2.930   0.704   8.268  0.9897  0.8123 -1.4214
 3893SOL    HW223139   2.828   0.712   8.157  1.1068 -1.4952  0.5533
 3894SOL     OW23140   2.882   1.686  14.015  0.0105 -0.1335 -0.0805
 3894SOL    HW123141   2.806   1.697  13.958  0.2108  0.6679 -0.1908
 3894SOL    HW223142   2.849   1.723  14.097 -0.7702  0.6148 -0.7336
 3895SOL     OW23143   0.810   2.715   8.838  0.7896 -0.0575  0.0426
 3895SOL    HW123144   0.775   2.626   8.833 -1.3641  0.6828  1.6011
 3895SOL    HW223145   0.883   2.702   8.899  0.7991 -0.5759 -0.0723
 3896SOL     OW23146   4.200   0.058   3.822 -0.1930 -0.2354 -0.1230
 3896SOL    HW123147   4.127   0.072   3.762 -1.1267  0.8705  1.2822
 3896SOL    HW223148   4.216   0.149   3.847 -2.0370 -0.1701  0.7888
 3897SOL     OW23149   3.581   3.149   8.340 -0.0072  0.5547  0.2305
 3897SOL    HW123150   3.499   3.192   8.367 -0.1868 -1.5229  2.9625
 3897SOL    HW223151   3.639   3.225   8.331  2.0612 -0.9917  0.5867
 3898SOL     OW23152   1.410   4.299  12.482 -0.6818  0.4990 -0.6770
 3898SOL    HW123153   1.407   4.205  12.468 -1.1208  0.1579  1.7523
 3898SOL    HW223154   1.393   4.310  12.575 -2.4657 -0.4613 -0.9011
 3899SOL     OW23155   2.396   0.705   0.330  0.2669 -0.2140 -0.0586
 3899SOL    HW123156   2.353   0.619   0.323  0.1077 -0.1643  0.3510
 3899SOL    HW223157   2.350   0.753   0.399  1.4826  0.1979  0.4552
 3900SOL     OW23158   0.089   1.495   5.919 -1.0139  0.1793 -0.0533
 3900SOL    HW123159   0.126   1.526   6.002  1.3986 -1.1186 -0.6253
 3900SOL    HW223160   0.065   1.583   5.891  0.0377  0.4099 -0.2379
 3901SOL     OW23161   3.549   4.410   0.518 -0.1867 -0.2175 -0.0643
 3901SOL    HW123162   3.469   4.458   0.538 -0.4762 -0.6128 -0.2840
 3901SOL    HW223163   3.620   4.453   0.566  1.5997 -2.0656 -1.0818
 3902SOL     OW23164   4.328   1.413   5.915 -0.5840 -0.3602  0.3754
 3902SOL    HW123165   4.413   1.370   5.917  0.3323  1.3761 -0.6430
 3902SOL    HW223166   4.329   1.470   5.838  4.2080  0.4581  1.0350
 3903SOL     OW23167   1.840   1.356   4.663  0.1799 -0.0140  0.1283
 3903SOL    HW123168   1.766   1.416   4.673 -1.5726 -2.2845  0.8236
 3903SOL    HW223169   1.851   1.333   4.756  1.9908  1.2340  0.2252
 3904SOL     OW23170   2.623   3.508   5.337  0.0276  0.3998  0.3129
 3904SOL    HW123171   2.679   3.553   5.399  1.5464  0.2358 -0.9451
 3904SOL    HW223172   2.674   3.428   5.321 -0.9467  0.0009 -0.8009
 3905SOL     OW23173   3.664   1.292   5.318 -0.0684  0.4653  0.0253
 3905SOL    HW123174   3.678   1.364   5.379 -1.9220  1.0641 -0.2614
 3905SOL    HW223175   3.574   1.267   5.339  0.0480  0.1458  0.1294
 3906SOL     OW23176   2.374   3.976   7.534 -0.1914  0.6014 -0.6830
 3906SOL    HW123177   2.382   3.881   7.523 -2.3655  0.4596 -1.0033
 3906SOL    HW223178   2.307   4.000   7.469  0.9066  0.5290 -1.8415
 3907SOL     OW23179   4.241   3.317   4.705 -0.1410 -0.4516  0.1682
 3907SOL    HW123180   4.222   3.387   4.643  0.4026  0.6150  1.2078
 3907SOL    HW223181   4.313   3.270   4.664  0.7853  2.0936 -1.1309
 3908SOL     OW23182   1.727   1.557   7.146  0.5092 -0.2694  0.3411
 3908SOL    HW123183   1.744   1.493   7.215 -0.7693 -1.0134 -0.0320
 3908SOL    HW223184   1.812   1.601   7.142  0.2808  0.3372  1.9989
 3909SOL     OW23185   4.412   2.731   5.934  0.1392  0.0116  0.3418
 3909SOL    HW123186   4.414   2.822   5.964 -2.8249  0.6808 -1.4549
 3909SOL    HW223187   4.339   2.694   5.984 -0.1716 -0.5067 -0.4860
 3910SOL     OW23188   1.822   0.258   5.902  0.4375 -0.4863 -0.3257
 3910SOL    HW123189   1.871   0.336   5.873  2.0190 -2.0175 -1.8061
 3910SOL    HW223190   1.876   0.217   5.969 -1.5440  0.2157  1.6971
 3911SOL     OW23191   4.070   0.298   6.281 -0.0677  0.1878 -1.0942
 3911SOL    HW123192   4.105   0.374   6.329 -0.1279  0.3702 -1.3399
 3911SOL    HW223193   4.151   0.248   6.277  0.3073  0.7919 -1.1228
 3912SOL     OW23194   0.451   3.615  14.143 -0.5308  0.0552  0.5687
 3912SOL    HW123195   0.507   3.691  14.131 -1.3023  0.8486  1.9949
 3912SOL    HW223196   0.365   3.656  14.150 -1.5901 -1.6004 -2.7980
 3913SOL     OW23197   4.337   1.436   4.840 -0.0468 -0.5248 -0.6745
 3913SOL    HW123198   4.418   1.449   4.888 -0.9184  0.6650  0.4457
 3913SOL    HW223199   4.316   1.343   4.853 -0.7914 -0.6632 -2.7420
 3914SOL     OW23200   3.506   4.084  12.790 -0.4255  0.1096  0.0691
 3914SOL    HW123201   3.487   4.176  12.812  1.6387  0.0676  2.0275
 3914SOL    HW223202   3.584   4.060  12.841 -0.0337  0.9960 -0.0966
 3915SOL     OW23203   1.804   0.806   8.429 -0.1255 -0.1076 -0.4635
 3915SOL    HW123204   1.715   0.810   8.463  0.5032  2.4948  0.8319
 3915SOL    HW223205   1.794   0.864   8.353  0.6874  0.1571 -0.3728
 3916SOL     OW23206   2.846   3.666   6.510 -0.1604 -0.4185  0.2387
 3916SOL    HW123207   2.875   3.677   6.601  0.3729 -3.3158  0.4448
 3916SOL    HW223208   2.893   3.739   6.471  0.5746 -1.0690 -0.0870
 3917SOL     OW23209   0.468   3.268  11.351  0.1161 -0.0489 -0.6522
 3917SOL    HW123210   0.539   3.325  11.325 -1.2282  2.5074  1.3437
 3917SOL    HW223211   0.410   3.272  11.275 -2.0760 -1.7593  0.8869
 3918SOL     OW23212   0.601   4.319   5.359 -0.1971 -0.7591 -0.2014
 3918SOL    HW123213   0.572   4.251   5.298  0.4339 -1.3169  0.1143
 3918SOL    HW223214   0.563   4.281   5.439 -1.0635  1.2864  0.3461
 3919SOL     OW23215   4.373   0.574   3.637 -0.3325  0.2914 -0.0953
 3919SOL    HW123216   4.332   0.649   3.595  0.7925  1.4017  0.7891
 3919SOL    HW223217   4.459   0.574   3.593 -0.8247 -0.1688 -1.0535
 3920SOL     OW23218   4.191   3.434   6.961 -0.1413 -0.1715  0.3472
 3920SOL    HW123219   4.145   3.407   7.041  1.6212 -2.8343  0.4658
 3920SOL    HW223220   4.179   3.529   6.962  0.1050 -0.1481  2.3986
 3921SOL     OW23221   4.163   0.385   8.708  0.1767 -0.5070  0.1308
 3921SOL    HW123222   4.162   0.320   8.778 -1.7827 -1.8587 -1.1587
 3921SOL    HW223223   4.253   0.375   8.676  1.0894 -0.1478  2.6455
 3922SOL     OW23224   3.204   0.876   9.227  0.8043 -0.0435  0.5373
 3922SOL    HW123225   3.111   0.894   9.240  0.5508 -0.0808 -1.2855
 3922SOL    HW223226   3.192   0.781   9.218 -2.4552  0.3596  0.5512
 3923SOL     OW23227   1.108   1.359   6.260  0.3560  0.1846 -0.4510
 3923SOL    HW123228   1.019   1.370   6.295  0.7585 -1.0686  0.9893
 3923SOL    HW223229   1.148   1.443   6.283  1.2685 -0.3245 -0.1798
 3924SOL     OW23230   3.615   0.981   9.341  0.0751 -0.2136  0.1456
 3924SOL    HW123231   3.640   1.044   9.409  2.5013 -1.9053  0.7992
 3924SOL    HW223232   3.699   0.973   9.295  0.1350 -3.2434  0.8500
 3925SOL     OW23233   3.387   2.977  10.077 -0.1279 -0.5450 -0.3966
 3925SOL    HW123234   3.470   2.936  10.103  1.5876  3.4216  0.4020
 3925SOL    HW223235   3.321   2.950  10.141 -0.7362  2.6533  0.3022
 3926SOL     OW23236   1.703   3.229   5.637  0.1506 -0.3659 -0.1931
 3926SOL    HW123237   1.740   3.169   5.572 -2.0818 -1.9190 -0.0218
 3926SOL    HW223238   1.781   3.271   5.673 -0.0986 -0.3055  0.2783
 3927SOL     OW23239   1.371   3.487   3.827 -0.7513  0.2658  0.2509
 3927SOL    HW123240   1.296   3.428   3.832 -1.3540  0.8809 -1.5479
 3927SOL    HW223241   1.407   3.482   3.915  0.4497 -1.4188 -0.3441
 3928SOL     OW23242   4.268   2.767  13.156  0.2576 -0.6643 -0.4409
 3928SOL    HW123243   4.358   2.740  13.135  0.4590 -0.9180  0.7229
 3928SOL    HW223244   4.231   2.755  13.069  0.4860  0.7486 -0.7350
 3929SOL     OW23245   2.336   1.425   8.074  0.4985 -0.2508 -0.5863
 3929SOL    HW123246   2.419   1.458   8.108  0.7190 -2.1022  0.6323
 3929SOL    HW223247   2.345   1.332   8.091  1.9794 -0.1672 -0.8647
 3930SOL     OW23248   3.431   1.052   2.034  0.0146  0.6730 -0.5345
 3930SOL    HW123249   3.378   0.981   1.998  1.9108 -0.3455 -1.3765
 3930SOL    HW223250   3.373   1.112   2.080  0.2695 -1.0920  2.1131
 3931SOL     OW23251   2.987   0.731   2.946  0.0491 -0.7342 -0.4118
 3931SOL    HW123252   3.050   0.732   2.875 -1.4262 -1.2469 -1.7197
 3931SOL    HW223253   3.024   0.654   2.989  0.6323 -0.1742  0.1045
 3932SOL     OW23254   4.072   3.120  13.720  0.0752  0.2060 -0.1949
 3932SOL    HW123255   4.159   3.140  13.755 -0.3295 -1.2269  1.5752
 3932SOL    HW223256   4.091   3.071  13.640  2.9249  1.9665 -0.6201
 3933SOL     OW23257   1.842   0.248   8.102 -0.0141  0.4525 -0.6021
 3933SOL    HW123258   1.903   0.218   8.170 -0.5947 -0.4683 -0.4997
 3933SOL    HW223259   1.820   0.332   8.143  0.3868  0.9597 -1.4317
 3934SOL     OW23260   2.708   0.691  11.387 -0.7241 -0.4805 -0.0225
 3934SOL    HW123261   2.736   0.779  11.363  0.5228 -0.6893  0.6492
 3934SOL    HW223262   2.626   0.709  11.431  0.2068 -0.6188  1.7606
 3935SOL     OW23263   2.235   0.752   2.354 -0.3830  0.0949 -0.3981
 3935SOL    HW123264   2.263   0.818   2.418  1.3730 -1.2777  0.2650
 3935SOL    HW223265   2.319   0.706   2.359 -0.5889 -0.3155 -0.7986
 3936SOL     OW23266   0.030   0.527   1.499 -0.1501  0.3301 -0.2710
 3936SOL    HW123267   0.064   0.495   1.416  1.3089 -1.4595  0.9937
 3936SOL    HW223268   0.104   0.494   1.550  0.0115  3.4587  1.5372
 3937SOL     OW23269   0.245   2.582   3.701 -0.6609 -0.0536 -0.0675
 3937SOL    HW123270   0.161   2.547   3.731 -1.0971  0.9430 -0.1172
 3937SOL    HW223271   0.239   2.571   3.607  1.1725 -0.5373 -0.1136
 3938SOL     OW23272   3.231   3.879  10.453  0.5314  0.2450 -0.0843
 3938SOL    HW123273   3.303   3.941  10.467  0.4186  0.5960 -1.0674
 3938SOL    HW223274   3.154   3.923  10.489 -0.3050 -0.9042 -0.4980
 3939SOL     OW23275   1.197   4.454   5.376 -0.3191 -0.7069 -0.4675
 3939SOL    HW123276   1.270   4.470   5.317  0.0790  3.7802  1.2627
 3939SOL    HW223277   1.172   4.539   5.412 -1.9373 -1.6780  0.7234
 3940SOL     OW23278   2.494   1.112   2.725 -0.4515 -0.6018 -0.1703
 3940SOL    HW123279   2.476   1.198   2.763 -2.5789 -1.2759  0.3417
 3940SOL    HW223280   2.475   1.053   2.797  2.4024 -1.0717  0.1944
 3941SOL     OW23281   2.360   1.352   5.335  0.3182 -0.4167  0.6778
 3941SOL    HW123282   2.269   1.350   5.365 -0.3122 -0.3776 -1.2089
 3941SOL    HW223283   2.368   1.259   5.316  1.7134  0.1975 -1.8075
 3942SOL     OW23284   1.871   3.573   9.078 -0.4495 -0.3342  0.1571
 3942SOL    HW123285   1.893   3.498   9.133  1.4563 -0.4603 -0.7784
 3942SOL    HW223286   1.911   3.545   8.996  0.5075 -0.2195  0.5802
 3943SOL     OW23287   2.981   1.319   8.511  0.4409  0.2903  0.1647
 3943SOL    HW123288   3.074   1.325   8.489  0.5365  1.4612  0.8866
 3943SOL    HW223289   2.986   1.234   8.555  0.6593  0.0094 -0.3874
 3944SOL     OW23290   1.024   3.104   7.694  0.1684  0.0219  0.5565
 3944SOL    HW123291   0.944   3.140   7.733 -1.6853 -0.5120 -2.6972
 3944SOL    HW223292   1.057   3.182   7.650  1.8394 -0.5691  0.7492
 3945SOL     OW23293   3.022   2.918   5.453  0.5112  0.2309 -0.3452
 3945SOL    HW123294   3.057   2.990   5.505  0.0667  1.7740 -2.1507
 3945SOL    HW223295   2.956   2.885   5.514  1.2741  0.2898  0.5029
 3946SOL     OW23296   0.751   1.228   1.781  0.3674  0.3229  0.1940
 3946SOL    HW123297   0.706   1.248   1.700  1.0886  0.8688 -0.0690
 3946SOL    HW223298   0.674   1.191   1.824 -0.2377  0.7697 -0.5146
 3947SOL     OW23299   4.007   1.342   3.052 -0.5298  0.1209 -0.0953
 3947SOL    HW123300   3.954   1.271   3.089 -0.2790  1.0502  2.0692
 3947SOL    HW223301   4.036   1.292   2.976 -0.0222  2.5903 -1.5192
 3948SOL     OW23302   4.296   1.868  12.239  0.8062  0.0900 -0.1585
 3948SOL    HW123303   4.226   1.856  12.303 -0.7870  0.0223 -1.9036
 3948SOL    HW223304   4.325   1.954  12.269  3.8008 -0.0584 -2.6231
 3949SOL     OW23305   1.012   3.460  12.207  0.0165  0.1402 -0.2300
 3949SOL    HW123306   1.066   3.386  12.234 -0.3045 -0.1346 -0.3310
 3949SOL    HW223307   0.959   3.480  12.285 -0.0862  0.4839 -0.3859
 3950SOL     OW23308   4.492   3.535   1.131 -0.8222 -0.0897 -0.0993
 3950SOL    HW123309   4.507   3.608   1.192  0.4623  0.2012 -0.7649
 3950SOL    HW223310   4.565   3.552   1.071 -0.7826 -0.3833 -0.1310
 3951SOL     OW23311   4.714   0.313   4.138  0.2085  0.4236 -0.0558
 3951SOL    HW123312   4.696   0.334   4.229  1.0609  0.0082  0.2068
 3951SOL    HW223313   4.662   0.374   4.085  1.6841 -1.6281 -3.8833
 3952SOL     OW23314   2.291   0.675   8.641 -0.0729  0.1931  0.6068
 3952SOL    HW123315   2.266   0.636   8.557 -4.0410  0.2487  1.7633
 3952SOL    HW223316   2.222   0.741   8.647 -0.9102 -0.4266 -2.2697
 3953SOL     OW23317   4.530   3.484   0.131 -0.0386  0.1110 -0.1181
 3953SOL    HW123318   4.622   3.476   0.104  0.1474  2.7972 -0.2962
 3953SOL    HW223319   4.530   3.435   0.214 -1.7273 -2.4363 -1.6257
 3954SOL     OW23320   2.234   2.087   5.713  0.1548  0.5222 -0.1512
 3954SOL    HW123321   2.245   2.175   5.676  0.5866  1.2527  1.7217
 3954SOL    HW223322   2.267   2.098   5.802 -2.3979  1.0112  0.7577
 3955SOL     OW23323   4.472   0.170   6.524  0.3310  1.1314 -0.4534
 3955SOL    HW123324   4.489   0.128   6.608  2.1292  2.6807 -0.0412
 3955SOL    HW223325   4.483   0.263   6.543 -0.6790  1.1374  0.1394
 3956SOL     OW23326   0.783   3.967  17.401  0.6612 -0.1657 -0.1049
 3956SOL    HW123327   0.824   3.892  17.359 -1.7575 -1.4948 -0.0971
 3956SOL    HW223328   0.790   4.039  17.339 -1.0425 -0.7296 -0.9731
 3957SOL     OW23329   2.105   4.302  17.458 -0.5645 -0.0625 -0.2533
 3957SOL    HW123330   2.052   4.360  17.512  1.8764  1.2184  0.7680
 3957SOL    HW223331   2.173   4.270  17.517 -1.2841  0.6002  0.9315
 3958SOL     OW23332   4.091   0.786   2.734 -0.9229 -0.5346 -0.1524
 3958SOL    HW123333   4.133   0.824   2.811 -0.9886 -2.2417  0.7120
 3958SOL    HW223334   4.005   0.759   2.766 -2.0410  1.6608 -1.2667
 3959SOL     OW23335   1.661   3.625   2.021  0.5872  0.0150  0.7565
 3959SOL    HW123336   1.577   3.616   2.066  0.4282  0.4900  0.5616
 3959SOL    HW223337   1.680   3.718   2.034  0.9702  0.2865 -1.6976
 3960SOL     OW23338   0.306   1.449   5.784 -0.4359  0.0467  0.2158
 3960SOL    HW123339   0.274   1.482   5.700 -2.0042 -1.9437  0.0517
 3960SOL    HW223340   0.229   1.443   5.839  0.1637  0.2203  1.0716
 3961SOL     OW23341   0.966   3.680  16.758 -0.0383  0.6971  0.1526
 3961SOL    HW123342   0.899   3.647  16.698  0.7149  1.7720 -1.2789
 3961SOL    HW223343   1.021   3.605  16.779  2.2858  0.9547 -4.9981
 3962SOL     OW23344   1.466   2.726  13.394  0.2772  0.3847  0.0635
 3962SOL    HW123345   1.375   2.735  13.421  0.3872 -0.5126  0.7370
 3962SOL    HW223346   1.465   2.747  13.301 -2.6641 -2.3477 -0.4951
 3963SOL     OW23347   4.590   2.857   3.307 -0.3051  0.4845  0.0220
 3963SOL    HW123348   4.516   2.878   3.251 -0.6963  0.7945  0.6620
 3963SOL    HW223349   4.661   2.913   3.273  0.7941 -0.9459 -0.0461
 3964SOL     OW23350   3.276   4.350   7.894  0.4238  0.3752  0.1016
 3964SOL    HW123351   3.187   4.348   7.857  0.3900  1.2419  0.1409
 3964SOL    HW223352   3.320   4.420   7.847  1.3904 -1.0402 -1.1261
 3965SOL     OW23353   1.898   2.719   7.951  0.1136 -0.3554 -0.1261
 3965SOL    HW123354   1.817   2.668   7.963 -0.3817  0.3390 -0.5580
 3965SOL    HW223355   1.923   2.684   7.866  0.2907 -0.6493  0.0460
 3966SOL     OW23356   3.831   2.457   2.062 -0.2448 -0.1666  0.0530
 3966SOL    HW123357   3.762   2.396   2.034 -0.9911  1.0656 -0.8093
 3966SOL    HW223358   3.800   2.537   2.019 -2.8087 -0.5063  1.2467
 3967SOL     OW23359   0.868   3.001   7.480 -0.4975  0.0059 -0.3197
 3967SOL    HW123360   0.793   2.959   7.522 -0.4392  1.1664  0.9627
 3967SOL    HW223361   0.908   2.929   7.432  0.6651 -0.3630  1.1984
 3968SOL     OW23362   2.439   1.586   6.123  0.4377 -0.0933  0.3392
 3968SOL    HW123363   2.396   1.525   6.182  0.8621  0.0364  0.7760
 3968SOL    HW223364   2.365   1.613   6.068  0.1677 -1.1777  0.1778
 3969SOL     OW23365   3.399   0.981   8.284  0.1284 -0.4988 -0.0256
 3969SOL    HW123366   3.306   0.986   8.306  0.2632 -2.9681  1.1527
 3969SOL    HW223367   3.392   0.989   8.189 -2.4565  0.7830  0.2786
 3970SOL     OW23368   0.519   2.982  16.194  0.2513  0.0980 -0.3719
 3970SOL    HW123369   0.582   2.927  16.148 -0.7757  0.1478 -1.8271
 3970SOL    HW223370   0.486   2.916  16.255 -0.7192 -1.2164 -2.3240
 3971SOL     OW23371   0.377   1.947  16.103 -0.0669 -0.5788  0.4519
 3971SOL    HW123372   0.382   1.992  16.019 -0.7370 -1.5866 -0.1216
 3971SOL    HW223373   0.312   2.004  16.145  1.6085  1.5320  0.1994
 3972SOL     OW23374   0.557   0.449   3.504 -0.0778 -0.1532 -0.4797
 3972SOL    HW123375   0.535   0.361   3.471 -0.6469  0.4198 -1.6424
 3972SOL    HW223376   0.563   0.422   3.596  2.0427 -0.0441 -0.6000
 3973SOL     OW23377   1.104   2.730   6.486  0.2061  0.4759  0.6904
 3973SOL    HW123378   1.121   2.682   6.567  0.8383  1.1063  0.9228
 3973SOL    HW223379   1.008   2.730   6.485  0.2328  0.0476 -1.5803
 3974SOL     OW23380   0.675   2.489  17.673  0.1121  0.4296 -0.5281
 3974SOL    HW123381   0.658   2.583  17.676 -1.6399 -0.0145  2.9109
 3974SOL    HW223382   0.667   2.463   0.068  1.6621  3.5095  0.5052
 3975SOL     OW23383   0.800   2.745   3.069 -0.1687  0.2704 -0.0445
 3975SOL    HW123384   0.798   2.689   2.991 -0.8314 -0.3044  0.3828
 3975SOL    HW223385   0.892   2.769   3.068  0.2165 -1.1137  1.0869
 3976SOL     OW23386   2.692   0.463   6.778  0.1612 -0.4152  0.1860
 3976SOL    HW123387   2.659   0.488   6.865  0.7117  0.2320  0.2080
 3976SOL    HW223388   2.651   0.529   6.723 -0.5846 -2.6278 -1.9014
 3977SOL     OW23389   3.455   0.925  11.089 -0.0281 -0.0718  0.1575
 3977SOL    HW123390   3.470   1.005  11.139  1.4214 -0.2994  0.0980
 3977SOL    HW223391   3.545   0.895  11.075 -0.6749 -2.3188  0.7846
 3978SOL     OW23392   3.831   2.335   6.511 -0.0757 -0.3178 -0.1054
 3978SOL    HW123393   3.744   2.346   6.549 -0.5902 -1.4535 -0.9439
 3978SOL    HW223394   3.879   2.351   6.592  0.7895 -2.2883 -0.2259
 3979SOL     OW23395   4.423   0.743   6.044  0.6321 -0.3615  0.0349
 3979SOL    HW123396   4.406   0.829   6.004 -0.9374 -0.8507 -0.3488
 3979SOL    HW223397   4.415   0.680   5.972 -0.1766 -2.5191  2.0221
 3980SOL     OW23398   2.605   1.799   4.472  0.4616  0.1014  0.2803
 3980SOL    HW123399   2.540   1.791   4.542  0.1044  0.0227 -0.0593
 3980SOL    HW223400   2.637   1.711   4.451 -0.4732 -0.4224  1.0707
 3981SOL     OW23401   1.112   3.532   4.383  0.4600 -0.2516 -0.6380
 3981SOL    HW123402   1.022   3.566   4.381  0.8976  0.9615  0.0769
 3981SOL    HW223403   1.153   3.616   4.404 -2.8520  1.0844  0.3940
 3982SOL     OW23404   0.969   0.636   9.133  0.4724 -0.3047 -0.1665
 3982SOL    HW123405   0.948   0.688   9.211 -1.7994 -1.2199 -0.1518
 3982SOL    HW223406   0.885   0.591   9.119 -0.1912  0.8058  0.1659
 3983SOL     OW23407   3.406   4.686   1.797 -0.2631  0.6887 -0.9423
 3983SOL    HW123408   3.410   4.627   1.721  0.6062  0.0389 -0.3903
 3983SOL    HW223409   3.427   4.624   1.866 -1.0275  1.6941  0.1957
 3984SOL     OW23410   1.363   2.878   6.999 -0.6021  0.1266  0.2898
 3984SOL    HW123411   1.343   2.829   7.078 -0.0803 -0.5769 -0.0205
 3984SOL    HW223412   1.424   2.821   6.952 -1.3470 -0.7247  0.3560
 3985SOL     OW23413   2.432   4.137   2.585 -0.0776 -0.5981 -0.6408
 3985SOL    HW123414   2.516   4.154   2.543 -0.8954  3.7037 -0.5809
 3985SOL    HW223415   2.455   4.095   2.668  3.2428  0.5433 -1.0081
 3986SOL     OW23416   0.398   3.565   6.842 -0.2885  0.0161  0.1918
 3986SOL    HW123417   0.358   3.529   6.763  0.6235  1.2717 -0.8253
 3986SOL    HW223418   0.344   3.642   6.858 -0.5253  0.2794 -2.0073
 3987SOL     OW23419   0.784   4.575  12.018 -0.0585  0.1375 -0.2820
 3987SOL    HW123420   0.833   4.609  11.944  2.3352 -0.2004  1.1566
 3987SOL    HW223421   0.747   4.490  11.993 -1.2773  0.7395 -0.5242
 3988SOL     OW23422   1.266   3.057   7.875  1.1923 -0.1477 -0.4678
 3988SOL    HW123423   1.193   3.099   7.828  0.8862 -0.6328 -0.4220
 3988SOL    HW223424   1.282   3.123   7.942 -1.5086  1.4419 -1.3885
 3989SOL     OW23425   1.941   0.799   0.824  0.5217 -0.6010  0.6527
 3989SOL    HW123426   1.901   0.884   0.802 -1.2102 -1.4941  0.3011
 3989SOL    HW223427   1.937   0.808   0.919  0.7164 -0.2924  0.6332
 3990SOL     OW23428   4.203   3.914   2.017 -0.3153 -0.1348  0.3720
 3990SOL    HW123429   4.287   3.885   2.054  0.5140 -1.3619 -2.5020
 3990SOL    HW223430   4.206   4.010   2.027 -0.1235  0.1248 -2.2514
 3991SOL     OW23431   2.496   0.666   7.386  0.3357 -0.0863 -0.1698
 3991SOL    HW123432   2.418   0.612   7.376  0.8933 -0.7998 -0.7233
 3991SOL    HW223433   2.556   0.626   7.450  0.0576 -0.7876 -0.3463
 3992SOL     OW23434   1.955   3.600   3.585 -0.3611  0.0916  0.2760
 3992SOL    HW123435   2.049   3.595   3.602 -0.0181 -3.3308 -2.6225
 3992SOL    HW223436   1.952   3.680   3.533 -1.2372 -1.5421 -2.2003
 3993SOL     OW23437   4.327   2.401   5.886 -0.2443  0.0469  0.0205
 3993SOL    HW123438   4.259   2.467   5.879  0.2953  0.6018 -0.0067
 3993SOL    HW223439   4.290   2.335   5.828 -0.5426  0.5404 -0.3520
 3994SOL     OW23440   2.143   3.125   6.952  0.2458 -0.1575 -0.6308
 3994SOL    HW123441   2.161   3.150   6.861  2.6390 -1.2787 -0.4571
 3994SOL    HW223442   2.060   3.078   6.948 -0.9323  1.8427  0.1932
 3995SOL     OW23443   2.081   0.713   1.437  0.4564  0.4632  0.4068
 3995SOL    HW123444   2.114   0.760   1.360  0.1436 -1.7165 -1.0306
 3995SOL    HW223445   2.069   0.631   1.389 -0.3041  0.7551  0.0914
 3996SOL     OW23446   3.307   2.658   6.361  0.2769  0.1005 -0.2497
 3996SOL    HW123447   3.290   2.740   6.315  0.5662 -0.2767 -1.0426
 3996SOL    HW223448   3.237   2.599   6.333 -0.5282  1.8382 -1.8592
 3997SOL     OW23449   4.274   2.375   7.243 -0.3385  0.1779 -0.1728
 3997SOL    HW123450   4.194   2.329   7.269 -0.1213  0.6392  1.2813
 3997SOL    HW223451   4.240   2.419   7.165  0.5139  1.2609  0.0606
 3998SOL     OW23452   0.179   3.412   4.304 -0.0086  1.0262  0.0223
 3998SOL    HW123453   0.114   3.475   4.276  1.5945  1.9999 -1.5355
 3998SOL    HW223454   0.224   3.445   4.382  0.6384 -0.0615  0.1106
 3999SOL     OW23455   4.357   4.459   0.168  0.1158 -0.8815 -0.0795
 3999SOL    HW123456   4.328   4.463   0.259 -1.1159  0.4686 -0.5302
 3999SOL    HW223457   4.450   4.449   0.186  0.0255 -0.0596  0.8294
 4000SOL     OW23458   1.467   3.843   3.368 -0.9555  0.5111  0.3232
 4000SOL    HW123459   1.446   3.926   3.410 -0.0737  1.2969 -0.7966
 4000SOL    HW223460   1.497   3.794   3.445  0.4014 -1.2686 -1.3386
 4001SOL     OW23461   3.371   2.871  11.113 -0.4655  0.3350  0.1554
 4001SOL    HW123462   3.388   2.921  11.033  1.1650 -2.7774 -1.4615
 4001SOL    HW223463   3.455   2.828  11.122 -0.6694 -0.6306 -2.3400
 4002SOL     OW23464   2.631   1.209  15.735  0.0512  0.9242 -0.0557
 4002SOL    HW123465   2.559   1.212  15.798 -1.9194  0.3566 -2.2943
 4002SOL    HW223466   2.679   1.287  15.765  0.7394  0.0887  1.0144
 4003SOL     OW23467   3.738   3.123   5.367 -0.2421  0.2310 -0.4537
 4003SOL    HW123468   3.691   3.191   5.413 -0.9890 -1.3426  1.0936
 4003SOL    HW223469   3.695   3.041   5.391 -2.3355  0.9739 -1.6650
 4004SOL     OW23470   2.705   1.086   7.291  0.0013 -0.2786 -0.2348
 4004SOL    HW123471   2.786   1.034   7.285 -0.2838 -0.7244 -0.2724
 4004SOL    HW223472   2.726   1.153   7.226  0.4005 -1.0733 -0.9356
 4005SOL     OW23473   2.471   3.255   5.498 -0.5907  0.0387  0.2152
 4005SOL    HW123474   2.428   3.173   5.522 -0.1504 -0.0371  0.7446
 4005SOL    HW223475   2.557   3.213   5.507 -0.1725  0.5699 -1.2071
 4006SOL     OW23476   1.629   2.572   8.348  0.2821  0.1414 -0.2828
 4006SOL    HW123477   1.664   2.574   8.437  1.3250  0.0567 -0.6911
 4006SOL    HW223478   1.565   2.501   8.352  0.2738  0.1597 -0.0958
 4007SOL     OW23479   1.343   4.153   4.065 -0.2020  0.5733  0.5366
 4007SOL    HW123480   1.278   4.220   4.050 -1.0843 -1.0891 -3.0926
 4007SOL    HW223481   1.371   4.176   4.154  0.8337 -1.7787  0.8367
 4008SOL     OW23482   1.734   3.542   5.209  0.0426  0.0434  0.0467
 4008SOL    HW123483   1.740   3.635   5.190 -1.3311  0.3201  0.9135
 4008SOL    HW223484   1.666   3.517   5.146 -0.0899 -0.8306  0.5243
 4009SOL     OW23485   0.619   4.065  11.829  0.0713  0.1733 -0.2944
 4009SOL    HW123486   0.543   4.016  11.797 -0.8072  0.3918  1.4508
 4009SOL    HW223487   0.690   4.036  11.772  1.4589  0.4534  1.2877
 4010SOL     OW23488   3.248   0.624   3.727  0.3410  0.3565  0.0576
 4010SOL    HW123489   3.297   0.579   3.795  2.7067  2.7633 -0.0770
 4010SOL    HW223490   3.319   0.647   3.667  0.0917 -1.7703 -1.0783
 4011SOL     OW23491   2.382   0.169  13.279 -0.4761 -0.2514 -0.2310
 4011SOL    HW123492   2.388   0.093  13.337  2.6108  0.8484  0.9224
 4011SOL    HW223493   2.338   0.121  13.209  0.6874 -2.8066  0.7801
 4012SOL     OW23494   4.072   3.822   0.496  0.1873  0.2471 -0.7223
 4012SOL    HW123495   4.055   3.842   0.589  1.3705 -1.1314 -0.2150
 4012SOL    HW223496   4.136   3.892   0.482  0.4416  0.1849  0.0836
 4013SOL     OW23497   4.592   1.839   3.856  0.8903  0.7751 -0.0195
 4013SOL    HW123498   4.510   1.839   3.905  0.2508 -1.3346 -1.0964
 4013SOL    HW223499   4.555   1.832   3.768 -1.1652 -2.8596  1.1611
 4014SOL     OW23500   4.153   1.326   0.401 -0.3928 -0.1454  0.0384
 4014SOL    HW123501   4.248   1.324   0.416 -0.1174  1.8636 -1.4581
 4014SOL    HW223502   4.113   1.323   0.488 -0.1226  1.8966  0.2559
 4015SOL     OW23503   4.548   3.879  11.374  0.0784 -0.0022  0.0605
 4015SOL    HW123504   4.643   3.884  11.365 -0.2267  3.2682 -1.3695
 4015SOL    HW223505   4.540   3.783  11.378  1.5232 -0.0554  1.3038
 4016SOL     OW23506   3.328   4.570   3.171  0.1203 -0.7477 -0.0519
 4016SOL    HW123507   3.259   4.572   3.105  0.8418 -0.6922 -0.8061
 4016SOL    HW223508   3.342   4.663   3.185  0.4030 -1.1530  2.2953
 4017SOL     OW23509   1.782   3.901   2.214  0.1246 -0.3788 -0.3072
 4017SOL    HW123510   1.687   3.898   2.226  0.3030 -0.6103  1.0623
 4017SOL    HW223511   1.805   3.835   2.280 -0.9893  1.4773  1.9503
 4018SOL     OW23512   2.002   4.497   0.804  0.1717  0.2226  0.1766
 4018SOL    HW123513   1.994   4.549   0.884  2.5013 -1.0930  1.2481
 4018SOL    HW223514   1.937   4.429   0.826  0.2422 -0.8421 -2.9074
 4019SOL     OW23515   3.210   1.165  10.914 -0.2579 -0.1497 -0.4857
 4019SOL    HW123516   3.230   1.092  10.855 -0.6390 -1.4465  0.9859
 4019SOL    HW223517   3.149   1.126  10.977 -0.5973 -0.5879 -1.0861
 4020SOL     OW23518   0.223   3.834   6.526 -0.1094 -0.9574  0.2483
 4020SOL    HW123519   0.259   3.796   6.606 -0.0691 -0.0003  0.6741
 4020SOL    HW223520   0.190   3.754   6.483  0.0081 -1.2809  0.7609
 4021SOL     OW23521   0.144   2.954   6.653  0.1724  0.6551  0.4433
 4021SOL    HW123522   0.114   2.920   6.568 -0.2628  2.2045 -0.0151
 4021SOL    HW223523   0.205   3.020   6.620  2.6697 -0.7662  2.1906
 4022SOL     OW23524   2.810   2.634   2.690 -0.1419  0.3914 -0.0217
 4022SOL    HW123525   2.886   2.602   2.642 -0.1583  0.8538 -0.3641
 4022SOL    HW223526   2.750   2.649   2.617 -0.2056  0.2884  0.0098
 4023SOL     OW23527   0.782   2.630  13.450  0.0465  0.5352 -0.0978
 4023SOL    HW123528   0.704   2.577  13.464  0.7701  0.1301  2.4199
 4023SOL    HW223529   0.798   2.599  13.361  2.7551 -1.5959  1.1463
 4024SOL     OW23530   0.898   4.439  15.957 -0.3433 -0.0518 -0.1114
 4024SOL    HW123531   0.960   4.496  15.912 -3.4664  2.6342 -0.9455
 4024SOL    HW223532   0.851   4.500  16.014 -1.5427  0.3538 -1.5664
 4025SOL     OW23533   3.618   1.281  12.206  0.4168  0.6215 -0.2856
 4025SOL    HW123534   3.626   1.200  12.155  0.5134 -0.9478  2.2340
 4025SOL    HW223535   3.622   1.335  12.128  1.9272  0.8086 -0.0766
 4026SOL     OW23536   3.364   2.763   8.402 -0.1751  0.2203  0.6708
 4026SOL    HW123537   3.344   2.857   8.409  2.9379  0.7546  2.6575
 4026SOL    HW223538   3.383   2.762   8.309  0.6045 -0.9591  0.8452
 4027SOL     OW23539   2.238   2.751   8.222  0.0122  0.4141 -0.1050
 4027SOL    HW123540   2.163   2.804   8.193  0.3897 -0.6797 -3.0524
 4027SOL    HW223541   2.290   2.813   8.273 -1.3869  0.8637  0.7714
 4028SOL     OW23542   1.903   2.730   7.265 -0.1581  0.7510  0.1687
 4028SOL    HW123543   1.942   2.800   7.317 -0.7904  0.8646  0.4912
 4028SOL    HW223544   1.855   2.689   7.337 -0.2165  0.8149  0.1667
 4029SOL     OW23545   4.668   2.947  10.473 -0.0198 -0.1971 -0.0311
 4029SOL    HW123546   4.640   2.927  10.384 -1.6786 -0.9907  0.6666
 4029SOL    HW223547   4.600   2.899  10.520  0.5189 -1.1709 -0.2587
 4030SOL     OW23548   3.299   3.300   4.412  0.0242  0.4042  0.1322
 4030SOL    HW123549   3.253   3.232   4.363  2.1129 -0.0722 -1.1746
 4030SOL    HW223550   3.276   3.382   4.370  0.4110  1.0683  1.2232
 4031SOL     OW23551   2.285   1.409   3.059 -0.2883 -0.1387  0.2368
 4031SOL    HW123552   2.225   1.339   3.035 -1.9955  1.3580  0.1468
 4031SOL    HW223553   2.222   1.473   3.093  1.3362  0.6117  1.8822
 4032SOL     OW23554   4.438   0.293   9.061  0.0762  0.0707 -0.4618
 4032SOL    HW123555   4.475   0.231   9.124  0.3208  0.0196 -0.6594
 4032SOL    HW223556   4.513   0.337   9.022  0.4592 -0.6941 -0.5796
 4033SOL     OW23557   0.706   1.702  11.209  0.3717 -0.3378  0.4538
 4033SOL    HW123558   0.696   1.796  11.198 -0.1652 -0.4813 -0.2596
 4033SOL    HW223559   0.683   1.672  11.121  1.9528 -2.6867  0.8486
 4034SOL     OW23560   3.932   4.680  16.035 -0.0909 -0.0152  0.0932
 4034SOL    HW123561   3.886   4.653  15.956 -0.3855  0.3158  0.1484
 4034SOL    HW223562   3.983   4.600  16.043  0.3069  0.5038  2.5896
 4035SOL     OW23563   1.020   0.687   2.070 -0.3247  0.2621 -0.0383
 4035SOL    HW123564   0.993   0.640   1.992  0.8772 -0.2946 -0.1179
 4035SOL    HW223565   1.049   0.613   2.124  0.5702  0.7375  0.1307
 4036SOL     OW23566   1.511   1.151   2.171  0.5520 -0.7020 -0.2902
 4036SOL    HW123567   1.424   1.111   2.161 -0.1932  1.2984 -1.8214
 4036SOL    HW223568   1.492   1.232   2.218  5.9644 -0.3608  1.2912
 4037SOL     OW23569   4.720   1.305  10.597  0.5543  0.8980 -0.3745
 4037SOL    HW123570   4.684   1.284  10.511  0.6791 -0.3778 -0.1079
 4037SOL    HW223571   0.076   1.347  10.566  0.8416  0.2255 -0.5201
 4038SOL     OW23572   2.496   0.302   9.298 -0.2746 -0.0343  0.4503
 4038SOL    HW123573   2.512   0.348   9.381  1.6290 -1.9259  1.1157
 4038SOL    HW223574   2.475   0.215   9.331  0.3849 -0.2903  0.1858
 4039SOL     OW23575   3.557   4.399   8.382  0.7464 -0.0804  0.1865
 4039SOL    HW123576   3.517   4.313   8.372  0.7861 -0.1706  0.7754
 4039SOL    HW223577   3.498   4.449   8.326  0.7351  1.4819  1.5944
 4040SOL     OW23578   4.325   1.902   8.156 -0.5015  0.3204 -0.1700
 4040SOL    HW123579   4.342   1.877   8.247  0.9824 -1.8677 -1.0675
 4040SOL    HW223580   4.413   1.923   8.126 -0.2685 -0.2039  0.1588
 4041SOL     OW23581   0.178   1.694   8.801 -0.3907  0.4516 -0.5226
 4041SOL    HW123582   0.234   1.771   8.788 -2.0007  1.6912 -0.1516
 4041SOL    HW223583   0.094   1.731   8.828 -0.0685  1.1510 -0.4805
 4042SOL     OW23584   0.900   0.125   6.624 -0.1199 -0.1602 -0.2279
 4042SOL    HW123585   0.960   0.083   6.685 -2.0926  0.8356  2.4218
 4042SOL    HW223586   0.814   0.098   6.656  0.0296 -2.8143 -2.0555
 4043SOL     OW23587   2.338   2.733   8.667  0.2123  0.0670 -0.2348
 4043SOL    HW123588   2.300   2.814   8.701 -1.3038 -0.9296  0.3821
 4043SOL    HW223589   2.273   2.704   8.603 -0.2919  1.4056 -0.3454
 4044SOL     OW23590   1.675   3.170   4.684 -0.7330  0.3885 -0.8470
 4044SOL    HW123591   1.622   3.147   4.609 -0.9547 -2.4137  0.1774
 4044SOL    HW223592   1.750   3.201   4.633 -0.4857 -0.0049 -0.7227
 4045SOL     OW23593   3.482   1.351   3.543  0.3440 -0.6165 -0.3438
 4045SOL    HW123594   3.413   1.371   3.606  0.4924  1.7254 -0.9075
 4045SOL    HW223595   3.431   1.316   3.470  0.7527 -0.6898 -0.5995
 4046SOL     OW23596   1.456   0.854   4.283  0.3025  0.3684 -0.4830
 4046SOL    HW123597   1.515   0.873   4.210  2.3295 -1.0770  0.7860
 4046SOL    HW223598   1.494   0.926   4.335  3.6610 -0.9562 -1.1380
 4047SOL     OW23599   0.369   3.130   4.631  0.1642  0.5223 -0.1703
 4047SOL    HW123600   0.352   3.220   4.657 -1.3229  0.4477 -0.8498
 4047SOL    HW223601   0.431   3.147   4.560 -2.7091  1.7468 -2.3957
 4048SOL     OW23602   1.788   3.318  17.372  0.6366 -0.0005  0.1445
 4048SOL    HW123603   1.807   3.278  17.287  0.3929 -2.2384  1.1580
 4048SOL    HW223604   1.726   3.264  17.421 -1.4625  1.9599 -0.3478
 4049SOL     OW23605   1.488   0.300   7.076  0.9495 -0.3467  1.1182
 4049SOL    HW123606   1.529   0.301   6.990 -1.5012 -1.7299 -0.0476
 4049SOL    HW223607   1.519   0.386   7.106 -0.5405  0.0771  1.4312
 4050SOL     OW23608   2.637   0.349   8.794  0.1463  0.1705  0.3334
 4050SOL    HW123609   2.588   0.364   8.875 -1.1117 -2.0691  0.0035
 4050SOL    HW223610   2.720   0.325   8.834  0.0910 -0.4234  0.0945
 4051SOL     OW23611   3.926   2.466   2.334  0.1291  0.1153 -0.2793
 4051SOL    HW123612   3.997   2.405   2.317 -1.9599 -2.2292 -0.5836
 4051SOL    HW223613   3.910   2.495   2.244  0.4306 -0.0782 -0.3942
 4052SOL     OW23614   4.184   4.192   1.877 -0.1712  1.0342 -0.5331
 4052SOL    HW123615   4.263   4.158   1.835  0.9932 -1.5989  3.8723
 4052SOL    HW223616   4.111   4.170   1.819 -1.2013  1.9314  0.4249
 4053SOL     OW23617   3.498   3.445   2.976  0.0835 -0.0212  0.4737
 4053SOL    HW123618   3.432   3.498   2.932  0.7449  0.6517  0.2887
 4053SOL    HW223619   3.551   3.420   2.901 -1.8277  0.9086 -1.1897
 4054SOL     OW23620   2.385   3.681  13.043  0.1632  0.1448 -0.3092
 4054SOL    HW123621   2.293   3.710  13.044  0.9379  2.5650  0.5717
 4054SOL    HW223622   2.385   3.620  13.116  1.2198 -0.0200 -0.4432
 4055SOL     OW23623   4.637   2.110   5.054  0.1444 -0.0820  0.5327
 4055SOL    HW123624   4.695   2.081   5.125  1.4128  0.1616 -0.3995
 4055SOL    HW223625   4.685   2.062   4.987 -1.8410 -3.2981  1.4537
 4056SOL     OW23626   3.220   2.384   2.596 -0.0952  0.1890  0.4249
 4056SOL    HW123627   3.274   2.352   2.669  0.0405 -0.6476 -0.0384
 4056SOL    HW223628   3.288   2.390   2.528  0.1226 -1.0351  0.5245
 4057SOL     OW23629   2.941   2.122   2.614  0.3749  0.4226  0.2491
 4057SOL    HW123630   2.967   2.057   2.679 -2.3753  1.2085  2.1263
 4057SOL    HW223631   3.006   2.192   2.620  0.4906  0.1104  2.8173
 4058SOL     OW23632   3.408   1.052   8.017 -0.4129  0.2598 -0.0164
 4058SOL    HW123633   3.385   1.021   7.929 -0.0141  1.8362 -0.6746
 4058SOL    HW223634   3.503   1.053   8.006 -0.1857 -0.4439  1.9521
 4059SOL     OW23635   3.261   1.675   2.315  0.2320 -0.5008 -0.0431
 4059SOL    HW123636   3.317   1.752   2.300  0.6945 -0.9796 -0.7255
 4059SOL    HW223637   3.259   1.630   2.231  0.2360 -1.5887  0.5510
 4060SOL     OW23638   0.411   2.522   7.740 -0.2029 -0.2780 -0.4769
 4060SOL    HW123639   0.381   2.577   7.668 -0.5339 -1.3403 -1.1595
 4060SOL    HW223640   0.364   2.560   7.814 -0.2896 -1.4081  0.0445
 4061SOL     OW23641   3.637   4.460   2.242 -0.5496  0.5518 -0.0626
 4061SOL    HW123642   3.631   4.410   2.160  2.3923 -3.0052  1.8911
 4061SOL    HW223643   3.544   4.468   2.262 -0.2975 -0.4243  1.4778
 4062SOL     OW23644   0.362   3.770   2.403 -0.5055  0.2356  0.2071
 4062SOL    HW123645   0.276   3.768   2.444 -0.1060 -0.5308  1.0164
 4062SOL    HW223646   0.409   3.707   2.458 -0.4098  1.2237  1.2583
 4063SOL     OW23647   1.260   1.049   3.226 -0.2823  0.2759  0.3350
 4063SOL    HW123648   1.273   1.019   3.136 -0.6970  2.4449 -0.4539
 4063SOL    HW223649   1.199   0.990   3.270  0.4402 -1.4727 -1.0016
 4064SOL     OW23650   1.573   3.475   7.290  0.0573  0.5907 -0.1871
 4064SOL    HW123651   1.621   3.401   7.327 -2.4350 -0.6066  0.6235
 4064SOL    HW223652   1.493   3.465   7.341  1.0358 -0.6920  1.1314
 4065SOL     OW23653   0.201   0.858   9.076  0.6696  0.8730  0.2593
 4065SOL    HW123654   0.144   0.918   9.123  0.9102  0.9885  0.4020
 4065SOL    HW223655   0.248   0.814   9.147 -0.1021 -0.8607 -0.3051
 4066SOL     OW23656   2.160   0.875  12.667 -0.0555 -0.5845  0.8184
 4066SOL    HW123657   2.222   0.812  12.629 -1.8974 -0.6501 -2.0788
 4066SOL    HW223658   2.222   0.946  12.686  1.9433 -1.9851 -0.5021
 4067SOL     OW23659   3.031   2.250   7.201 -0.9718 -0.1855  0.2964
 4067SOL    HW123660   3.038   2.163   7.162  0.6919  0.7261 -1.4966
 4067SOL    HW223661   3.122   2.280   7.191 -1.2980  1.1404  1.3126
 4068SOL     OW23662   2.503   2.331   9.273  0.2517 -0.2935  0.2919
 4068SOL    HW123663   2.557   2.381   9.212 -2.0814  0.4198 -1.1833
 4068SOL    HW223664   2.472   2.400   9.330  0.9589  0.1047  0.1964
 4069SOL     OW23665   2.739   0.210   0.603 -0.2103  0.0078 -0.0001
 4069SOL    HW123666   2.645   0.202   0.620 -0.6712  0.6268 -2.1927
 4069SOL    HW223667   2.760   0.303   0.612  1.4790 -0.2096 -1.5826
 4070SOL     OW23668   3.419   0.175  12.321  0.0789  0.1245  0.6084
 4070SOL    HW123669   3.342   0.118  12.321  0.3300 -0.2192  0.6563
 4070SOL    HW223670   3.395   0.261  12.286  0.5070 -0.2833 -0.7025
 4071SOL     OW23671   4.538   4.103   4.934  0.0493 -0.1358 -0.3849
 4071SOL    HW123672   4.533   4.111   4.838  2.2227  0.0291 -0.4869
 4071SOL    HW223673   4.625   4.062   4.940 -0.5535 -1.3083  0.2276
 4072SOL     OW23674   3.088   3.243   8.181  0.1599  0.2602  0.1075
 4072SOL    HW123675   3.026   3.281   8.119  0.0877  1.9199  1.2197
 4072SOL    HW223676   3.168   3.242   8.128 -0.5632  0.7828 -1.0071
 4073SOL     OW23677   0.486   3.742   6.172 -0.7911  0.1415  0.8179
 4073SOL    HW123678   0.427   3.811   6.203 -0.4083 -0.1125  2.1286
 4073SOL    HW223679   0.469   3.763   6.081 -2.0707  0.5604  1.1484
 4074SOL     OW23680   3.386   1.207  15.777  0.5671  0.0030  0.8777
 4074SOL    HW123681   3.397   1.274  15.709  0.9335  0.2831  1.2175
 4074SOL    HW223682   3.299   1.215  15.816  0.3652 -0.2205  0.4853
 4075SOL     OW23683   4.247   3.739   9.846 -0.3847  0.1017  0.4314
 4075SOL    HW123684   4.303   3.693   9.783 -0.8402  1.0724 -0.6789
 4075SOL    HW223685   4.242   3.662   9.903 -0.4001 -1.0857 -1.1507
 4076SOL     OW23686   1.963   1.004   0.517  0.1978 -0.5585  0.0578
 4076SOL    HW123687   1.964   1.089   0.560 -0.7945 -1.4776  1.8723
 4076SOL    HW223688   1.907   0.958   0.579 -1.2212 -1.9976 -2.2709
 4077SOL     OW23689   1.653   1.389  11.529  0.1795  0.0430  0.0962
 4077SOL    HW123690   1.615   1.467  11.570 -0.1659  0.1187 -0.3664
 4077SOL    HW223691   1.577   1.333  11.544  0.7934 -0.6504  0.6323
 4078SOL     OW23692   1.463   0.937   4.670 -0.2337  0.5072 -0.1513
 4078SOL    HW123693   1.501   0.968   4.588  0.5659  0.1090  0.0648
 4078SOL    HW223694   1.382   0.987   4.678  1.6903  3.1854  2.2897
 4079SOL     OW23695   3.922   0.419  11.485 -0.0821 -0.2557 -0.1934
 4079SOL    HW123696   3.957   0.352  11.543 -0.3994  0.7396  1.1397
 4079SOL    HW223697   3.828   0.401  11.491 -0.2799  0.4301 -1.2463
 4080SOL     OW23698   0.016   3.927   8.629 -0.5938  0.6477  0.0639
 4080SOL    HW123699   4.672   3.964   8.686 -0.2408  0.5011  0.5831
 4080SOL    HW223700   4.706   3.841   8.606  2.8259 -0.3269 -1.3796
 4081SOL     OW23701   0.772   2.057  14.154  0.1003 -0.5061 -0.2464
 4081SOL    HW123702   0.796   2.111  14.079  2.1674 -0.4682  0.4529
 4081SOL    HW223703   0.797   1.973  14.116 -0.2443 -1.2284  1.0985
 4082SOL     OW23704   3.299   3.840   9.560  0.2188  0.1018 -0.2220
 4082SOL    HW123705   3.221   3.836   9.615 -0.8805 -0.1210 -1.8068
 4082SOL    HW223706   3.317   3.746   9.557 -1.8606 -0.2587 -1.7260
 4083SOL     OW23707   2.770   0.601   2.349 -0.1596  0.3343 -0.0588
 4083SOL    HW123708   2.717   0.524   2.371  0.9012 -0.8143 -1.5924
 4083SOL    HW223709   2.789   0.635   2.437  0.6181  0.0270 -0.1104
 4084SOL     OW23710   2.469   0.222   0.631 -0.2123  0.4536 -0.2002
 4084SOL    HW123711   2.378   0.238   0.656 -0.3569 -2.7598  1.2981
 4084SOL    HW223712   2.451   0.218   0.537 -1.4028  0.2374  0.0380
 4085SOL     OW23713   1.218   3.677   8.592 -0.1039  0.1507  0.3908
 4085SOL    HW123714   1.168   3.751   8.627  0.8472  2.4088 -2.9988
 4085SOL    HW223715   1.157   3.605   8.607  1.1575 -1.3052 -1.4211
 4086SOL     OW23716   1.822   2.333   8.309 -0.3412  0.4524 -0.9392
 4086SOL    HW123717   1.811   2.353   8.401  1.3193 -1.1819 -0.3816
 4086SOL    HW223718   1.763   2.258   8.296  3.3164 -2.4620 -0.5167
 4087SOL     OW23719   2.729   0.057   9.239  0.2845 -0.2571  0.0255
 4087SOL    HW123720   2.649   0.074   9.287 -1.0637 -0.8335 -2.0100
 4087SOL    HW223721   2.682   0.025   9.162  1.0683  0.8148 -0.8926
 4088SOL     OW23722   1.889   1.860   2.487 -0.8508  0.1116  0.3542
 4088SOL    HW123723   1.870   1.883   2.396  2.9207  2.4176  0.1755
 4088SOL    HW223724   1.944   1.782   2.482 -1.7212 -0.4672 -0.1780
 4089SOL     OW23725   4.569   1.449   2.233  0.7889 -0.0897  0.0789
 4089SOL    HW123726   4.656   1.453   2.194  0.0270  2.1387 -1.3943
 4089SOL    HW223727   4.587   1.372   2.288 -1.3689 -1.9692 -1.8479
 4090SOL     OW23728   1.318   2.587  14.422  0.2028  0.0478 -0.2213
 4090SOL    HW123729   1.385   2.642  14.381 -1.4831  1.0107 -1.7306
 4090SOL    HW223730   1.361   2.542  14.494 -3.7148 -1.7618  1.0344
 4091SOL     OW23731   3.969   1.388   8.229 -0.0254 -0.7116 -0.0889
 4091SOL    HW123732   3.963   1.480   8.202  1.5163 -1.2719 -2.3131
 4091SOL    HW223733   4.061   1.386   8.255 -1.0570 -1.2211  3.5011
 4092SOL     OW23734   2.422   2.720  13.479 -0.7515  0.1432  0.1926
 4092SOL    HW123735   2.499   2.713  13.424 -0.5671  2.6565  0.1427
 4092SOL    HW223736   2.384   2.633  13.465 -1.6588  1.0180 -2.7813
 4093SOL     OW23737   4.398   3.568  16.200  0.2021  0.4436  0.4168
 4093SOL    HW123738   4.328   3.578  16.266  0.1096 -0.1669  0.4165
 4093SOL    HW223739   4.439   3.654  16.207  0.6665  0.0938  1.9658
 4094SOL     OW23740   3.759   0.529   3.269  0.4466 -0.2475  0.1288
 4094SOL    HW123741   3.811   0.485   3.202  1.4938  3.6618 -1.6001
 4094SOL    HW223742   3.824   0.555   3.335  2.7812 -2.8031 -1.1764
 4095SOL     OW23743   3.883   1.313   9.253 -0.5284 -0.3580 -0.3665
 4095SOL    HW123744   3.861   1.393   9.301  1.6403  0.5013 -0.7926
 4095SOL    HW223745   3.807   1.299   9.197 -1.4793 -0.6190  0.9811
 4096SOL     OW23746   1.578   2.070  15.379 -0.1070  0.4691 -0.2792
 4096SOL    HW123747   1.543   2.127  15.311 -0.4033 -1.7679 -1.9986
 4096SOL    HW223748   1.562   1.986  15.336 -1.6281  0.4692  0.2777
 4097SOL     OW23749   2.010   0.366   7.478 -0.3567 -0.0470 -0.3793
 4097SOL    HW123750   1.923   0.335   7.503  0.4088 -1.1334  0.9022
 4097SOL    HW223751   2.068   0.294   7.502  1.0288  0.8606 -1.0030
 4098SOL     OW23752   2.726   3.495   8.838 -0.0517 -0.0722 -0.1561
 4098SOL    HW123753   2.658   3.428   8.843 -0.2239  0.0765 -0.5240
 4098SOL    HW223754   2.699   3.554   8.909 -1.1286  1.1060 -1.5221
 4099SOL     OW23755   0.735   2.269   5.536  0.1083 -0.4776 -0.1301
 4099SOL    HW123756   0.795   2.195   5.523  2.3705  1.2995  0.2255
 4099SOL    HW223757   0.799   2.339   5.522 -0.0836 -0.0227  1.3569
 4100SOL     OW23758   1.439   3.395  11.845 -0.4091  0.6546  0.0470
 4100SOL    HW123759   1.533   3.405  11.858 -0.0600 -1.1365 -1.1411
 4100SOL    HW223760   1.424   3.436  11.760 -0.3663  1.0434  0.2256
 4101SOL     OW23761   3.666   2.456   6.736 -0.7840  0.1743 -0.3144
 4101SOL    HW123762   3.584   2.464   6.785  0.8540  2.7104  2.0702
 4101SOL    HW223763   3.657   2.535   6.682  1.5339  0.4031 -0.3620
 4102SOL     OW23764   0.062   1.167   2.623  0.6112 -0.0438 -0.1643
 4102SOL    HW123765   0.083   1.259   2.641  1.1180  0.0713 -1.3554
 4102SOL    HW223766   0.151   1.134   2.617 -0.4793 -2.7453 -1.1692
 4103SOL     OW23767   4.420   0.635   9.644  0.0393  0.4226  0.5857
 4103SOL    HW123768   4.329   0.607   9.634 -0.2016  0.8314  1.6490
 4103SOL    HW223769   4.460   0.566   9.591  0.2394  1.1304 -0.1870
 4104SOL     OW23770   3.606   0.150   4.908  0.4515  0.1786 -0.7196
 4104SOL    HW123771   3.623   0.217   4.973 -0.2717 -1.2143  0.9134
 4104SOL    HW223772   3.666   0.078   4.930  1.1850  0.7905 -0.7222
 4105SOL     OW23773   2.788   3.550   1.917  0.1811  0.0375 -0.3576
 4105SOL    HW123774   2.694   3.564   1.917  0.5549  2.5090 -0.0227
 4105SOL    HW223775   2.812   3.643   1.911 -1.3229  0.3599 -1.4380
 4106SOL     OW23776   3.920   1.892   9.685 -0.2994  0.2633 -0.0929
 4106SOL    HW123777   3.870   1.873   9.764  0.1342  2.3298  0.6594
 4106SOL    HW223778   3.972   1.964   9.720 -0.3831  0.4367 -0.3276
 4107SOL     OW23779   2.075   2.009   1.170 -0.1011  0.5185  0.2411
 4107SOL    HW123780   2.067   1.956   1.091 -0.3621  1.0342 -0.0821
 4107SOL    HW223781   1.990   2.005   1.213  2.2118 -2.8652  4.4777
 4108SOL     OW23782   2.056   3.040  12.597 -0.6634  0.9466  0.0557
 4108SOL    HW123783   2.128   3.071  12.652 -2.4778  3.3174  1.1514
 4108SOL    HW223784   2.046   3.110  12.533  2.0163  2.0986  0.9108
 4109SOL     OW23785   3.496   1.990  15.163  0.0817  0.2214 -0.3898
 4109SOL    HW123786   3.474   2.081  15.183  0.7692  0.0113  1.2836
 4109SOL    HW223787   3.414   1.956  15.126  0.9785 -0.8491 -1.3724
 4110SOL     OW23788   2.055   2.496   1.240  0.4079 -0.3340  0.0683
 4110SOL    HW123789   2.038   2.556   1.167  0.1575 -0.8940 -0.3319
 4110SOL    HW223790   2.099   2.420   1.202 -1.6369 -0.3679 -2.2149
 4111SOL     OW23791   2.284   3.828   7.056  0.3778  0.0500 -0.0934
 4111SOL    HW123792   2.362   3.793   7.014  1.1761 -0.2690  1.6466
 4111SOL    HW223793   2.317   3.918   7.061 -0.0993  0.2993 -1.3896
 4112SOL     OW23794   4.393   3.551   1.503  0.6171 -0.2017 -0.2167
 4112SOL    HW123795   4.327   3.568   1.570 -2.0919 -1.4835 -2.5713
 4112SOL    HW223796   4.472   3.530   1.554 -0.3271 -0.5708  1.0912
 4113SOL     OW23797   4.270   0.425   7.088  0.3253  0.1730  0.1424
 4113SOL    HW123798   4.284   0.340   7.046 -0.6081 -0.1648  0.5270
 4113SOL    HW223799   4.237   0.474   7.013  2.0346  0.1514 -0.6351
 4114SOL     OW23800   4.548   2.400  17.504 -0.1766  0.1062 -0.2604
 4114SOL    HW123801   4.456   2.428  17.500 -0.7212 -1.5484  0.6240
 4114SOL    HW223802   4.556   2.330  17.569 -0.3843  0.9094  0.6491
 4115SOL     OW23803   2.532   3.262   3.136  0.1437 -0.3336  0.7689
 4115SOL    HW123804   2.506   3.338   3.084 -1.9063 -3.7416 -3.1117
 4115SOL    HW223805   2.446   3.249   3.178 -1.1614 -0.4376 -1.9529
 4116SOL     OW23806   1.367   2.025   4.518  0.0003  0.0609  0.0886
 4116SOL    HW123807   1.295   1.980   4.561 -0.1862  0.1845 -0.0981
 4116SOL    HW223808   1.321   2.083   4.458 -1.1969  1.2617  2.1918
 4117SOL     OW23809   2.871   0.667   8.549  0.5599  0.0452 -0.0498
 4117SOL    HW123810   2.954   0.622   8.567  1.0234  0.4696 -1.1225
 4117SOL    HW223811   2.817   0.591   8.532 -0.4042  0.2707  1.9367
 4118SOL     OW23812   1.073   2.606   3.721 -0.1993  0.1379  0.4605
 4118SOL    HW123813   1.077   2.532   3.660  1.2679 -0.1513  0.9003
 4118SOL    HW223814   1.085   2.565   3.807 -0.3480 -1.1699 -0.1328
 4119SOL     OW23815   2.957   2.146   8.702 -0.3531  0.0611  0.1916
 4119SOL    HW123816   2.975   2.070   8.757  0.4922 -0.5527 -0.9336
 4119SOL    HW223817   3.044   2.163   8.665 -0.0441  1.3657  1.5599
 4120SOL     OW23818   1.505   0.231   5.096  0.0464 -0.0224  0.2226
 4120SOL    HW123819   1.566   0.196   5.031 -0.7233  0.5921 -0.8102
 4120SOL    HW223820   1.486   0.319   5.065 -1.0665  0.3308  1.8768
 4121SOL     OW23821   0.545   4.410   4.198 -0.0522 -0.2616 -0.2355
 4121SOL    HW123822   0.576   4.461   4.124 -0.1701 -1.4321 -1.0883
 4121SOL    HW223823   0.582   4.455   4.274 -4.5908 -1.2975  2.5943
 4122SOL     OW23824   1.911   1.723   2.985 -0.1594 -0.3303 -0.3801
 4122SOL    HW123825   1.860   1.645   3.006 -2.6462  1.3032 -0.3907
 4122SOL    HW223826   1.845   1.785   2.954 -0.3258  0.3206  1.2577
 4123SOL     OW23827   2.758   0.090   7.305  0.4027 -0.3506  0.0081
 4123SOL    HW123828   2.667   0.076   7.331  0.6558 -0.4524  0.8153
 4123SOL    HW223829   2.746   0.182   7.284 -0.0202 -0.5695 -0.7223
 4124SOL     OW23830   0.173   4.604   6.942  0.1895 -0.0676  0.8904
 4124SOL    HW123831   0.249   4.562   6.983  1.3127  1.9804  0.8624
 4124SOL    HW223832   0.145   4.523   6.898 -1.0780  0.3555  0.9249
 4125SOL     OW23833   1.665   1.147  17.601 -0.5004  0.0239  0.1462
 4125SOL    HW123834   1.736   1.129  17.540  0.0361  0.6204  0.5919
 4125SOL    HW223835   1.711   1.157  17.685 -0.2598  1.6760 -0.1723
 4126SOL     OW23836   0.793   2.542   3.546 -0.4362 -0.4459 -0.0708
 4126SOL    HW123837   0.875   2.493   3.544  1.0492  2.0357  1.1742
 4126SOL    HW223838   0.725   2.494   3.499 -0.4758 -0.4086 -0.0514
 4127SOL     OW23839   1.949   0.958   4.609  0.2037  0.4638  0.6383
 4127SOL    HW123840   2.033   0.936   4.647  1.0372  1.2400 -0.7590
 4127SOL    HW223841   1.894   0.885   4.638  0.8541  0.6168  2.2417
 4128SOL     OW23842   0.122   3.723   7.936 -0.5216  0.0220 -0.2610
 4128SOL    HW123843   0.180   3.647   7.943  1.8332  1.5657 -3.2780
 4128SOL    HW223844   0.118   3.736   7.841  1.4320  3.6871  0.2096
 4129SOL     OW23845   4.500   0.220   4.853  0.5728  0.4977 -0.0041
 4129SOL    HW123846   4.504   0.280   4.928  1.5175 -1.7387  1.7283
 4129SOL    HW223847   4.487   0.288   4.787 -0.2109  0.4019  0.0458
 4130SOL     OW23848   3.348   2.788   2.508  0.6584  0.0271  0.6936
 4130SOL    HW123849   3.346   2.777   2.413  1.5781 -1.0059  0.7959
 4130SOL    HW223850   3.440   2.765   2.521  0.2778 -2.5570 -1.2537
 4131SOL     OW23851   1.574   1.596   6.851  0.4922  0.7678  0.5802
 4131SOL    HW123852   1.669   1.606   6.846  0.8422 -1.8379  2.0035
 4131SOL    HW223853   1.545   1.680   6.887 -1.1301 -0.2255  1.5497
 4132SOL     OW23854   1.108   1.848   6.789  0.3571  0.0911  0.3051
 4132SOL    HW123855   1.164   1.923   6.771  0.5588  0.3928  2.2392
 4132SOL    HW223856   1.071   1.838   6.701  4.4057  1.1198 -1.5109
 4133SOL     OW23857   1.677   3.785   7.820 -0.3705  0.1320  0.7308
 4133SOL    HW123858   1.710   3.729   7.751 -0.4984 -0.5908  1.2585
 4133SOL    HW223859   1.736   3.860   7.813 -0.2116 -0.1971 -1.4417
 4134SOL     OW23860   1.230   1.356   7.226  0.2422 -0.2630  0.4092
 4134SOL    HW123861   1.263   1.270   7.202  0.3978  0.1526 -0.8934
 4134SOL    HW223862   1.203   1.352   7.318  0.2853 -1.9613  0.3455
 4135SOL     OW23863   1.949   4.431  17.655  0.0241  1.0821  0.1031
 4135SOL    HW123864   1.894   4.354  17.670 -1.8553  2.3638 -0.2172
 4135SOL    HW223865   2.034   4.407  17.692 -0.9504  0.1532  1.7551
 4136SOL     OW23866   1.257   3.706   8.046 -0.2500  0.5135  0.2361
 4136SOL    HW123867   1.279   3.676   8.135 -0.1812 -1.2340 -0.3652
 4136SOL    HW223868   1.261   3.800   8.060  0.6222  0.6599 -1.0032
 4137SOL     OW23869   2.990   2.033   4.042 -0.3927  0.3372 -0.0079
 4137SOL    HW123870   2.984   1.949   4.087  0.9216 -0.2669 -0.9543
 4137SOL    HW223871   2.961   2.099   4.104 -1.9106  0.6491 -1.0498
 4138SOL     OW23872   1.474   3.076   8.533  0.9681  0.1876 -0.6751
 4138SOL    HW123873   1.566   3.056   8.519  0.4417 -1.0308 -2.3650
 4138SOL    HW223874   1.484   3.111   8.622 -0.1376  1.6801 -1.1391
 4139SOL     OW23875   3.755   2.676  13.768 -0.1517 -0.1927  0.4545
 4139SOL    HW123876   3.838   2.629  13.777 -0.6012 -0.6630  2.1123
 4139SOL    HW223877   3.749   2.712  13.857  0.8016  1.4748 -0.1366
 4140SOL     OW23878   3.646   3.606   6.348  0.8135 -0.2475 -0.0837
 4140SOL    HW123879   3.580   3.621   6.416  1.5118  1.7352  0.1526
 4140SOL    HW223880   3.701   3.684   6.353 -0.4170  0.5298  1.5191
 4141SOL     OW23881   3.112   2.771   6.985 -0.0820  0.2201 -0.1375
 4141SOL    HW123882   3.121   2.688   6.939  0.0909 -0.7269  1.5967
 4141SOL    HW223883   3.189   2.756   7.039 -0.8192  1.1772  1.1960
 4142SOL     OW23884   3.461   4.021  10.477  0.0350 -0.0249  0.5106
 4142SOL    HW123885   3.482   4.024  10.384  0.0801 -1.5299  0.4786
 4142SOL    HW223886   3.546   4.021  10.521 -0.5522 -1.1465  1.6455
 4143SOL     OW23887   2.769   3.770   2.084  0.2108  0.0171 -0.3796
 4143SOL    HW123888   2.819   3.849   2.064  0.8826  0.2082  2.0594
 4143SOL    HW223889   2.708   3.817   2.141  2.4111 -0.1149  2.0777
 4144SOL     OW23890   1.804   4.165   8.351  0.2001 -0.2915 -0.6146
 4144SOL    HW123891   1.803   4.201   8.440 -0.0870  1.6708 -1.4245
 4144SOL    HW223892   1.713   4.155   8.323  0.0948  1.9574 -1.0938
 4145SOL     OW23893   1.386   4.628   2.543 -0.2529 -0.4512 -0.0172
 4145SOL    HW123894   1.408   4.720   2.530  0.4142 -0.6828 -0.5656
 4145SOL    HW223895   1.330   4.628   2.620 -1.4151  2.3060 -0.8788
 4146SOL     OW23896   0.213   1.143   3.211  0.7498  0.4709 -0.1660
 4146SOL    HW123897   0.291   1.089   3.222 -0.1626 -1.1223 -1.4632
 4146SOL    HW223898   0.205   1.176   3.300  0.8959  1.1933 -0.4203
 4147SOL     OW23899   0.804   4.485  14.997 -0.2396 -0.4094 -0.4281
 4147SOL    HW123900   0.745   4.543  14.948 -0.4095  0.9317  1.3671
 4147SOL    HW223901   0.875   4.536  15.035  0.7528 -0.9178 -1.5986
 4148SOL     OW23902   0.712   2.697  11.341  0.1224  0.1541 -0.9081
 4148SOL    HW123903   0.646   2.639  11.380 -0.5380  1.2082 -0.4471
 4148SOL    HW223904   0.711   2.763  11.411 -2.0528 -2.2032  1.2798
 4149SOL     OW23905   1.242   0.472   9.796 -0.0188 -0.3943 -0.2227
 4149SOL    HW123906   1.292   0.480   9.877  0.2723  0.1388 -0.4569
 4149SOL    HW223907   1.184   0.401   9.823 -0.2834 -1.0142 -2.4237
 4150SOL     OW23908   3.053   4.039   6.877  0.4170  0.3032  0.6795
 4150SOL    HW123909   3.014   3.954   6.897  1.3396 -0.6769 -1.6926
 4150SOL    HW223910   3.034   4.084   6.960 -1.3276 -0.1574  0.5187
 4151SOL     OW23911   1.301   4.694  15.690 -0.4191 -0.1461 -0.0168
 4151SOL    HW123912   1.390   4.665  15.708  0.2363  1.8722  0.0780
 4151SOL    HW223913   1.308   4.721  15.599 -3.3542 -1.0471 -0.5284
 4152SOL     OW23914   3.587   0.639  13.646 -0.1019  0.0753 -0.1863
 4152SOL    HW123915   3.523   0.706  13.669  2.1526  2.2656 -0.3736
 4152SOL    HW223916   3.665   0.682  13.678 -0.1501 -0.1015  0.1696
 4153SOL     OW23917   1.023   3.238   8.416 -0.6948 -0.3056 -0.1459
 4153SOL    HW123918   1.008   3.151   8.453 -1.2616  1.1555  3.0269
 4153SOL    HW223919   1.118   3.232   8.406 -0.6926 -0.1837 -0.1963
 4154SOL     OW23920   1.238   2.952   8.496  0.4370 -0.0651 -0.1047
 4154SOL    HW123921   1.320   2.999   8.515  1.1627 -1.8498  1.1320
 4154SOL    HW223922   1.239   2.931   8.403  1.5252 -0.2482 -0.0520
 4155SOL     OW23923   2.788   2.676   6.864 -0.5389  0.2082 -0.2867
 4155SOL    HW123924   2.778   2.601   6.923 -0.4592  0.7542  0.4150
 4155SOL    HW223925   2.826   2.741   6.923 -0.5367  0.0441 -0.1090
 4156SOL     OW23926   1.528   3.813   5.134  0.4594  0.2438 -0.8271
 4156SOL    HW123927   1.506   3.743   5.072 -0.0647 -1.3228  1.1441
 4156SOL    HW223928   1.562   3.880   5.075 -0.5774 -0.4781 -2.2579
 4157SOL     OW23929   0.885   0.957   2.680 -0.4830  0.4157 -0.3216
 4157SOL    HW123930   0.808   0.921   2.635 -1.3317  0.8379  0.8017
 4157SOL    HW223931   0.866   0.941   2.772  3.0372  1.9512  0.6651
 4158SOL     OW23932   3.920   3.088  12.089  0.6411  0.1835  0.2996
 4158SOL    HW123933   3.873   3.127  12.015 -0.3533 -0.0242  0.8193
 4158SOL    HW223934   3.891   3.151  12.156  1.6220 -0.7890  1.6319
 4159SOL     OW23935   0.658   0.123  11.731 -0.8490  0.1906 -0.5193
 4159SOL    HW123936   0.738   0.117  11.783 -0.9083 -0.7815 -0.5300
 4159SOL    HW223937   0.591   0.123  11.799  0.2896  1.0133  0.5864
 4160SOL     OW23938   4.189   0.187   3.025 -0.1113  0.4500 -0.0758
 4160SOL    HW123939   4.227   0.157   2.942  2.0208  0.5559  0.8433
 4160SOL    HW223940   4.130   0.116   3.047 -0.0556 -0.2238 -2.1421
 4161SOL     OW23941   0.798   1.132   3.346 -0.5290 -0.6853  0.2301
 4161SOL    HW123942   0.771   1.114   3.257  0.9209 -2.5780  0.1804
 4161SOL    HW223943   0.833   1.222   3.342 -1.5160 -0.3390 -0.3711
 4162SOL     OW23944   4.605   0.357   5.072 -0.2225 -0.2989 -0.1775
 4162SOL    HW123945   4.688   0.394   5.102 -0.0411 -1.8591  1.2775
 4162SOL    HW223946   4.572   0.429   5.019  0.9647  1.3431  1.3146
 4163SOL     OW23947   4.130   2.311   6.677 -0.0748  0.2202  0.8604
 4163SOL    HW123948   4.122   2.307   6.582 -1.0224  0.9301  0.9105
 4163SOL    HW223949   4.072   2.384   6.698 -0.4565  0.3535 -0.6208
 4164SOL     OW23950   3.036   1.160   4.295  0.0436 -0.0818  0.9535
 4164SOL    HW123951   3.017   1.246   4.255  0.8191 -0.5942 -0.5166
 4164SOL    HW223952   3.102   1.130   4.234 -0.9464 -2.7248  1.2087
 4165SOL     OW23953   1.905   3.095   8.012 -0.6693 -0.4244 -0.5511
 4165SOL    HW123954   1.955   3.027   8.056 -0.9875  0.7497  1.6346
 4165SOL    HW223955   1.891   3.154   8.087  1.3189 -1.9618  1.0270
 4166SOL     OW23956   3.087   4.241   2.860  0.0402  0.0586 -0.7286
 4166SOL    HW123957   3.075   4.318   2.804  0.8857  0.6355 -0.1278
 4166SOL    HW223958   3.045   4.181   2.799 -2.7263  0.3790  0.8875
 4167SOL     OW23959   4.470   1.303   4.309 -0.6748  0.1302  0.3195
 4167SOL    HW123960   4.486   1.367   4.239  0.2958  0.2109  0.6131
 4167SOL    HW223961   4.462   1.357   4.388 -0.9174  0.1977  0.2479
 4168SOL     OW23962   2.554   0.318   4.818 -0.1725 -0.7683  0.1874
 4168SOL    HW123963   2.501   0.321   4.898 -0.5877 -0.5947 -0.0956
 4168SOL    HW223964   2.497   0.267   4.760 -0.2413  0.0183 -0.4321
 4169SOL     OW23965   0.843   4.336  16.624 -0.9352  0.1593 -0.0855
 4169SOL    HW123966   0.921   4.392  16.629 -1.3292  0.7548 -0.6699
 4169SOL    HW223967   0.859   4.304  16.713  1.3693 -1.5572 -1.1147
 4170SOL     OW23968   0.679   2.761  10.157 -0.0538 -0.3073  0.0905
 4170SOL    HW123969   0.629   2.690  10.117 -2.5029  2.3399 -1.5081
 4170SOL    HW223970   0.723   2.798  10.081 -1.2687 -0.2876 -0.5945
 4171SOL     OW23971   4.117   0.352   9.830  0.4078 -0.3095 -0.0993
 4171SOL    HW123972   4.142   0.260   9.835 -0.4092 -0.5683 -0.7000
 4171SOL    HW223973   4.029   0.343   9.867 -0.0130  3.7515 -0.0529
 4172SOL     OW23974   3.776   3.281   0.675  0.3382 -0.7841 -0.0643
 4172SOL    HW123975   3.729   3.335   0.739  0.1192  1.9463 -2.5132
 4172SOL    HW223976   3.705   3.217   0.661  1.7631 -2.1462 -1.0862
 4173SOL     OW23977   3.120   0.026  14.779 -0.2482  0.3718  0.2778
 4173SOL    HW123978   3.209   4.716  14.776 -0.2143  0.4496  0.4118
 4173SOL    HW223979   3.101   0.039  14.686  0.1377  0.1206  0.1660
 4174SOL     OW23980   4.010   1.222   4.708  0.2993 -0.8673  0.4361
 4174SOL    HW123981   4.050   1.185   4.629  0.6661  0.8296 -0.1774
 4174SOL    HW223982   3.916   1.211   4.696  0.4214 -0.5293 -0.8252
 4175SOL     OW23983   0.312   2.469   8.908  0.5190  0.5685 -0.1534
 4175SOL    HW123984   0.229   2.475   8.953  1.3551  1.8901  1.2014
 4175SOL    HW223985   0.287   2.471   8.815  0.0312 -1.3213 -0.0645
 4176SOL     OW23986   1.285   0.901   3.532  0.3950  0.7575  0.4504
 4176SOL    HW123987   1.272   0.808   3.512 -1.5613  1.3254 -1.0106
 4176SOL    HW223988   1.213   0.938   3.480 -1.2342 -1.7928  0.9290
 4177SOL     OW23989   1.108   0.940   8.820  0.0403 -0.2025 -0.0652
 4177SOL    HW123990   1.027   0.921   8.867 -1.0979  0.6513 -1.7051
 4177SOL    HW223991   1.072   0.988   8.746  1.4458  0.1766 -0.5015
 4178SOL     OW23992   0.341   2.091   3.164 -0.5887  0.1282 -0.1981
 4178SOL    HW123993   0.360   2.146   3.088 -0.7728  1.3266  0.6385
 4178SOL    HW223994   0.425   2.049   3.183 -0.3656  0.1544 -1.1160
 4179SOL     OW23995   3.759   0.812  13.762  0.4386  0.2951  0.2581
 4179SOL    HW123996   3.751   0.878  13.831  3.0804 -1.2790  2.0397
 4179SOL    HW223997   3.851   0.827  13.736  0.3296 -2.9951 -1.9514
 4180SOL     OW23998   1.962   3.728   5.678 -0.3819 -0.4035  0.3355
 4180SOL    HW123999   1.933   3.639   5.659 -1.6351 -0.1118  0.9441
 4180SOL    HW224000   1.892   3.754   5.737  1.9556  1.0412  2.4846
 4181SOL     OW24001   4.113   3.220   3.093 -0.7959 -0.6697  0.1474
 4181SOL    HW124002   4.020   3.226   3.071 -0.7789 -0.6416  0.0843
 4181SOL    HW224003   4.150   3.184   3.013 -1.0008 -0.1359 -0.1837
 4182SOL     OW24004   1.714   1.966   7.995 -0.4151  0.3130  0.0242
 4182SOL    HW124005   1.634   1.915   7.988  0.1374 -0.3839 -1.1545
 4182SOL    HW224006   1.768   1.901   7.950 -1.4559  0.3520 -1.2600
 4183SOL     OW24007   3.059   4.371  10.088  0.0872  0.0593 -0.1247
 4183SOL    HW124008   3.136   4.426  10.074  1.0506 -1.5521 -1.1936
 4183SOL    HW224009   3.063   4.361  10.184  2.8448 -0.0126 -0.2559
 4184SOL     OW24010   1.303   4.708   4.202 -0.1457 -0.4160  0.2625
 4184SOL    HW124011   1.346   4.623   4.190 -0.2522 -0.1785 -1.7396
 4184SOL    HW224012   1.220   4.683   4.161 -0.8563  0.9607  0.8651
 4185SOL     OW24013   3.786   1.913   2.243  0.0789 -0.0484 -0.5785
 4185SOL    HW124014   3.837   1.843   2.202 -1.4020 -1.0570 -0.7430
 4185SOL    HW224015   3.813   1.909   2.334  1.2733  1.7773 -0.8778
 4186SOL     OW24016   2.972   1.397   9.608  0.5094 -0.2622 -0.1083
 4186SOL    HW124017   2.895   1.432   9.563  1.5519  1.6758 -0.3761
 4186SOL    HW224018   2.943   1.355   9.689 -0.0390  0.3608  0.0296
 4187SOL     OW24019   0.445   3.743   5.281 -0.0001 -0.2539 -0.4888
 4187SOL    HW124020   0.390   3.819   5.262  0.1462 -0.4564 -1.7212
 4187SOL    HW224021   0.387   3.685   5.330  1.5185  0.6670  2.3803
 4188SOL     OW24022   1.176   4.012   1.539 -0.1637 -0.1555  0.0203
 4188SOL    HW124023   1.083   4.003   1.560 -0.5256  1.9766 -0.6796
 4188SOL    HW224024   1.205   4.093   1.581  0.9586 -0.6134  0.1195
 4189SOL     OW24025   2.850   4.704   0.634  0.4284  0.1882  0.1003
 4189SOL    HW124026   2.785   4.651   0.681  1.3373 -0.4139  0.6798
 4189SOL    HW224027   2.819   0.070   0.633  0.2712  0.1157 -1.6996
 4190SOL     OW24028   3.489   2.970   9.295 -0.6598  0.5768  0.2506
 4190SOL    HW124029   3.452   3.051   9.330  0.5591  1.0522  0.4207
 4190SOL    HW224030   3.536   2.925   9.366  0.9195  0.1086 -1.0815
 4191SOL     OW24031   1.674   1.603   3.920 -0.5888 -0.1207 -0.2826
 4191SOL    HW124032   1.611   1.675   3.930  1.2311  1.8200 -2.7747
 4191SOL    HW224033   1.661   1.572   3.831 -0.4084 -1.6663  0.2287
 4192SOL     OW24034   3.873   2.266   7.896  0.6040  0.3178 -0.0671
 4192SOL    HW124035   3.875   2.355   7.860 -0.1227 -0.3961 -1.8545
 4192SOL    HW224036   3.963   2.244   7.874  1.0116  0.4805  1.4260
 4193SOL     OW24037   1.141   3.765   6.430 -0.3275  0.1137 -1.0299
 4193SOL    HW124038   1.177   3.842   6.474 -1.2172  0.7085 -1.3275
 4193SOL    HW224039   1.119   3.807   6.346 -0.2246 -2.0945 -2.1673
 4194SOL     OW24040   2.670   3.126  16.099 -0.4081  0.1458  0.0830
 4194SOL    HW124041   2.706   3.106  16.186  1.7522  0.7603 -0.6688
 4194SOL    HW224042   2.598   3.185  16.122  1.0903  0.7909  3.1006
 4195SOL     OW24043   3.767   1.614   9.653  0.3308  0.2140  0.1043
 4195SOL    HW124044   3.812   1.555   9.713 -1.3740 -2.5232 -1.3094
 4195SOL    HW224045   3.732   1.677   9.717 -2.0876 -1.8818  0.8543
 4196SOL     OW24046   1.302   0.392   5.896 -0.4090 -0.0957  0.6610
 4196SOL    HW124047   1.385   0.379   5.941  1.7159 -0.3705 -3.3249
 4196SOL    HW224048   1.263   0.474   5.925 -1.1499 -0.0766 -0.3690
 4197SOL     OW24049   4.292   2.515  17.370  0.2523 -0.3899 -0.0566
 4197SOL    HW124050   4.281   2.445  17.305 -1.4194 -0.8699  0.7357
 4197SOL    HW224051   4.320   2.588  17.315  0.5972 -0.2767  0.2670
 4198SOL     OW24052   3.374   2.222   0.773  0.1564  0.2313  0.0496
 4198SOL    HW124053   3.414   2.159   0.713  0.7987  0.7079 -0.0193
 4198SOL    HW224054   3.309   2.170   0.820  1.3983 -1.4351 -0.0726
 4199SOL     OW24055   4.148   0.678   8.515 -0.1126  0.3119 -0.2517
 4199SOL    HW124056   4.160   0.763   8.558  0.7480  0.1498 -0.1810
 4199SOL    HW224057   4.200   0.621   8.572 -0.3377  0.0344 -0.3225
 4200SOL     OW24058   2.989   2.391   5.416  0.3409 -0.0216 -0.8113
 4200SOL    HW124059   2.903   2.425   5.391 -0.0779 -0.5062 -0.0480
 4200SOL    HW224060   3.033   2.408   5.333  0.3273 -1.0035 -1.0167
 4201SOL     OW24061   0.697   4.562   8.584  0.1682  0.3884  0.8583
 4201SOL    HW124062   0.730   4.574   8.673  1.5172 -3.2914  0.8309
 4201SOL    HW224063   0.743   4.638   8.547 -0.4421  0.8900  1.1343
 4202SOL     OW24064   0.543   2.575   8.661  0.3876 -0.0656  0.0478
 4202SOL    HW124065   0.556   2.631   8.585  0.5507 -0.5574 -0.2868
 4202SOL    HW224066   0.489   2.636   8.711  1.7891  1.3312 -0.1596
 4203SOL     OW24067   0.717   3.656   0.842 -0.1916  0.1875 -0.6017
 4203SOL    HW124068   0.739   3.700   0.760 -2.6948 -1.2917 -2.0333
 4203SOL    HW224069   0.653   3.709   0.890  0.4104  1.5178 -1.2579
 4204SOL     OW24070   0.330   0.198   5.206  0.1365  0.2439 -0.2171
 4204SOL    HW124071   0.413   0.180   5.250 -0.1388 -0.7217 -0.1015
 4204SOL    HW224072   0.268   0.143   5.255  0.7118  1.4194  1.8544
 4205SOL     OW24073   2.081   3.667   5.085 -0.1539 -0.4141  0.2980
 4205SOL    HW124074   2.158   3.665   5.029 -0.9977  1.3371 -0.9211
 4205SOL    HW224075   2.120   3.664   5.173  2.5842 -2.1531 -0.9821
 4206SOL     OW24076   2.750   1.431  15.802 -0.3387  0.2487  0.4073
 4206SOL    HW124077   2.722   1.494  15.869  2.8631  1.5248  0.5246
 4206SOL    HW224078   2.834   1.469  15.777 -0.2281  0.0139  0.4207
 4207SOL     OW24079   4.307   3.339  10.159 -0.1359 -0.4447 -0.2567
 4207SOL    HW124080   4.265   3.255  10.178  3.4048 -2.4575 -1.3603
 4207SOL    HW224081   4.381   3.346  10.219 -0.2853 -0.4698 -0.0725
 4208SOL     OW24082   0.609   1.563  10.956 -0.3551  0.4905  0.0856
 4208SOL    HW124083   0.534   1.616  10.929  0.4970  1.8898  0.4474
 4208SOL    HW224084   0.672   1.625  10.919  1.2400 -2.1732 -1.6647
 4209SOL     OW24085   2.154   0.048   8.148  0.4848  0.3942 -0.0762
 4209SOL    HW124086   2.212   4.697   8.140  1.4338  1.1999 -0.6826
 4209SOL    HW224087   2.195   0.090   8.224 -0.8118  1.8425 -0.1652
 4210SOL     OW24088   2.149   1.627   3.178 -0.3194  0.6016 -0.2579
 4210SOL    HW124089   2.082   1.567   3.210  2.1521 -1.1818  1.5805
 4210SOL    HW224090   2.096   1.707   3.176 -0.6257  0.2852 -4.2611
 4211SOL     OW24091   0.535   1.696   7.816 -0.3468  0.1305 -0.2018
 4211SOL    HW124092   0.523   1.687   7.910  2.6135  1.3504  0.3044
 4211SOL    HW224093   0.512   1.789   7.814  1.4375  0.5886  0.2146
 4212SOL     OW24094   0.230   0.846   3.546 -0.2627 -0.0582  0.0004
 4212SOL    HW124095   0.243   0.797   3.465 -1.0104 -0.4533  0.1184
 4212SOL    HW224096   0.222   0.776   3.610  0.7695 -0.9766 -0.8861
 4213SOL     OW24097   3.817   4.431  15.190  0.0741 -0.3793  0.3944
 4213SOL    HW124098   3.885   4.370  15.216 -0.5494 -1.5132 -0.6299
 4213SOL    HW224099   3.791   4.399  15.104 -1.3196  1.2724  0.1835
 4214SOL     OW24100   4.509   1.374   9.131 -0.1925 -0.4630  0.4330
 4214SOL    HW124101   4.574   1.430   9.089  1.6005 -1.4705  1.8652
 4214SOL    HW224102   4.429   1.406   9.091 -0.2337 -1.3337 -0.1877
 4215SOL     OW24103   3.340   0.172   2.093 -0.0790  0.2110  0.3048
 4215SOL    HW124104   3.272   0.117   2.133 -0.8956  0.8709 -0.1566
 4215SOL    HW224105   3.408   0.157   2.158  1.1258 -1.5240 -1.3750
 4216SOL     OW24106   3.050   1.933   2.209  0.1847  0.2937  0.3960
 4216SOL    HW124107   2.985   1.976   2.264 -0.5169  1.8245 -1.6390
 4216SOL    HW224108   3.099   1.877   2.270  1.1156  0.0821 -0.5420
 4217SOL     OW24109   0.177   0.041   8.886  0.3900  0.0733  0.5056
 4217SOL    HW124110   0.214   0.129   8.881 -1.5493  0.8581 -0.0180
 4217SOL    HW224111   0.097   0.057   8.935  0.4287  1.7309  0.0119
 4218SOL     OW24112   3.820   4.177   8.667  0.0807 -0.0716 -0.3219
 4218SOL    HW124113   3.761   4.203   8.738 -0.3534 -2.3025  0.1246
 4218SOL    HW224114   3.830   4.083   8.679  0.4889 -0.3567 -3.0295
 4219SOL     OW24115   1.369   0.291  11.045  0.1191 -0.5756 -0.4539
 4219SOL    HW124116   1.381   0.379  11.081  1.5383 -0.7261 -0.5594
 4219SOL    HW224117   1.328   0.313  10.961  0.6585 -0.7381 -0.7675
 4220SOL     OW24118   2.135   4.040   5.418 -0.2049  0.2248 -0.7845
 4220SOL    HW124119   2.123   4.029   5.512 -2.0861  1.0792 -0.9268
 4220SOL    HW224120   2.100   3.958   5.382 -1.2193 -0.2254  1.2632
 4221SOL     OW24121   3.756   0.656  15.626  0.4418  0.5032 -0.1918
 4221SOL    HW124122   3.751   0.568  15.589  1.8215  0.6500 -0.7092
 4221SOL    HW224123   3.795   0.707  15.555  0.5440  2.2597  1.1244
 4222SOL     OW24124   3.008   1.183   3.422 -0.2690 -0.6852  0.2034
 4222SOL    HW124125   2.979   1.225   3.341  2.2180  1.1908  0.2843
 4222SOL    HW224126   2.984   1.251   3.485  1.7718  0.6944 -0.4956
 4223SOL     OW24127   3.485   1.257   5.754 -0.4160  0.5600 -0.7892
 4223SOL    HW124128   3.528   1.343   5.754  0.7973 -0.0349 -0.9494
 4223SOL    HW224129   3.440   1.268   5.838  1.2618  0.2624  0.1636
 4224SOL     OW24130   2.177   4.507   6.089  0.0527  0.1331 -0.1567
 4224SOL    HW124131   2.106   4.501   6.026  0.4309 -1.8332 -0.4058
 4224SOL    HW224132   2.231   4.432   6.063 -0.1152 -0.0926  0.1511
 4225SOL     OW24133   2.168   0.784   6.957 -0.7377  0.3663 -0.0717
 4225SOL    HW124134   2.186   0.691   6.942 -2.8146  0.4114 -2.8685
 4225SOL    HW224135   2.101   0.793   6.888  1.9329  1.6999 -2.4652
 4226SOL     OW24136   1.424   0.959  12.781 -0.4694 -0.6112 -0.2018
 4226SOL    HW124137   1.329   0.956  12.767 -0.4927 -1.2907  0.0908
 4226SOL    HW224138   1.452   0.898  12.713  1.9591 -1.3774  1.4885
 4227SOL     OW24139   2.788   2.008   3.502 -0.6947 -0.2996  0.5136
 4227SOL    HW124140   2.868   2.055   3.525 -1.0206  1.4879 -1.9776
 4227SOL    HW224141   2.823   1.919   3.495 -0.3142 -0.0636 -0.5979
 4228SOL     OW24142   3.281   3.165  17.159  0.0349  0.5138 -0.0752
 4228SOL    HW124143   3.305   3.165  17.252  0.0590  0.6937 -0.0803
 4228SOL    HW224144   3.341   3.101  17.123  0.8497  0.7605  0.8351
 4229SOL     OW24145   2.547   1.689  15.340 -0.5267  1.0408 -0.4491
 4229SOL    HW124146   2.620   1.730  15.386 -0.4224  0.5053 -0.1308
 4229SOL    HW224147   2.565   1.603  15.379 -0.0106 -0.0609 -3.1401
 4230SOL     OW24148   2.530   0.925   8.896  0.0307  0.3311 -0.1151
 4230SOL    HW124149   2.478   0.848   8.921  0.6587  0.7902  2.6025
 4230SOL    HW224150   2.460   0.987   8.877  0.6325  1.0217 -0.0779
 4231SOL     OW24151   1.340   0.760  11.423 -0.1745  0.3271 -0.1808
 4231SOL    HW124152   1.269   0.696  11.431 -0.3511  0.4991 -0.3714
 4231SOL    HW224153   1.304   0.847  11.433  1.8160  0.9673  1.5755
 4232SOL     OW24154   4.089   0.244  10.382  0.1130  0.0502  0.3079
 4232SOL    HW124155   4.132   0.320  10.343  1.8970 -0.6498  0.9058
 4232SOL    HW224156   4.047   0.285  10.458  1.0807  1.9491 -0.1823
 4233SOL     OW24157   3.056   3.197   2.212  0.0467  0.6151 -0.0307
 4233SOL    HW124158   2.985   3.242   2.258 -0.3294  1.2207 -1.1806
 4233SOL    HW224159   3.057   3.239   2.126  2.5994 -0.0262 -0.3191
 4234SOL     OW24160   1.103   4.673   3.967 -0.0271  0.6501 -0.3135
 4234SOL    HW124161   1.051   4.607   4.012  0.0121 -0.5372 -2.0124
 4234SOL    HW224162   1.067   4.684   3.879  0.9877  0.8976 -0.6943
 4235SOL     OW24163   0.698   1.071  17.691 -0.5478 -0.1176  0.1613
 4235SOL    HW124164   0.723   1.061   0.085  0.5256  0.0499 -0.1186
 4235SOL    HW224165   0.755   1.002  17.656 -1.7356 -1.1645  0.2799
 4236SOL     OW24166   1.619   3.682   7.559 -0.2337 -0.0175  0.2371
 4236SOL    HW124167   1.541   3.672   7.505  0.0291 -1.8035  0.1674
 4236SOL    HW224168   1.611   3.600   7.608  2.0676 -2.2702 -3.1328
 4237SOL     OW24169   1.590   4.085  11.781 -0.1168  0.0369 -0.1309
 4237SOL    HW124170   1.595   4.173  11.742  0.9144 -0.1671 -0.4449
 4237SOL    HW224171   1.501   4.089  11.815 -0.1464  2.7198 -0.4688
 4238SOL     OW24172   3.007   1.477   6.197 -0.1939  0.2007  0.1265
 4238SOL    HW124173   2.972   1.540   6.134  0.1208 -1.8176 -2.0480
 4238SOL    HW224174   3.096   1.508   6.214  0.2176 -1.6891  1.3727
 4239SOL     OW24175   2.726   1.823  10.346 -0.5290 -0.0534  0.1252
 4239SOL    HW124176   2.754   1.733  10.365 -1.3378 -0.2419  0.4555
 4239SOL    HW224177   2.708   1.810  10.253  0.5525  0.4301 -0.1469
 4240SOL     OW24178   3.560   4.378   4.122  0.6512 -0.2452  0.0596
 4240SOL    HW124179   3.645   4.355   4.085  0.8487  0.2917  0.1884
 4240SOL    HW224180   3.580   4.470   4.135 -0.6860 -0.1255  1.2576
 4241SOL     OW24181   1.452   1.849   9.664 -0.2344  0.3432  0.2338
 4241SOL    HW124182   1.427   1.770   9.615 -1.8674 -0.4313  2.2938
 4241SOL    HW224183   1.540   1.818   9.686  0.3588  0.9673 -1.2501
 4242SOL     OW24184   2.871   1.479  11.775 -0.0889 -0.1591  0.3392
 4242SOL    HW124185   2.893   1.430  11.696  1.2783  2.2456 -0.7759
 4242SOL    HW224186   2.955   1.471  11.820  1.0928  0.3884 -1.7576
 4243SOL     OW24187   4.493   2.520   6.624 -0.5033  0.3918 -0.0355
 4243SOL    HW124188   4.588   2.512   6.615 -0.3494 -0.0509  1.9093
 4243SOL    HW224189   4.472   2.432   6.656  1.9652 -0.2458 -0.1876
 4244SOL     OW24190   1.545   4.000   2.785 -0.8741  0.1417 -0.2814
 4244SOL    HW124191   1.514   4.012   2.695 -1.2839 -0.5557 -0.2311
 4244SOL    HW224192   1.591   3.917   2.779  1.7449  1.6513 -1.4454
 4245SOL     OW24193   3.558   2.438   2.000 -0.0930  0.4621  0.1041
 4245SOL    HW124194   3.596   2.521   1.973  0.7704  0.5750  1.6180
 4245SOL    HW224195   3.481   2.428   1.944 -0.8662 -1.3822  1.4918
 4246SOL     OW24196   0.656   0.917   7.903  0.2960  0.4405  0.1951
 4246SOL    HW124197   0.586   0.937   7.965 -1.1040 -0.2271 -1.1595
 4246SOL    HW224198   0.728   0.961   7.949 -0.3799  1.7265  0.0202
 4247SOL     OW24199   1.233   4.401  15.980 -0.4494 -0.2970 -0.6789
 4247SOL    HW124200   1.177   4.471  15.948  0.0153  0.7960  0.8759
 4247SOL    HW224201   1.186   4.321  15.957 -0.3365 -0.1079 -1.5743
 4248SOL     OW24202   2.242   0.077   0.879 -0.8793 -0.1244 -0.2255
 4248SOL    HW124203   2.170   0.031   0.922 -0.3882  0.1113  0.8392
 4248SOL    HW224204   2.192   0.145   0.834 -0.2887  2.2687  2.7596
 4249SOL     OW24205   3.649   2.979   2.948  0.2216 -0.0596  0.2921
 4249SOL    HW124206   3.632   2.885   2.955 -1.7920  0.1422 -1.8036
 4249SOL    HW224207   3.742   2.962   2.958 -0.6831 -3.8738  2.1208
 4250SOL     OW24208   3.215   0.911   6.665 -0.3106 -0.3434  0.1415
 4250SOL    HW124209   3.132   0.867   6.680 -0.2788  0.4053  2.5284
 4250SOL    HW224210   3.186   0.993   6.623  2.6283 -0.1754 -1.5829
 4251SOL     OW24211   2.447   1.037   4.705  0.0149 -0.3563  0.3702
 4251SOL    HW124212   2.496   1.041   4.787  1.4124 -0.6156 -0.4554
 4251SOL    HW224213   2.511   1.017   4.637  0.3591  0.9021  0.3202
 4252SOL     OW24214   2.387   1.943   9.476 -0.7121  0.4571 -0.2096
 4252SOL    HW124215   2.307   1.967   9.429  0.0153  5.1307  1.0106
 4252SOL    HW224216   2.454   1.958   9.410  1.4065 -3.0537  1.1606
 4253SOL     OW24217   1.852   0.961   5.493  0.4052 -0.0849  0.3667
 4253SOL    HW124218   1.929   0.958   5.550  0.7285  0.1752 -0.0577
 4253SOL    HW224219   1.794   1.018   5.543  1.1110  1.4667 -0.5977
 4254SOL     OW24220   3.682   2.700   3.440 -0.8278  0.0056 -0.7056
 4254SOL    HW124221   3.680   2.743   3.354 -1.3415  0.4289 -0.4856
 4254SOL    HW224222   3.726   2.619   3.414 -1.0089 -1.0614  2.2763
 4255SOL     OW24223   4.283   2.685   4.566 -0.0786  0.0335  0.4712
 4255SOL    HW124224   4.303   2.761   4.621  1.2917  0.4234 -0.5798
 4255SOL    HW224225   4.344   2.632   4.617 -0.3292  1.4036  2.2123
 4256SOL     OW24226   3.504   4.276   4.353  0.4217  0.2205  0.3749
 4256SOL    HW124227   3.502   4.326   4.271  1.5583  0.9997  0.8299
 4256SOL    HW224228   3.579   4.324   4.388 -0.4092  0.5101  1.7243
 4257SOL     OW24229   4.370   1.888   2.508  0.1018  0.0979  0.3106
 4257SOL    HW124230   4.307   1.820   2.483  1.1667 -1.2867  1.4159
 4257SOL    HW224231   4.376   1.866   2.601 -1.6736 -2.9115 -0.2622
 4258SOL     OW24232   2.242   1.196   4.028  0.2750 -0.1938  0.6895
 4258SOL    HW124233   2.180   1.258   4.067 -0.8380  0.7612 -2.6755
 4258SOL    HW224234   2.325   1.245   4.033  0.7857 -1.0585  0.7194
 4259SOL     OW24235   1.790   0.549  10.603  0.1679  0.1757  0.5262
 4259SOL    HW124236   1.826   0.464  10.629  0.9594  0.8416  1.6310
 4259SOL    HW224237   1.864   0.580  10.551  0.4410 -1.0290  0.1816
 4260SOL     OW24238   3.166   0.930   8.124  0.0143 -0.5279  0.1581
 4260SOL    HW124239   3.228   0.952   8.054  0.4249  0.8440  0.9570
 4260SOL    HW224240   3.129   0.853   8.081 -1.0834  0.1298 -0.0875
 4261SOL     OW24241   4.489   2.403   7.402 -0.0932 -0.5880 -0.5855
 4261SOL    HW124242   4.474   2.439   7.489  1.1916 -0.7768 -0.2866
 4261SOL    HW224243   4.400   2.382   7.376 -0.1499 -0.6890 -0.3121
 4262SOL     OW24244   4.436   1.653  13.584 -0.4756 -0.0945  0.0945
 4262SOL    HW124245   4.493   1.584  13.617  1.6425  1.2111 -0.8453
 4262SOL    HW224246   4.493   1.728  13.601  0.1680 -0.6326  0.3115
 4263SOL     OW24247   4.098   4.207   2.144 -0.3806  0.1910  0.0808
 4263SOL    HW124248   4.122   4.228   2.054  0.4579 -0.3233  0.1827
 4263SOL    HW224249   4.046   4.285   2.165 -1.7232 -1.2928  2.3511
 4264SOL     OW24250   3.010   3.575   5.194  0.1447 -0.1551 -0.1972
 4264SOL    HW124251   3.028   3.515   5.122 -2.5129 -2.2641  0.9116
 4264SOL    HW224252   3.038   3.521   5.268  0.5592  0.4819  0.1086
 4265SOL     OW24253   4.117   4.147   7.049  0.2635 -0.1711  0.0488
 4265SOL    HW124254   4.086   4.189   6.968 -1.2563 -0.0049  0.7110
 4265SOL    HW224255   4.212   4.140   7.041  0.2894  1.6947 -1.0687
 4266SOL     OW24256   1.859   1.254   7.888  0.0954 -0.2983 -0.5462
 4266SOL    HW124257   1.862   1.253   7.984  1.2461 -1.7408 -0.5970
 4266SOL    HW224258   1.833   1.346   7.883 -3.4939 -1.3793 -2.0066
 4267SOL     OW24259   3.892   4.338   5.228 -0.2005  0.4199 -0.4636
 4267SOL    HW124260   3.831   4.412   5.222  1.6562  1.8309 -2.1599
 4267SOL    HW224261   3.864   4.305   5.142  0.8774  2.2562 -1.5396
 4268SOL     OW24262   2.206   4.428  12.320  0.5257  0.2043 -0.1347
 4268SOL    HW124263   2.190   4.372  12.396  3.4183 -1.5042 -0.8182
 4268SOL    HW224264   2.214   4.365  12.249 -1.2964  1.0727 -1.1335
 4269SOL     OW24265   3.475   3.021   5.107 -0.7831 -0.4658  0.2534
 4269SOL    HW124266   3.531   2.966   5.162 -0.2145 -2.3361 -2.2167
 4269SOL    HW224267   3.514   3.104   5.134 -2.6549  1.3782 -2.6702
 4270SOL     OW24268   0.607   2.411   7.371  0.3747 -0.1799 -0.2842
 4270SOL    HW124269   0.612   2.427   7.277 -0.4331  0.9615 -0.1298
 4270SOL    HW224270   0.692   2.369   7.384  0.4495 -0.2522 -0.9847
 4271SOL     OW24271   3.589   0.937   7.031 -0.2976 -0.0849  0.3517
 4271SOL    HW124272   3.544   0.992   7.094  0.5733  0.1677  0.7525
 4271SOL    HW224273   3.668   0.936   7.084  1.5487  1.5918 -2.3500
 4272SOL     OW24274   2.030   1.311   4.135 -0.3253  0.4048  0.1969
 4272SOL    HW124275   1.991   1.388   4.093 -1.2134 -0.2249 -0.1312
 4272SOL    HW224276   1.949   1.275   4.171 -1.0715  1.5665 -0.3105
 4273SOL     OW24277   1.785   1.771   9.151 -0.3237  0.4030  0.2679
 4273SOL    HW124278   1.751   1.853   9.115 -1.5997 -0.0211  0.5218
 4273SOL    HW224279   1.751   1.776   9.240  2.7407 -0.6548  1.5172
 4274SOL     OW24280   4.002   4.361   7.829  0.0657  0.1782 -0.1607
 4274SOL    HW124281   3.942   4.427   7.795  0.7000  1.9147  2.0698
 4274SOL    HW224282   3.949   4.318   7.896  0.0296  0.7681  0.1937
 4275SOL     OW24283   2.413   0.481  16.762 -0.5411 -0.2210  0.2784
 4275SOL    HW124284   2.427   0.523  16.678  2.9904 -0.4432  0.7568
 4275SOL    HW224285   2.498   0.490  16.806  0.5409  0.5718 -1.9956
 4276SOL     OW24286   4.012   3.805  14.574 -0.5584  0.4695  0.0666
 4276SOL    HW124287   4.072   3.800  14.499 -0.1553  1.3074  0.3334
 4276SOL    HW224288   4.067   3.807  14.652 -0.5617 -0.8646  0.1074
 4277SOL     OW24289   4.723   1.298   8.403 -0.4084 -0.0388  0.1400
 4277SOL    HW124290   4.666   1.326   8.475 -1.4584 -1.2939 -0.1864
 4277SOL    HW224291   0.025   1.218   8.448 -0.1341  0.6716  1.2379
 4278SOL     OW24292   1.662   0.446   2.954 -0.4476 -0.3936 -0.1397
 4278SOL    HW124293   1.715   0.403   2.887  0.9625  1.3089 -0.1223
 4278SOL    HW224294   1.716   0.432   3.031  0.5147 -0.7268 -0.8651
 4279SOL     OW24295   1.828   1.089  13.813 -0.4603 -0.1463 -0.0137
 4279SOL    HW124296   1.877   1.126  13.886  2.9394  0.2549 -2.5123
 4279SOL    HW224297   1.744   1.113  13.852 -0.9422 -2.2123  0.2010
 4280SOL     OW24298   1.627   1.328  14.992  0.5285 -0.1179 -0.1302
 4280SOL    HW124299   1.580   1.265  14.937  1.6000 -1.0776  0.0682
 4280SOL    HW224300   1.575   1.409  14.989  0.8038  0.1334  2.3874
 4281SOL     OW24301   2.793   4.496   7.178 -0.1548 -0.1108 -0.6133
 4281SOL    HW124302   2.878   4.539   7.175 -0.6691  0.6904 -3.0348
 4281SOL    HW224303   2.731   4.559   7.141 -0.2259  0.6089  0.7230
 4282SOL     OW24304   3.586   1.517   9.920  0.6002 -0.5269 -0.0029
 4282SOL    HW124305   3.497   1.485   9.906 -0.2385  0.9423  1.9900
 4282SOL    HW224306   3.580   1.607   9.953 -0.4603 -0.0604 -1.4530
 4283SOL     OW24307   1.899   1.661   8.076 -0.1146  0.6588 -0.0781
 4283SOL    HW124308   1.982   1.630   8.112  0.0775  1.0150 -0.2123
 4283SOL    HW224309   1.849   1.694   8.151  1.3633  0.4152  1.0207
 4284SOL     OW24310   3.218   2.738   7.594 -0.0334  0.1810  0.3558
 4284SOL    HW124311   3.146   2.717   7.535 -1.1516  0.5801  1.5711
 4284SOL    HW224312   3.239   2.652   7.630  1.4017  1.2420  2.1136
 4285SOL     OW24313   0.315   0.272   5.526 -0.1432  0.3616 -0.0880
 4285SOL    HW124314   0.371   0.249   5.452 -0.6095  1.2003 -0.7051
 4285SOL    HW224315   0.277   0.185   5.541 -1.0702  0.7962  0.1078
 4286SOL     OW24316   2.809   0.156  14.993  0.3471 -0.2878  0.1921
 4286SOL    HW124317   2.809   0.232  15.052  0.7497  1.6157 -2.2422
 4286SOL    HW224318   2.822   0.079  15.047  1.6405 -1.3740 -1.6780
 4287SOL     OW24319   1.325   3.313   5.958 -0.2257  0.1123 -0.3523
 4287SOL    HW124320   1.331   3.351   5.871 -1.3700 -0.0332 -0.5004
 4287SOL    HW224321   1.418   3.317   5.982  0.0089  2.0934 -1.6687
 4288SOL     OW24322   1.963   2.313   9.673  0.6899 -0.2872  0.4838
 4288SOL    HW124323   1.986   2.344   9.585  0.1212  2.3457  1.2631
 4288SOL    HW224324   1.875   2.346   9.690  0.6139 -0.2189 -0.0360
 4289SOL     OW24325   0.154   2.732   5.996  0.2844  0.1149 -0.4803
 4289SOL    HW124326   0.080   2.672   5.999  2.3171 -2.1862  3.8909
 4289SOL    HW224327   0.115   2.818   6.011 -0.7375 -0.4655  0.2096
 4290SOL     OW24328   1.962   4.463  17.055 -0.0397  0.1060  0.2975
 4290SOL    HW124329   1.994   4.374  17.039  0.1125  0.4757 -1.4129
 4290SOL    HW224330   1.889   4.459  16.993  0.3565 -1.5021 -0.0749
 4291SOL     OW24331   0.387   3.265   7.560 -0.2166  0.4879 -0.0398
 4291SOL    HW124332   0.310   3.212   7.539  2.0981 -3.0999  0.4118
 4291SOL    HW224333   0.366   3.287   7.651  1.0268 -1.4093  0.7090
 4292SOL     OW24334   4.148   3.977   3.767 -0.2184  0.0792  0.4128
 4292SOL    HW124335   4.188   3.893   3.791  1.5275  0.6294 -0.5246
 4292SOL    HW224336   4.221   4.028   3.731 -0.5654 -1.0480 -1.9265
 4293SOL     OW24337   1.216   4.428   2.068  0.0130 -0.2346  0.3578
 4293SOL    HW124338   1.310   4.444   2.054 -0.5752  2.4718 -0.5218
 4293SOL    HW224339   1.212   4.416   2.163 -0.7347 -0.2261  0.3265
 4294SOL     OW24340   3.427   0.103  10.683  0.1503  0.0169  0.1557
 4294SOL    HW124341   3.339   0.139  10.692 -0.0366 -0.5955  0.7840
 4294SOL    HW224342   3.465   0.171  10.739  2.1684 -0.4053 -0.7105
 4295SOL     OW24343   4.273   1.948   6.138  0.0586 -0.1657  0.0443
 4295SOL    HW124344   4.331   2.011   6.095  1.6154 -0.5729  1.5563
 4295SOL    HW224345   4.329   1.896   6.196 -0.5099 -0.4845  0.3060
 4296SOL     OW24346   3.008   0.888   1.977 -0.2085 -0.6289  0.1192
 4296SOL    HW124347   2.972   0.819   1.922 -3.0688  1.6544 -0.8694
 4296SOL    HW224348   2.986   0.849   2.062 -2.2327 -0.5122 -0.3617
 4297SOL     OW24349   1.031   2.602   5.879 -0.0944 -0.4692 -0.0943
 4297SOL    HW124350   0.960   2.594   5.815  0.5579 -0.5770 -0.8000
 4297SOL    HW224351   1.089   2.669   5.844  0.0550  0.5549  2.1741
 4298SOL     OW24352   3.365   2.034  13.414 -0.4872  0.2003 -0.2568
 4298SOL    HW124353   3.413   1.960  13.449 -0.6426  0.8646  1.3498
 4298SOL    HW224354   3.436   2.097  13.424 -0.1346 -0.3088  0.4140
 4299SOL     OW24355   2.717   2.142   1.248  0.3929 -0.0892 -0.4545
 4299SOL    HW124356   2.654   2.085   1.293 -2.0275  2.0605 -1.1035
 4299SOL    HW224357   2.799   2.119   1.290 -0.9707  0.3219  2.4140
 4300SOL     OW24358   0.592   4.338  11.988 -0.4148 -0.7688  0.6138
 4300SOL    HW124359   0.566   4.296  12.070 -0.7864 -1.9657 -0.1225
 4300SOL    HW224360   0.628   4.263  11.941  0.3368 -0.3725  0.5570
 4301SOL     OW24361   4.080   2.697   0.693  0.5656 -0.4295  0.0040
 4301SOL    HW124362   4.056   2.611   0.728  1.2901 -1.6483 -2.4530
 4301SOL    HW224363   4.175   2.689   0.692  0.7981  2.1009  0.6200
 4302SOL     OW24364   3.058   2.693   7.362 -0.2127 -0.1640 -0.5070
 4302SOL    HW124365   2.999   2.619   7.371 -0.2115 -0.5398 -3.6199
 4302SOL    HW224366   3.116   2.671   7.289 -0.8104  0.4465 -1.1727
 4303SOL     OW24367   2.712   1.768   8.348  0.3582  0.1939  0.7905
 4303SOL    HW124368   2.754   1.826   8.412 -2.2550 -0.2574  2.8870
 4303SOL    HW224369   2.678   1.707   8.412 -2.7841  0.8142 -0.2801
 4304SOL     OW24370   2.394   1.085   0.431  0.7853 -0.1655 -0.2257
 4304SOL    HW124371   2.334   1.151   0.398  0.0406 -0.4347  0.6129
 4304SOL    HW224372   2.362   1.074   0.520 -0.7693  0.5799 -0.7072
 4305SOL     OW24373   0.046   3.000   8.632 -0.3459  0.7189  0.4429
 4305SOL    HW124374   0.119   3.018   8.691  0.4840  0.2046 -0.4057
 4305SOL    HW224375   0.015   3.088   8.610 -3.7493 -0.6168 -0.0985
 4306SOL     OW24376   0.801   0.024   2.506  0.4035 -0.1077 -0.4451
 4306SOL    HW124377   0.779   4.667   2.553 -0.2344  0.2597 -0.1117
 4306SOL    HW224378   0.797   0.084   2.581 -1.0324  0.8530 -1.2881
 4307SOL     OW24379   3.154   3.628   7.225 -0.7245 -0.0273 -0.0833
 4307SOL    HW124380   3.126   3.716   7.250 -0.2111  0.0932  0.0786
 4307SOL    HW224381   3.106   3.578   7.291 -0.1692 -2.1765 -1.3092
 4308SOL     OW24382   1.353   2.075  16.723 -0.0905 -0.0314 -0.0118
 4308SOL    HW124383   1.270   2.119  16.707  1.2515  3.0582  1.5497
 4308SOL    HW224384   1.419   2.140  16.700 -0.4443  0.3297 -0.0068
 4309SOL     OW24385   0.658   1.009   4.164  0.1462  0.2565  0.1503
 4309SOL    HW124386   0.644   0.914   4.165 -0.2226  0.2973 -1.2683
 4309SOL    HW224387   0.579   1.039   4.119  0.0433 -1.9270 -1.1641
 4310SOL     OW24388   0.784   3.640   5.749 -0.4312 -0.1708  0.1617
 4310SOL    HW124389   0.741   3.722   5.725 -0.8072  0.3405  2.5572
 4310SOL    HW224390   0.711   3.592   5.788  0.1819 -1.1134  0.1461
 4311SOL     OW24391   0.676   1.144   7.448  0.2831  0.0454  0.2183
 4311SOL    HW124392   0.680   1.085   7.373 -1.1913  1.5368 -1.0361
 4311SOL    HW224393   0.725   1.094   7.513  2.3606 -0.5286 -1.8160
 4312SOL     OW24394   0.505   4.238   0.573 -0.1614 -0.3860  0.6193
 4312SOL    HW124395   0.543   4.315   0.531  1.9901 -1.9696 -0.3342
 4312SOL    HW224396   0.526   4.248   0.666 -3.6702  1.6089  1.1551
 4313SOL     OW24397   1.426   4.531   1.617  0.0093  0.5625 -0.2614
 4313SOL    HW124398   1.353   4.593   1.611  1.0348  1.6520 -1.4432
 4313SOL    HW224399   1.402   4.460   1.558 -0.1296 -1.4082  2.1878
 4314SOL     OW24400   0.400   1.531   2.153  0.5427  0.3564  0.6594
 4314SOL    HW124401   0.494   1.516   2.146  0.4728 -0.5323  1.5055
 4314SOL    HW224402   0.372   1.512   2.064  3.4376  1.0913 -0.3830
 4315SOL     OW24403   3.070   2.758  15.917  0.5677 -0.6072 -0.5269
 4315SOL    HW124404   3.082   2.670  15.882  0.3107 -0.4991 -0.8861
 4315SOL    HW224405   3.157   2.794  15.900  0.0040  0.1889 -1.7191
 4316SOL     OW24406   0.839   3.845   3.503 -0.4998  0.2883  0.2684
 4316SOL    HW124407   0.882   3.760   3.510 -0.6901  0.3622  2.0842
 4316SOL    HW224408   0.789   3.830   3.423  1.7307  0.2716 -1.1314
 4317SOL     OW24409   0.538   0.165   5.379 -0.1414  0.4504  0.1161
 4317SOL    HW124410   0.608   0.137   5.438  1.4409  3.7979 -0.2068
 4317SOL    HW224411   0.588   0.226   5.326 -1.1915 -0.5636 -2.0693
 4318SOL     OW24412   3.653   2.419   4.053  0.0693  0.0975 -0.0541
 4318SOL    HW124413   3.642   2.486   3.986  0.7589 -0.8328 -1.1038
 4318SOL    HW224414   3.568   2.374   4.048  0.3432 -0.2824 -1.2357
 4319SOL     OW24415   1.815   0.923   0.288  0.0760  0.2126  0.1434
 4319SOL    HW124416   1.858   0.970   0.360 -0.7685  0.2237  0.6334
 4319SOL    HW224417   1.725   0.933   0.317 -0.2805  1.4692 -1.3658
 4320SOL     OW24418   4.480   1.491   4.089 -0.4515 -0.9474  0.3903
 4320SOL    HW124419   4.485   1.561   4.024  0.6796 -0.0795  1.4301
 4320SOL    HW224420   4.416   1.530   4.148 -0.8222  0.1771 -0.7613
 4321SOL     OW24421   2.936   2.102   8.351  0.3037 -0.5325  0.0898
 4321SOL    HW124422   2.861   2.146   8.391 -0.0360 -0.5682 -0.5107
 4321SOL    HW224423   2.999   2.105   8.423 -1.8972  1.4997  1.9317
 4322SOL     OW24424   0.152   1.727   6.811  0.2736 -0.2133  0.5419
 4322SOL    HW124425   0.208   1.747   6.886 -0.6117  0.2327  1.0830
 4322SOL    HW224426   0.094   1.802   6.820  1.9293  0.9968  1.1020
 4323SOL     OW24427   0.623   2.143   7.768  0.2939  0.0483  0.0383
 4323SOL    HW124428   0.586   2.193   7.841  0.1963 -1.3606  0.9565
 4323SOL    HW224429   0.713   2.174   7.756  0.3700 -1.0584 -2.1713
 4324SOL     OW24430   3.916   3.372  11.179  0.5035  0.1668 -0.6792
 4324SOL    HW124431   3.962   3.417  11.108 -0.5538 -0.4994 -1.8011
 4324SOL    HW224432   3.960   3.409  11.255 -0.2659 -0.6798  0.1774
 4325SOL     OW24433   3.689   4.639   3.343 -0.4980 -0.0360 -0.0148
 4325SOL    HW124434   3.671   4.709   3.280 -0.2686  1.2452  1.3331
 4325SOL    HW224435   3.780   4.654   3.369  0.0290 -3.8695  0.3894
 4326SOL     OW24436   0.542   2.610  11.547 -0.3340  0.0273  0.3945
 4326SOL    HW124437   0.530   2.681  11.610 -0.5282  0.0053  0.3818
 4326SOL    HW224438   0.454   2.574  11.548  0.4417 -1.8724  0.7635
 4327SOL     OW24439   0.226   3.494   5.960  0.3353  0.3091 -0.3969
 4327SOL    HW124440   0.196   3.489   5.869 -2.2050 -1.0164  0.5353
 4327SOL    HW224441   0.154   3.527   6.014 -0.7555 -0.3890 -1.4478
 4328SOL     OW24442   2.700   0.787   1.436  0.1905  0.0200 -0.5286
 4328SOL    HW124443   2.744   0.727   1.376  0.8450  1.5042 -1.5055
 4328SOL    HW224444   2.608   0.765   1.425  0.4254 -2.4708  2.3127
 4329SOL     OW24445   2.708   4.261   8.966 -0.4230 -0.4833 -0.3038
 4329SOL    HW124446   2.688   4.209   9.043  0.0599 -1.6576 -0.9713
 4329SOL    HW224447   2.795   4.297   8.986  1.1964 -3.5809 -1.8198
 4330SOL     OW24448   0.487   3.782  14.572 -0.1562  0.3887 -0.3313
 4330SOL    HW124449   0.499   3.702  14.522  0.1327  1.6383 -2.2256
 4330SOL    HW224450   0.496   3.850  14.505  0.3489  1.4499  0.7998
 4331SOL     OW24451   2.285   2.895   5.757  0.0427  0.0043  0.1761
 4331SOL    HW124452   2.321   2.960   5.817  3.1908 -2.3533  0.8343
 4331SOL    HW224453   2.196   2.897   5.793 -0.1757  2.3739 -0.4770
 4332SOL     OW24454   2.527   0.761   3.372 -0.4623 -0.6180 -0.1571
 4332SOL    HW124455   2.450   0.753   3.315 -0.5652 -1.9504  0.1564
 4332SOL    HW224456   2.598   0.769   3.309 -0.8591 -1.0265 -0.6626
 4333SOL     OW24457   3.959   0.404   5.660 -0.0861  0.3248 -0.0738
 4333SOL    HW124458   3.911   0.471   5.612  1.3709  0.3418 -1.5175
 4333SOL    HW224459   4.037   0.451   5.687  0.5146 -0.3426 -0.6317
 4334SOL     OW24460   1.449   3.818   6.814 -0.3050  0.1727 -0.4350
 4334SOL    HW124461   1.396   3.885   6.856 -2.6203 -1.4250 -0.8155
 4334SOL    HW224462   1.504   3.784   6.885  1.4349  3.9060 -0.0184
 4335SOL     OW24463   2.917   3.139   7.050 -0.0214  0.4354  1.5656
 4335SOL    HW124464   2.856   3.184   7.108 -1.0752  0.2757  0.5772
 4335SOL    HW224465   2.967   3.213   7.015  1.8096 -0.8548  1.4350
 4336SOL     OW24466   3.709   3.689   1.943 -0.5730 -0.3782  0.4815
 4336SOL    HW124467   3.773   3.628   1.905  0.0797  0.0179  0.9504
 4336SOL    HW224468   3.662   3.624   1.996 -1.4651 -0.3249 -0.2509
 4337SOL     OW24469   2.667   3.905   9.166  0.3876  0.2269  0.1678
 4337SOL    HW124470   2.593   3.964   9.151 -0.2953 -1.5495 -3.3822
 4337SOL    HW224471   2.715   3.946   9.239  1.2258  1.4093 -1.0344
 4338SOL     OW24472   0.159   0.430   3.493 -0.2080  0.1633 -0.7146
 4338SOL    HW124473   0.217   0.504   3.474  1.7882 -1.6338 -1.5378
 4338SOL    HW224474   0.157   0.367   3.421 -3.4069  0.5040 -0.9579
 4339SOL     OW24475   1.057   1.955  13.656  0.0319  0.3184 -0.0679
 4339SOL    HW124476   0.981   1.900  13.634  2.5562 -2.1025 -2.8606
 4339SOL    HW224477   1.065   2.013  13.580 -0.0286 -0.7842 -0.9341
 4340SOL     OW24478   0.460   3.613  16.420 -0.3118 -0.2385  0.4696
 4340SOL    HW124479   0.534   3.556  16.440 -0.7611 -0.8409  0.3898
 4340SOL    HW224480   0.405   3.555  16.368 -0.8897  0.0787  0.7212
 4341SOL     OW24481   4.314   0.485   7.536 -0.6012 -0.0702 -0.2526
 4341SOL    HW124482   4.366   0.480   7.617  3.2739 -1.2897 -2.8463
 4341SOL    HW224483   4.225   0.469   7.567 -0.7394 -0.4489 -0.8382
 4342SOL     OW24484   2.683   0.363   2.793 -0.2553 -0.0040 -0.7310
 4342SOL    HW124485   2.646   0.277   2.814  0.7359 -0.5034 -1.0624
 4342SOL    HW224486   2.730   0.344   2.712 -2.3133 -0.5335 -1.8114
 4343SOL     OW24487   2.863   1.244   7.711  0.5371 -0.0054 -0.4233
 4343SOL    HW124488   2.957   1.256   7.723  0.7754 -2.6467  0.4733
 4343SOL    HW224489   2.826   1.316   7.762 -0.7038  0.0325 -1.3628
 4344SOL     OW24490   3.915   2.427  10.462 -0.1731  0.1159  0.2623
 4344SOL    HW124491   3.888   2.421  10.370  3.2341  1.3261 -0.7912
 4344SOL    HW224492   3.981   2.358  10.457 -0.9240 -0.8598  3.7222
 4345SOL     OW24493   0.380   2.438   0.088 -0.2845  0.3368 -0.4860
 4345SOL    HW124494   0.405   2.372   0.024  3.0518 -1.1897  2.3697
 4345SOL    HW224495   0.450   2.446   0.153 -1.9473  0.9542  1.2127
 4346SOL     OW24496   4.492   0.920  12.096  0.0093 -0.5565 -0.1248
 4346SOL    HW124497   4.556   0.970  12.146 -0.0664 -1.0046  0.4215
 4346SOL    HW224498   4.556   0.880  12.037  0.8322  1.0744 -0.3402
 4347SOL     OW24499   3.846   3.007   2.066 -0.6186  0.4289  0.1767
 4347SOL    HW124500   3.868   3.003   2.159 -2.4308 -0.5443  0.5653
 4347SOL    HW224501   3.750   3.008   2.068 -0.6081 -0.9135  0.9789
 4348SOL     OW24502   3.614   2.354   8.820  0.2817  0.2065  0.2114
 4348SOL    HW124503   3.663   2.317   8.747 -0.8716  2.1219 -1.5367
 4348SOL    HW224504   3.605   2.275   8.874 -0.9333 -0.2805 -0.7034
 4349SOL     OW24505   3.406   3.553   1.612 -0.2275 -0.1064  0.1291
 4349SOL    HW124506   3.342   3.486   1.637  1.0107 -0.9645  0.9823
 4349SOL    HW224507   3.470   3.507   1.559 -0.0490 -1.2901  1.3755
 4350SOL     OW24508   2.194   1.398   7.325 -0.4666 -0.5156  0.8874
 4350SOL    HW124509   2.229   1.320   7.369  1.5133 -0.0513  0.1262
 4350SOL    HW224510   2.258   1.464   7.351 -0.5956  0.0998 -0.3684
 4351SOL     OW24511   3.775   1.855   7.557 -0.1787  0.1763 -0.2083
 4351SOL    HW124512   3.776   1.765   7.591  0.3868  0.7532  1.3060
 4351SOL    HW224513   3.856   1.892   7.593  0.8881  0.0110 -2.4161
 4352SOL     OW24514   2.947   0.957   7.229  0.4795 -0.1081 -0.2371
 4352SOL    HW124515   2.935   0.886   7.166  1.1471 -1.9170  1.6697
 4352SOL    HW224516   2.937   1.031   7.170  1.3118  0.5298  0.4198
 4353SOL     OW24517   3.715   4.308   3.893  0.0519  0.0044  0.3057
 4353SOL    HW124518   3.733   4.273   3.806  1.7472 -0.2710  0.7700
 4353SOL    HW224519   3.628   4.342   3.872 -0.8794 -1.8721  1.1105
 4354SOL     OW24520   3.477   3.656   7.442 -0.3253 -0.1182  0.3659
 4354SOL    HW124521   3.521   3.581   7.483 -1.0506  0.7484  2.7095
 4354SOL    HW224522   3.535   3.730   7.459 -2.0316  1.1932  0.4769
 4355SOL     OW24523   3.809   0.618   4.047 -0.3259  0.3335  0.1161
 4355SOL    HW124524   3.897   0.613   4.084 -0.4109  1.3545  0.4685
 4355SOL    HW224525   3.828   0.583   3.960 -0.0267  2.6127 -0.7337
 4356SOL     OW24526   4.183   0.255   8.965 -0.5931 -0.2149 -0.0448
 4356SOL    HW124527   4.128   0.285   9.038  0.4929 -0.2120  0.7603
 4356SOL    HW224528   4.271   0.271   8.998 -0.5348 -3.6418  1.5340
 4357SOL     OW24529   1.151   4.380  16.359 -0.1945 -0.0867  0.5247
 4357SOL    HW124530   1.089   4.412  16.425 -1.8696  0.1951 -1.1856
 4357SOL    HW224531   1.186   4.465  16.333  0.2682 -0.2124  0.7345
 4358SOL     OW24532   3.221   2.402  11.790 -0.6606 -0.4361  0.1768
 4358SOL    HW124533   3.279   2.349  11.735 -0.0996 -0.5449  0.8822
 4358SOL    HW224534   3.137   2.409  11.744 -0.8121  0.4167  0.5854
 4359SOL     OW24535   1.486   2.965   6.721  0.0527 -0.1914 -1.0396
 4359SOL    HW124536   1.505   2.899   6.787  2.4398  2.3372  0.8048
 4359SOL    HW224537   1.513   3.043   6.769 -1.8264 -0.6517  0.7594
 4360SOL     OW24538   1.485   2.388   5.320 -0.0605  0.3811  0.2458
 4360SOL    HW124539   1.546   2.360   5.251  0.0482  1.2692 -0.0117
 4360SOL    HW224540   1.408   2.331   5.310  0.7683 -0.8056  0.5504
 4361SOL     OW24541   2.256   2.215  10.110  0.3828 -0.0301 -0.3440
 4361SOL    HW124542   2.163   2.235  10.111  0.4062  0.0569  0.0118
 4361SOL    HW224543   2.273   2.218  10.204 -0.5743  1.0087 -0.2141
 4362SOL     OW24544   1.004   1.911   6.312  0.1662  0.2979 -0.5175
 4362SOL    HW124545   1.092   1.945   6.323 -0.1074  0.6908  0.4323
 4362SOL    HW224546   0.967   1.995   6.283 -0.2456  0.5878  0.8645
 4363SOL     OW24547   0.532   2.097   9.322  0.2501 -0.8324 -0.1810
 4363SOL    HW124548   0.523   2.190   9.342 -2.4007 -0.4271 -3.2376
 4363SOL    HW224549   0.507   2.047   9.399 -0.4663  2.4310  1.7292
 4364SOL     OW24550   0.207   3.762   6.906  0.1851  0.7053 -0.3568
 4364SOL    HW124551   0.128   3.782   6.856  0.3188 -1.2205 -1.3174
 4364SOL    HW224552   0.198   3.816   6.984 -2.3191 -0.5981  0.2599
 4365SOL     OW24553   4.559   3.296   1.275 -0.1052  0.5379 -0.3463
 4365SOL    HW124554   4.551   3.378   1.226 -0.4987  1.5230  1.3738
 4365SOL    HW224555   4.472   3.290   1.315 -0.2675  0.3456 -0.7221
 4366SOL     OW24556   2.920   3.973   8.818 -0.0357 -0.1823  0.4405
 4366SOL    HW124557   2.833   3.977   8.778  0.6803 -1.1923 -1.2566
 4366SOL    HW224558   2.976   3.988   8.742 -0.2426  0.5298  0.4284
 4367SOL     OW24559   0.550   0.172   8.591  0.6048 -0.2740 -0.5133
 4367SOL    HW124560   0.612   0.121   8.539  1.6891 -1.5365  1.9951
 4367SOL    HW224561   0.567   0.253   8.543  1.2028 -0.9863 -1.5044
 4368SOL     OW24562   3.168   2.781   5.068 -0.0130 -0.1203  0.0364
 4368SOL    HW124563   3.080   2.746   5.056  0.0372 -0.6095  1.1106
 4368SOL    HW224564   3.178   2.762   5.161 -1.5222  1.6469  0.5439
 4369SOL     OW24565   1.600   0.798   4.857 -0.2430 -0.5359  0.2643
 4369SOL    HW124566   1.538   0.857   4.813  0.5317  0.1598  0.1173
 4369SOL    HW224567   1.621   0.740   4.783 -0.0872 -1.0098  0.6829
 4370SOL     OW24568   3.745   3.086   1.343  0.2043 -0.1589  0.0373
 4370SOL    HW124569   3.798   3.152   1.387 -0.3846 -0.3407  1.0172
 4370SOL    HW224570   3.680   3.142   1.301  0.2155 -1.3975 -1.6242
 4371SOL     OW24571   0.643   0.615   1.036  0.3224  0.0150  0.7471
 4371SOL    HW124572   0.592   0.692   1.061 -1.9352 -1.7131  1.3777
 4371SOL    HW224573   0.584   0.542   1.052 -0.0986 -0.2660 -2.1622
 4372SOL     OW24574   4.415   3.622   5.059 -0.0177  0.8658  0.0445
 4372SOL    HW124575   4.364   3.551   5.020  2.7564 -2.5126  2.5551
 4372SOL    HW224576   4.480   3.615   4.990 -0.1952  3.6834 -0.3890
 4373SOL     OW24577   3.897   4.170   2.853 -0.3676 -0.0908 -0.0474
 4373SOL    HW124578   3.926   4.246   2.801  0.1400 -1.2089 -1.3922
 4373SOL    HW224579   3.929   4.100   2.797 -0.6297  2.1755 -3.0303
 4374SOL     OW24580   4.300   1.327   6.834 -0.2489  0.1075  0.9135
 4374SOL    HW124581   4.341   1.382   6.768 -1.3145  0.9086  0.9186
 4374SOL    HW224582   4.329   1.241   6.803  1.4086  0.9265  0.2132
 4375SOL     OW24583   1.648   0.930   4.106 -0.2667 -0.3831  0.1459
 4375SOL    HW124584   1.739   0.941   4.136  0.3274  0.3973 -1.9333
 4375SOL    HW224585   1.625   1.001   4.046 -1.1280 -0.6378  0.1729
 4376SOL     OW24586   4.290   4.035   4.185  0.0585 -0.4927  0.2301
 4376SOL    HW124587   4.329   4.017   4.271 -1.0363 -1.2054  0.5838
 4376SOL    HW224588   4.197   4.034   4.208  0.3965 -1.8692  1.5349
 4377SOL     OW24589   1.996   4.279   3.974 -0.1090  0.1946  0.2358
 4377SOL    HW124590   1.953   4.355   3.934  2.2165  2.1652  1.4322
 4377SOL    HW224591   2.033   4.226   3.903  0.0357  0.3579  0.1878
 4378SOL     OW24592   0.073   0.378   2.175  0.4548 -0.0955  0.6890
 4378SOL    HW124593   0.015   0.446   2.209 -0.2202 -0.1225 -0.4475
 4378SOL    HW224594   0.129   0.367   2.253  0.3201  0.7165  0.8975
 4379SOL     OW24595   2.287   4.065   0.762 -0.1344 -0.1665 -0.2543
 4379SOL    HW124596   2.266   4.121   0.837 -1.2667 -0.0921 -0.6279
 4379SOL    HW224597   2.374   4.096   0.736 -0.0004 -0.7041 -0.4381
 4380SOL     OW24598   3.533   4.520   3.537 -0.6193 -0.2876 -0.0214
 4380SOL    HW124599   3.618   4.524   3.494  0.2480 -2.9797  1.4278
 4380SOL    HW224600   3.493   4.603   3.513 -1.5424 -1.0185 -1.0002
 4381SOL     OW24601   1.154   2.989   6.421 -0.4525  0.3060  0.1508
 4381SOL    HW124602   1.104   3.010   6.342  0.7809  2.1032 -0.1611
 4381SOL    HW224603   1.135   2.896   6.432 -0.5020  0.5886  2.4575
 4382SOL     OW24604   2.086   1.994  16.677 -0.0495 -0.1223  0.3985
 4382SOL    HW124605   1.996   2.021  16.693 -0.4133 -0.1324 -1.6374
 4382SOL    HW224606   2.074   1.913  16.628  2.9637  0.8520 -1.9916
 4383SOL     OW24607   2.266   3.116   4.499 -0.0836  0.6649 -0.3045
 4383SOL    HW124608   2.185   3.067   4.488 -0.3744  0.8969  0.7301
 4383SOL    HW224609   2.266   3.173   4.422  0.7498  2.0039  0.6914
 4384SOL     OW24610   0.754   0.843   2.054  0.3034 -0.7701  0.2693
 4384SOL    HW124611   0.782   0.876   1.969  1.8546 -0.8883  0.7383
 4384SOL    HW224612   0.834   0.831   2.105  0.5711 -0.7782 -0.1524
 4385SOL     OW24613   1.644   4.222   8.000  0.6024  0.3708 -0.7363
 4385SOL    HW124614   1.612   4.215   8.090 -0.8232 -0.2041 -1.2911
 4385SOL    HW224615   1.708   4.292   8.013  0.6141  0.5216 -1.5817
 4386SOL     OW24616   2.263   2.657   9.207  0.2919 -0.7037 -0.2236
 4386SOL    HW124617   2.258   2.569   9.169  0.1179 -0.9160  0.2863
 4386SOL    HW224618   2.323   2.688   9.140  0.5569  0.3113  0.4874
 4387SOL     OW24619   4.497   4.165   0.918 -0.5721 -0.1190 -0.3848
 4387SOL    HW124620   4.557   4.154   0.992 -0.8859  5.1303  0.7100
 4387SOL    HW224621   4.544   4.227   0.861 -0.9660 -0.5935 -1.2141
 4388SOL     OW24622   0.324   0.297   6.118  0.4095 -0.5283 -0.0116
 4388SOL    HW124623   0.269   0.368   6.150 -0.2524 -0.2437 -1.7667
 4388SOL    HW224624   0.404   0.341   6.089  0.9238 -1.7111 -0.4064
 4389SOL     OW24625   3.955   2.611   1.200 -0.1171  0.3004  0.2312
 4389SOL    HW124626   3.909   2.685   1.239  0.7798  0.4943  0.9169
 4389SOL    HW224627   3.962   2.635   1.108  1.0294  1.6225  0.6637
 4390SOL     OW24628   1.989   4.676   2.507  0.5622  0.0390  0.1926
 4390SOL    HW124629   1.909   4.655   2.459  1.6373 -0.7639 -1.2646
 4390SOL    HW224630   2.054   4.662   2.438  0.6125  0.4152  0.1593
 4391SOL     OW24631   1.364   1.794   1.951 -0.5009 -0.1943 -0.2356
 4391SOL    HW124632   1.429   1.767   2.016  0.1423 -1.2398 -1.3126
 4391SOL    HW224633   1.344   1.882   1.981  0.4269  0.4054 -1.3535
 4392SOL     OW24634   0.442   1.381   2.748  0.2505  0.5491  0.0378
 4392SOL    HW124635   0.349   1.386   2.725  0.3959  0.6306 -0.5443
 4392SOL    HW224636   0.462   1.474   2.739  2.3902  0.1411  0.6714
 4393SOL     OW24637   1.534   1.807   7.039 -0.3981  0.6699 -0.1180
 4393SOL    HW124638   1.576   1.762   7.113  0.2603  1.1451 -0.1955
 4393SOL    HW224639   1.510   1.885   7.088 -2.9874 -1.0706  1.3881
 4394SOL     OW24640   3.442   1.829   4.314  0.2809  0.7246 -0.1430
 4394SOL    HW124641   3.493   1.894   4.361  2.5702 -2.3785  1.6330
 4394SOL    HW224642   3.372   1.880   4.272 -1.1324 -0.3511  0.9175
 4395SOL     OW24643   2.087   3.294   8.677 -0.5677 -0.5215  0.1055
 4395SOL    HW124644   2.046   3.215   8.643 -0.6631 -0.1272 -0.6764
 4395SOL    HW224645   2.049   3.370   8.634 -1.6496 -2.4646 -2.3644
 4396SOL     OW24646   0.592   1.267  10.143 -0.2417  0.6796  0.1919
 4396SOL    HW124647   0.602   1.213  10.064  0.3634  1.2668 -0.1291
 4396SOL    HW224648   0.516   1.231  10.190  0.2208 -1.1724 -0.4782
 4397SOL     OW24649   2.239   0.390   2.915 -0.2209 -0.1727 -0.0068
 4397SOL    HW124650   2.185   0.377   2.838 -1.2088 -0.6117  0.7528
 4397SOL    HW224651   2.326   0.364   2.886 -0.6248 -1.2175 -0.2781
 4398SOL     OW24652   0.431   4.371   7.934  0.0480 -0.0974  0.4954
 4398SOL    HW124653   0.483   4.448   7.958 -0.9642  1.1904 -1.4133
 4398SOL    HW224654   0.499   4.337   7.876  0.3725 -0.2269  0.9525
 4399SOL     OW24655   1.296   2.433   8.926  0.3251  0.0852  0.2052
 4399SOL    HW124656   1.374   2.457   8.876 -0.4869  1.8033 -0.2298
 4399SOL    HW224657   1.301   2.494   8.999 -2.2594  1.3264 -0.6600
 4400SOL     OW24658   0.312   4.358   8.526 -0.0415  0.3738  0.0099
 4400SOL    HW124659   0.242   4.293   8.524  0.8743 -0.6635  2.1938
 4400SOL    HW224660   0.282   4.432   8.579 -2.5203 -0.5482 -0.1124
 4401SOL     OW24661   2.902   0.282   8.434  0.1371  0.1326 -0.0466
 4401SOL    HW124662   2.950   0.278   8.517 -0.3829  2.3011  0.3727
 4401SOL    HW224663   2.834   0.347   8.455 -0.2005  1.3566 -4.9142
 4402SOL     OW24664   4.252   0.953   7.388 -0.1761 -0.0793 -0.3581
 4402SOL    HW124665   4.316   0.946   7.458 -0.5007 -1.2878 -0.1876
 4402SOL    HW224666   4.261   1.043   7.356 -1.8468 -0.4837 -1.9616
 4403SOL     OW24667   3.671   4.174   1.427 -0.7273 -0.2874  0.0462
 4403SOL    HW124668   3.590   4.209   1.465 -0.6335 -1.7149  1.5546
 4403SOL    HW224669   3.641   4.119   1.355 -1.4340 -0.2440  0.3098
 4404SOL     OW24670   2.197   1.842   0.503 -0.5707 -0.2532  0.7067
 4404SOL    HW124671   2.168   1.816   0.416 -0.7656  0.1201  0.6590
 4404SOL    HW224672   2.291   1.831   0.495 -0.9345 -0.8624 -2.5586
 4405SOL     OW24673   0.182   0.347   4.921  0.4336  0.2295 -0.2344
 4405SOL    HW124674   0.151   0.358   5.011 -0.5121  2.1573 -0.7931
 4405SOL    HW224675   0.273   0.326   4.942  0.0954  0.0055  1.0652
 4406SOL     OW24676   0.767   0.146   6.095  0.9391  0.3843  0.0034
 4406SOL    HW124677   0.832   0.080   6.121 -1.1982 -2.5616 -2.2249
 4406SOL    HW224678   0.699   0.133   6.161  0.9099  0.8158  0.0578
 4407SOL     OW24679   1.480   1.859   7.342  0.1898  0.2682 -0.5324
 4407SOL    HW124680   1.442   1.777   7.309  0.7637 -0.3505  0.3378
 4407SOL    HW224681   1.567   1.825   7.361 -1.3117 -2.4321  1.4874
 4408SOL     OW24682   3.605   2.672   7.273 -0.7403  0.2697  0.1076
 4408SOL    HW124683   3.595   2.607   7.204 -2.9847 -0.2063  0.8831
 4408SOL    HW224684   3.700   2.670   7.270 -0.7427  0.5793 -0.1966
 4409SOL     OW24685   2.908   1.088   5.036  0.5951  0.2907 -0.0078
 4409SOL    HW124686   2.987   1.086   4.981  0.0080 -1.6735 -0.7759
 4409SOL    HW224687   2.861   1.168   5.012 -1.5020  0.1376  3.7072
 4410SOL     OW24688   0.888   3.711  17.337 -0.1251  0.1860 -0.2980
 4410SOL    HW124689   0.954   3.665  17.284  0.0279 -0.3605  0.3636
 4410SOL    HW224690   0.843   3.641  17.384  1.3762 -1.1721 -0.8449
 4411SOL     OW24691   4.508   0.146   3.545 -0.1716 -0.5724  0.2929
 4411SOL    HW124692   4.550   0.222   3.505 -3.4248  1.3679  0.5338
 4411SOL    HW224693   4.418   0.177   3.553 -0.7716 -2.4081  0.6675
 4412SOL     OW24694   1.605   0.620  11.065  0.1577  0.0533 -0.6384
 4412SOL    HW124695   1.602   0.627  10.969 -1.9133 -0.6876 -0.6322
 4412SOL    HW224696   1.531   0.560  11.078  1.6725 -1.8064 -0.5361
 4413SOL     OW24697   0.312   1.185  11.757  0.0178 -0.1476 -0.2207
 4413SOL    HW124698   0.238   1.138  11.797 -1.1706  1.9417 -0.0016
 4413SOL    HW224699   0.381   1.122  11.776 -0.3717 -0.5718 -0.1950
 4414SOL     OW24700   0.933   3.200   2.768  0.2464 -0.2310  0.0614
 4414SOL    HW124701   0.896   3.263   2.706  1.4784  0.4449  0.0190
 4414SOL    HW224702   1.012   3.245   2.797 -0.6999  1.0978  0.5328
 4415SOL     OW24703   2.385   1.028   5.515  0.7324  0.5935  0.9972
 4415SOL    HW124704   2.340   1.080   5.582  0.6759 -1.6127  2.6736
 4415SOL    HW224705   2.450   0.988   5.571 -0.0626 -1.4756  0.4371
 4416SOL     OW24706   1.410   4.602  11.592  0.0238 -0.6612 -0.0993
 4416SOL    HW124707   1.501   4.625  11.610 -0.1794 -0.1313  0.2630
 4416SOL    HW224708   1.400   4.512  11.621 -0.3578 -0.4160  0.5462
 4417SOL     OW24709   3.394   0.872  16.931  0.1949  0.4686  0.6689
 4417SOL    HW124710   3.449   0.799  16.961 -0.4872 -0.6055 -0.7132
 4417SOL    HW224711   3.378   0.842  16.842  1.1090 -0.5348  0.8432
 4418SOL     OW24712   0.533   4.214   8.714  0.1557 -0.5224 -0.1647
 4418SOL    HW124713   0.512   4.139   8.660  1.9146  0.1273 -1.7505
 4418SOL    HW224714   0.461   4.268   8.681  0.4684  1.2576  1.9919
 4419SOL     OW24715   2.151   4.023   4.122 -0.0919  0.1177 -0.2448
 4419SOL    HW124716   2.169   3.940   4.167 -0.0660  0.5708  0.5737
 4419SOL    HW224717   2.174   3.996   4.033 -2.6296 -1.2837 -0.4996
 4420SOL     OW24718   3.983   0.268   4.407  0.0045  0.3420  0.6196
 4420SOL    HW124719   4.013   0.351   4.444  1.9694 -0.6891  1.3444
 4420SOL    HW224720   3.906   0.302   4.363 -0.6166 -0.3555  1.1751
 4421SOL     OW24721   3.476   0.605   9.206  0.1429  0.1573  0.0610
 4421SOL    HW124722   3.554   0.588   9.259 -0.4065  0.4978  0.9908
 4421SOL    HW224723   3.424   0.645   9.275  0.7691 -0.5197  0.9281
 4422SOL     OW24724   3.479   1.143   7.713  0.1136 -0.3273  0.6336
 4422SOL    HW124725   3.573   1.129   7.701  0.0462  0.3711 -0.6921
 4422SOL    HW224726   3.469   1.237   7.695  0.8797 -0.0974  1.3830
 4423SOL     OW24727   0.168   1.196   2.202  0.0858  0.5030 -0.0618
 4423SOL    HW124728   0.222   1.264   2.243  1.2386 -0.1408 -0.5059
 4423SOL    HW224729   0.177   1.128   2.269 -0.4368  0.3922 -0.1033
 4424SOL     OW24730   0.428   3.837  13.171 -0.0813  0.4291 -0.3119
 4424SOL    HW124731   0.403   3.924  13.204  0.9283  0.7021 -0.2790
 4424SOL    HW224732   0.510   3.820  13.218  1.4021 -0.4960 -3.2649
 4425SOL     OW24733   1.526   1.682  17.426  0.6964  0.2415  0.1231
 4425SOL    HW124734   1.510   1.589  17.409 -0.2230  0.5996 -1.0090
 4425SOL    HW224735   1.583   1.690  17.502  1.5193 -1.4269 -0.3143
 4426SOL     OW24736   2.665   1.400   3.409  0.0721 -0.4736 -0.9079
 4426SOL    HW124737   2.573   1.427   3.402  0.7069  1.9863  0.1908
 4426SOL    HW224738   2.707   1.486   3.403  1.5446 -1.1692 -0.4494
 4427SOL     OW24739   4.610   0.768   3.610  0.6273  0.0276  0.2341
 4427SOL    HW124740   4.659   0.751   3.529 -0.9049  1.8316 -1.0868
 4427SOL    HW224741   4.576   0.856   3.594 -1.0594 -0.8753 -1.2034
 4428SOL     OW24742   0.956   2.243   5.973  0.3782  0.1541 -0.6647
 4428SOL    HW124743   0.880   2.296   5.947  0.0724  0.3859  0.6735
 4428SOL    HW224744   0.929   2.212   6.060 -0.1876 -0.9989 -1.2596
 4429SOL     OW24745   1.312   2.971   0.827 -0.6275 -0.2262  0.2655
 4429SOL    HW124746   1.296   2.881   0.855  1.4815 -0.8882 -0.6116
 4429SOL    HW224747   1.380   2.999   0.889  0.6157 -0.3078 -1.0383
 4430SOL     OW24748   3.143   4.567   6.754 -0.3896 -0.0876 -0.1171
 4430SOL    HW124749   3.111   4.478   6.742 -0.2499 -0.1124 -0.3135
 4430SOL    HW224750   3.199   4.564   6.832 -1.4593 -0.9247  0.6111
 4431SOL     OW24751   1.318   0.803   7.894 -0.0610  0.1136  0.4127
 4431SOL    HW124752   1.362   0.728   7.854 -0.3189  0.0584  0.2322
 4431SOL    HW224753   1.299   0.863   7.822 -0.0216 -1.7760 -1.1963
 4432SOL     OW24754   0.695   2.290   4.374 -0.1983  0.0600  0.1203
 4432SOL    HW124755   0.771   2.313   4.321 -1.4036 -0.8435 -2.0298
 4432SOL    HW224756   0.735   2.284   4.460  0.5414  1.1280 -0.1438
 4433SOL     OW24757   3.973   3.804   1.581 -0.2510 -0.3198  0.1788
 4433SOL    HW124758   3.970   3.793   1.676 -1.0635 -3.0925 -0.1704
 4433SOL    HW224759   3.901   3.867   1.584  0.0594  0.0787 -0.6261
 4434SOL     OW24760   1.190   2.071  13.871  0.4327 -0.4363 -0.1201
 4434SOL    HW124761   1.141   2.034  13.797  0.4711  0.1010 -0.4140
 4434SOL    HW224762   1.271   2.103  13.831  0.3866  0.7114  0.7281
 4435SOL     OW24763   0.276   3.968  16.534 -0.0411 -0.4542  0.0187
 4435SOL    HW124764   0.334   3.906  16.579  0.3617  0.6767  1.0636
 4435SOL    HW224765   0.212   3.918  16.484  0.2828  0.1659 -0.9950
 4436SOL     OW24766   2.664   3.294   2.699 -0.4069 -0.3315 -0.1295
 4436SOL    HW124767   2.689   3.238   2.772 -0.6923 -2.6894 -1.8344
 4436SOL    HW224768   2.571   3.270   2.691  0.2221 -1.6470 -3.6489
 4437SOL     OW24769   1.870   4.518   4.162  0.0683  0.1870 -0.3149
 4437SOL    HW124770   1.961   4.493   4.175 -0.5654 -1.2092  1.4791
 4437SOL    HW224771   1.876   4.605   4.121 -1.9664  0.7912  0.6459
 4438SOL     OW24772   1.572   4.414   2.535 -0.4713  0.3404 -0.2291
 4438SOL    HW124773   1.513   4.489   2.537  0.7754  1.2783  0.9123
 4438SOL    HW224774   1.623   4.423   2.615  2.0696 -0.9246 -1.7104
 4439SOL     OW24775   3.817   1.010   3.331  0.8388  0.1393  0.1334
 4439SOL    HW124776   3.759   1.067   3.382  0.6173  2.2374 -2.5058
 4439SOL    HW224777   3.785   0.924   3.358 -1.5100  0.2361 -2.3172
 4440SOL     OW24778   2.652   2.987   7.589 -0.7528  0.0642 -0.3888
 4440SOL    HW124779   2.614   2.900   7.581 -0.5885  0.0753 -1.3705
 4440SOL    HW224780   2.654   3.013   7.497 -0.2717 -0.3850 -0.5022
 4441SOL     OW24781   4.553   4.393   2.898  0.5596  0.0410  0.3746
 4441SOL    HW124782   4.578   4.430   2.982  1.6418 -1.1560  0.5856
 4441SOL    HW224783   4.618   4.324   2.881  0.6311 -0.3524  2.3471
 4442SOL     OW24784   2.894   4.475   6.227  0.4423 -0.0094 -0.0188
 4442SOL    HW124785   2.871   4.383   6.231 -1.5597  0.3608 -2.8387
 4442SOL    HW224786   2.930   4.487   6.315 -0.1456 -0.1637  0.2373
 4443SOL     OW24787   3.626   2.800  11.107 -0.3393 -0.2819  0.1173
 4443SOL    HW124788   3.648   2.863  11.175  1.5472 -0.9135  0.1055
 4443SOL    HW224789   3.689   2.826  11.040  0.0727  0.3239  0.7378
 4444SOL     OW24790   1.351   0.141  11.511  0.5992 -0.0108 -0.2228
 4444SOL    HW124791   1.439   0.154  11.475  0.1353  1.1986 -0.8940
 4444SOL    HW224792   1.372   0.052  11.541 -1.1479  0.5944  2.7818
 4445SOL     OW24793   2.024   3.240  13.106 -0.5448  0.0699  0.0457
 4445SOL    HW124794   2.034   3.149  13.132 -1.0520  0.6422  2.2951
 4445SOL    HW224795   2.110   3.281  13.122 -0.3204 -0.5306  0.3721
 4446SOL     OW24796   0.777   2.663   8.041  0.7356  0.1859 -0.2986
 4446SOL    HW124797   0.809   2.688   7.955 -2.1584  1.1941 -1.0814
 4446SOL    HW224798   0.855   2.660   8.096 -0.4617 -0.1712  1.3941
 4447SOL     OW24799   0.815   2.974   0.679  0.8989 -0.1046 -0.6836
 4447SOL    HW124800   0.884   3.033   0.709  0.4120  0.9023 -1.5840
 4447SOL    HW224801   0.745   3.038   0.670 -0.1270 -1.1376 -0.1450
 4448SOL     OW24802   3.953   0.730   4.721 -0.0640 -0.2299  0.5681
 4448SOL    HW124803   3.866   0.747   4.758  0.7924  0.2331  2.3777
 4448SOL    HW224804   3.954   0.773   4.636  0.9037  2.7405  2.0980
 4449SOL     OW24805   1.223   2.621   5.003 -0.6868 -0.6994 -0.6158
 4449SOL    HW124806   1.188   2.621   4.914 -2.1597 -2.1752 -0.0498
 4449SOL    HW224807   1.248   2.529   5.017 -0.9934 -0.4703  1.4059
 4450SOL     OW24808   0.407   2.707   7.166  0.1415 -1.0856  0.2740
 4450SOL    HW124809   0.481   2.723   7.225  1.0473  0.3624 -1.2212
 4450SOL    HW224810   0.347   2.780   7.181  1.1394 -0.3429  0.6211
 4451SOL     OW24811   1.988   4.538  13.827  1.0606  0.2746 -0.1507
 4451SOL    HW124812   2.060   4.557  13.767  0.3205 -2.4628 -1.9301
 4451SOL    HW224813   2.031   4.529  13.912 -0.6758 -1.0157  0.5906
 4452SOL     OW24814   2.905   1.957  16.562 -0.0101  0.7234  0.0638
 4452SOL    HW124815   2.867   2.002  16.638  0.3255 -1.6856  1.6270
 4452SOL    HW224816   2.964   1.892  16.598 -0.1017  1.4523  1.5626
 4453SOL     OW24817   2.095   1.216   3.270  0.0695 -0.2934 -0.3412
 4453SOL    HW124818   2.082   1.307   3.296  3.2591 -0.0369  0.3343
 4453SOL    HW224819   2.065   1.221   3.179 -0.4071  1.7403 -0.0595
 4454SOL     OW24820   2.083   4.498  13.094  0.1739  0.4608 -0.3564
 4454SOL    HW124821   2.025   4.497  13.017 -1.4600 -0.0189  0.8841
 4454SOL    HW224822   2.115   4.409  13.081 -0.0547  0.3317 -0.0406
 4455SOL     OW24823   2.422   3.895   4.655 -0.2664 -0.4260  0.4185
 4455SOL    HW124824   2.478   3.899   4.577 -2.0488 -3.3912 -1.0061
 4455SOL    HW224825   2.398   3.802   4.649  2.3433 -1.2442  2.4416
 4456SOL     OW24826   0.573   4.209   8.212  0.3007  0.0495  0.2206
 4456SOL    HW124827   0.524   4.265   8.151 -0.1641 -2.1171 -1.4113
 4456SOL    HW224828   0.618   4.276   8.264 -1.7464  2.0134 -0.5218
 4457SOL     OW24829   2.088   4.185   4.785 -0.0944 -0.2528  0.0839
 4457SOL    HW124830   2.164   4.216   4.735 -1.1282 -1.2242 -2.0404
 4457SOL    HW224831   2.106   4.091   4.780 -2.9437 -0.7386 -1.0609
 4458SOL     OW24832   0.023   2.059   1.725 -0.0991  0.3962  0.4605
 4458SOL    HW124833   0.021   2.134   1.784  1.2022  0.4494  0.4394
 4458SOL    HW224834   4.668   2.077   1.673 -0.2594  1.3788  1.0434
 4459SOL     OW24835   2.778   2.363   2.347  0.0370  0.0464  0.3005
 4459SOL    HW124836   2.857   2.376   2.294 -0.3841  1.2765 -0.0135
 4459SOL    HW224837   2.805   2.282   2.391  2.6205  1.7845  1.8447
 4460SOL     OW24838   3.623   1.710   9.386  0.2008  0.3739  0.1817
 4460SOL    HW124839   3.572   1.791   9.385  0.9428  0.8409  0.0811
 4460SOL    HW224840   3.692   1.721   9.451 -0.5070 -0.1409  1.0194
 4461SOL     OW24841   2.056   2.850   5.063  0.2840  0.0653  0.5619
 4461SOL    HW124842   2.075   2.760   5.089  2.3433  0.0519 -1.0618
 4461SOL    HW224843   2.105   2.900   5.129  0.7839  0.5355 -0.1779
 4462SOL     OW24844   2.887   0.406  12.847  0.5596  0.2992  0.2204
 4462SOL    HW124845   2.884   0.496  12.879  0.1818  0.4898 -0.3447
 4462SOL    HW224846   2.797   0.389  12.820 -0.8409  4.7322  2.1774
 4463SOL     OW24847   0.295   4.005   5.294  0.6642 -0.2645  0.2757
 4463SOL    HW124848   0.336   3.991   5.379  1.4749  2.1715  0.2787
 4463SOL    HW224849   0.339   4.081   5.256  0.6164 -0.1435  0.4611
 4464SOL     OW24850   4.033   1.220   6.311 -0.3679  0.3514 -0.2251
 4464SOL    HW124851   3.974   1.145   6.307  2.5138 -1.9523  0.4874
 4464SOL    HW224852   4.107   1.188   6.259 -1.5436 -1.8689 -0.5050
 4465SOL     OW24853   2.823   0.826   7.449 -0.3016 -0.4052  0.0264
 4465SOL    HW124854   2.848   0.877   7.527  1.0158  1.6524 -1.7465
 4465SOL    HW224855   2.874   0.872   7.383 -0.2001  0.0827  0.4458
 4466SOL     OW24856   2.402   1.023  10.760  0.1193 -0.5705  0.1790
 4466SOL    HW124857   2.418   1.071  10.841  1.2966 -0.1827 -0.2882
 4466SOL    HW224858   2.468   1.060  10.701 -2.3326  2.3614 -0.7372
 4467SOL     OW24859   2.773   4.093   3.372  0.3286  0.2740  0.5671
 4467SOL    HW124860   2.694   4.042   3.356  0.7499 -0.5405  1.0761
 4467SOL    HW224861   2.834   4.026   3.340  0.8029  0.9900 -0.0564
 4468SOL     OW24862   3.043   0.786   3.785 -0.6009 -0.3214 -0.7470
 4468SOL    HW124863   3.007   0.833   3.710  0.1292 -0.6721 -1.3138
 4468SOL    HW224864   3.106   0.722   3.752 -1.8004 -0.9551 -1.7883
 4469SOL     OW24865   0.301   3.835  17.493 -0.2906  0.5096 -0.2544
 4469SOL    HW124866   0.376   3.892  17.482  1.4944 -2.0014 -1.1363
 4469SOL    HW224867   0.288   3.823  17.399  0.8825  1.7271 -0.5597
 4470SOL     OW24868   2.258   2.149   4.584  0.0755 -0.4553  0.0354
 4470SOL    HW124869   2.325   2.127   4.649  0.8697  2.2032  0.0988
 4470SOL    HW224870   2.178   2.104   4.614  1.1659 -1.8069  0.9445
 4471SOL     OW24871   2.229   3.303   7.854 -0.6332 -0.5298 -0.5693
 4471SOL    HW124872   2.236   3.222   7.905  0.3237  0.0947  0.2877
 4471SOL    HW224873   2.146   3.290   7.808 -1.8397  1.0583  1.1408
 4472SOL     OW24874   2.291   4.538   3.626 -0.2244 -0.1119 -0.0994
 4472SOL    HW124875   2.343   4.569   3.700  1.2191 -1.4122 -0.5672
 4472SOL    HW224876   2.282   4.626   3.591  2.6233  0.2330  0.0920
 4473SOL     OW24877   0.615   3.792   1.940 -0.2770 -0.6553 -0.1538
 4473SOL    HW124878   0.702   3.827   1.920 -0.3573 -0.4044 -0.0624
 4473SOL    HW224879   0.596   3.815   2.031  1.6435 -0.0610  0.1032
 4474SOL     OW24880   2.652   1.669   6.334  0.1796 -0.3016  0.7372
 4474SOL    HW124881   2.583   1.607   6.357  1.7708 -1.0578  3.3829
 4474SOL    HW224882   2.630   1.703   6.247  0.7111  1.4909  1.3068
 4475SOL     OW24883   3.891   1.483  13.474  0.0016 -0.6003  0.2685
 4475SOL    HW124884   3.873   1.562  13.424 -0.8204  0.1480  1.7405
 4475SOL    HW224885   3.806   1.482  13.517 -0.0320  2.0095  0.2631
 4476SOL     OW24886   4.005   3.716   8.581 -0.0627 -0.2240  0.0976
 4476SOL    HW124887   3.951   3.743   8.507  1.3244 -0.7942 -1.1239
 4476SOL    HW224888   3.964   3.630   8.593 -0.3579 -0.0064  0.6602
 4477SOL     OW24889   2.745   2.988  14.504  0.0417  0.1575 -0.0932
 4477SOL    HW124890   2.794   3.062  14.541  0.4684  0.3289 -0.9726
 4477SOL    HW224891   2.787   2.982  14.418  1.2184  1.1579  0.4146
 4478SOL     OW24892   4.342   0.858   2.596  0.0550 -0.0067  0.2562
 4478SOL    HW124893   4.405   0.801   2.639  2.0973  0.5982 -1.9510
 4478SOL    HW224894   4.269   0.796   2.589 -0.4610  0.7191 -0.7870
 4479SOL     OW24895   3.109   1.897   7.396  0.5268  0.2619  0.0644
 4479SOL    HW124896   3.089   1.983   7.433 -0.7128 -0.2050  0.4691
 4479SOL    HW224897   3.138   1.921   7.308  0.5687  1.3484  0.3724
 4480SOL     OW24898   4.721   0.355   5.820 -0.2625 -0.1343  0.2887
 4480SOL    HW124899   4.675   0.271   5.820  0.6140 -0.6226  1.3872
 4480SOL    HW224900   0.027   0.361   5.911 -0.8241  1.7813  0.3381
 4481SOL     OW24901   1.167   1.349   2.387 -0.1618 -0.1648 -0.0989
 4481SOL    HW124902   1.154   1.333   2.480  3.1442 -0.2303  0.3579
 4481SOL    HW224903   1.091   1.298   2.360 -0.1439  0.6014 -1.5811
 4482SOL     OW24904   0.967   3.227   0.467 -0.2086  0.1421 -0.1406
 4482SOL    HW124905   1.002   3.231   0.378  0.6857 -0.0542  0.2056
 4482SOL    HW224906   1.016   3.298   0.507  0.2937 -1.1864  1.5895
 4483SOL     OW24907   2.248   3.423   5.810  0.2791  0.3008 -0.4974
 4483SOL    HW124908   2.277   3.501   5.763  1.0601  1.4236  1.7966
 4483SOL    HW224909   2.327   3.370   5.796  0.4263  0.2371  0.5370
 4484SOL     OW24910   3.708   0.017   1.817 -0.1568  1.0357  0.0120
 4484SOL    HW124911   3.672   0.042   1.732  0.6169  1.0742 -0.2988
 4484SOL    HW224912   3.636   0.057   1.867 -2.2413 -2.7083  0.0300
 4485SOL     OW24913   0.349   4.540   2.349 -0.4378  0.0140 -0.3420
 4485SOL    HW124914   0.420   4.492   2.392 -0.2742 -0.7145 -1.4267
 4485SOL    HW224915   0.407   4.592   2.293 -0.5740  0.6972  0.1452
 4486SOL     OW24916   3.683   3.950   1.101 -0.4094 -0.3421  0.2620
 4486SOL    HW124917   3.609   3.957   1.161 -0.2386 -0.9533  0.5404
 4486SOL    HW224918   3.641   3.937   1.016  0.5463  1.2096 -0.4436
 4487SOL     OW24919   1.671   1.086  14.688  0.0385 -0.3727 -0.3372
 4487SOL    HW124920   1.597   1.107  14.745  2.4773  2.0086  1.9835
 4487SOL    HW224921   1.700   1.173  14.660 -0.5819 -0.4441 -1.1900
 4488SOL     OW24922   0.897   4.505   4.441  0.1869  0.4982  0.0738
 4488SOL    HW124923   0.894   4.567   4.514  0.1444 -1.1070  1.4403
 4488SOL    HW224924   0.991   4.508   4.427  0.0551  0.2916 -0.8560
 4489SOL     OW24925   3.616   2.973   6.667 -0.2612 -0.5641  0.5744
 4489SOL    HW124926   3.606   3.031   6.742 -0.6591 -0.7318  0.6535
 4489SOL    HW224927   3.532   2.927   6.674 -0.5076 -0.2760 -0.5138
 4490SOL     OW24928   2.975   0.378   9.050  0.3046  0.0101  0.0308
 4490SOL    HW124929   3.034   0.453   9.051 -0.1134  0.3446 -0.4402
 4490SOL    HW224930   2.970   0.355   8.958 -0.7695  0.3115  0.0132
 4491SOL     OW24931   4.408   1.203  11.915 -0.3948 -0.5355 -0.2111
 4491SOL    HW124932   4.503   1.212  11.908 -0.7161  1.8458 -1.3623
 4491SOL    HW224933   4.394   1.218  12.008  0.7996  0.6893 -0.2375
 4492SOL     OW24934   4.623   1.565  16.014  0.0795 -0.0278 -0.5516
 4492SOL    HW124935   4.574   1.613  15.947 -0.2845  0.5089  0.0940
 4492SOL    HW224936   4.662   1.645  16.050 -0.6481  0.1958 -0.2531
 4493SOL     OW24937   4.181   3.126   9.979 -0.1544 -0.4065  0.3748
 4493SOL    HW124938   4.190   3.102  10.071  1.4180 -1.8871 -0.1506
 4493SOL    HW224939   4.272   3.105   9.957 -0.2017 -0.7305  0.4876
 4494SOL     OW24940   2.064   0.754   0.183  0.5914  0.5662  0.5492
 4494SOL    HW124941   2.115   0.680   0.218  0.1821 -0.8238 -1.8150
 4494SOL    HW224942   2.089   0.823   0.245 -1.3988 -0.5597  2.6100
 4495SOL     OW24943   2.595   2.660  16.333 -0.0450 -0.0483 -0.0394
 4495SOL    HW124944   2.628   2.695  16.251  0.4042 -1.2168 -0.3542
 4495SOL    HW224945   2.636   2.720  16.395  2.0857 -0.9390 -0.5846
 4496SOL     OW24946   4.352   3.199   1.466 -0.6688  0.3625 -0.0518
 4496SOL    HW124947   4.298   3.124   1.488  1.8806 -0.7938  2.2881
 4496SOL    HW224948   4.336   3.264   1.534  1.3364  1.1178 -0.2659
 4497SOL     OW24949   4.399   0.016   5.545  0.2422 -0.4453  0.2520
 4497SOL    HW124950   4.385   4.646   5.539  0.7055 -0.6626  2.8129
 4497SOL    HW224951   4.360   0.029   5.632  3.1670 -0.5106  1.5632
 4498SOL     OW24952   0.177   4.114   8.465  0.7521  0.2809  0.6062
 4498SOL    HW124953   0.166   4.088   8.373 -2.1827  0.7106  0.8235
 4498SOL    HW224954   0.119   4.052   8.511  0.5054  0.8553  1.0739
 4499SOL     OW24955   4.108   3.614   1.063  0.1426  0.1219  0.0278
 4499SOL    HW124956   4.086   3.522   1.044  1.2389  0.0960 -1.1066
 4499SOL    HW224957   4.145   3.635   0.977 -1.4775 -1.0516 -0.9728
 4500SOL     OW24958   3.088   0.957  12.188  0.4710 -0.4698 -0.4658
 4500SOL    HW124959   3.179   0.987  12.183  0.6502 -0.6547  1.6726
 4500SOL    HW224960   3.095   0.898  12.263 -0.3540  1.0438  0.7828
 4501SOL     OW24961   3.685   4.394  15.878 -0.1252  0.7505 -0.3992
 4501SOL    HW124962   3.729   4.471  15.843  0.7525  1.4211  2.1701
 4501SOL    HW224963   3.743   4.332  15.922 -0.4601  1.4520  1.0653
 4502SOL     OW24964   1.793   4.604   8.797  0.0047  0.0696  0.2693
 4502SOL    HW124965   1.703   4.622   8.824 -0.9411 -1.7656 -1.6684
 4502SOL    HW224966   1.819   4.562   8.879  1.0945  1.2819  0.5407
 4503SOL     OW24967   3.188   3.422   5.622 -0.0045 -0.1263 -0.1091
 4503SOL    HW124968   3.176   3.355   5.689  1.9804 -0.3633  0.0092
 4503SOL    HW224969   3.225   3.487   5.681 -0.0060 -0.4098  0.2058
 4504SOL     OW24970   2.046   2.352   8.959  0.1226 -0.4277 -0.0265
 4504SOL    HW124971   1.984   2.339   9.031 -1.9681  2.6579 -1.2487
 4504SOL    HW224972   2.121   2.389   9.005  0.5397  0.8342 -1.7192
 4505SOL     OW24973   1.430   3.457  16.259  0.0131  0.3145 -0.1602
 4505SOL    HW124974   1.433   3.477  16.166 -1.5245  1.4252  0.0280
 4505SOL    HW224975   1.511   3.406  16.256 -0.0145  0.4745 -2.9262
 4506SOL     OW24976   0.883   4.278   4.731 -0.2566  0.1531 -0.2780
 4506SOL    HW124977   0.941   4.233   4.669 -0.4842  1.9032 -1.7713
 4506SOL    HW224978   0.949   4.326   4.781  0.4395  0.4236 -1.4467
 4507SOL     OW24979   2.780   3.930  15.633 -0.4040 -0.0572  0.0557
 4507SOL    HW124980   2.785   3.908  15.540  0.3229 -1.5802  0.4687
 4507SOL    HW224981   2.795   3.848  15.680 -1.6531  0.0350  0.6103
 4508SOL     OW24982   4.393   0.363   8.578  1.0251  0.6913 -0.1386
 4508SOL    HW124983   4.433   0.306   8.513 -2.7298 -0.8379 -1.0971
 4508SOL    HW224984   4.469   0.421   8.588  0.8293  0.7855  0.7732
 4509SOL     OW24985   3.037   0.227   1.006 -0.1531 -0.0272 -0.4948
 4509SOL    HW124986   2.996   0.141   0.999  1.8501 -0.9268 -1.2268
 4509SOL    HW224987   3.128   0.199   1.006 -0.0937  0.1653  1.6349
 4510SOL     OW24988   1.758   3.483  14.731 -0.1013 -0.2095 -0.2036
 4510SOL    HW124989   1.676   3.532  14.721 -0.3242 -0.6204 -0.4270
 4510SOL    HW224990   1.814   3.516  14.661 -0.6442 -0.8297 -0.9414
 4511SOL     OW24991   1.356   3.940   4.429 -0.3231  0.2220 -1.0557
 4511SOL    HW124992   1.445   3.972   4.448 -1.4613  1.1865  2.6735
 4511SOL    HW224993   1.354   3.869   4.493  0.1200 -1.3017 -2.7700
 4512SOL     OW24994   1.237   0.022   1.062  0.0908  0.0399  0.1135
 4512SOL    HW124995   1.141   0.027   1.065  0.1396 -0.0080  1.7654
 4512SOL    HW224996   1.253   0.013   1.156 -0.0908 -1.1388  0.0370
 4513SOL     OW24997   2.914   3.756   2.357  0.1680 -0.1965 -0.4704
 4513SOL    HW124998   2.850   3.728   2.292 -0.7697 -3.6983  1.9823
 4513SOL    HW224999   2.870   3.740   2.440 -0.8787  3.8157 -0.2557
 4514SOL     OW25000   1.107   4.105  10.599  0.1542  0.2072  0.2736
 4514SOL    HW125001   1.155   4.184  10.574  0.1230  0.6387  1.5933
 4514SOL    HW225002   1.178   4.069  10.651 -1.3265 -0.2028  1.9772
 4515SOL     OW25003   0.112   0.615   8.073 -0.4799  0.1607  0.0709
 4515SOL    HW125004   0.192   0.564   8.083  0.8540  2.1976 -0.0434
 4515SOL    HW225005   0.077   0.594   8.160  3.6215 -0.0763  1.6515
 4516SOL     OW25006   2.755   3.548  16.981 -0.1971 -0.1541 -0.1000
 4516SOL    HW125007   2.801   3.621  17.022 -1.3236  0.2092  0.5042
 4516SOL    HW225008   2.721   3.590  16.902  0.2565 -1.9187 -1.2346
 4517SOL     OW25009   1.802   1.948  15.565 -0.4807 -0.2565 -0.3862
 4517SOL    HW125010   1.735   1.907  15.619 -1.6696  1.3118 -0.7079
 4517SOL    HW225011   1.745   1.998  15.507  0.0636  0.2776 -0.4664
 4518SOL     OW25012   2.151   4.660  12.647 -0.0102 -0.4531 -0.2274
 4518SOL    HW125013   2.191   4.710  12.718 -1.4662  0.7912 -0.2578
 4518SOL    HW225014   2.108   0.004  12.594 -1.0250 -2.0923 -1.4695
 4519SOL     OW25015   1.277   4.545   3.698  0.1723 -0.5388  0.0756
 4519SOL    HW125016   1.304   4.620   3.643 -0.9118 -0.1733  0.0381
 4519SOL    HW225017   1.184   4.536   3.676 -0.2277  0.4825  1.3042
 4520SOL     OW25018   0.248   0.335   1.936  0.2732  0.1638  0.2066
 4520SOL    HW125019   0.210   0.386   2.008 -0.0447  2.3553 -1.5448
 4520SOL    HW225020   0.205   0.250   1.945  0.2735  0.2573  1.1201
 4521SOL     OW25021   0.875   4.415   7.987  0.3808 -0.1962  0.6031
 4521SOL    HW125022   0.956   4.453   8.020  0.2251  0.6026  0.0472
 4521SOL    HW225023   0.805   4.460   8.034 -1.1518 -2.3275  0.3944
 4522SOL     OW25024   0.636   2.742  16.165 -0.2649  0.7137  0.4883
 4522SOL    HW125025   0.611   2.653  16.191  2.4798  0.5289  2.4387
 4522SOL    HW225026   0.704   2.730  16.099 -2.0457  1.1959 -1.4609
 4523SOL     OW25027   0.006   1.523  10.381 -0.2041  0.1234 -0.3906
 4523SOL    HW125028   0.067   1.566  10.442 -1.1308  0.2471  0.4557
 4523SOL    HW225029   4.652   1.561  10.423 -0.2144  0.0780 -0.3687
 4524SOL     OW25030   1.191   2.356   7.338  0.1738 -0.2974 -0.3533
 4524SOL    HW125031   1.232   2.299   7.403  1.3217  0.7969 -0.1315
 4524SOL    HW225032   1.201   2.292   7.268 -0.6935 -1.2160  0.3577
 4525SOL     OW25033   2.975   0.822   4.722  0.4603  0.2609 -0.2442
 4525SOL    HW125034   2.925   0.789   4.796 -2.3979 -1.5811 -3.0395
 4525SOL    HW225035   2.990   0.916   4.737  0.7261  0.2000 -0.1147
 4526SOL     OW25036   2.401   0.517  10.767 -0.0245 -0.4455 -0.0719
 4526SOL    HW125037   2.382   0.574  10.842 -1.4513 -0.4899 -0.4032
 4526SOL    HW225038   2.318   0.503  10.723 -0.7908  1.5724  0.7479
 4527SOL     OW25039   2.488   3.261  13.580  0.5197  0.0417  0.0463
 4527SOL    HW125040   2.405   3.214  13.572  1.9705 -2.0702 -2.4316
 4527SOL    HW225041   2.551   3.209  13.531 -0.4038 -1.9066  0.9235
 4528SOL     OW25042   1.736   4.131   5.476  0.3169  0.0468  0.0607
 4528SOL    HW125043   1.725   4.038   5.456  2.3047 -0.2474  0.3778
 4528SOL    HW225044   1.797   4.155   5.406 -0.6364  1.2302 -0.3593
 4529SOL     OW25045   0.402   2.497   6.286 -0.1289 -0.1734 -0.0184
 4529SOL    HW125046   0.414   2.479   6.192 -0.1575  1.2261 -0.2907
 4529SOL    HW225047   0.486   2.541   6.302  0.0800 -2.0946  3.9726
 4530SOL     OW25048   4.717   3.789   8.168  0.0123  0.0068  0.7259
 4530SOL    HW125049   0.044   3.785   8.088 -0.0249 -1.2467  0.7648
 4530SOL    HW225050   0.000   3.881   8.191 -1.6528  0.4267 -0.4507
 4531SOL     OW25051   3.605   0.457   6.729  0.6178 -0.5610  0.0447
 4531SOL    HW125052   3.698   0.447   6.748  0.3354 -1.1650  1.1785
 4531SOL    HW225053   3.566   0.428   6.812 -1.5224 -2.3266 -1.6021
 4532SOL     OW25054   2.895   1.284   2.290  0.0509  0.1175 -0.0589
 4532SOL    HW125055   2.974   1.295   2.343  0.4969 -0.8779 -0.5210
 4532SOL    HW225056   2.933   1.226   2.224  0.3828  0.3192 -0.0489
 4533SOL     OW25057   2.850   2.706   4.106  0.2166 -0.3579  0.0573
 4533SOL    HW125058   2.908   2.630   4.108  1.1606  0.3832  0.8561
 4533SOL    HW225059   2.767   2.673   4.139 -0.7564  0.2699 -1.8057
 4534SOL     OW25060   4.564   3.326   0.365 -0.1857  0.4781  0.4470
 4534SOL    HW125061   4.638   3.266   0.370  0.4767  1.1274 -1.7921
 4534SOL    HW225062   4.581   3.359   0.453  4.0895  0.3945 -0.3788
 4535SOL     OW25063   4.287   1.021  15.719  0.7756 -0.5750 -0.0993
 4535SOL    HW125064   4.256   1.041  15.631 -0.6237  1.7454  0.9414
 4535SOL    HW225065   4.329   1.103  15.745  0.7788 -0.0696 -1.7084
 4536SOL     OW25066   3.232   2.869   4.414 -0.1757  0.1404  0.0845
 4536SOL    HW125067   3.224   2.948   4.468  1.8089 -1.0411  2.1020
 4536SOL    HW225068   3.142   2.836   4.411 -0.4316  0.5846  2.5908
 4537SOL     OW25069   2.553   3.423  17.107 -0.3016 -0.7959 -0.0228
 4537SOL    HW125070   2.503   3.503  17.125  1.1544  0.0590  0.2479
 4537SOL    HW225071   2.602   3.454  17.031  0.6021 -0.0528  0.8609
 4538SOL     OW25072   1.230   3.921   5.890  0.4152  0.2265 -0.2538
 4538SOL    HW125073   1.297   3.864   5.929  0.0565 -0.1561 -0.1908
 4538SOL    HW225074   1.179   3.847   5.857  1.2148 -0.7936  0.7611
 4539SOL     OW25075   4.601   1.730   7.608 -0.4498  0.3142 -0.2652
 4539SOL    HW125076   4.575   1.704   7.520  0.5726  0.2317 -0.5396
 4539SOL    HW225077   4.568   1.820   7.615  0.1217  0.5675 -0.9588
 4540SOL     OW25078   3.283   1.694   7.255  0.0369  0.0791  0.2871
 4540SOL    HW125079   3.302   1.788   7.251 -2.0763  0.4768 -0.4598
 4540SOL    HW225080   3.287   1.673   7.348  1.8712 -0.0459  0.1818
 4541SOL     OW25081   1.467   0.877  13.094 -0.0527 -0.2380 -0.4019
 4541SOL    HW125082   1.482   0.915  13.180 -1.6965  0.3472 -0.3732
 4541SOL    HW225083   1.464   0.784  13.116  1.0048 -0.1584  0.0612
 4542SOL     OW25084   2.701   4.050   6.731  0.4149 -0.1063 -0.2858
 4542SOL    HW125085   2.758   4.077   6.659  1.1535  2.1504  1.1470
 4542SOL    HW225086   2.618   4.067   6.685 -0.0566  1.7377  1.2309
 4543SOL     OW25087   2.368   4.195   4.111 -0.5130  0.0064  0.0759
 4543SOL    HW125088   2.293   4.135   4.119 -1.1528  1.1611  2.7230
 4543SOL    HW225089   2.350   4.234   4.026 -0.8952  1.5264  0.8638
 4544SOL     OW25090   4.523   2.962  15.886 -0.4511  0.1399  0.2171
 4544SOL    HW125091   4.567   3.041  15.856  0.0170  0.7913  2.6533
 4544SOL    HW225092   4.559   2.895  15.827 -0.3421 -1.4124  2.0371
 4545SOL     OW25093   0.273   4.722   1.207  0.1399 -0.0382  0.1925
 4545SOL    HW125094   0.221   4.681   1.276  0.7332 -0.6354  0.2791
 4545SOL    HW225095   0.328   0.046   1.269 -0.8394 -0.4347  1.3758
 4546SOL     OW25096   2.335   4.451   4.685  0.9365  0.4358 -0.7253
 4546SOL    HW125097   2.308   4.512   4.616 -0.3447 -0.4011 -0.9753
 4546SOL    HW225098   2.415   4.491   4.718 -0.5701 -1.0334  4.7672
 4547SOL     OW25099   4.482   1.375   5.367 -0.4653 -0.1174  0.3146
 4547SOL    HW125100   4.441   1.459   5.346  2.9153  0.7479 -2.8112
 4547SOL    HW225101   4.534   1.351   5.290 -0.5789  0.5606  0.0202
 4548SOL     OW25102   3.177   3.149  14.689  0.2918 -0.1293 -0.0885
 4548SOL    HW125103   3.182   3.162  14.783  1.8876 -1.2701 -0.0341
 4548SOL    HW225104   3.264   3.112  14.679  0.3451 -0.0484  0.0894
 4549SOL     OW25105   2.243   0.109   8.521 -1.1963  0.1748 -0.1555
 4549SOL    HW125106   2.238   0.148   8.434 -2.1308  1.7693  0.6103
 4549SOL    HW225107   2.290   0.175   8.571 -0.9220 -0.9183  1.0347
 4550SOL     OW25108   0.765   0.837  16.053  0.0844  0.7376 -0.4577
 4550SOL    HW125109   0.852   0.863  16.082  0.3030 -0.3092 -0.1749
 4550SOL    HW225110   0.700   0.886  16.104 -1.0439 -0.8905 -0.3213
 4551SOL     OW25111   0.436   0.470   3.161  0.0151 -0.4265  0.7544
 4551SOL    HW125112   0.386   0.476   3.080  1.5972 -0.0463 -0.2051
 4551SOL    HW225113   0.526   0.477   3.127 -0.7284  1.7588 -0.7346
 4552SOL     OW25114   2.228   0.606   9.174  0.1033  0.3527  0.0485
 4552SOL    HW125115   2.180   0.584   9.094 -2.7934 -1.3405  2.2493
 4552SOL    HW225116   2.203   0.535   9.233  1.4306 -0.3020 -0.1794
 4553SOL     OW25117   1.033   1.185   6.522  0.3469  0.5868 -0.0553
 4553SOL    HW125118   0.988   1.151   6.600  1.2827 -0.4394  0.0408
 4553SOL    HW225119   1.000   1.130   6.450 -2.1146  1.0719  0.7168
 4554SOL     OW25120   3.970   3.627   6.648 -0.4168 -0.4233 -0.8148
 4554SOL    HW125121   4.025   3.612   6.725 -1.1567 -0.5045 -0.3013
 4554SOL    HW225122   3.955   3.721   6.660 -0.9882 -0.6094 -0.0848
 4555SOL     OW25123   2.735   3.863  11.954 -0.0314 -0.2345 -0.1384
 4555SOL    HW125124   2.794   3.936  11.934  0.4022 -1.0353 -1.7581
 4555SOL    HW225125   2.727   3.866  12.049 -0.3596 -0.8446 -0.1525
 4556SOL     OW25126   3.404   0.394   2.893  0.5451  0.4414  0.2219
 4556SOL    HW125127   3.418   0.486   2.917 -1.4553  0.9482 -0.5636
 4556SOL    HW225128   3.368   0.402   2.805 -0.0332 -1.9557  0.2245
 4557SOL     OW25129   0.909   3.177  15.559 -0.1041  0.3216  0.2364
 4557SOL    HW125130   0.825   3.174  15.604 -0.0188 -0.2262  0.3609
 4557SOL    HW225131   0.890   3.116  15.487  0.8865 -0.2890  0.4874
 4558SOL     OW25132   0.804   2.688   6.685 -0.1066 -0.0034 -0.2195
 4558SOL    HW125133   0.719   2.667   6.723 -0.5801  0.8958 -0.7625
 4558SOL    HW225134   0.791   2.741   6.606 -0.4904  0.7108  0.3227
 4559SOL     OW25135   3.596   3.551   5.150 -0.1796  0.1697  0.4794
 4559SOL    HW125136   3.691   3.556   5.167  0.3905 -1.6802 -2.2189
 4559SOL    HW225137   3.572   3.489   5.219  0.1909  0.9283  1.2974
 4560SOL     OW25138   1.472   3.533   4.110 -0.1992 -0.6090 -0.5477
 4560SOL    HW125139   1.430   3.532   4.196  0.7755  5.2775 -0.0305
 4560SOL    HW225140   1.526   3.612   4.116  0.1105 -0.7502 -1.3892
 4561SOL     OW25141   0.126   2.698  17.198 -0.2781  0.5821 -0.2726
 4561SOL    HW125142   0.114   2.608  17.227 -2.5242  1.4588  1.5716
 4561SOL    HW225143   0.215   2.687  17.164 -0.5193 -1.6399 -0.1999
 4562SOL     OW25144   1.754   1.047   8.908 -0.1250 -0.0761 -1.0929
 4562SOL    HW125145   1.767   1.105   8.833  0.3690 -1.0199 -1.7317
 4562SOL    HW225146   1.668   1.069   8.942  0.3525  1.4279 -0.8626
 4563SOL     OW25147   3.013   1.962   7.044 -0.3791  0.0099  0.0365
 4563SOL    HW125148   2.988   1.964   6.951  0.9370 -1.6441 -0.3451
 4563SOL    HW225149   3.106   1.983   7.034 -0.4044  0.0480 -0.1169
 4564SOL     OW25150   1.645   2.224   7.969 -0.1083  0.6288  0.5548
 4564SOL    HW125151   1.676   2.134   7.962  0.2277  0.6616  1.5676
 4564SOL    HW225152   1.603   2.230   7.884  0.2054  2.3767  0.5039
 4565SOL     OW25153   2.196   3.984  13.064 -0.1538  0.2074 -0.1541
 4565SOL    HW125154   2.173   3.891  13.052 -4.7708  1.4694 -0.9239
 4565SOL    HW225155   2.289   3.975  13.084 -0.6207 -2.7229  0.6831
 4566SOL     OW25156   4.711   3.366   6.906  0.1611 -0.7718  0.1150
 4566SOL    HW125157   0.053   3.368   6.976  1.4308 -0.5147 -1.0824
 4566SOL    HW225158   4.627   3.340   6.943 -0.3836 -0.1798 -0.7107
 4567SOL     OW25159   4.416   3.815   5.484 -0.4557 -0.1838  0.2954
 4567SOL    HW125160   4.325   3.784   5.482 -1.1532  1.9533 -0.8196
 4567SOL    HW225161   4.455   3.759   5.417 -1.4388 -1.5721  0.8670
 4568SOL     OW25162   3.467   2.184   0.230  0.4540 -0.4602 -0.6105
 4568SOL    HW125163   3.459   2.227   0.316 -0.9081  1.5078 -1.7390
 4568SOL    HW225164   3.409   2.238   0.177  1.7095  1.3750 -0.0888
 4569SOL     OW25165   4.578   3.544   7.824 -0.1949  0.0369 -0.3036
 4569SOL    HW125166   4.666   3.512   7.805 -0.6839 -1.2988 -0.2809
 4569SOL    HW225167   4.548   3.457   7.850  0.0339  0.4934  1.4909
 4570SOL     OW25168   2.207   4.005  10.108 -0.0226 -0.6014 -0.2679
 4570SOL    HW125169   2.239   3.948  10.177 -0.2488 -0.5108 -0.0902
 4570SOL    HW225170   2.239   4.088  10.144  0.8978 -0.4435 -1.4266
 4571SOL     OW25171   4.267   0.589  12.961  0.0295  0.0759  0.2401
 4571SOL    HW125172   4.256   0.552  12.874  0.6583  1.6663 -0.5006
 4571SOL    HW225173   4.180   0.586  13.000  0.9161  0.4315  2.2666
 4572SOL     OW25174   4.151   4.657   5.136 -0.1056  0.2792  0.0541
 4572SOL    HW125175   4.194   4.714   5.199  2.5987 -1.2387 -0.4292
 4572SOL    HW225176   4.136   4.721   5.066  1.5116  2.0993  1.3621
 4573SOL     OW25177   3.045   1.498   0.970 -0.4056  0.5002  0.0250
 4573SOL    HW125178   3.031   1.426   1.031 -1.9786 -1.0563 -2.2086
 4573SOL    HW225179   3.079   1.437   0.906  0.5308  0.9084  0.1291
 4574SOL     OW25180   4.130   0.500   8.259 -0.0383  0.0177 -0.3060
 4574SOL    HW125181   4.194   0.430   8.267  0.6956  0.6365 -0.6593
 4574SOL    HW225182   4.143   0.554   8.337 -1.0506  0.1605 -0.2380
 4575SOL     OW25183   3.952   4.048   3.976 -0.1728  0.2547  0.3565
 4575SOL    HW125184   3.997   4.035   3.893 -1.0420 -1.1296  0.1213
 4575SOL    HW225185   3.978   3.975   4.031  1.6878 -0.2794 -1.2386
 4576SOL     OW25186   0.187   3.092   1.998  1.2673  0.3436 -0.1090
 4576SOL    HW125187   0.238   3.100   1.918 -1.7604 -0.0701 -2.0762
 4576SOL    HW225188   0.243   3.042   2.057  1.3485  2.0389  1.2606
 4577SOL     OW25189   1.939   2.650  17.692  0.5797 -0.3518  0.3652
 4577SOL    HW125190   1.998   2.694   0.057 -1.6932 -1.2482  3.1697
 4577SOL    HW225191   1.859   2.702   0.002  1.1873  0.3416  2.2475
 4578SOL     OW25192   2.045   1.359   8.359 -0.5207 -0.4062 -0.7820
 4578SOL    HW125193   2.094   1.369   8.278 -0.9480 -0.6450 -1.0684
 4578SOL    HW225194   2.096   1.398   8.430 -0.4790 -0.9266 -0.5259
 4579SOL     OW25195   3.235   2.452  13.322 -0.1790  0.5576 -0.4163
 4579SOL    HW125196   3.322   2.491  13.328 -0.1140  0.3661 -0.1248
 4579SOL    HW225197   3.174   2.522  13.297 -0.2802  0.3346 -0.7936
 4580SOL     OW25198   1.510   0.305   6.481 -0.2666  0.3200  0.1084
 4580SOL    HW125199   1.481   0.246   6.551 -2.0117 -0.8444 -1.5851
 4580SOL    HW225200   1.604   0.301   6.495 -0.5101  1.5060  2.0929
 4581SOL     OW25201   4.441   3.507  14.493  0.9923 -0.0179 -0.0652
 4581SOL    HW125202   4.429   3.449  14.569  3.2240 -1.0933 -0.5496
 4581SOL    HW225203   4.385   3.463  14.429  2.8974  1.2190 -2.5756
 4582SOL     OW25204   4.173   2.291   1.510 -0.9987  0.7347 -0.2765
 4582SOL    HW125205   4.266   2.313   1.506 -0.4577 -0.7716  3.3643
 4582SOL    HW225206   4.149   2.337   1.430 -2.8287  1.2560  0.5468
 4583SOL     OW25207   4.462   0.604   7.186 -0.1958 -0.3480  0.8038
 4583SOL    HW125208   4.445   0.511   7.172  0.1127 -0.1402 -0.9411
 4583SOL    HW225209   4.377   0.635   7.154 -0.0594  1.8783  2.5982
 4584SOL     OW25210   1.819   3.921  14.900  0.2931  0.0825 -0.1882
 4584SOL    HW125211   1.804   3.837  14.943  0.9714  0.7934  1.4308
 4584SOL    HW225212   1.847   3.965  14.980  1.2349 -1.6945  0.4711
 4585SOL     OW25213   0.168   3.703   2.588 -0.7542 -0.2672  0.2799
 4585SOL    HW125214   0.200   3.676   2.674  0.9299 -2.4012 -1.0071
 4585SOL    HW225215   0.082   3.719   2.625 -0.9201 -1.1801  0.2691
 4586SOL     OW25216   0.753   0.590   6.034  0.0472  0.0184 -0.3558
 4586SOL    HW125217   0.748   0.657   5.966 -1.9463  0.3177  0.0930
 4586SOL    HW225218   0.847   0.570   6.038  0.3594  2.1733  2.4329
 4587SOL     OW25219   3.270   2.220  11.157 -0.1750  0.0366  1.2787
 4587SOL    HW125220   3.357   2.250  11.180  0.4438 -2.0038  1.5163
 4587SOL    HW225221   3.289   2.128  11.138 -1.0429  0.5194 -2.0979
 4588SOL     OW25222   3.107   0.277  14.897 -0.2895 -0.4295 -0.2833
 4588SOL    HW125223   3.015   0.305  14.893  1.0066  3.7863 -0.7501
 4588SOL    HW225224   3.108   0.186  14.865 -0.3485 -1.1890  1.9047
 4589SOL     OW25225   4.379   1.243  10.174 -0.1677  0.4542 -0.0073
 4589SOL    HW125226   4.455   1.250  10.233 -0.4397 -1.5483  0.6084
 4589SOL    HW225227   4.343   1.327  10.201 -2.5986 -0.4146 -0.5620
 4590SOL     OW25228   4.013   0.569  13.014 -0.2719 -0.1378 -0.1235
 4590SOL    HW125229   3.938   0.591  13.070  2.2651  1.9609  2.4268
 4590SOL    HW225230   3.979   0.573  12.925 -0.0695  0.8768 -0.1543
 4591SOL     OW25231   4.193   2.717   1.346  0.1002  0.0993 -0.0928
 4591SOL    HW125232   4.278   2.693   1.309 -0.1388 -0.2694 -0.4047
 4591SOL    HW225233   4.136   2.678   1.280  1.2016  0.3420 -1.1892
 4592SOL     OW25234   1.844   4.218   2.568  0.0917  0.7202  0.1338
 4592SOL    HW125235   1.937   4.200   2.554 -0.1222 -0.5536  0.3588
 4592SOL    HW225236   1.850   4.283   2.637 -0.5423  0.9421 -0.0216
 4593SOL     OW25237   3.561   2.785   3.177  0.3290  0.5219  0.5213
 4593SOL    HW125238   3.499   2.724   3.216  0.7774 -0.5370 -0.4116
 4593SOL    HW225239   3.558   2.756   3.086  1.1466 -1.2226  1.0617
 4594SOL     OW25240   1.655   1.314   6.782  0.0259  0.0217 -0.0587
 4594SOL    HW125241   1.743   1.291   6.752  1.0658 -1.5645  4.1291
 4594SOL    HW225242   1.601   1.236   6.772 -0.1062  0.4004 -2.3734
 4595SOL     OW25243   1.397   3.842   0.360  0.0328 -0.5187  0.4278
 4595SOL    HW125244   1.451   3.908   0.403 -1.1071  1.4830 -1.2190
 4595SOL    HW225245   1.457   3.767   0.364  1.5649  0.7009  0.2155
 4596SOL     OW25246   2.731   2.123   7.060  0.4241 -0.1717  0.5382
 4596SOL    HW125247   2.813   2.075   7.067  1.1754  0.8557 -1.2044
 4596SOL    HW225248   2.668   2.052   7.055  0.9967 -0.6322 -0.1241
 4597SOL     OW25249   1.684   1.463   6.160 -0.3322 -0.5400 -0.0075
 4597SOL    HW125250   1.771   1.484   6.195 -0.6615  1.2564 -0.2678
 4597SOL    HW225251   1.630   1.481   6.237  0.6865  1.6741  0.2054
 4598SOL     OW25252   1.631   2.022   2.465  0.6412  0.3433  0.4641
 4598SOL    HW125253   1.595   2.074   2.393  0.4190 -0.2852  0.1234
 4598SOL    HW225254   1.652   1.940   2.421 -0.0836 -0.8240  2.2727
 4599SOL     OW25255   2.528   2.628   7.024 -0.0476 -0.2542 -0.4803
 4599SOL    HW125256   2.603   2.644   7.081 -0.0503  0.9432 -0.8164
 4599SOL    HW225257   2.521   2.709   6.974 -2.1558  0.3231  0.7090
 4600SOL     OW25258   2.068   3.066  16.081  0.2636  0.6709  0.3152
 4600SOL    HW125259   1.995   3.019  16.043 -0.0837  0.2262  1.5205
 4600SOL    HW225260   2.037   3.106  16.163  3.0991  1.2996  1.0845
 4601SOL     OW25261   4.337   3.993   5.860 -0.1060 -0.1703 -0.2219
 4601SOL    HW125262   4.273   3.957   5.799  0.5105  2.0930 -2.2126
 4601SOL    HW225263   4.396   4.036   5.798  1.5715 -0.0114  1.4757
 4602SOL     OW25264   1.372   2.102  10.310 -0.0275  0.7350 -0.0976
 4602SOL    HW125265   1.415   2.181  10.275  1.2305  0.4470  0.7911
 4602SOL    HW225266   1.397   2.047  10.236 -1.6560  0.6660 -0.5885
 4603SOL     OW25267   1.867   1.332   3.607 -0.7519  0.0717 -0.0056
 4603SOL    HW125268   1.956   1.306   3.633 -1.0036 -0.1185  0.6593
 4603SOL    HW225269   1.819   1.263   3.653  0.0030 -1.5455 -1.6441
 4604SOL     OW25270   2.763   1.318   7.460  0.3022 -0.1242  0.0202
 4604SOL    HW125271   2.678   1.285   7.489  0.6166 -1.2120 -0.2748
 4604SOL    HW225272   2.827   1.279   7.520  2.0063  4.2490  1.0545
 4605SOL     OW25273   4.543   0.218   8.386  0.4015  0.3344 -0.1813
 4605SOL    HW125274   4.549   0.130   8.347 -0.2774 -0.7150  2.0609
 4605SOL    HW225275   4.635   0.242   8.396  0.3169  0.4479  0.3538
 4606SOL     OW25276   4.180   0.918   5.109 -0.2050  0.4246 -0.7509
 4606SOL    HW125277   4.210   0.929   5.199  2.5876  0.3217 -1.6969
 4606SOL    HW225278   4.086   0.899   5.113  0.4499 -2.3674  1.0006
 4607SOL     OW25279   1.823   4.005   4.424  0.3772  0.1850 -0.3424
 4607SOL    HW125280   1.859   4.052   4.349 -2.6884  0.2969 -1.7194
 4607SOL    HW225281   1.866   3.919   4.418  1.1279  0.5030  0.4371
 4608SOL     OW25282   3.023   0.233   2.726 -0.1146 -0.3271 -0.4657
 4608SOL    HW125283   2.952   0.258   2.666 -1.0141 -2.5126 -0.3053
 4608SOL    HW225284   3.039   0.142   2.701 -0.6721 -1.1647  2.1153
 4609SOL     OW25285   0.455   0.104   1.835 -0.2606 -0.3764 -0.4213
 4609SOL    HW125286   0.402   0.028   1.860  0.1431 -0.6783 -0.4982
 4609SOL    HW225287   0.418   0.138   1.754 -1.8303 -1.6887 -0.2631
 4610SOL     OW25288   1.253   0.965   2.939  0.2280 -0.1666  0.4186
 4610SOL    HW125289   1.257   1.043   2.883 -2.0736  0.0412  0.5462
 4610SOL    HW225290   1.168   0.930   2.911 -0.9477  2.7575  0.3153
 4611SOL     OW25291   2.645   1.821   1.950  0.0958  0.0320  0.2332
 4611SOL    HW125292   2.729   1.779   1.931 -0.5562 -1.0326 -0.3479
 4611SOL    HW225293   2.659   1.903   1.997 -2.2192  1.2147 -1.0868
 4612SOL     OW25294   2.231   2.795   3.699  0.1443  0.8418  0.5075
 4612SOL    HW125295   2.166   2.744   3.650  0.4539 -1.0983  2.0898
 4612SOL    HW225296   2.183   2.805   3.781  0.5860 -1.0746  0.9946
 4613SOL     OW25297   1.998   2.088   6.338 -0.5789  0.5578 -0.1619
 4613SOL    HW125298   2.018   2.135   6.257 -0.1370 -1.8334 -1.4528
 4613SOL    HW225299   2.009   1.999   6.304 -0.9720  0.1177  0.8593
 4614SOL     OW25300   2.996   1.802   5.788  0.2393 -0.1972 -0.4609
 4614SOL    HW125301   2.984   1.868   5.856  0.3573 -3.2189  2.5525
 4614SOL    HW225302   2.979   1.857   5.712 -1.5243 -1.7928 -1.2286
 4615SOL     OW25303   1.872   4.092  12.647  0.1621  0.3036 -0.2398
 4615SOL    HW125304   1.909   4.180  12.648  0.4214  0.2093 -1.8175
 4615SOL    HW225305   1.811   4.096  12.721 -0.8429 -0.7696 -1.0087
 4616SOL     OW25306   0.359   3.728   4.047  0.5583 -0.2074  0.7748
 4616SOL    HW125307   0.405   3.806   4.078  0.5514 -1.1971  3.3246
 4616SOL    HW225308   0.274   3.765   4.022  0.7754 -2.3374 -3.0711
 4617SOL     OW25309   3.947   0.725   3.556 -0.2766  0.3529 -0.2261
 4617SOL    HW125310   3.983   0.674   3.484  1.4773 -1.2035  1.7556
 4617SOL    HW225311   3.854   0.719   3.534 -0.5660 -0.9514  1.4042
 4618SOL     OW25312   4.124   1.366  15.303 -0.8181  0.4577  0.0513
 4618SOL    HW125313   4.068   1.441  15.322 -1.9641 -0.6940  1.3270
 4618SOL    HW225314   4.067   1.296  15.337 -1.8837  0.2791 -2.1428
 4619SOL     OW25315   4.231   2.182  15.907 -0.5296  0.3128  0.3677
 4619SOL    HW125316   4.143   2.196  15.871 -0.6900 -0.7742  0.3442
 4619SOL    HW225317   4.222   2.090  15.929 -0.9509  0.6293  1.4862
 4620SOL     OW25318   2.181   1.556   8.510 -0.2154 -0.4437  0.1648
 4620SOL    HW125319   2.174   1.641   8.466  0.0938 -1.4227 -1.7778
 4620SOL    HW225320   2.110   1.566   8.573  0.9958 -0.3340  1.4927
 4621SOL     OW25321   3.646   2.247   4.345 -0.7825  0.2591  0.4483
 4621SOL    HW125322   3.659   2.220   4.254 -0.1447  1.3670  0.2145
 4621SOL    HW225323   3.716   2.312   4.342 -1.8158  1.3314 -0.4990
 4622SOL     OW25324   3.606   3.536   9.709 -0.0547 -0.0001 -0.0732
 4622SOL    HW125325   3.651   3.610   9.749  0.1611  0.3476 -0.9550
 4622SOL    HW225326   3.657   3.468   9.753 -0.5572 -0.8806 -0.8242
 4623SOL     OW25327   2.810   2.734   3.742 -0.5264  0.2026 -0.5685
 4623SOL    HW125328   2.774   2.792   3.808  1.7665  0.7575  0.2064
 4623SOL    HW225329   2.774   2.652   3.775 -0.7406  1.4497  2.2927
 4624SOL     OW25330   3.985   0.959   7.666  0.1354 -0.4716  0.3826
 4624SOL    HW125331   4.009   0.904   7.741 -2.3751  0.5538  1.9140
 4624SOL    HW225332   4.005   0.900   7.593  0.8097 -1.3537  1.2818
 4625SOL     OW25333   1.855   1.091  17.416 -0.0647 -0.3086 -0.0196
 4625SOL    HW125334   1.897   1.021  17.466  0.1152 -0.4068 -0.3115
 4625SOL    HW225335   1.903   1.082  17.333  0.6785 -0.2778  0.4067
 4626SOL     OW25336   3.213   1.777   3.226  0.1046  0.4134  0.5243
 4626SOL    HW125337   3.174   1.729   3.153 -0.9401  1.2809  0.5134
 4626SOL    HW225338   3.293   1.724   3.237  0.8735  1.4349 -0.1559
 4627SOL     OW25339   4.259   3.082   3.524  0.3217 -0.3936 -0.3759
 4627SOL    HW125340   4.210   3.150   3.479 -0.2505  0.0716  0.9516
 4627SOL    HW225341   4.347   3.109   3.551  0.5132 -1.4818  0.0835
 4628SOL     OW25342   2.408   1.499   3.348 -0.0673 -0.5245 -0.1646
 4628SOL    HW125343   2.325   1.523   3.389 -1.1162  0.3116 -2.7761
 4628SOL    HW225344   2.428   1.567   3.284  0.0701 -0.1435  0.2818
 4629SOL     OW25345   3.658   0.706   9.469  0.5892  0.0614 -0.6882
 4629SOL    HW125346   3.660   0.797   9.441  0.3793  0.0625 -0.7010
 4629SOL    HW225347   3.571   0.702   9.510  0.7347  0.3325 -0.3549
 4630SOL     OW25348   2.760   4.213  17.001 -0.1385  0.2039  0.3602
 4630SOL    HW125349   2.772   4.133  16.950 -1.5119  1.4099 -1.8754
 4630SOL    HW225350   2.668   4.237  17.002 -0.0162  0.6232  2.2322
 4631SOL     OW25351   4.334   1.772   3.162  0.3507 -0.1190  0.4130
 4631SOL    HW125352   4.288   1.689   3.152 -1.6512  1.0580 -0.0537
 4631SOL    HW225353   4.315   1.797   3.072  0.4909 -0.1593  0.3732
 4632SOL     OW25354   2.901   4.134  16.220 -0.0445  0.2396  0.5796
 4632SOL    HW125355   2.973   4.121  16.282  2.1359 -0.7935 -2.1331
 4632SOL    HW225356   2.917   4.217  16.176 -0.3210 -0.6862 -1.2920
 4633SOL     OW25357   4.441   4.648   8.144 -0.0222  0.0726 -0.6461
 4633SOL    HW125358   4.523   4.632   8.191 -0.2233 -0.8140 -0.5886
 4633SOL    HW225359   4.375   4.659   8.214  1.3493  0.6234  0.5579
 4634SOL     OW25360   4.548   0.276   7.104 -0.1285 -0.4497  0.1589
 4634SOL    HW125361   4.558   0.309   7.015  0.2204 -2.8589 -0.6906
 4634SOL    HW225362   4.461   0.236   7.101 -1.3315  2.2503 -1.3762
 4635SOL     OW25363   3.850   1.472   0.761 -0.3564  1.1555 -0.4337
 4635SOL    HW125364   3.917   1.445   0.698 -0.2764 -0.2549  0.2559
 4635SOL    HW225365   3.772   1.422   0.737  0.4058 -1.4450  2.4459
 4636SOL     OW25366   1.730   1.870   6.645 -0.0510  0.7702 -0.0140
 4636SOL    HW125367   1.799   1.934   6.628 -1.4659  2.4086  0.4607
 4636SOL    HW225368   1.778   1.787   6.632 -0.4570  0.3606  1.1222
 4637SOL     OW25369   2.862   2.072   2.365  0.5373  0.7209  0.3513
 4637SOL    HW125370   2.903   2.095   2.448 -1.6351  1.3585  1.2566
 4637SOL    HW225371   2.795   2.007   2.384 -0.3223  1.5566  0.2138
 4638SOL     OW25372   0.137   3.784   5.660  0.7579 -0.2910 -0.5525
 4638SOL    HW125373   0.140   3.827   5.745  1.3651  0.5694 -1.0114
 4638SOL    HW225374   0.221   3.739   5.665  1.7517  1.5663 -0.7926
 4639SOL     OW25375   2.399   2.473  13.356 -0.0009 -0.0836 -0.6783
 4639SOL    HW125376   2.391   2.474  13.260 -1.8308  2.6652 -0.4989
 4639SOL    HW225377   2.314   2.440  13.384  0.5461 -2.1237 -1.4048
 4640SOL     OW25378   2.124   3.846   9.763  0.6128  0.0688 -0.0699
 4640SOL    HW125379   2.158   3.799   9.688 -1.1529  1.3930 -1.7163
 4640SOL    HW225380   2.046   3.793   9.779  0.5121  0.1534 -0.2814
 4641SOL     OW25381   0.393   0.655   4.564  0.1733  0.1424 -0.0479
 4641SOL    HW125382   0.452   0.581   4.579 -1.1707 -0.8913  0.1495
 4641SOL    HW225383   0.454   0.726   4.543  2.3796 -1.8595 -0.3695
 4642SOL     OW25384   3.296   3.206   5.974 -0.2037 -0.4635  0.2857
 4642SOL    HW125385   3.270   3.278   6.032  0.2879 -0.4103  0.4390
 4642SOL    HW225386   3.290   3.126   6.026  3.1825 -0.1972  1.0991
 4643SOL     OW25387   1.610   4.157   4.479  0.2672  0.1348  0.1570
 4643SOL    HW125388   1.633   4.195   4.564 -1.1943 -0.9846  1.0397
 4643SOL    HW225389   1.692   4.112   4.458  1.1891  1.7859  0.1600
 4644SOL     OW25390   0.548   2.420   4.612  0.1187 -0.3132  0.1666
 4644SOL    HW125391   0.530   2.433   4.519  2.0702  2.2958  0.1322
 4644SOL    HW225392   0.477   2.478   4.638  1.1612  2.3398 -2.8771
 4645SOL     OW25393   2.923   3.796   7.333  0.4749  0.3212 -0.1574
 4645SOL    HW125394   2.931   3.888   7.308  1.1310  0.7110  1.4624
 4645SOL    HW225395   2.828   3.784   7.330  0.8576 -2.6469  0.0811
 4646SOL     OW25396   2.469   4.600   2.681  0.5550  0.1591 -0.3532
 4646SOL    HW125397   2.531   4.546   2.632 -1.4774 -0.7982 -1.8572
 4646SOL    HW225398   2.389   4.553   2.657  0.4429  0.8056 -1.2515
 4647SOL     OW25399   1.002   0.161   7.597  0.6086 -0.0975  0.0859
 4647SOL    HW125400   1.046   0.230   7.547 -0.2594  1.6939  1.8497
 4647SOL    HW225401   1.020   0.082   7.545 -0.6627 -1.4371  1.6670
 4648SOL     OW25402   0.316   2.202   8.968  0.1618  0.1372  0.3574
 4648SOL    HW125403   0.395   2.183   9.018 -0.7818 -3.4295  0.5077
 4648SOL    HW225404   0.330   2.290   8.933 -0.8308 -0.7035 -2.1924
 4649SOL     OW25405   0.278   0.165   7.049  0.2680  0.4088  0.2931
 4649SOL    HW125406   0.310   0.075   7.040 -0.1996  0.5076 -2.1851
 4649SOL    HW225407   0.351   0.212   7.089 -0.9223  0.5711  2.2751
 4650SOL     OW25408   0.416   3.049   3.529  0.0135 -0.0184 -0.0464
 4650SOL    HW125409   0.435   2.956   3.533  0.5904  0.1212  0.6687
 4650SOL    HW225410   0.434   3.072   3.621  1.6251  2.1261 -0.8867
 4651SOL     OW25411   3.222   4.710   9.048  0.4487 -0.3671  0.3536
 4651SOL    HW125412   3.183   4.703   8.960 -0.0962  2.4463  0.3739
 4651SOL    HW225413   3.143   0.020   9.090  1.0604  1.3346  0.1148
 4652SOL     OW25414   3.432   4.218   3.640  0.5782  0.0728  0.5165
 4652SOL    HW125415   3.448   4.270   3.719  1.4876 -1.6602  1.4888
 4652SOL    HW225416   3.524   4.195   3.625  0.2372  0.1199 -1.6706
 4653SOL     OW25417   0.271   4.015   0.188 -0.6648  0.1232  0.0662
 4653SOL    HW125418   0.238   3.926   0.172  0.7864 -0.7410  1.8639
 4653SOL    HW225419   0.322   3.984   0.263  1.1463  1.4200 -0.6157
 4654SOL     OW25420   2.913   1.503   3.835 -0.0614 -0.1350 -0.1950
 4654SOL    HW125421   2.890   1.564   3.905 -0.6007 -1.4049  0.7302
 4654SOL    HW225422   2.830   1.495   3.787 -0.7667 -2.2364  1.3572
 4655SOL     OW25423   2.159   1.709   2.866  0.3580 -0.2655 -0.0418
 4655SOL    HW125424   2.200   1.779   2.917  0.9156 -0.5226 -0.1425
 4655SOL    HW225425   2.071   1.715   2.903  0.9797 -0.7196  1.4897
 4656SOL     OW25426   1.767   3.677   2.413  0.3721 -0.2611  0.6020
 4656SOL    HW125427   1.861   3.659   2.407  0.2933 -0.9577  1.3048
 4656SOL    HW225428   1.717   3.596   2.402 -0.0006  0.3653 -2.2715
 4657SOL     OW25429   4.399   1.449  12.784 -0.0276 -0.1964  0.0481
 4657SOL    HW125430   4.436   1.474  12.699  1.7999 -1.8631  0.3556
 4657SOL    HW225431   4.335   1.383  12.756 -1.8212  1.5891 -0.0003
 4658SOL     OW25432   0.703   4.297   6.966 -0.2705  0.2559  0.4841
 4658SOL    HW125433   0.766   4.330   7.030  1.9645  0.5695 -1.8890
 4658SOL    HW225434   0.760   4.285   6.890 -0.5287  2.4462 -0.0642
 4659SOL     OW25435   4.221   4.086  14.914 -0.1241  0.1866  0.4748
 4659SOL    HW125436   4.138   4.049  14.944  0.3429 -2.3894 -1.4908
 4659SOL    HW225437   4.201   4.174  14.947 -0.3455 -0.0202  0.8896
 4660SOL     OW25438   0.600   3.453   0.550 -0.1663  0.3793  0.3854
 4660SOL    HW125439   0.605   3.537   0.504  1.2048 -0.7558 -1.5199
 4660SOL    HW225440   0.626   3.396   0.478 -1.2590  1.0861 -0.5491
 4661SOL     OW25441   3.194   1.590   2.056 -0.3601  0.2881 -0.4403
 4661SOL    HW125442   3.135   1.665   2.050 -0.1842  0.5921  1.7399
 4661SOL    HW225443   3.130   1.529   2.019 -0.1228 -0.2139 -0.0077
 4662SOL     OW25444   2.670   0.259   6.044 -0.0820  0.3631  0.3115
 4662SOL    HW125445   2.642   0.197   5.977 -0.1566  0.6295  0.0944
 4662SOL    HW225446   2.765   0.249   6.038 -0.3825 -1.6162 -1.3747
 4663SOL     OW25447   1.958   3.520   8.549  0.4230  0.1888 -0.0134
 4663SOL    HW125448   1.959   3.598   8.494 -0.1711 -1.4137 -2.3130
 4663SOL    HW225449   1.865   3.508   8.570  0.3152  1.9266  0.5046
 4664SOL     OW25450   3.083   3.346   3.332 -0.2232  0.5680 -0.1492
 4664SOL    HW125451   3.032   3.316   3.257 -1.3200  0.2980  0.7045
 4664SOL    HW225452   3.126   3.421   3.290  1.8923 -1.2767 -1.2824
 4665SOL     OW25453   3.772   4.069   6.994 -0.0564 -0.5839  0.5074
 4665SOL    HW125454   3.776   4.018   7.075 -1.4595  0.5381  1.2750
 4665SOL    HW225455   3.712   4.140   7.015 -0.8669 -0.5249 -2.0445
 4666SOL     OW25456   0.276   3.665   3.253 -0.7214  0.0436  0.0210
 4666SOL    HW125457   0.254   3.586   3.204 -0.4874 -0.9607  1.5363
 4666SOL    HW225458   0.254   3.725   3.181 -0.6459 -3.0580 -2.5871
 4667SOL     OW25459   2.806   2.412   4.896 -0.2407 -0.9836 -0.3366
 4667SOL    HW125460   2.800   2.320   4.870  1.2873 -1.1116 -0.2345
 4667SOL    HW225461   2.829   2.444   4.809  1.2288  1.2094  0.8763
 4668SOL     OW25462   4.434   1.486   7.437 -0.5194 -0.1712 -0.1209
 4668SOL    HW125463   4.487   1.496   7.359 -1.0205 -3.6939 -0.9220
 4668SOL    HW225464   4.394   1.571   7.454 -2.3439 -0.8084 -1.2247
 4669SOL     OW25465   4.008   3.958   8.709 -0.4578 -0.3696  0.0256
 4669SOL    HW125466   3.995   3.865   8.689  0.0480 -0.2479 -0.8898
 4669SOL    HW225467   4.015   3.998   8.622 -3.6558  0.2867  0.0723
 4670SOL     OW25468   1.685   4.359   0.654 -0.3326  0.2211 -0.1124
 4670SOL    HW125469   1.620   4.424   0.629 -0.7091 -0.1994 -0.2220
 4670SOL    HW225470   1.635   4.288   0.614 -0.3708 -0.3291  0.9106
 4671SOL     OW25471   3.449   4.284  15.274  0.3228 -0.3100 -0.4856
 4671SOL    HW125472   3.506   4.305  15.200  1.1502  1.4497  0.6703
 4671SOL    HW225473   3.428   4.194  15.249 -0.1063 -0.5977  0.9394
 4672SOL     OW25474   3.876   1.662   4.499 -0.2410  0.1362  0.2890
 4672SOL    HW125475   3.959   1.664   4.547 -1.8135  2.7605  2.8315
 4672SOL    HW225476   3.900   1.678   4.408  1.8849  0.6844  0.9295
 4673SOL     OW25477   1.112   2.893  17.012  0.4981 -0.4996 -0.0076
 4673SOL    HW125478   1.039   2.930  17.063  0.2815 -1.4203  0.3541
 4673SOL    HW225479   1.077   2.918  16.927 -0.7820 -0.3470  0.5521
 4674SOL     OW25480   2.277   0.925   3.092 -0.2255 -0.1466  0.4589
 4674SOL    HW125481   2.338   0.985   3.134  1.6185 -1.4375 -0.3688
 4674SOL    HW225482   2.300   0.844   3.138 -0.0269 -0.7930 -0.7788
 4675SOL     OW25483   0.220   3.116  10.932 -0.8808 -0.0379  0.2030
 4675SOL    HW125484   0.219   3.095  10.839 -0.1628  0.0139  0.1832
 4675SOL    HW225485   0.260   3.037  10.970  1.3756  0.7034 -0.6032
 4676SOL     OW25486   3.223   1.244   5.142  0.7814  0.1990 -0.2067
 4676SOL    HW125487   3.282   1.171   5.163  0.4828  0.0805  0.2153
 4676SOL    HW225488   3.160   1.226   5.212 -0.8962  0.0832 -1.7635
 4677SOL     OW25489   2.946   3.827   9.043  0.4781  0.1253  0.0767
 4677SOL    HW125490   2.941   3.866   8.956 -1.7201  1.4182  0.7628
 4677SOL    HW225491   2.867   3.864   9.082 -1.7804 -2.3608 -2.0643
 4678SOL     OW25492   0.566   3.850   2.240  0.3240 -0.1981  0.5362
 4678SOL    HW125493   0.524   3.785   2.297  0.7059 -2.3359 -1.6297
 4678SOL    HW225494   0.520   3.927   2.274 -0.3752 -0.9192  1.2137
 4679SOL     OW25495   3.735   0.047   9.247 -0.4233  0.0470 -0.3752
 4679SOL    HW125496   3.643   0.023   9.245 -0.6809  0.9429  0.5052
 4679SOL    HW225497   3.731   0.137   9.213  0.3773  0.9137  1.7955
 4680SOL     OW25498   4.688   1.190   7.927  0.4037  0.2338  0.4066
 4680SOL    HW125499   4.639   1.203   8.009 -0.8281  1.6149 -0.5384
 4680SOL    HW225500   4.688   1.095   7.916 -1.8570 -0.0858  2.9284
 4681SOL     OW25501   1.146   1.776   8.175 -0.2413 -0.5541  0.0946
 4681SOL    HW125502   1.094   1.855   8.194 -0.3210 -1.1438  2.3311
 4681SOL    HW225503   1.129   1.719   8.250  0.0461  1.9408  2.0395
 4682SOL     OW25504   3.442   3.600   8.442 -0.2610 -0.5621 -0.5345
 4682SOL    HW125505   3.356   3.601   8.399 -0.7066 -0.7011  0.3584
 4682SOL    HW225506   3.421   3.629   8.531  0.5020  1.6828 -1.1025
 4683SOL     OW25507   0.031   0.483  11.803  0.2072 -0.0523  0.0263
 4683SOL    HW125508   0.123   0.465  11.782  0.3156 -0.3776  0.8070
 4683SOL    HW225509   4.712   0.521  11.725  0.8979 -0.3447 -0.4923
 4684SOL     OW25510   1.243   0.654   6.295  0.3120  0.2613  0.2268
 4684SOL    HW125511   1.314   0.601   6.257  0.3883 -0.6689  1.6844
 4684SOL    HW225512   1.192   0.588   6.341  1.7179 -0.2901  1.0088
 4685SOL     OW25513   4.127   3.394   5.300 -0.4730 -0.0673 -0.3533
 4685SOL    HW125514   4.211   3.437   5.317 -0.3460 -0.3495 -0.2676
 4685SOL    HW225515   4.142   3.302   5.319 -0.0693 -0.2260 -1.4015
 4686SOL     OW25516   2.061   2.457   9.426 -0.3408 -0.1734 -0.0431
 4686SOL    HW125517   2.146   2.441   9.387 -0.4519 -1.6293  0.3159
 4686SOL    HW225518   2.056   2.552   9.440 -0.5838 -0.2556  0.4464
 4687SOL     OW25519   2.344   3.532   7.802  0.4457 -0.3247  0.5631
 4687SOL    HW125520   2.306   3.450   7.834  0.4092  0.1236  1.6723
 4687SOL    HW225521   2.318   3.527   7.710  1.2350 -0.6693  0.3578
 4688SOL     OW25522   0.614   1.112  16.518 -0.1035  0.4339  0.2204
 4688SOL    HW125523   0.682   1.146  16.576 -0.5524  0.5063  0.6979
 4688SOL    HW225524   0.540   1.171  16.531 -1.0190 -0.2936 -1.7441
 4689SOL     OW25525   0.995   2.537  14.764 -0.2536 -0.2341  0.0330
 4689SOL    HW125526   0.931   2.602  14.735  0.6007  0.8057  0.4885
 4689SOL    HW225527   1.023   2.500  14.680 -0.0026 -1.7105  0.7597
 4690SOL     OW25528   3.762   3.992   1.614 -0.3191 -0.5175 -0.2021
 4690SOL    HW125529   3.675   3.955   1.628 -0.7602  1.4178  2.2323
 4690SOL    HW225530   3.738   4.048   1.540 -0.9382  1.0432  1.1770
 4691SOL     OW25531   1.027   0.386   3.944  0.1022 -0.0650 -0.0546
 4691SOL    HW125532   1.109   0.373   3.897  0.2930  0.9953 -0.0139
 4691SOL    HW225533   1.054   0.446   4.013 -1.7867  0.2146  0.4465
 4692SOL     OW25534   4.146   1.741   6.861 -0.5988 -0.1733 -0.2315
 4692SOL    HW125535   4.138   1.679   6.934 -0.5489 -0.6070 -0.5946
 4692SOL    HW225536   4.241   1.745   6.851 -0.4921  1.1945  1.3031
 4693SOL     OW25537   1.067   2.745   8.979 -0.5385  0.4756  0.0449
 4693SOL    HW125538   1.054   2.652   8.998  0.0472  0.2667 -0.5677
 4693SOL    HW225539   1.126   2.771   9.050 -1.6291  0.4199  0.9874
 4694SOL     OW25540   2.767   3.821   2.835 -0.1851  0.2924  0.9366
 4694SOL    HW125541   2.766   3.725   2.834  1.6214  0.3187 -4.1191
 4694SOL    HW225542   2.861   3.832   2.845  0.3125 -2.0928 -0.8198
 4695SOL     OW25543   4.045   4.676   1.492  0.5307 -0.0748  0.2982
 4695SOL    HW125544   4.054   4.646   1.582 -0.1804 -1.3700 -0.0559
 4695SOL    HW225545   4.100   4.610   1.449  0.2165 -0.1843  0.0662
 4696SOL     OW25546   1.348   0.673   4.672 -0.8430  0.3435 -0.0757
 4696SOL    HW125547   1.411   0.618   4.625  1.2539  1.5874  1.2977
 4696SOL    HW225548   1.376   0.759   4.643  2.3394 -0.5952  0.2256
 4697SOL     OW25549   2.918   3.991   3.693  0.1083  0.6171  0.2766
 4697SOL    HW125550   2.830   4.023   3.670 -0.6872 -1.5625  0.3188
 4697SOL    HW225551   2.973   4.061   3.658  1.4765 -1.5370 -1.9087
 4698SOL     OW25552   0.680   4.530  16.356 -0.3588  0.5662 -0.1755
 4698SOL    HW125553   0.733   4.464  16.401 -0.2142  0.5048 -0.4344
 4698SOL    HW225554   0.722   4.529  16.270 -0.9419  0.8938 -0.4595
 4699SOL     OW25555   2.731   1.075   1.382 -0.0590 -0.4058  0.3008
 4699SOL    HW125556   2.724   0.982   1.403 -3.0914  0.0369  1.1472
 4699SOL    HW225557   2.647   1.101   1.418  0.5477 -0.0238  1.4417
 4700SOL     OW25558   3.770   3.409   3.260 -0.0479 -0.0817 -0.0840
 4700SOL    HW125559   3.675   3.406   3.250 -0.1427 -0.7332  0.9957
 4700SOL    HW225560   3.805   3.331   3.218  1.0466  0.3590  0.0101
 4701SOL     OW25561   2.336   3.397   8.632 -0.1878  0.2075  0.0165
 4701SOL    HW125562   2.244   3.377   8.646 -0.6782  1.2112 -1.6708
 4701SOL    HW225563   2.322   3.468   8.568  0.2112 -0.3727 -0.7088
 4702SOL     OW25564   3.830   0.003   6.279  0.1010 -0.0071 -0.2701
 4702SOL    HW125565   3.834   4.693   6.190  1.1134  1.0460 -0.6146
 4702SOL    HW225566   3.894   4.670   6.322 -0.6293 -1.3344 -0.9582
 4703SOL     OW25567   4.212   4.694   3.461 -0.1756  0.5824 -0.3266
 4703SOL    HW125568   4.252   0.056   3.451 -1.0648  0.9747 -0.4867
 4703SOL    HW225569   4.286   4.652   3.505 -3.2535 -2.7053  1.7544
 4704SOL     OW25570   3.923   0.843   0.079  0.0247 -0.2662 -0.3948
 4704SOL    HW125571   3.854   0.784   0.052 -0.7046 -0.3586  1.6738
 4704SOL    HW225572   3.872   0.924   0.085  2.6036  1.1442  2.6705
 4705SOL     OW25573   2.893   1.484  17.154 -0.0445 -0.5399 -0.4336
 4705SOL    HW125574   2.978   1.527  17.160  0.9109 -2.1577 -2.5126
 4705SOL    HW225575   2.916   1.391  17.163  1.6687 -0.3313 -2.6355
 4706SOL     OW25576   0.982   4.661   2.328 -0.0016  0.5227  0.7979
 4706SOL    HW125577   0.915   4.685   2.393 -0.3644  1.9953 -0.1256
 4706SOL    HW225578   1.029   4.593   2.377  0.6217 -0.1833 -0.7640
 4707SOL     OW25579   3.007   2.120   3.607  0.1177  0.1019  0.1359
 4707SOL    HW125580   2.973   2.167   3.683 -0.2814 -0.8121  0.5316
 4707SOL    HW225581   3.038   2.039   3.647 -0.2760  0.5109  1.2746
 4708SOL     OW25582   4.423   3.243   2.187  0.0930 -0.2918 -0.5362
 4708SOL    HW125583   4.355   3.176   2.183  0.0488 -0.2524 -0.4243
 4708SOL    HW225584   4.382   3.315   2.235  0.5709 -0.6423  0.3775
 4709SOL     OW25585   1.411   2.481   7.634  0.4296  0.0127  0.0104
 4709SOL    HW125586   1.481   2.525   7.682 -0.0923 -1.3351  1.9948
 4709SOL    HW225587   1.365   2.431   7.701  1.2474 -0.4291  0.2397
 4710SOL     OW25588   2.792   4.355   8.299 -0.1717  0.6559 -0.4200
 4710SOL    HW125589   2.869   4.307   8.330 -1.5882  0.1336  2.2133
 4710SOL    HW225590   2.724   4.328   8.361 -1.2282  2.4848 -0.7795
 4711SOL     OW25591   3.052   3.325  14.291 -0.4513 -0.3187 -0.2955
 4711SOL    HW125592   3.099   3.398  14.331 -2.0560 -0.1227  1.2820
 4711SOL    HW225593   2.994   3.303  14.365  0.8213 -1.1099  0.4573
 4712SOL     OW25594   3.707   4.200   3.640 -0.4887  0.0094 -0.9673
 4712SOL    HW125595   3.730   4.245   3.559 -1.0921  0.1240 -1.0795
 4712SOL    HW225596   3.742   4.112   3.631 -1.4770 -0.3840 -0.9336
 4713SOL     OW25597   2.838   2.515   4.624 -0.3680  0.0184  0.3757
 4713SOL    HW125598   2.880   2.601   4.623  2.4744 -1.3378  1.0921
 4713SOL    HW225599   2.755   2.531   4.580 -2.3102 -3.3473  2.8571
 4714SOL     OW25600   2.519   1.583   5.266  0.3725  0.4436  0.1023
 4714SOL    HW125601   2.457   1.515   5.292 -0.4348  0.8747 -0.6603
 4714SOL    HW225602   2.590   1.523   5.246  0.2563 -0.2487  1.8293
 4715SOL     OW25603   4.202   2.489   0.393 -0.1998  0.0381 -0.0703
 4715SOL    HW125604   4.168   2.408   0.355  1.1667 -0.1263 -0.9658
 4715SOL    HW225605   4.289   2.460   0.418 -0.6411 -0.4966  0.8367
 4716SOL     OW25606   3.658   3.782   4.026  0.4240  0.1116 -0.5703
 4716SOL    HW125607   3.576   3.825   4.003  0.6449  0.3955 -0.8141
 4716SOL    HW225608   3.639   3.695   3.990 -0.5188 -0.3114  0.9387
 4717SOL     OW25609   1.433   2.590   9.524 -0.0498  0.3042  0.1833
 4717SOL    HW125610   1.391   2.624   9.445  0.1384 -2.5634 -1.1267
 4717SOL    HW225611   1.452   2.666   9.580 -0.4697  2.4246 -2.5905
 4718SOL     OW25612   1.027   2.076   3.209 -0.1576 -0.2078 -0.3655
 4718SOL    HW125613   1.103   2.092   3.266  1.8447 -2.0223 -2.5376
 4718SOL    HW225614   1.077   2.019   3.151 -1.8619  0.1795 -2.2270
 4719SOL     OW25615   3.177   2.392   8.265 -0.0454 -1.0277 -0.1303
 4719SOL    HW125616   3.104   2.403   8.203  2.5608  0.2550 -2.9588
 4719SOL    HW225617   3.255   2.403   8.211  0.7396  0.7799  1.3919
 4720SOL     OW25618   0.521   3.083   6.080 -0.4890  0.1744 -0.0737
 4720SOL    HW125619   0.438   3.054   6.043 -0.0772 -1.2055  0.1052
 4720SOL    HW225620   0.564   3.129   6.007  0.6956 -1.2753 -0.2868
 4721SOL     OW25621   4.721   2.713   8.116 -0.2033  0.1361  0.0583
 4721SOL    HW125622   0.005   2.635   8.171  0.6916 -0.7369 -1.2951
 4721SOL    HW225623   4.649   2.686   8.059  1.6266  0.3525 -2.3603
 4722SOL     OW25624   2.518   1.511   7.841 -0.3411  0.4709  0.0214
 4722SOL    HW125625   2.467   1.485   7.764  0.0176 -0.1677  0.0041
 4722SOL    HW225626   2.480   1.447   7.902 -2.6179 -0.7412 -2.6674
 4723SOL     OW25627   4.372   3.181  10.439 -0.1818  0.1084 -0.2751
 4723SOL    HW125628   4.449   3.233  10.417  0.8895 -0.2807  2.5031
 4723SOL    HW225629   4.343   3.149  10.354 -1.4984 -0.6522  0.4429
 4724SOL     OW25630   1.931   0.574   8.476 -0.2932 -0.0868  0.1654
 4724SOL    HW125631   1.871   0.646   8.458  1.1501  0.6464 -1.7735
 4724SOL    HW225632   1.938   0.590   8.570 -3.3051 -1.1790  0.5781
 4725SOL     OW25633   3.427   0.176   1.353  0.1334  0.3890  0.1125
 4725SOL    HW125634   3.352   0.222   1.314 -0.8318  0.7455  2.4191
 4725SOL    HW225635   3.472   0.159   1.270 -0.4075 -0.2606 -0.0551
 4726SOL     OW25636   2.407   0.742   1.443  0.0929 -0.4012 -0.6384
 4726SOL    HW125637   2.420   0.833   1.415  0.4007  0.2277  1.6139
 4726SOL    HW225638   2.324   0.706   1.411 -0.7677  1.1887 -0.2009
 4727SOL     OW25639   4.266   1.402   9.837 -0.8513 -0.7115  0.0338
 4727SOL    HW125640   4.324   1.370   9.768  1.3784  0.0159  1.5722
 4727SOL    HW225641   4.334   1.432   9.897 -0.5678 -1.6519  0.1756
 4728SOL     OW25642   4.408   4.543  11.040 -0.1613  0.0176 -0.0627
 4728SOL    HW125643   4.454   4.462  11.019 -1.1096 -0.2087 -1.2367
 4728SOL    HW225644   4.395   4.576  10.951  0.7853  0.8382  0.0964
 4729SOL     OW25645   3.457   0.202  12.004 -0.0466 -0.3264 -0.2859
 4729SOL    HW125646   3.449   0.111  12.033  2.0486 -0.6881 -0.7703
 4729SOL    HW225647   3.415   0.253  12.072  4.0655  1.8580  0.6318
 4730SOL     OW25648   1.770   2.490   5.379  0.2447  0.4274 -0.2671
 4730SOL    HW125649   1.685   2.499   5.336  2.0960 -1.6765 -4.4514
 4730SOL    HW225650   1.809   2.571   5.347  2.1407 -0.7673 -0.9822
 4731SOL     OW25651   2.935   3.585   3.121  0.2031 -0.6008 -0.0976
 4731SOL    HW125652   3.019   3.561   3.162  0.4791  1.4283  0.5000
 4731SOL    HW225653   2.895   3.502   3.096  0.6246 -0.6689 -0.5458
 4732SOL     OW25654   3.860   2.488   0.561  0.2635  0.2671  0.2865
 4732SOL    HW125655   3.903   2.454   0.640 -1.8494 -0.6484  1.0464
 4732SOL    HW225656   3.870   2.413   0.502 -1.0066 -1.4753  2.3000
 4733SOL     OW25657   2.860   0.253   2.263 -0.1874 -0.2954 -0.9576
 4733SOL    HW125658   2.885   0.327   2.207  0.1626  0.6419  0.4290
 4733SOL    HW225659   2.801   0.203   2.207  2.7320 -2.6253 -1.9399
 4734SOL     OW25660   2.686   2.656   5.848 -0.3439 -0.7592 -0.5798
 4734SOL    HW125661   2.747   2.657   5.774 -1.2545 -0.9594 -1.3314
 4734SOL    HW225662   2.755   2.657   5.914 -1.0974 -1.2503  0.2092
 4735SOL     OW25663   2.280   1.445  14.265 -0.2715  0.0983 -0.1506
 4735SOL    HW125664   2.369   1.420  14.292  0.4282  1.6850 -0.9607
 4735SOL    HW225665   2.229   1.376  14.308 -1.2386  0.4755 -0.6912
 4736SOL     OW25666   2.676   0.479  13.255  0.5469 -0.4338  0.0297
 4736SOL    HW125667   2.611   0.455  13.322 -1.2308  0.7727 -1.2708
 4736SOL    HW225668   2.706   0.559  13.297 -2.6992  0.2794  1.0035
 4737SOL     OW25669   2.689   0.911   4.613  0.2757 -0.3649  0.1161
 4737SOL    HW125670   2.739   0.893   4.694 -1.0326  2.0351  1.4358
 4737SOL    HW225671   2.630   0.836   4.605 -0.7487  0.4655  0.0116
 4738SOL     OW25672   0.783   3.818   0.612  0.3060 -0.4311 -0.6680
 4738SOL    HW125673   0.750   3.768   0.537 -1.2159  1.0269 -0.9767
 4738SOL    HW225674   0.799   3.905   0.577 -0.8071 -0.6212 -1.6781
 4739SOL     OW25675   3.263   3.066   6.468 -0.2332  0.0931  0.5326
 4739SOL    HW125676   3.204   2.990   6.470  0.2950 -0.3830 -2.3923
 4739SOL    HW225677   3.312   3.045   6.548 -0.5571  0.6339  0.8765
 4740SOL     OW25678   3.269   4.080  14.014 -0.4887  0.1389 -0.0581
 4740SOL    HW125679   3.302   3.997  14.048  0.0291  0.0665 -0.7374
 4740SOL    HW225680   3.327   4.104  13.941  1.8039 -1.9886  1.0522
 4741SOL     OW25681   4.139   0.884   2.263 -0.2018  0.4833  0.5511
 4741SOL    HW125682   4.094   0.864   2.345 -0.5143 -0.1312  0.2341
 4741SOL    HW225683   4.075   0.938   2.216 -1.5437 -0.5786  1.1403
 4742SOL     OW25684   3.634   3.978  15.479 -0.0897  0.8150  0.3251
 4742SOL    HW125685   3.628   3.922  15.556 -0.0853  2.5320  1.5825
 4742SOL    HW225686   3.544   4.001  15.458  0.2016  3.1901  1.6838
 4743SOL     OW25687   2.249   1.732   6.739 -0.5424  0.0250  0.0023
 4743SOL    HW125688   2.220   1.696   6.822 -1.5095  1.7273  0.4045
 4743SOL    HW225689   2.183   1.713   6.672 -1.0143  1.4372  0.0672
 4744SOL     OW25690   2.700   3.442   8.289 -0.0436  0.0314 -0.5972
 4744SOL    HW125691   2.641   3.511   8.260  0.7306  1.1529  0.4767
 4744SOL    HW225692   2.682   3.450   8.383 -2.7557 -2.4005 -0.9260
 4745SOL     OW25693   2.002   2.592   4.518 -0.4586 -0.2758 -0.2304
 4745SOL    HW125694   1.918   2.554   4.493 -0.2310 -1.7546  1.2323
 4745SOL    HW225695   1.981   2.608   4.610  0.3652  2.5613 -0.5294
 4746SOL     OW25696   3.361   2.918  17.426 -0.5314  0.2685  0.1472
 4746SOL    HW125697   3.349   2.872  17.343  1.9066  2.8103 -1.6243
 4746SOL    HW225698   3.369   3.006  17.388 -0.1908 -0.3805 -1.2911
 4747SOL     OW25699   1.936   2.046  15.801  0.1560 -0.6695  0.0544
 4747SOL    HW125700   1.894   2.007  15.724 -1.4340 -0.0689  0.6197
 4747SOL    HW225701   2.027   2.031  15.776  0.3527 -0.8014  0.8489
 4748SOL     OW25702   1.425   3.744   7.093  0.5237 -0.6838 -0.1565
 4748SOL    HW125703   1.449   3.724   7.183  0.1281  2.4321  0.6291
 4748SOL    HW225704   1.331   3.760   7.091  0.5777 -0.4621 -1.0913
 4749SOL     OW25705   1.080   3.712   5.835  0.0154 -0.0347 -0.4334
 4749SOL    HW125706   1.115   3.652   5.770 -0.1784 -1.1973  0.5219
 4749SOL    HW225707   0.986   3.703   5.817 -0.1940  0.5650  0.3491
 4750SOL     OW25708   4.487   0.825   0.641  0.3636  0.2977  0.0841
 4750SOL    HW125709   4.423   0.841   0.572  0.0571 -1.4838 -0.0368
 4750SOL    HW225710   4.543   0.767   0.590 -0.0313 -2.8563  3.1947
 4751SOL     OW25711   0.753   0.035   5.455  0.3959 -0.4325 -0.6336
 4751SOL    HW125712   0.842   0.001   5.446  0.8022  0.1262  1.1112
 4751SOL    HW225713   0.707   4.699   5.397 -0.0052 -0.6667 -0.0826
 4752SOL     OW25714   4.214   3.039  10.637 -0.3215 -0.3567 -0.0610
 4752SOL    HW125715   4.305   3.067  10.627 -0.2946 -1.2189 -2.3585
 4752SOL    HW225716   4.224   2.945  10.625  0.5764 -0.5800  2.4300
 4753SOL     OW25717   4.270   1.157   4.812  0.1584  0.1957 -0.1494
 4753SOL    HW125718   4.261   1.166   4.717 -0.2140  0.6262 -0.0760
 4753SOL    HW225719   4.178   1.157   4.836 -0.0981  1.1652 -1.1223
 4754SOL     OW25720   3.419   3.120   1.519  0.1686 -0.7655 -0.4409
 4754SOL    HW125721   3.502   3.113   1.566 -0.3235  0.7479  0.6510
 4754SOL    HW225722   3.385   3.208   1.535 -0.3974 -1.4457  2.1686
 4755SOL     OW25723   2.262   0.395  17.113  0.4300 -0.2531  0.8392
 4755SOL    HW125724   2.350   0.386  17.076  0.8925  0.5827  1.7493
 4755SOL    HW225725   2.231   0.309  17.085  2.9042  0.3671 -3.8736
 4756SOL     OW25726   3.517   2.294   5.507  0.5048  0.0582 -0.3449
 4756SOL    HW125727   3.524   2.327   5.417  1.8038 -0.1681 -0.3261
 4756SOL    HW225728   3.503   2.380   5.546 -0.5836 -0.2021 -0.1577
 4757SOL     OW25729   4.536   1.579   3.093 -0.3688 -0.0948 -0.2283
 4757SOL    HW125730   4.615   1.627   3.119 -1.0537 -1.1201  3.8465
 4757SOL    HW225731   4.472   1.650   3.099 -0.4434  0.0329 -2.6813
 4758SOL     OW25732   0.031   3.403   4.730 -0.2998 -0.5703 -0.0196
 4758SOL    HW125733   0.015   3.344   4.656  0.3981 -0.9080  0.0925
 4758SOL    HW225734   0.076   3.467   4.676  0.5436 -1.0089  0.1522
 4759SOL     OW25735   3.360   4.672   4.236 -0.2093  0.0541  0.1738
 4759SOL    HW125736   3.345   4.632   4.321 -1.9951 -1.9754 -1.0838
 4759SOL    HW225737   3.285   4.639   4.187  0.1093 -0.8750  0.3094
 4760SOL     OW25738   2.421   0.844   6.955  0.4095  0.1104  0.4397
 4760SOL    HW125739   2.427   0.937   6.974 -1.6818 -0.0211  1.7225
 4760SOL    HW225740   2.329   0.825   6.969  0.5741 -0.2285  1.0781
 4761SOL     OW25741   0.188   3.431  14.993 -0.0014  0.1839 -0.6545
 4761SOL    HW125742   0.257   3.365  15.001 -0.3395  0.0831  1.4040
 4761SOL    HW225743   0.144   3.424  15.078 -0.3777  1.9400 -0.6955
 4762SOL     OW25744   0.432   3.493   8.895 -0.0413 -0.0754 -0.5348
 4762SOL    HW125745   0.527   3.503   8.887 -0.1470  0.3896 -1.2580
 4762SOL    HW225746   0.396   3.579   8.916  0.5725  0.3774 -1.3491
 4763SOL     OW25747   1.919   3.839   3.457 -0.0564 -0.4110 -1.3056
 4763SOL    HW125748   1.971   3.919   3.462  0.9155 -1.0557 -1.0488
 4763SOL    HW225749   1.841   3.866   3.504  0.0244 -1.3904 -0.6035
 4764SOL     OW25750   1.182   0.334  13.289  0.3914  0.1565  0.0026
 4764SOL    HW125751   1.254   0.381  13.331 -0.8245  0.0937  2.2155
 4764SOL    HW225752   1.210   0.243  13.299 -1.2011 -0.6373 -2.9462
 4765SOL     OW25753   3.273   1.081   4.146  0.1528  0.0534  0.1302
 4765SOL    HW125754   3.291   1.028   4.069 -1.3988  0.2933 -0.4004
 4765SOL    HW225755   3.338   1.049   4.209 -0.0659 -1.4719 -0.4295
 4766SOL     OW25756   2.586   0.907   0.454  0.3862  0.4157 -0.4970
 4766SOL    HW125757   2.526   0.979   0.468 -2.9749 -1.9203 -3.0924
 4766SOL    HW225758   2.535   0.843   0.405  1.6027  0.0117 -1.2560
 4767SOL     OW25759   3.416   3.103   6.222 -0.0678  0.5754 -0.0913
 4767SOL    HW125760   3.499   3.088   6.267  0.1054  0.4128 -0.4644
 4767SOL    HW225761   3.361   3.106   6.300 -2.0807  0.1283 -1.4973
 4768SOL     OW25762   4.646   4.480  13.747 -0.2278 -0.0529  0.4920
 4768SOL    HW125763   4.573   4.541  13.735  0.1652  0.7963  2.3766
 4768SOL    HW225764   4.681   4.531  13.821  1.4256  0.5045 -0.6627
 4769SOL     OW25765   3.394   2.013   5.184 -0.5262 -0.5011 -0.0186
 4769SOL    HW125766   3.408   1.948   5.253  0.8713  0.3345  0.4664
 4769SOL    HW225767   3.336   1.962   5.127 -0.9664 -0.1952  0.1584
 4770SOL     OW25768   3.523   2.030  16.709 -0.1999 -0.5645  0.2577
 4770SOL    HW125769   3.486   1.958  16.761  0.5298 -2.1512 -1.3921
 4770SOL    HW225770   3.568   1.986  16.637 -1.8655 -0.8341 -0.6068
 4771SOL     OW25771   4.117   4.311   2.580  0.0172 -0.7789  0.4366
 4771SOL    HW125772   4.181   4.328   2.649 -4.0312 -0.7242  4.2635
 4771SOL    HW225773   4.163   4.336   2.500  1.8495  0.0617  1.7522
 4772SOL     OW25774   3.422   0.271  13.230 -0.1645 -0.4322  0.6654
 4772SOL    HW125775   3.487   0.207  13.258  1.1289  0.1066 -1.1533
 4772SOL    HW225776   3.399   0.248  13.141 -3.4852 -2.6697  2.1100
 4773SOL     OW25777   3.946   2.085  17.274  0.5324  0.1582 -0.2914
 4773SOL    HW125778   4.009   2.035  17.326 -0.9398  0.1652  1.4592
 4773SOL    HW225779   3.956   2.169  17.319  2.0049 -0.8252  1.1963
 4774SOL     OW25780   2.452   4.422  16.080  0.1657 -0.3829  0.3945
 4774SOL    HW125781   2.368   4.467  16.075  0.6387  0.0785 -3.3824
 4774SOL    HW225782   2.421   4.360  16.146 -1.9333 -2.4688 -2.5268
 4775SOL     OW25783   4.377   1.214   2.914  0.3930  0.0293  0.5236
 4775SOL    HW125784   4.409   1.244   2.999  0.6463 -0.3351  0.5560
 4775SOL    HW225785   4.406   1.274   2.846  0.0393 -1.0792 -0.6100
 4776SOL     OW25786   4.609   1.938  16.765  0.4111 -0.3871  0.4054
 4776SOL    HW125787   4.620   1.896  16.680  1.2381  0.1100  0.2626
 4776SOL    HW225788   4.624   1.855  16.810  1.2134  1.0128  2.6985
 4777SOL     OW25789   1.204   2.115   9.463  0.0429 -0.4936  0.1120
 4777SOL    HW125790   1.186   2.044   9.402  0.0121  0.6969 -1.2782
 4777SOL    HW225791   1.220   2.189   9.404  0.9537  0.6952  1.8576
 4778SOL     OW25792   0.768   2.062  17.406 -0.3580 -0.0265 -0.4617
 4778SOL    HW125793   0.793   2.060  17.499 -1.9595  2.4733  0.0498
 4778SOL    HW225794   0.679   2.029  17.422  0.0826 -1.7148 -1.5510
 4779SOL     OW25795   4.538   4.636  17.103  0.0361 -0.2304  0.3741
 4779SOL    HW125796   4.596   4.572  17.063  1.5996  1.8606 -0.7077
 4779SOL    HW225797   4.501   4.662  17.018  2.1853 -1.7007 -0.9889
 4780SOL     OW25798   2.347   0.272   6.709 -0.3684 -0.3498  0.1482
 4780SOL    HW125799   2.413   0.222   6.660  2.4076 -0.0539  3.5816
 4780SOL    HW225800   2.272   0.250   6.654  0.3319  0.7452 -1.2517
 4781SOL     OW25801   0.329   3.632  14.750  0.5142  0.0440  0.3981
 4781SOL    HW125802   0.419   3.612  14.774  0.2403 -1.5074  0.0866
 4781SOL    HW225803   0.349   3.698  14.683 -0.1043  0.6154  0.7698
 4782SOL     OW25804   0.105   1.959   2.062  0.2513  0.0009 -0.2371
 4782SOL    HW125805   0.195   1.966   2.096 -0.2811  0.6212  1.0261
 4782SOL    HW225806   0.061   2.029   2.109 -0.3760 -0.4617 -0.1263
 4783SOL     OW25807   0.956   2.973   8.486 -0.6250 -0.0041 -0.1443
 4783SOL    HW125808   0.929   2.959   8.577  0.4618 -0.4527  0.1066
 4783SOL    HW225809   1.048   2.949   8.484 -0.9443 -1.2341  0.1859
 4784SOL     OW25810   0.404   3.547   3.802  0.2951 -0.0716  0.0394
 4784SOL    HW125811   0.330   3.540   3.742  0.2038  0.3147  0.1020
 4784SOL    HW225812   0.365   3.563   3.889 -0.4852  2.1504 -0.7042
 4785SOL     OW25813   4.171   3.798  14.778 -0.3976  0.1196  0.2961
 4785SOL    HW125814   4.128   3.785  14.863  2.0728  3.3983  2.0413
 4785SOL    HW225815   4.191   3.707  14.760  0.9794  0.6363 -0.7395
 4786SOL     OW25816   3.357   3.576   9.558 -0.1744 -0.2148  0.6321
 4786SOL    HW125817   3.352   3.519   9.482  0.4330  1.4339 -0.6294
 4786SOL    HW225818   3.450   3.579   9.580  0.0281 -0.7033 -0.1776
 4787SOL     OW25819   4.059   4.575   1.735  0.2921 -0.1349 -0.8300
 4787SOL    HW125820   4.090   4.485   1.742 -0.6635 -0.5396 -1.8387
 4787SOL    HW225821   4.017   4.582   1.820 -1.4872  0.4286 -1.7624
 4788SOL     OW25822   1.984   3.313  17.556 -0.8613 -0.4887  0.7227
 4788SOL    HW125823   1.916   3.316  17.489 -0.4226 -2.6361  0.1612
 4788SOL    HW225824   1.944   3.256  17.621 -3.5046  0.6833  0.1205
 4789SOL     OW25825   3.464   2.313  16.708 -0.2612  0.0667 -0.3819
 4789SOL    HW125826   3.543   2.329  16.657 -1.2963 -0.6054 -2.2073
 4789SOL    HW225827   3.477   2.221  16.728  1.5694  0.7834  1.6982
 4790SOL     OW25828   2.799   3.786  16.458 -0.1488 -0.4770 -0.2168
 4790SOL    HW125829   2.820   3.711  16.514 -0.7088 -0.4064  0.0867
 4790SOL    HW225830   2.722   3.817  16.506  0.2512  1.4453 -0.8433
 4791SOL     OW25831   3.550   2.034   4.475 -0.0872 -0.3128  0.2065
 4791SOL    HW125832   3.576   2.114   4.428 -1.0946 -0.2531 -0.2443
 4791SOL    HW225833   3.582   2.055   4.563 -0.3605  0.2256  0.1803
 4792SOL     OW25834   0.566   2.590   5.788 -0.4158  0.3534  0.2633
 4792SOL    HW125835   0.523   2.504   5.793 -0.4900  0.5075  2.0597
 4792SOL    HW225836   0.504   2.646   5.834  1.2317  2.1280  0.2798
 4793SOL     OW25837   3.556   2.040   2.225 -0.0611  0.2390 -0.5467
 4793SOL    HW125838   3.589   2.130   2.226  0.9524 -0.1353 -0.3996
 4793SOL    HW225839   3.636   1.988   2.224  0.0569  0.4488 -1.6691
 4794SOL     OW25840   2.787   2.936   6.343  0.1584  0.2547  0.6179
 4794SOL    HW125841   2.704   2.889   6.351  1.5719 -2.6297 -1.7616
 4794SOL    HW225842   2.815   2.956   6.433  1.2966  3.4490 -0.4382
 4795SOL     OW25843   2.457   0.867  10.484  0.1489 -0.5341 -0.0986
 4795SOL    HW125844   2.489   0.957  10.486  1.4988 -1.0389  0.6759
 4795SOL    HW225845   2.365   0.890  10.498 -0.2910 -1.8599 -0.7949
 4796SOL     OW25846   3.104   3.250   7.554 -0.4344  0.1455  0.1629
 4796SOL    HW125847   3.157   3.213   7.624  2.7781  0.6316 -2.0342
 4796SOL    HW225848   3.016   3.254   7.592 -0.0656 -2.6478  1.3241
 4797SOL     OW25849   2.029   1.945   5.588  0.1749  0.0770  0.0519
 4797SOL    HW125850   2.068   1.976   5.506  1.5752  0.7149  0.9679
 4797SOL    HW225851   2.075   1.990   5.658  1.8282  0.3692 -1.2274
 4798SOL     OW25852   0.104   4.339  17.387 -0.0910 -0.2739 -0.3638
 4798SOL    HW125853   0.059   4.319  17.469 -1.8079 -2.6137 -1.8753
 4798SOL    HW225854   0.104   4.433  17.373  0.5051 -0.0745  0.9523
 4799SOL     OW25855   4.232   2.645   8.201  0.2707  0.2712  0.0171
 4799SOL    HW125856   4.218   2.570   8.259  0.4549 -0.0235 -0.3249
 4799SOL    HW225857   4.185   2.717   8.243  1.6499  0.2187  1.6539
 4800SOL     OW25858   2.920   2.137   3.110 -0.1335 -0.7998 -0.0256
 4800SOL    HW125859   2.889   2.151   3.020  1.4334 -0.5960 -0.5180
 4800SOL    HW225860   3.011   2.149   3.084 -0.9090  0.9307 -1.9375
 4801SOL     OW25861   0.650   2.585   2.826  0.8491  0.2069  0.7332
 4801SOL    HW125862   0.614   2.673   2.826  0.6858  0.1407  0.9160
 4801SOL    HW225863   0.581   2.521   2.841 -0.3477  0.8896 -1.8658
 4802SOL     OW25864   4.130   3.683   6.841  0.2466  0.0131 -0.0233
 4802SOL    HW125865   4.197   3.710   6.778 -0.7725 -2.1334 -2.0787
 4802SOL    HW225866   4.154   3.738   6.915  0.4360  0.8853 -0.7425
 4803SOL     OW25867   3.720   4.120   8.385 -0.0786  0.0588  0.8497
 4803SOL    HW125868   3.712   4.151   8.475 -0.5047 -1.5084  1.3501
 4803SOL    HW225869   3.630   4.116   8.353 -0.2311 -0.4166  1.3431
 4804SOL     OW25870   3.832   0.112   6.718 -0.0634 -0.0175  0.0979
 4804SOL    HW125871   3.836   0.151   6.631 -0.7885 -0.5813 -0.1979
 4804SOL    HW225872   3.898   0.043   6.720 -1.9889 -1.9141 -0.7131
 4805SOL     OW25873   2.921   4.399   2.412  0.1164  0.6380  0.2931
 4805SOL    HW125874   2.993   4.361   2.360 -0.2363  0.4138 -0.0356
 4805SOL    HW225875   2.841   4.370   2.368  0.4089  2.2952 -1.3350
 4806SOL     OW25876   3.491   4.149   3.133 -0.4659  0.2621  0.0096
 4806SOL    HW125877   3.504   4.111   3.220 -1.5881  1.2433  0.6068
 4806SOL    HW225878   3.550   4.094   3.081  0.2965  0.0028  1.1574
 4807SOL     OW25879   2.196   1.894  15.432 -0.1413 -0.2368 -0.1694
 4807SOL    HW125880   2.206   1.833  15.506  0.7481 -0.5720 -0.5672
 4807SOL    HW225881   2.195   1.978  15.478 -2.9614  1.0036 -2.5089
 4808SOL     OW25882   4.677   1.321   1.632  0.3718 -0.9598 -0.0066
 4808SOL    HW125883   4.651   1.240   1.589  0.4801 -1.4111  0.7872
 4808SOL    HW225884   4.608   1.341   1.695 -0.7076 -0.3419 -1.3755
 4809SOL     OW25885   2.144   2.690   4.322 -0.3619 -0.3247  0.0501
 4809SOL    HW125886   2.090   2.654   4.392 -1.6782  2.7776  0.6060
 4809SOL    HW225887   2.075   2.714   4.261  1.0486  1.1831 -0.9481
 4810SOL     OW25888   1.667   2.132   6.413  0.3071 -0.1349  0.0742
 4810SOL    HW125889   1.675   2.080   6.334 -2.6999 -0.5009  0.0313
 4810SOL    HW225890   1.590   2.095   6.456  0.0327  0.0380 -0.2698
 4811SOL     OW25891   4.598   3.660   0.676  0.0686  0.2497  0.2385
 4811SOL    HW125892   4.595   3.711   0.595  1.1347  0.4902  0.3618
 4811SOL    HW225893   4.550   3.720   0.733  2.4423  2.6425 -0.2881
 4812SOL     OW25894   2.719   2.997  16.331 -0.0187  0.3619  0.5862
 4812SOL    HW125895   2.799   2.975  16.378  1.8930 -0.3611 -2.9793
 4812SOL    HW225896   2.645   2.972  16.386 -0.6239 -0.2991 -0.5058
 4813SOL     OW25897   2.033   4.478   2.182  0.9848  0.2604  0.6946
 4813SOL    HW125898   2.055   4.568   2.157 -2.9464  1.6831  2.4080
 4813SOL    HW225899   2.104   4.416   2.165 -1.7891 -2.3399 -1.4822
 4814SOL     OW25900   0.332   1.179   2.526  0.1368  0.4520 -0.3579
 4814SOL    HW125901   0.296   1.256   2.483  1.2282  1.4945  0.6038
 4814SOL    HW225902   0.423   1.192   2.499  1.5606 -1.5736  3.4678
 4815SOL     OW25903   1.072   3.635   6.899  0.1968 -0.4977 -0.5176
 4815SOL    HW125904   1.119   3.680   6.969 -0.2450 -0.2975 -0.3496
 4815SOL    HW225905   1.141   3.607   6.839  0.1864 -0.7275 -0.4216
 4816SOL     OW25906   2.738   0.859  17.525  0.2973 -0.6804 -0.0449
 4816SOL    HW125907   2.722   0.856  17.620 -1.7048  1.9555 -0.3111
 4816SOL    HW225908   2.749   0.954  17.519 -0.0147 -0.7394 -1.4867
 4817SOL     OW25909   1.049   1.166  10.577 -0.5017  0.2844 -0.3158
 4817SOL    HW125910   0.990   1.097  10.608  1.9512 -2.2088 -1.1367
 4817SOL    HW225911   1.125   1.144  10.631 -1.1184 -0.2312  0.3371
 4818SOL     OW25912   1.928   1.823   8.908  0.8745 -0.2629  0.1793
 4818SOL    HW125913   2.000   1.764   8.883 -0.0551 -0.6480 -1.5829
 4818SOL    HW225914   1.905   1.806   8.999 -1.3724 -2.1910 -0.7399
 4819SOL     OW25915   3.786   1.077  16.388  0.3276 -0.0189  0.0853
 4819SOL    HW125916   3.774   1.143  16.320  3.0963 -1.4590 -1.8504
 4819SOL    HW225917   3.874   1.093  16.422  0.6553 -3.2958  0.7936
 4820SOL     OW25918   3.951   0.762   5.099 -0.7991  0.3861 -0.1642
 4820SOL    HW125919   3.878   0.731   5.153 -1.4390  1.4084 -0.4601
 4820SOL    HW225920   4.023   0.711   5.137 -1.0485  0.9382  1.0711
 4821SOL     OW25921   3.744   3.495   4.805 -0.0331 -0.3674  0.2207
 4821SOL    HW125922   3.728   3.404   4.830 -0.7910 -0.6947 -1.4069
 4821SOL    HW225923   3.729   3.497   4.710 -0.1191 -0.6880  0.2248
 4822SOL     OW25924   3.736   3.191   2.322  0.0321  0.3555 -0.1611
 4822SOL    HW125925   3.690   3.107   2.330 -1.7758  1.3808  0.2969
 4822SOL    HW225926   3.662   3.252   2.328 -0.6622 -0.6154  1.1498
 4823SOL     OW25927   4.614   0.053  11.011  0.4993 -0.1200  0.2330
 4823SOL    HW125928   4.535   0.006  11.038  0.0068  0.2886 -0.4859
 4823SOL    HW225929   4.677   0.012  11.071  0.7897  2.0170  1.3888
 4824SOL     OW25930   1.413   3.320  10.733  0.3249  0.4823 -0.1591
 4824SOL    HW125931   1.500   3.362  10.733 -0.0135  1.1943  0.7976
 4824SOL    HW225932   1.434   3.232  10.762 -0.3379  0.8552  1.4446
 4825SOL     OW25933   3.003   0.050   6.912  0.3709  0.2857  0.0557
 4825SOL    HW125934   2.911   0.059   6.887 -0.0629 -0.0336  1.5733
 4825SOL    HW225935   3.030   0.015   6.827 -0.4939  1.9229 -0.8893
 4826SOL     OW25936   3.753   0.386   7.582 -0.0765  0.8062 -0.0834
 4826SOL    HW125937   3.826   0.394   7.519 -0.9228  2.0422 -0.8956
 4826SOL    HW225938   3.720   0.300   7.555  0.4144  0.9568 -1.1772
 4827SOL     OW25939   0.255   3.569   7.723  0.2334 -0.7331  0.2606
 4827SOL    HW125940   0.340   3.529   7.742  1.0673  1.0967  0.4002
 4827SOL    HW225941   0.285   3.632   7.657 -0.8790  0.8263  1.2448
 4828SOL     OW25942   0.910   2.197  13.923 -0.2244 -0.0031  0.8066
 4828SOL    HW125943   0.888   2.228  13.835 -1.8091 -2.8985  0.1679
 4828SOL    HW225944   0.992   2.153  13.901 -0.6871  0.3249 -1.5734
 4829SOL     OW25945   2.103   2.219   7.231  0.2197  0.3460  0.2777
 4829SOL    HW125946   2.136   2.258   7.312 -0.5177  0.8999  0.3036
 4829SOL    HW225947   2.179   2.185   7.183  2.1829  0.5132  3.2459
 4830SOL     OW25948   3.338   3.719   4.299 -0.0168  0.4458 -0.0526
 4830SOL    HW125949   3.317   3.751   4.387  1.7696 -2.3150  1.3876
 4830SOL    HW225950   3.274   3.649   4.283 -0.9171  1.5337 -1.1992
 4831SOL     OW25951   2.137   0.569   8.903  0.0816  0.4746 -0.1334
 4831SOL    HW125952   2.046   0.597   8.892  0.2333  2.0969  2.8835
 4831SOL    HW225953   2.140   0.489   8.849  0.3022 -0.1306  0.7739
 4832SOL     OW25954   4.243   3.919  12.685 -0.9279  0.4417  0.7167
 4832SOL    HW125955   4.176   3.852  12.699  1.1402 -1.0864  3.2523
 4832SOL    HW225956   4.249   3.940  12.591  1.0334 -0.3797  0.6649
 4833SOL     OW25957   2.806   0.283   6.606  0.6834  0.0469  0.6324
 4833SOL    HW125958   2.770   0.350   6.664 -2.0388 -1.0646  0.2187
 4833SOL    HW225959   2.790   0.308   6.515  0.5596  0.0921  0.6678
 4834SOL     OW25960   2.372   4.327  17.207 -0.1573  0.2284 -0.0441
 4834SOL    HW125961   2.455   4.326  17.254 -1.0752 -2.4695  1.4999
 4834SOL    HW225962   2.403   4.366  17.126  1.1374  0.7449  0.6973
 4835SOL     OW25963   3.997   0.883   2.503 -0.2774 -0.2434  0.2634
 4835SOL    HW125964   3.905   0.859   2.489 -0.5098  0.0051  1.3656
 4835SOL    HW225965   4.013   0.832   2.583 -2.1809 -1.7195 -0.3076
 4836SOL     OW25966   1.735   1.961   3.806 -0.5807 -0.0058  0.4314
 4836SOL    HW125967   1.729   1.875   3.848  0.3532  0.4861  1.5552
 4836SOL    HW225968   1.822   1.958   3.766 -1.3453  1.2393 -1.3282
 4837SOL     OW25969   4.250   0.033   5.781  0.8749 -0.3113 -0.3081
 4837SOL    HW125970   4.238   0.079   5.864 -2.2929 -1.6169 -0.0384
 4837SOL    HW225971   4.174   4.700   5.787 -0.0279  0.8408 -0.9095
 4838SOL     OW25972   3.654   1.384   1.564 -0.1133  0.2328  0.0533
 4838SOL    HW125973   3.739   1.342   1.579  0.3581  1.2188  0.1547
 4838SOL    HW225974   3.600   1.344   1.633 -0.7448 -1.0094 -1.1684
 4839SOL     OW25975   1.236   0.234  14.573 -0.0391  0.2254 -0.5063
 4839SOL    HW125976   1.290   0.179  14.630 -0.9507  0.8270  0.9225
 4839SOL    HW225977   1.223   0.179  14.495  1.4898 -0.0639 -0.5647
 4840SOL     OW25978   0.991   1.931   3.974 -0.3223  0.4521 -0.1704
 4840SOL    HW125979   0.951   1.938   4.061  1.2605 -3.0810  0.8043
 4840SOL    HW225980   1.080   1.906   3.997 -0.3885 -0.5207 -0.9978
 4841SOL     OW25981   4.162   3.727  12.382  0.3730 -0.1458  0.1251
 4841SOL    HW125982   4.188   3.704  12.293 -2.3880  0.3797 -0.8267
 4841SOL    HW225983   4.219   3.803  12.396 -0.9144  0.6921  0.7937
 4842SOL     OW25984   2.140   4.315   1.228 -0.2140 -0.2455 -0.1533
 4842SOL    HW125985   2.066   4.274   1.273 -0.6202  0.5254 -0.1262
 4842SOL    HW225986   2.163   4.246   1.165  2.1985  0.9419 -0.5469
 4843SOL     OW25987   2.919   4.612   2.118 -0.1207  0.2115  0.2594
 4843SOL    HW125988   2.855   4.664   2.070 -0.5224 -0.8256 -0.3052
 4843SOL    HW225989   2.892   4.520   2.119 -2.1349  0.7895 -1.0875
 4844SOL     OW25990   2.073   1.937   7.061 -0.1076 -0.1081 -0.3982
 4844SOL    HW125991   2.023   1.973   7.134 -0.5080 -1.4483 -0.0082
 4844SOL    HW225992   2.016   1.946   6.985 -0.1310 -0.2538 -0.3978
 4845SOL     OW25993   2.482   4.074   6.587 -0.5786  0.2376  0.3509
 4845SOL    HW125994   2.450   4.114   6.506 -0.0079  0.3563  0.1839
 4845SOL    HW225995   2.409   4.018   6.610 -1.2777  0.7251 -0.6644
 4846SOL     OW25996   3.288   3.241   7.356 -0.0921 -0.1451 -0.1806
 4846SOL    HW125997   3.283   3.335   7.338 -0.1855 -0.2628 -0.7629
 4846SOL    HW225998   3.220   3.241   7.423 -0.7934  2.9415 -0.9130
 4847SOL     OW25999   2.515   2.702   3.041  0.4688  0.1257  0.2782
 4847SOL    HW126000   2.582   2.695   3.109  0.1917 -1.9322  0.3536
 4847SOL    HW226001   2.546   2.647   2.969  2.0417  1.6102 -0.1515
 4848SOL     OW26002   3.098   4.077   8.050 -0.3152  0.0400 -0.2980
 4848SOL    HW126003   3.176   4.124   8.081  0.4386 -1.6079  0.2870
 4848SOL    HW226004   3.111   3.986   8.075  2.8487  0.3448 -0.7783
 4849SOL     OW26005   3.598   3.418   8.295 -0.5390  0.1349  0.0308
 4849SOL    HW126006   3.588   3.393   8.203  0.2375  1.5621 -0.4442
 4849SOL    HW226007   3.514   3.461   8.306 -1.3999 -1.6108  0.2483
 4850SOL     OW26008   1.697   2.577   3.738  0.0407  0.1460  0.1124
 4850SOL    HW126009   1.607   2.609   3.731 -0.5485 -1.6293 -0.5696
 4850SOL    HW226010   1.709   2.522   3.661  0.7844  1.0923 -0.4538
 4851SOL     OW26011   3.199   2.768   2.822 -0.0299 -0.2425  0.9955
 4851SOL    HW126012   3.157   2.784   2.906 -0.4495 -0.9489  0.9205
 4851SOL    HW226013   3.233   2.856   2.804 -1.1307  0.2905  1.5561
 4852SOL     OW26014   4.131   1.195   7.988  0.2636  0.7432 -0.5524
 4852SOL    HW126015   4.043   1.168   8.017  0.3738 -1.0239 -1.8598
 4852SOL    HW226016   4.136   1.166   7.897  3.5550 -1.9793  0.5188
 4853SOL     OW26017   3.935   0.956   0.933  0.1815 -0.5385 -0.1533
 4853SOL    HW126018   3.914   0.938   1.025 -2.3817 -0.9946 -0.8340
 4853SOL    HW226019   3.874   1.028   0.920  0.9881  0.3747  1.1634
 4854SOL     OW26020   0.184   4.244   8.002  0.2529  0.1605 -0.3303
 4854SOL    HW126021   0.149   4.333   8.011  1.7872  0.5083  2.1137
 4854SOL    HW226022   0.278   4.258   8.002  0.0356  1.6147 -1.0369
 4855SOL     OW26023   0.084   3.979  17.516 -0.8938 -0.2446 -0.2810
 4855SOL    HW126024   0.135   4.043  17.567 -1.4525 -1.2404  1.5332
 4855SOL    HW226025   0.156   3.921  17.493  1.3549  2.7566 -0.8224
 4856SOL     OW26026   3.531   0.056   6.166 -0.0088 -0.8889 -0.1669
 4856SOL    HW126027   3.500   0.144   6.189 -0.4059 -0.7350 -1.3288
 4856SOL    HW226028   3.509   0.015   6.250 -1.7481 -0.2491 -0.3100
 4857SOL     OW26029   3.074   3.544   9.607  0.0968 -0.2576 -0.0226
 4857SOL    HW126030   3.148   3.543   9.668 -1.2505 -1.6738  1.5608
 4857SOL    HW226031   3.066   3.449   9.598  0.0218 -0.2260 -0.2979
 4858SOL     OW26032   1.867   1.725  11.572 -0.2388  0.0242  0.0552
 4858SOL    HW126033   1.869   1.629  11.577  0.7145  0.0367 -0.0541
 4858SOL    HW226034   1.808   1.731  11.497  2.9686  1.9416 -2.3148
 4859SOL     OW26035   4.504   1.998   3.189 -0.1388 -0.0031 -0.0803
 4859SOL    HW126036   4.556   1.985   3.269 -0.5153  2.0831  0.4942
 4859SOL    HW226037   4.457   1.915   3.175 -0.1276 -0.2957  1.5363
 4860SOL     OW26038   0.376   4.108   1.547 -0.3054  0.0888 -0.1922
 4860SOL    HW126039   0.282   4.093   1.548 -0.0127 -1.8531 -1.9383
 4860SOL    HW226040   0.406   4.017   1.552  1.5960  0.8176  1.5895
 4861SOL     OW26041   2.641   4.640   6.583 -0.2132  0.2347  0.2164
 4861SOL    HW126042   2.633   4.630   6.488  0.1093  2.5358 -0.0469
 4861SOL    HW226043   2.725   4.595   6.587  0.6146  1.7470 -0.2427
 4862SOL     OW26044   1.044   0.300  17.564 -0.3720  0.4542 -0.0318
 4862SOL    HW126045   1.095   0.330  17.640  2.1350  0.6319 -1.7741
 4862SOL    HW226046   1.081   0.354  17.494  2.3788 -2.5680 -0.8989
 4863SOL     OW26047   4.635   4.414   4.070  0.6798 -0.3342 -0.0092
 4863SOL    HW126048   4.540   4.403   4.081  0.4534  0.1109 -1.5170
 4863SOL    HW226049   4.677   4.357   4.134  1.4459  0.8130  0.5126
 4864SOL     OW26050   4.662   2.184   8.304 -0.0200 -0.0537  0.1686
 4864SOL    HW126051   4.679   2.091   8.291  0.4547  0.0520  0.0465
 4864SOL    HW226052   0.020   2.226   8.277 -0.8733  1.1071 -0.6193
 4865SOL     OW26053   0.801   0.299   8.460  0.4890  0.3448  0.1560
 4865SOL    HW126054   0.870   0.342   8.511  1.0806 -0.3442 -0.0654
 4865SOL    HW226055   0.786   0.337   8.373  1.4023  0.7160  0.1609
 4866SOL     OW26056   2.116   2.067   9.686 -0.1971 -0.0125  0.6131
 4866SOL    HW126057   2.199   2.111   9.703 -0.1823  1.2472 -2.6475
 4866SOL    HW226058   2.062   2.144   9.671 -0.4470  0.3081  3.1261
 4867SOL     OW26059   0.354   2.714   1.917 -0.2729  0.1966  0.7854
 4867SOL    HW126060   0.420   2.646   1.927 -0.5977 -0.0207  1.4991
 4867SOL    HW226061   0.340   2.732   1.824  2.8923 -1.2203  0.0355
 4868SOL     OW26062   0.410   1.382   8.112 -0.1493  0.3165  0.6927
 4868SOL    HW126063   0.500   1.365   8.086 -0.3528 -1.7252  1.3405
 4868SOL    HW226064   0.362   1.372   8.030  0.0135  0.8815  0.5279
 4869SOL     OW26065   0.532   4.353   2.460  0.2639  0.3332  0.2043
 4869SOL    HW126066   0.554   4.386   2.547  1.0465  1.9492 -0.6062
 4869SOL    HW226067   0.611   4.375   2.411  0.1077  1.7303  0.5854
 4870SOL     OW26068   3.707   0.304   7.020 -0.8330 -0.4669 -0.3598
 4870SOL    HW126069   3.685   0.300   7.112 -2.4196 -0.1950 -0.7364
 4870SOL    HW226070   3.635   0.360   6.990 -1.1944 -0.0842  1.2554
 4871SOL     OW26071   0.079   0.255   8.425 -0.3594 -0.8927  0.0961
 4871SOL    HW126072   0.099   0.268   8.332  1.7642  1.2346  0.8210
 4871SOL    HW226073   0.159   0.208   8.449  0.2214 -0.2550 -0.5997
 4872SOL     OW26074   0.779   2.321   9.385 -0.2245  0.3443 -0.3175
 4872SOL    HW126075   0.825   2.266   9.321  0.3262  0.6168 -0.1633
 4872SOL    HW226076   0.852   2.353   9.438 -0.2067  0.1078 -0.2008
 4873SOL     OW26077   4.561   0.261   2.333  0.0604 -0.0150 -0.8177
 4873SOL    HW126078   4.632   0.198   2.323  1.7124  1.7654 -0.0942
 4873SOL    HW226079   4.604   0.341   2.359  0.4311 -0.5691  0.2397
 4874SOL     OW26080   2.367   2.853   4.322  0.1544  0.1855  0.6641
 4874SOL    HW126081   2.292   2.809   4.282  1.2589 -0.4586 -0.7045
 4874SOL    HW226082   2.377   2.798   4.399  1.6755 -0.1865  0.2074
 4875SOL     OW26083   4.265   1.293   3.606 -0.0455  0.3888  0.2829
 4875SOL    HW126084   4.294   1.384   3.600  1.7646 -0.3570 -2.4452
 4875SOL    HW226085   4.172   1.308   3.627 -0.5992 -0.8586 -1.2737
 4876SOL     OW26086   3.378   0.747   4.467 -0.0487 -0.5609 -0.6757
 4876SOL    HW126087   3.310   0.736   4.534  2.0507 -0.5092  1.4813
 4876SOL    HW226088   3.440   0.691   4.514  0.4167 -0.4931 -1.2113
 4877SOL     OW26089   3.260   1.587   6.212 -0.1250  0.4695  0.2552
 4877SOL    HW126090   3.344   1.605   6.254  0.6401 -0.1486 -1.0027
 4877SOL    HW226091   3.211   1.669   6.208 -3.4822 -1.5774 -0.6054
 4878SOL     OW26092   3.546   3.885   0.393 -0.4013  0.4008 -0.5714
 4878SOL    HW126093   3.636   3.861   0.373 -0.9136 -1.3813 -0.6660
 4878SOL    HW226094   3.539   3.979   0.376 -0.1439  0.9306  2.3343
 4879SOL     OW26095   1.926   3.683   7.581  0.1397  0.4125 -0.3573
 4879SOL    HW126096   1.872   3.716   7.509 -1.0009 -1.7498 -0.4688
 4879SOL    HW226097   1.883   3.599   7.597 -0.3338  0.8942  0.8476
 4880SOL     OW26098   1.669   3.734  14.215 -0.4126 -0.0244 -0.5238
 4880SOL    HW126099   1.734   3.668  14.189 -0.7848 -0.8300  0.5883
 4880SOL    HW226100   1.712   3.819  14.202  0.4754  0.0486  2.8302
 4881SOL     OW26101   2.842   0.335   5.254 -0.3940 -0.2913 -0.2269
 4881SOL    HW126102   2.761   0.288   5.237 -0.4671 -0.3568  0.3155
 4881SOL    HW226103   2.829   0.405   5.189  1.7583 -0.2510 -0.6183
 4882SOL     OW26104   1.939   0.303  15.927 -0.8954  0.0753  0.6305
 4882SOL    HW126105   1.857   0.317  15.974 -2.2190  0.5730 -1.8394
 4882SOL    HW226106   1.929   0.373  15.863  0.4515 -0.2620  0.0498
 4883SOL     OW26107   1.600   0.673   3.942 -0.5999  0.1483 -0.9342
 4883SOL    HW126108   1.598   0.684   3.847 -1.6315  2.7892 -0.5825
 4883SOL    HW226109   1.594   0.761   3.979  0.5739  0.7608 -2.2003
 4884SOL     OW26110   2.385   0.700   4.877 -0.4662  0.6181  0.2192
 4884SOL    HW126111   2.363   0.608   4.867  0.3374  0.5241 -0.6739
 4884SOL    HW226112   2.462   0.713   4.820 -2.2643  0.7616 -2.1808
 4885SOL     OW26113   0.232   0.304   3.253 -0.2549  0.5757 -0.2866
 4885SOL    HW126114   0.256   0.211   3.248 -1.8654 -0.0344  3.3799
 4885SOL    HW226115   0.308   0.358   3.229  0.9833 -1.7057 -1.4819
 4886SOL     OW26116   3.027   0.154   4.781 -0.0320 -0.5079 -0.2385
 4886SOL    HW126117   2.967   0.225   4.760  0.1511 -0.7778 -1.6864
 4886SOL    HW226118   3.113   0.195   4.776 -0.7042  0.4733 -3.6429
 4887SOL     OW26119   3.456   4.500   8.823 -0.2361  0.2560 -0.3603
 4887SOL    HW126120   3.407   4.539   8.750 -0.1445 -0.3764 -0.7620
 4887SOL    HW226121   3.462   4.579   8.876  0.7701 -1.0399  1.4300
 4888SOL     OW26122   0.938   2.035   7.276 -0.4124  0.2087 -0.1377
 4888SOL    HW126123   0.923   1.987   7.195  0.4272 -2.8328  1.5422
 4888SOL    HW226124   1.030   2.015   7.291 -0.6009  1.1708  2.1917
 4889SOL     OW26125   2.017   0.482  17.238  0.0596 -0.6601 -0.5141
 4889SOL    HW126126   2.042   0.419  17.307 -0.1156 -0.5366 -0.3391
 4889SOL    HW226127   2.100   0.508  17.198  0.8411 -1.0239  0.8344
 4890SOL     OW26128   1.870   4.343   7.019  0.6517 -0.6616  0.6855
 4890SOL    HW126129   1.950   4.390   7.043 -0.4493  2.1305 -1.0830
 4890SOL    HW226130   1.911   4.274   6.967 -2.2151 -1.8771  0.0831
 4891SOL     OW26131   1.920   3.354   7.492  0.4016 -0.0728 -0.1683
 4891SOL    HW126132   1.980   3.421   7.458  0.6498 -0.4584 -0.4788
 4891SOL    HW226133   1.919   3.370   7.587 -1.3049  0.8944 -0.3574
 4892SOL     OW26134   1.967   0.334   6.287  0.1823 -0.3117  0.2381
 4892SOL    HW126135   1.885   0.315   6.332 -0.9175 -1.2185 -2.1660
 4892SOL    HW226136   1.973   0.255   6.232 -1.8268  0.2071 -0.7224
 4893SOL     OW26137   1.224   4.586   5.826 -0.4745  0.1200  0.0921
 4893SOL    HW126138   1.131   4.600   5.804 -0.8254 -1.2719  0.6714
 4893SOL    HW226139   1.247   4.677   5.841  1.4292 -0.5860  1.3668
 4894SOL     OW26140   0.398   0.238   4.435 -0.0102 -0.0297  0.8799
 4894SOL    HW126141   0.323   0.271   4.484  0.7941  1.3558  1.1658
 4894SOL    HW226142   0.387   0.303   4.365  1.6403 -0.4107  0.2723
 4895SOL     OW26143   1.499   3.455   5.054 -0.6665 -0.1947 -0.3354
 4895SOL    HW126144   1.458   3.388   5.109  1.9217 -1.2484  0.3303
 4895SOL    HW226145   1.551   3.404   4.993  1.0062  2.8292 -1.4295
 4896SOL     OW26146   3.174   2.579  16.788 -0.1122  0.2769  0.4054
 4896SOL    HW126147   3.164   2.494  16.747  0.0125  0.1507  0.6348
 4896SOL    HW226148   3.079   2.589  16.801 -0.0029  0.6512  0.9442
 4897SOL     OW26149   1.865   0.324   9.013  0.7215 -0.2268  0.0966
 4897SOL    HW126150   1.924   0.283   9.077 -0.0134 -1.2661  0.1147
 4897SOL    HW226151   1.791   0.267   9.032 -0.1848  0.5572 -1.0981
 4898SOL     OW26152   3.786   3.744   0.772  0.5267 -0.3057  0.4313
 4898SOL    HW126153   3.692   3.763   0.768  0.9362  1.4301 -0.8366
 4898SOL    HW226154   3.796   3.659   0.727 -0.6782 -0.5871  0.6967
 4899SOL     OW26155   4.002   2.682  10.976 -0.6169  0.1742 -0.0322
 4899SOL    HW126156   3.940   2.755  10.983 -1.8824 -0.9273  0.4069
 4899SOL    HW226157   4.031   2.698  10.886 -2.9000  0.9929 -0.6464
 4900SOL     OW26158   0.588   1.349   6.013 -0.6076  0.1621  1.0280
 4900SOL    HW126159   0.549   1.291   5.947  1.5827  0.6250 -0.6737
 4900SOL    HW226160   0.680   1.328   5.995 -0.5650  0.4199  0.9434
 4901SOL     OW26161   1.850   1.454  14.909 -0.6472 -0.2411  0.4096
 4901SOL    HW126162   1.771   1.404  14.931 -0.0995 -1.0314  0.5954
 4901SOL    HW226163   1.821   1.462  14.818  1.7914 -1.3021 -0.4548
 4902SOL     OW26164   3.858   3.389   1.589  0.1189 -0.3000  0.3620
 4902SOL    HW126165   3.927   3.346   1.539 -1.2802 -0.5002 -1.3600
 4902SOL    HW226166   3.791   3.321   1.595  0.9884 -1.0898  1.0874
 4903SOL     OW26167   1.307   4.240  10.049 -0.1690  0.1637  0.3171
 4903SOL    HW126168   1.389   4.288  10.033  1.7782 -2.8671  1.1934
 4903SOL    HW226169   1.260   4.299  10.108 -0.7350 -0.9376  0.9552
 4904SOL     OW26170   2.542   3.829   5.682  0.7348  0.0787 -0.1347
 4904SOL    HW126171   2.603   3.858   5.614 -2.1280  2.7851 -1.5341
 4904SOL    HW226172   2.478   3.899   5.676  0.2362 -0.4105 -0.5107
 4905SOL     OW26173   4.482   2.074   0.397  0.3363 -0.6356  0.1645
 4905SOL    HW126174   4.405   2.022   0.376  0.0500  0.8301 -2.4913
 4905SOL    HW226175   4.548   2.028   0.344  1.1134  0.8637 -0.1685
 4906SOL     OW26176   3.285   4.084   6.398  0.1531  0.2542  0.1896
 4906SOL    HW126177   3.327   4.071   6.314 -0.2642 -0.7872  0.1373
 4906SOL    HW226178   3.300   3.994   6.428 -1.8203 -0.2661 -0.4069
 4907SOL     OW26179   3.711   0.090   5.799 -0.0459  0.3084  0.6982
 4907SOL    HW126180   3.651   0.053   5.734  1.4802 -1.1078  0.0967
 4907SOL    HW226181   3.690   0.183   5.807 -0.6928  0.2095  0.1740
 4908SOL     OW26182   0.840   3.088   4.140  0.1872  0.0231  0.0685
 4908SOL    HW126183   0.902   3.110   4.210 -0.9822 -1.0283  1.4537
 4908SOL    HW226184   0.817   3.177   4.113 -3.1423 -1.3616 -1.6763
 4909SOL     OW26185   4.208   4.133   6.047 -0.1900 -0.0204 -0.2321
 4909SOL    HW126186   4.260   4.083   5.983 -0.1164  0.6529 -0.7064
 4909SOL    HW226187   4.187   4.204   5.986  2.9436  1.7447  0.7462
 4910SOL     OW26188   0.874   0.374   5.618 -0.2149  0.1748  0.1488
 4910SOL    HW126189   0.875   0.459   5.662  0.1318  0.3753 -0.2393
 4910SOL    HW226190   0.921   0.389   5.536 -0.3316 -2.9643 -0.4875
 4911SOL     OW26191   2.705   1.935   1.664 -0.2080 -0.3987  0.2975
 4911SOL    HW126192   2.678   1.934   1.572  1.9338  2.2278 -0.3332
 4911SOL    HW226193   2.708   1.843   1.691 -2.1929  0.4484  3.3318
 4912SOL     OW26194   1.411   0.064   3.854 -0.4375 -0.6184  0.4924
 4912SOL    HW126195   1.407   0.058   3.758 -0.0348  0.7952  0.3858
 4912SOL    HW226196   1.352   4.715   3.873 -0.8349 -0.3309  0.3751
 4913SOL     OW26197   2.625   0.611  16.623  0.0655  0.3481 -0.1761
 4913SOL    HW126198   2.666   0.545  16.566 -0.5576  0.6829 -1.0167
 4913SOL    HW226199   2.663   0.582  16.706 -1.5247 -0.6808  0.2069
 4914SOL     OW26200   3.495   2.927   7.311  0.4445  0.0068  0.2396
 4914SOL    HW126201   3.545   2.846   7.308  0.3273 -0.0676  0.3080
 4914SOL    HW226202   3.564   2.984   7.344 -0.0033  0.3508  0.5922
 4915SOL     OW26203   3.847   1.328   0.047  0.4663  0.0276  0.3950
 4915SOL    HW126204   3.885   1.253   0.093 -0.6780 -0.2702  0.8384
 4915SOL    HW226205   3.886   1.399   0.099 -0.2245  0.6729  0.0211
 4916SOL     OW26206   2.822   4.020   4.534  1.2753  0.3085  0.2903
 4916SOL    HW126207   2.747   3.981   4.579  0.6440  0.5675 -0.5445
 4916SOL    HW226208   2.867   4.053   4.612 -1.4830 -1.0695  2.4862
 4917SOL     OW26209   4.384   2.021   5.467  0.0911  0.2408 -0.3445
 4917SOL    HW126210   4.296   2.039   5.501  0.0725  1.4868 -1.0421
 4917SOL    HW226211   4.363   2.015   5.374  1.4423 -2.6827 -0.4779
 4918SOL     OW26212   1.146   1.587   9.689  0.1245  0.3174  0.2435
 4918SOL    HW126213   1.153   1.678   9.720  3.9413  0.5922 -1.3945
 4918SOL    HW226214   1.055   1.584   9.660  0.4594 -0.9725 -0.6873
 4919SOL     OW26215   1.954   0.576   8.103 -0.0297 -0.4761  0.0079
 4919SOL    HW126216   1.879   0.591   8.161 -0.0483  0.7891 -0.3480
 4919SOL    HW226217   1.906   0.559   8.022 -1.4229  2.3876  0.2459
 4920SOL     OW26218   0.912   4.048  10.439  0.6535  0.3456 -0.2062
 4920SOL    HW126219   0.913   3.953  10.449 -0.0099  0.5959  2.1293
 4920SOL    HW226220   0.963   4.070  10.517 -0.4094  0.6822  0.3987
 4921SOL     OW26221   3.083   1.308  11.511  0.1950  0.4656  0.2522
 4921SOL    HW126222   3.086   1.216  11.485 -0.2815  0.3842  0.4845
 4921SOL    HW226223   3.109   1.290  11.602  0.7915 -0.1981 -0.0544
 4922SOL     OW26224   0.809   0.119  17.324  0.5645 -0.0751 -0.0571
 4922SOL    HW126225   0.869   0.047  17.305  0.6991 -0.0041  0.0998
 4922SOL    HW226226   0.728   0.088  17.285 -0.1054  1.3823  0.1948
 4923SOL     OW26227   3.917   1.534   9.410  0.3621  0.3569  0.2077
 4923SOL    HW126228   3.990   1.496   9.459  0.2557 -0.4416 -0.2430
 4923SOL    HW226229   3.848   1.528   9.476 -0.2481  1.7917 -0.2987
 4924SOL     OW26230   2.072   4.324   8.285  0.1653 -0.2319 -0.4399
 4924SOL    HW126231   2.069   4.256   8.218  1.4440 -0.9667  0.2495
 4924SOL    HW226232   2.096   4.274   8.362  0.3396  0.1502 -0.2441
 4925SOL     OW26233   0.435   3.505   2.775 -0.0835 -0.4412  0.9883
 4925SOL    HW126234   0.344   3.493   2.802 -0.3449 -1.9732 -0.5830
 4925SOL    HW226235   0.442   3.440   2.706  0.1546  1.6526 -0.9713
 4926SOL     OW26236   3.872   3.344  10.310  0.0501 -0.2555  0.7711
 4926SOL    HW126237   3.906   3.384  10.230 -0.6934 -0.1199  0.5207
 4926SOL    HW226238   3.950   3.298  10.341  0.8757  0.2637 -0.5317
 4927SOL     OW26239   2.699   1.384  14.885 -0.1866  0.4504  0.1661
 4927SOL    HW126240   2.606   1.367  14.902  0.6700 -1.6415  2.6748
 4927SOL    HW226241   2.697   1.390  14.789 -0.5262  1.0120  0.2096
 4928SOL     OW26242   2.062   2.623  10.699 -0.3585 -0.5228  0.4592
 4928SOL    HW126243   2.011   2.594  10.775  1.4850 -1.7919  1.2222
 4928SOL    HW226244   2.016   2.568  10.636 -0.1112  1.1850 -1.1929
 4929SOL     OW26245   4.083   0.530   9.146  0.2748 -0.0926 -0.6770
 4929SOL    HW126246   4.048   0.581   9.219  1.7280 -0.1429  0.0461
 4929SOL    HW226247   4.158   0.486   9.185 -0.3935 -1.1811 -0.6217
 4930SOL     OW26248   2.077   3.025   3.831 -0.3784  0.5511 -0.1215
 4930SOL    HW126249   2.082   3.098   3.770 -0.5411  0.9126  0.2922
 4930SOL    HW226250   2.164   3.024   3.870 -0.1162  0.7583 -0.7118
 4931SOL     OW26251   3.066   1.889   7.730  0.7288  0.2084  0.1490
 4931SOL    HW126252   3.158   1.901   7.756 -0.2167 -0.2757  3.7678
 4931SOL    HW226253   3.024   1.860   7.811 -0.7188 -0.2955 -0.8005
 4932SOL     OW26254   2.102   1.056  13.333 -0.3552  0.6599 -0.5399
 4932SOL    HW126255   2.106   1.139  13.286  0.4845  0.3905 -0.9448
 4932SOL    HW226256   2.015   1.027  13.302  0.6686 -1.2613 -1.6529
 4933SOL     OW26257   3.952   1.092   5.012 -0.2007 -0.3724  0.0416
 4933SOL    HW126258   3.916   1.057   4.930 -0.6083 -0.3022  0.1862
 4933SOL    HW226259   3.923   1.183   5.010  3.5542  0.8579  2.8942
 4934SOL     OW26260   2.974   3.199   3.882 -0.2428 -0.1737 -0.4987
 4934SOL    HW126261   2.882   3.221   3.894 -0.0119  1.3477 -1.5606
 4934SOL    HW226262   2.979   3.162   3.794  0.7062  0.8038 -0.8584
 4935SOL     OW26263   4.616   0.458   0.462 -0.3628  0.3557  0.3838
 4935SOL    HW126264   4.530   0.434   0.428 -0.3553  2.3045 -1.0312
 4935SOL    HW226265   4.618   0.548   0.429 -0.4230  0.7820  1.5184
 4936SOL     OW26266   2.867   0.012   6.407 -0.3359  0.2830 -0.1667
 4936SOL    HW126267   2.874   0.060   6.324 -0.0243 -1.7714 -1.3245
 4936SOL    HW226268   2.772   0.020   6.410 -0.1269  1.9372  1.8628
 4937SOL     OW26269   3.279   3.482   7.826  0.6368 -0.0928 -0.2278
 4937SOL    HW126270   3.314   3.402   7.787 -2.1411 -1.5495  0.2578
 4937SOL    HW226271   3.259   3.538   7.750  0.8039  0.3608  0.0620
 4938SOL     OW26272   2.333   3.401   7.064  0.3522 -0.3450 -0.3581
 4938SOL    HW126273   2.300   3.420   6.976 -0.1319  0.2020 -0.0615
 4938SOL    HW226274   2.259   3.365   7.113  0.5577  0.5629  0.6393
 4939SOL     OW26275   1.316   1.545   6.208  0.6901 -0.1225 -0.4441
 4939SOL    HW126276   1.301   1.464   6.158 -1.5710  0.5687 -0.9185
 4939SOL    HW226277   1.374   1.507   6.274  1.0647 -0.3433 -0.9001
 4940SOL     OW26278   0.135   3.843  11.822 -0.1059 -0.3768 -0.5763
 4940SOL    HW126279   0.194   3.911  11.855 -2.7735  0.1183  3.0772
 4940SOL    HW226280   0.125   3.861  11.728 -0.0258 -1.1044 -0.7260
 4941SOL     OW26281   1.573   3.965   3.599  0.4822 -0.2067 -0.7501
 4941SOL    HW126282   1.519   3.950   3.677 -1.3121 -3.3132 -2.5716
 4941SOL    HW226283   1.550   4.055   3.576  0.5122  0.0256  0.1508
 4942SOL     OW26284   0.846   2.463   7.114  0.2973 -0.2430  0.1748
 4942SOL    HW126285   0.868   2.487   7.204 -0.2582  1.0781 -0.0366
 4942SOL    HW226286   0.915   2.517   7.076 -1.5907  1.1311 -1.2790
 4943SOL     OW26287   3.369   2.471  16.921  0.1971  0.2510 -0.2214
 4943SOL    HW126288   3.404   2.412  16.854  1.1978  0.4085  0.1556
 4943SOL    HW226289   3.315   2.531  16.870 -0.2290  0.5642  0.6028
 4944SOL     OW26290   1.147   4.437   3.363  0.3396  0.4336  0.4591
 4944SOL    HW126291   1.166   4.343   3.354  0.3120  0.4228  0.5121
 4944SOL    HW226292   1.115   4.433   3.453  1.3812 -1.4221  0.7705
 4945SOL     OW26293   1.831   4.465   4.471 -0.6927  0.0322 -0.9480
 4945SOL    HW126294   1.922   4.437   4.465 -0.8824 -0.4713 -1.3737
 4945SOL    HW226295   1.807   4.479   4.380  0.3554  0.2693 -1.1867
 4946SOL     OW26296   1.870   2.138   9.421 -0.7471 -0.2677 -0.0654
 4946SOL    HW126297   1.815   2.215   9.406  0.3728  0.0106 -2.7025
 4946SOL    HW226298   1.957   2.179   9.420  0.3386 -2.6472 -2.2358
 4947SOL     OW26299   0.529   2.449   9.247 -0.4532  0.2649 -0.0484
 4947SOL    HW126300   0.504   2.533   9.209  0.3066  0.5319  0.0492
 4947SOL    HW226301   0.614   2.457   9.290 -1.0971  1.9721  0.8843
 4948SOL     OW26302   3.398   1.502   5.612  0.0074  0.4647  0.0041
 4948SOL    HW126303   3.320   1.536   5.657  0.0569  0.3627  0.1666
 4948SOL    HW226304   3.451   1.582   5.619 -1.4887  1.4871 -0.3254
 4949SOL     OW26305   3.456   0.420   6.964 -0.2944  0.2272 -0.3074
 4949SOL    HW126306   3.452   0.514   6.946  2.7896  0.5683  0.7521
 4949SOL    HW226307   3.374   0.405   7.010  1.1327 -1.0930  1.7784
 4950SOL     OW26308   2.397   4.075   5.650  0.1600 -0.0728  0.0232
 4950SOL    HW126309   2.312   4.034   5.664 -0.0739  0.1010 -0.9152
 4950SOL    HW226310   2.380   4.128   5.572 -0.3919 -0.4165 -0.0878
 4951SOL     OW26311   4.704   1.416   8.933 -0.1159  0.1288 -0.4833
 4951SOL    HW126312   4.700   1.469   8.853 -1.6497  1.6038  0.5717
 4951SOL    HW226313   0.071   1.439   8.956  0.4034 -0.1024 -2.3129
 4952SOL     OW26314   1.436   2.519   3.640  0.1398 -0.2426 -0.1689
 4952SOL    HW126315   1.362   2.548   3.587 -0.8103  2.7567  2.7903
 4952SOL    HW226316   1.450   2.425   3.631 -0.3802 -0.0101 -3.3756
 4953SOL     OW26317   3.418   3.394  14.839 -1.0093 -0.8476  0.5008
 4953SOL    HW126318   3.468   3.325  14.795  1.6801  0.3620  1.6512
 4953SOL    HW226319   3.383   3.362  14.922 -0.6930  0.3327  1.0910
 4954SOL     OW26320   3.868   2.578   8.088 -0.3653  0.3443 -0.5698
 4954SOL    HW126321   3.829   2.625   8.014 -2.3002 -0.3568  0.0192
 4954SOL    HW226322   3.910   2.506   8.041  0.5622  0.3745  0.2124
 4955SOL     OW26323   1.361   1.844   2.464 -0.3769  0.7301  0.0794
 4955SOL    HW126324   1.389   1.795   2.387 -0.0671 -0.9017  1.2245
 4955SOL    HW226325   1.406   1.795   2.533  0.7096 -0.4478 -1.4740
 4956SOL     OW26326   3.748   4.715  16.201  0.1777  0.5714  0.0208
 4956SOL    HW126327   3.818   4.707  16.136 -0.7069 -0.3630 -0.8230
 4956SOL    HW226328   3.796   4.719  16.283 -0.4610 -0.8455  0.4595
 4957SOL     OW26329   4.353   1.831  14.026  0.3116 -0.0891  0.6293
 4957SOL    HW126330   4.363   1.757  13.966  0.5150 -0.2845  0.9030
 4957SOL    HW226331   4.445   1.855  14.037  0.7652 -1.5667  0.0828
 4958SOL     OW26332   3.638   3.411  13.391 -0.0743  0.0836 -0.0174
 4958SOL    HW126333   3.729   3.426  13.366 -0.0110 -0.6913 -0.2700
 4958SOL    HW226334   3.602   3.498  13.405 -2.0840 -0.8033  0.3828
 4959SOL     OW26335   2.851   4.205   6.544  0.4951 -0.5700 -0.3922
 4959SOL    HW126336   2.921   4.231   6.484  1.4346  1.0679  1.4384
 4959SOL    HW226337   2.779   4.259   6.513  0.7979  1.1170  1.8383
 4960SOL     OW26338   0.204   2.079   9.397  0.3369  0.3275 -0.3891
 4960SOL    HW126339   0.165   1.999   9.362  1.7000 -1.2122  1.5476
 4960SOL    HW226340   0.208   2.140   9.323  1.8851  0.2508 -0.3774
 4961SOL     OW26341   2.571   2.816   6.774  0.0640  0.4273  0.1899
 4961SOL    HW126342   2.652   2.774   6.803 -0.6949 -0.9800  0.2661
 4961SOL    HW226343   2.594   2.904   6.804 -0.8630  1.6547 -2.6936
 4962SOL     OW26344   1.427   4.303   3.795  0.1177  0.3287  0.1982
 4962SOL    HW126345   1.361   4.367   3.824  0.1104 -0.1379  1.2282
 4962SOL    HW226346   1.426   4.311   3.700 -0.5180  1.0108  0.2541
 4963SOL     OW26347   0.923   2.371  13.580 -0.0457  0.0584 -0.0462
 4963SOL    HW126348   1.011   2.379  13.619 -0.1291  0.4935  0.0613
 4963SOL    HW226349   0.884   2.446  13.626 -0.7470 -2.8580  4.0786
 4964SOL     OW26350   4.683   2.145   2.480 -0.6787  0.1514  0.3549
 4964SOL    HW126351   0.043   2.101   2.470 -1.2592 -0.7826 -0.4190
 4964SOL    HW226352   4.639   2.110   2.402 -0.5161  0.1374  0.2700
 4965SOL     OW26353   1.817   2.724   3.022  0.0360 -0.1938  0.0142
 4965SOL    HW126354   1.837   2.653   3.084  2.8914  1.0718  0.5383
 4965SOL    HW226355   1.762   2.775   3.081  1.7047 -0.2572  1.6473
 4966SOL     OW26356   0.258   2.078  17.528 -0.5111  0.0536 -0.1554
 4966SOL    HW126357   0.339   2.115  17.562 -0.2312  0.3250 -1.1245
 4966SOL    HW226358   0.258   2.102  17.436  2.3469 -1.1556 -0.4576
 4967SOL     OW26359   0.964   2.507   9.142 -0.0216 -0.0945  0.7168
 4967SOL    HW126360   0.899   2.576   9.125  0.5612 -0.0932 -1.5021
 4967SOL    HW226361   0.986   2.523   9.234  1.4491  0.1571  0.3157
 4968SOL     OW26362   4.004   1.537  16.717  0.1763 -0.2942  0.2096
 4968SOL    HW126363   3.983   1.500  16.803 -0.1213 -1.8320 -0.5244
 4968SOL    HW226364   3.924   1.537  16.665 -0.2915 -2.3253  0.9230
 4969SOL     OW26365   3.955   3.972   3.371 -0.7567 -0.9818 -0.1857
 4969SOL    HW126366   4.046   3.943   3.366 -0.4951  0.2821 -2.6897
 4969SOL    HW226367   3.953   4.053   3.320 -0.4103 -1.3307 -0.7474
 4970SOL     OW26368   1.875   3.146   2.608  0.6637  0.2689  0.3501
 4970SOL    HW126369   1.918   3.077   2.557 -1.3761 -1.8121  1.4075
 4970SOL    HW226370   1.946   3.209   2.599  0.2733  0.4232 -1.5596
 4971SOL     OW26371   0.378   4.678   4.335  0.1678  0.4956 -0.5036
 4971SOL    HW126372   0.373   0.049   4.345  1.6030  0.3728  1.3994
 4971SOL    HW226373   0.290   4.665   4.300 -0.0763  0.1196  0.2541
 4972SOL     OW26374   3.126   2.989   9.412  0.1107 -0.1103 -0.0821
 4972SOL    HW126375   3.198   3.021   9.466  0.6862 -2.0443  0.3277
 4972SOL    HW226376   3.147   3.027   9.327  2.1880 -2.5384 -0.6794
 4973SOL     OW26377   4.406   3.267   6.459 -0.2414 -0.3543  0.1308
 4973SOL    HW126378   4.435   3.176   6.461  1.5941  0.1812 -2.2708
 4973SOL    HW226379   4.353   3.263   6.538 -0.3001 -0.9390  0.0587
 4974SOL     OW26380   0.953   2.601   6.154  0.6431 -0.1166 -0.2677
 4974SOL    HW126381   0.913   2.579   6.070 -1.3888 -2.1824  1.2429
 4974SOL    HW226382   1.018   2.663   6.120  1.2198  0.2064  1.4144
 4975SOL     OW26383   4.653   3.471   5.893  0.2798 -0.4561 -0.2487
 4975SOL    HW126384   4.631   3.483   5.801 -2.5058  2.4462  0.7926
 4975SOL    HW226385   4.581   3.523   5.929  0.1463 -1.4669  0.9307
 4976SOL     OW26386   3.948   1.523   0.230 -0.3255 -0.1931  0.1505
 4976SOL    HW126387   3.898   1.538   0.311 -1.1983  0.4819 -0.5233
 4976SOL    HW226388   4.024   1.492   0.280  0.2902  1.6728  0.3436
 4977SOL     OW26389   2.576   3.524   7.053 -0.1419  0.7798  0.2883
 4977SOL    HW126390   2.490   3.483   7.050  0.7537 -1.1267  0.8358
 4977SOL    HW226391   2.568   3.585   6.979 -1.9890  0.1185 -0.0629
 4978SOL     OW26392   3.427   1.285   5.446 -0.2214  0.0174  0.3354
 4978SOL    HW126393   3.421   1.320   5.535 -0.0036 -0.5640  0.5780
 4978SOL    HW226394   3.354   1.325   5.398  2.7526  2.9936 -1.7265
 4979SOL     OW26395   1.346   0.370   6.292  0.7893 -0.2614 -0.5524
 4979SOL    HW126396   1.360   0.299   6.229 -0.4091 -1.1447  0.1815
 4979SOL    HW226397   1.420   0.354   6.350 -1.0910 -2.5821  1.2081
 4980SOL     OW26398   3.158   2.345   9.094 -0.5300 -0.5412  0.3703
 4980SOL    HW126399   3.213   2.317   9.168 -1.4378  1.1083  1.6669
 4980SOL    HW226400   3.078   2.346   9.146 -0.7031  1.2470  0.0496
 4981SOL     OW26401   4.567   1.443   7.677  0.1102 -0.0830  0.1520
 4981SOL    HW126402   4.567   1.539   7.671  0.1201  0.0154  1.6020
 4981SOL    HW226403   4.552   1.417   7.587 -1.7944  0.2205  0.3892
 4982SOL     OW26404   3.885   2.813   5.897 -0.2575 -0.6556 -0.1880
 4982SOL    HW126405   3.979   2.819   5.919 -0.1963  0.2415 -0.6735
 4982SOL    HW226406   3.881   2.728   5.853 -1.4367 -1.1577  0.9054
 4983SOL     OW26407   4.422   2.252   3.134 -0.0394 -0.6001  0.0095
 4983SOL    HW126408   4.421   2.160   3.161  1.6683 -0.9210 -1.0349
 4983SOL    HW226409   4.512   2.272   3.159  0.0108 -1.0859  0.2203
 4984SOL     OW26410   0.387   3.275   1.559  0.1014 -0.1691  0.1391
 4984SOL    HW126411   0.380   3.355   1.506  1.1631 -0.2402 -0.1134
 4984SOL    HW226412   0.446   3.218   1.510  1.1853  0.7890  0.3436
 4985SOL     OW26413   2.268   2.226   0.503 -0.0183  0.1835  0.1725
 4985SOL    HW126414   2.268   2.322   0.504  1.9991  0.1896 -0.7641
 4985SOL    HW226415   2.182   2.218   0.544  1.1782 -2.1322  2.1945
 4986SOL     OW26416   2.345   1.750  14.299  0.3233  0.1437 -0.4016
 4986SOL    HW126417   2.355   1.845  14.297  1.3419  0.0785  1.7233
 4986SOL    HW226418   2.396   1.723  14.375  0.5757 -0.5581 -0.8204
 4987SOL     OW26419   4.336   1.184   5.671 -0.3311 -0.1626 -0.0030
 4987SOL    HW126420   4.374   1.259   5.718  1.2999 -1.3876  0.6465
 4987SOL    HW226421   4.262   1.214   5.618 -0.3811 -3.5093 -1.7618
 4988SOL     OW26422   0.824   2.793   2.614  0.2172 -0.2539 -0.7055
 4988SOL    HW126423   0.912   2.767   2.584  0.9495 -1.6589  2.6395
 4988SOL    HW226424   0.771   2.757   2.544 -1.2132  0.7052 -0.1089
 4989SOL     OW26425   2.227   1.572  10.590  0.6495  0.1912  0.4019
 4989SOL    HW126426   2.312   1.536  10.614  0.4046  0.4893  1.6953
 4989SOL    HW226427   2.176   1.512  10.644 -0.9788 -1.2693 -2.7456
 4990SOL     OW26428   2.350   2.989   3.539  0.1484 -0.1321 -0.2923
 4990SOL    HW126429   2.310   2.918   3.589  1.5520 -0.9302 -0.3243
 4990SOL    HW226430   2.427   3.005   3.593 -1.4064  4.4862  0.5644
 4991SOL     OW26431   0.973   3.632  16.393  0.5449 -0.7672 -0.6231
 4991SOL    HW126432   1.058   3.654  16.431  1.1213 -1.0108 -1.7768
 4991SOL    HW226433   0.980   3.670  16.306  0.1204 -1.8387 -1.1242
 4992SOL     OW26434   4.017   1.367   8.897  0.2387 -0.3087 -0.8139
 4992SOL    HW126435   4.109   1.341   8.897  0.0597 -0.9441 -1.0250
 4992SOL    HW226436   3.969   1.285   8.885 -2.7257  1.2631  0.3302
 4993SOL     OW26437   2.407   2.906   4.612 -0.3636  0.8151 -0.6830
 4993SOL    HW126438   2.377   2.971   4.548 -1.1834 -0.4398 -1.5855
 4993SOL    HW226439   2.362   2.935   4.691 -0.7526 -0.9386 -0.2636
 4994SOL     OW26440   0.449   0.809   0.781  0.0685 -0.8062 -0.5678
 4994SOL    HW126441   0.413   0.760   0.855  0.1819  1.5942  1.0409
 4994SOL    HW226442   0.481   0.885   0.829  1.9607 -1.7362 -0.3229
 4995SOL     OW26443   1.080   2.700   8.658  0.5164 -0.2209 -0.2434
 4995SOL    HW126444   1.090   2.692   8.753  4.3656  2.4460 -0.4095
 4995SOL    HW226445   1.144   2.769   8.643  1.5402 -1.3951 -1.2653
 4996SOL     OW26446   2.171   0.313   7.113 -0.5349 -0.3782 -0.0243
 4996SOL    HW126447   2.146   0.224   7.139  0.1769 -0.5772 -0.0363
 4996SOL    HW226448   2.137   0.351   7.195  1.5095  1.3956 -0.0050
 4997SOL     OW26449   1.987   1.638   7.201 -0.2146 -0.2087  0.7313
 4997SOL    HW126450   2.012   1.708   7.261  2.5833  0.4582 -1.2295
 4997SOL    HW226451   2.023   1.557   7.238  1.1696 -0.6144 -1.5403
 4998SOL     OW26452   3.230   2.661  12.015  0.1598 -0.7837  0.2814
 4998SOL    HW126453   3.178   2.701  12.085 -1.0453  2.4345 -2.4664
 4998SOL    HW226454   3.161   2.649  11.950  1.9288 -2.1235 -1.3303
 4999SOL     OW26455   4.098   3.504   6.424 -0.1110  0.0584  0.1169
 4999SOL    HW126456   4.096   3.558   6.345 -1.9134 -0.4422 -0.1787
 4999SOL    HW226457   4.050   3.552   6.491 -2.5589 -0.4548 -1.2680
 5000SOL     OW26458   0.630   0.106   4.505  0.5308  0.0357  0.7676
 5000SOL    HW126459   0.558   0.159   4.471  1.6619  0.0452 -1.6049
 5000SOL    HW226460   0.583   0.075   4.583 -1.1825 -1.3154 -0.8138
 5001SOL     OW26461   0.873   1.292  15.892 -0.4309 -0.4335 -0.0103
 5001SOL    HW126462   0.848   1.218  15.836  1.7708 -0.4473 -0.9906
 5001SOL    HW226463   0.892   1.351  15.819 -0.0530 -0.0019  0.4426
 5002SOL     OW26464   1.800   0.421  17.049  0.3245  0.7160 -0.1423
 5002SOL    HW126465   1.840   0.338  17.075  0.2816 -0.4637 -3.8521
 5002SOL    HW226466   1.828   0.472  17.126 -0.5349  0.2087  0.5096
 5003SOL     OW26467   2.140   2.270   1.094  0.3725 -0.3185 -0.3179
 5003SOL    HW126468   2.118   2.263   1.001 -1.0297  1.4387 -0.1217
 5003SOL    HW226469   2.144   2.175   1.106  3.9773 -0.3175 -1.4753
 5004SOL     OW26470   1.486   2.704   1.949 -0.1949  0.2651  0.5647
 5004SOL    HW126471   1.413   2.643   1.943 -0.0847 -0.0508  2.5447
 5004SOL    HW226472   1.517   2.683   1.861  1.1500  0.5989  0.9622
 5005SOL     OW26473   0.983   2.834   9.511  0.1536 -0.5791  1.3272
 5005SOL    HW126474   0.934   2.861   9.589  0.6586  0.1758  1.3732
 5005SOL    HW226475   0.963   2.897   9.441  0.0258 -0.6802  1.2715
 5006SOL     OW26476   1.580   2.578   7.171  0.1557  0.5202  0.3202
 5006SOL    HW126477   1.643   2.518   7.210  0.7026 -1.0403 -3.0355
 5006SOL    HW226478   1.516   2.572   7.243 -0.8730  1.3514 -0.5225
 5007SOL     OW26479   2.029   2.226  17.267 -0.0919  0.8616  0.1398
 5007SOL    HW126480   1.957   2.181  17.310  1.2762 -1.9929 -0.5225
 5007SOL    HW226481   2.081   2.249  17.344  0.2604  0.6822 -0.0406
 5008SOL     OW26482   4.480   0.942   2.985  0.2917  0.2583 -0.3028
 5008SOL    HW126483   4.451   1.033   2.998  1.1379  0.6820 -1.3776
 5008SOL    HW226484   4.518   0.944   2.897  0.4482  1.2541 -0.2183
 5009SOL     OW26485   1.472   0.908   8.738  0.4762  0.1536 -0.6175
 5009SOL    HW126486   1.532   0.836   8.720 -0.4157 -0.5898 -0.6049
 5009SOL    HW226487   1.535   0.977   8.758  1.7809 -1.0679 -0.5397
 5010SOL     OW26488   4.309   4.639   7.193  0.3257  0.2808  0.3889
 5010SOL    HW126489   4.274   4.570   7.249 -0.1213 -1.9377 -2.6706
 5010SOL    HW226490   4.225   4.682   7.173  0.4612 -0.8233 -2.5218
 5011SOL     OW26491   4.705   4.126   1.097  0.1525  0.2079 -0.2788
 5011SOL    HW126492   0.043   4.122   1.170  1.7045  0.4003 -1.5835
 5011SOL    HW226493   0.035   4.089   1.026  0.5128 -0.0192  0.1103
 5012SOL     OW26494   2.272   3.390  13.866  0.2794  0.8874  0.5537
 5012SOL    HW126495   2.230   3.339  13.936 -0.0833  1.3289  0.6586
 5012SOL    HW226496   2.307   3.319  13.813  1.7463  1.8592  0.2502
 5013SOL     OW26497   2.868   2.575  11.730 -0.1460 -0.4149  0.3780
 5013SOL    HW126498   2.914   2.596  11.649  0.9391  0.9802  1.3560
 5013SOL    HW226499   2.911   2.492  11.751  0.5263  0.0886  1.0021
 5014SOL     OW26500   3.465   0.572   5.723  0.3488 -0.3672 -0.1824
 5014SOL    HW126501   3.449   0.610   5.810  0.7111 -2.4452  0.8016
 5014SOL    HW226502   3.375   0.544   5.705  0.4118 -0.4032 -0.4357
 5015SOL     OW26503   4.066   4.614  11.522  0.1708 -0.0832 -0.3555
 5015SOL    HW126504   4.032   4.697  11.488  1.7924  0.9190  0.4168
 5015SOL    HW226505   4.128   4.647  11.587  2.2523 -1.2631 -1.7399
 5016SOL     OW26506   4.597   3.544  14.938  0.0202  0.1749  0.0299
 5016SOL    HW126507   4.614   3.457  14.972  1.6625  0.1647 -0.8211
 5016SOL    HW226508   4.643   3.598  15.002 -0.1370  1.3361 -0.8328
 5017SOL     OW26509   2.449   2.697   7.406 -0.2357  0.2043 -0.4223
 5017SOL    HW126510   2.504   2.721   7.332  0.3025 -0.3980 -0.2158
 5017SOL    HW226511   2.508   2.691   7.482  2.7484  1.0597 -2.6997
 5018SOL     OW26512   4.664   0.496   8.488  0.1336  0.0039  0.5642
 5018SOL    HW126513   4.709   0.412   8.480  0.9351  0.2716  2.1211
 5018SOL    HW226514   0.004   0.565   8.509  1.3774 -1.3052  1.1120
 5019SOL     OW26515   3.233   4.020   9.370  0.1778 -0.3120 -0.6289
 5019SOL    HW126516   3.197   4.108   9.382  0.7966 -0.1897  0.3332
 5019SOL    HW226517   3.228   3.984   9.458  0.6899 -3.4466 -1.8607
 5020SOL     OW26518   1.791   0.007   5.342 -0.4721  0.4248  0.0773
 5020SOL    HW126519   1.798   0.043   5.430  1.3184  1.3668 -0.4559
 5020SOL    HW226520   1.792   0.085   5.287  0.7606 -0.3574 -1.0248
 5021SOL     OW26521   4.394   3.775   7.198 -0.5680  0.5821  0.3941
 5021SOL    HW126522   4.433   3.856   7.232  0.0568  0.2525  0.4673
 5021SOL    HW226523   4.376   3.810   7.111  0.5060  2.2776  0.8496
 5022SOL     OW26524   1.957   0.234   3.054 -0.6810  0.6665 -1.1513
 5022SOL    HW126525   1.889   0.221   3.121 -0.6661 -0.1362 -1.3012
 5022SOL    HW226526   1.912   0.246   2.971 -2.6213 -3.1516 -0.6534
 5023SOL     OW26527   1.537   2.768   2.815 -0.3029 -0.6569  0.1224
 5023SOL    HW126528   1.531   2.855   2.773 -0.9567 -0.3305  0.8989
 5023SOL    HW226529   1.608   2.726   2.767  0.3054 -0.0619  0.5019
 5024SOL     OW26530   4.168   4.069   2.459  0.8872 -0.8736  0.2473
 5024SOL    HW126531   4.150   4.091   2.368  0.7237  0.7324  0.6696
 5024SOL    HW226532   4.112   4.128   2.509 -0.1561 -0.9969 -0.7676
 5025SOL     OW26533   3.466   2.911   9.023  0.5153 -0.6214 -0.0789
 5025SOL    HW126534   3.548   2.959   9.008  0.5469 -0.9901 -1.0933
 5025SOL    HW226535   3.475   2.896   9.117  0.1909  2.6138  0.4387
 5026SOL     OW26536   1.279   4.592   7.245  0.2460  0.3879 -0.0510
 5026SOL    HW126537   1.250   4.508   7.282  0.1953  0.4486  0.0444
 5026SOL    HW226538   1.365   4.588   7.288 -1.0242  0.2312  2.4460
 5027SOL     OW26539   0.385   2.173   5.275  0.1593 -0.2797  0.2889
 5027SOL    HW126540   0.441   2.225   5.332 -1.5794  1.8391  0.0766
 5027SOL    HW226541   0.426   2.180   5.189  0.2529 -0.1738  0.3420
 5028SOL     OW26542   0.090   4.639   4.253  0.3912 -0.1735  0.6950
 5028SOL    HW126543   0.038   4.667   4.178  2.6621 -1.5212 -1.3774
 5028SOL    HW226544   0.070   4.692   4.331  1.2348 -0.1235  0.8744
 5029SOL     OW26545   4.170   2.668   7.941 -0.7557  0.2978 -0.6115
 5029SOL    HW126546   4.248   2.642   7.893 -0.1427  1.7898 -0.4109
 5029SOL    HW226547   4.188   2.634   8.029 -0.7747  0.0145 -0.7165
 5030SOL     OW26548   1.692   2.465   0.306  0.0850  0.2688 -0.0149
 5030SOL    HW126549   1.634   2.406   0.355 -0.0089 -0.5409 -1.1045
 5030SOL    HW226550   1.674   2.553   0.338 -0.6912 -0.7624  2.3922
 5031SOL     OW26551   3.895   3.279   6.865  0.2990 -0.1769  0.5436
 5031SOL    HW126552   3.938   3.194   6.852 -1.5566 -0.2287 -5.2901
 5031SOL    HW226553   3.938   3.301   6.947  1.6061  1.3686 -0.5663
 5032SOL     OW26554   4.678   1.488   8.014 -0.7452 -0.5822 -0.1810
 5032SOL    HW126555   4.648   1.435   8.089  2.5092 -2.2193 -0.0487
 5032SOL    HW226556   4.655   1.433   7.939 -0.1554 -1.9604  0.6321
 5033SOL     OW26557   3.711   0.857   4.784 -0.0049  0.1312 -0.1187
 5033SOL    HW126558   3.626   0.881   4.748 -0.4200  0.3345  1.0039
 5033SOL    HW226559   3.707   0.884   4.876 -1.8858  1.4043 -0.5903
 5034SOL     OW26560   4.311   3.955  11.253 -0.0236 -0.1300  0.1307
 5034SOL    HW126561   4.363   4.029  11.222  0.5435  0.5897  2.7666
 5034SOL    HW226562   4.376   3.891  11.283 -0.0980 -0.3141 -0.1020
 5035SOL     OW26563   1.933   1.125   7.032  0.2863  0.4985 -0.3121
 5035SOL    HW126564   1.984   1.119   6.952  0.8027 -1.7568  0.1759
 5035SOL    HW226565   1.984   1.199   7.065  0.1552 -0.5098  2.1552
 5036SOL     OW26566   0.790   2.665  13.945 -0.3351  0.5324 -0.4793
 5036SOL    HW126567   0.839   2.690  13.866 -1.6750  0.8299 -1.2300
 5036SOL    HW226568   0.851   2.610  13.993  0.5394  1.6228 -0.3368
 5037SOL     OW26569   2.121   1.661   4.915  0.3380 -0.4555  0.5801
 5037SOL    HW126570   2.088   1.614   4.839 -0.9659  0.7170  0.4109
 5037SOL    HW226571   2.200   1.610   4.932  0.7262  0.5178  1.7312
 5038SOL     OW26572   2.119   1.743  16.576 -0.1756  0.6969  0.4088
 5038SOL    HW126573   2.173   1.704  16.507 -0.8069  2.4944 -1.1026
 5038SOL    HW226574   2.169   1.723  16.655 -0.7047 -1.6645  0.1523
 5039SOL     OW26575   1.021   2.002   0.063  0.7790 -0.0119 -0.1281
 5039SOL    HW126576   0.938   2.026   0.022  0.9601  1.3086  0.2947
 5039SOL    HW226577   0.987   1.986   0.151 -4.9636 -0.4127 -2.4039
 5040SOL     OW26578   1.369   0.313   7.925  0.0032  0.1156  0.4076
 5040SOL    HW126579   1.277   0.301   7.903 -0.5810  1.8280  1.8355
 5040SOL    HW226580   1.403   0.341   7.840  0.8550 -1.2667  0.2994
 5041SOL     OW26581   0.761   2.389   5.845 -0.1434  0.0357 -0.5319
 5041SOL    HW126582   0.679   2.344   5.824  1.2817 -2.9146  0.1839
 5041SOL    HW226583   0.739   2.482   5.841 -2.8456 -0.5632  0.3653
 5042SOL     OW26584   0.538   0.926  14.461  0.6609 -0.4745 -0.2711
 5042SOL    HW126585   0.551   1.021  14.452  2.0921 -0.6931 -0.6371
 5042SOL    HW226586   0.601   0.891  14.397  0.3039  0.1002 -0.9379
 5043SOL     OW26587   1.337   1.113   3.688 -0.0193 -0.2466  0.2813
 5043SOL    HW126588   1.322   1.032   3.640 -2.7648  0.1540  0.4257
 5043SOL    HW226589   1.311   1.187   3.633  0.0464 -0.2539  0.2408
 5044SOL     OW26590   1.164   1.857   4.267 -0.1133 -0.3226  0.0199
 5044SOL    HW126591   1.156   1.793   4.196  1.1828 -0.9727  0.4535
 5044SOL    HW226592   1.077   1.894   4.256 -0.7932 -2.5067 -1.9796
 5045SOL     OW26593   2.210   1.025  10.564  0.2093 -0.1084  0.6088
 5045SOL    HW126594   2.148   0.953  10.571  1.3509 -1.0647  0.8324
 5045SOL    HW226595   2.256   1.017  10.648  1.6688  2.3587  0.0571
 5046SOL     OW26596   4.297   2.674   3.561  0.4244  0.6382 -0.1341
 5046SOL    HW126597   4.231   2.660   3.493 -2.1760  1.0340  2.3217
 5046SOL    HW226598   4.242   2.720   3.624 -0.7181  2.0784 -2.1636
 5047SOL     OW26599   1.324   0.037   5.206  0.1346 -0.4868  0.0304
 5047SOL    HW126600   1.372   0.111   5.170  0.6839 -1.0685 -0.4333
 5047SOL    HW226601   1.391   4.712   5.255  1.3245  0.7048 -0.4029
 5048SOL     OW26602   1.743   3.040   5.118 -0.2357  0.3366 -0.0889
 5048SOL    HW126603   1.784   3.126   5.113 -0.1881  0.4743  2.5991
 5048SOL    HW226604   1.660   3.051   5.165 -0.4960  3.2226 -1.2211
 5049SOL     OW26605   0.975   2.558   2.303  0.5949  0.2676  0.4272
 5049SOL    HW126606   1.021   2.490   2.255  1.1180 -0.0233  1.3398
 5049SOL    HW226607   0.978   2.523   2.392 -0.0417  0.3088  0.4609
 5050SOL     OW26608   3.489   1.750   6.233 -0.6797  0.1492 -0.1740
 5050SOL    HW126609   3.461   1.831   6.274 -0.7226  0.6623 -1.2135
 5050SOL    HW226610   3.527   1.706   6.309 -0.1175 -0.6571 -0.9122
 5051SOL     OW26611   0.572   3.513   3.280  0.1529  0.6027  0.8757
 5051SOL    HW126612   0.493   3.565   3.269  0.9644  1.6359 -0.1293
 5051SOL    HW226613   0.558   3.462   3.201 -3.4258  0.5157  1.5730
 5052SOL     OW26614   3.659   3.285   9.248 -0.3028 -0.3967 -0.3069
 5052SOL    HW126615   3.665   3.256   9.339  0.2968 -0.3167 -0.3196
 5052SOL    HW226616   3.728   3.352   9.244 -2.2365  1.6078  0.2736
 5053SOL     OW26617   4.640   1.322  13.836 -0.5784  0.4079  0.2848
 5053SOL    HW126618   4.553   1.317  13.795  0.3220 -1.2648 -1.4465
 5053SOL    HW226619   4.671   1.231  13.831 -0.3839  0.4808  0.1759
 5054SOL     OW26620   1.927   1.031  12.579 -0.3338 -0.2224 -0.2420
 5054SOL    HW126621   1.992   0.962  12.591 -0.2014 -0.2728 -1.2263
 5054SOL    HW226622   1.980   1.110  12.583  2.6394 -2.1972 -0.1127
 5055SOL     OW26623   1.858   1.059   5.877 -0.7637  0.2071  0.1371
 5055SOL    HW126624   1.877   1.065   5.783  1.5289  0.6213  0.6154
 5055SOL    HW226625   1.783   1.002   5.891 -0.5466 -0.5449 -1.8135
 5056SOL     OW26626   2.821   2.519   8.410 -0.0845  0.4759  0.1501
 5056SOL    HW126627   2.833   2.588   8.476 -0.1888  0.7680 -0.1358
 5056SOL    HW226628   2.869   2.555   8.335 -2.3032  1.5306 -0.7652
 5057SOL     OW26629   1.854   3.319   7.041  0.0282  0.0937 -0.0134
 5057SOL    HW126630   1.817   3.404   7.063 -0.0881 -0.2199  1.0182
 5057SOL    HW226631   1.931   3.325   7.098  0.0376  0.5868 -0.0783
 5058SOL     OW26632   2.681   1.877   2.460 -0.2279 -0.1285  0.1136
 5058SOL    HW126633   2.586   1.876   2.451  0.0701  0.5284 -3.0441
 5058SOL    HW226634   2.699   1.883   2.554 -1.0268 -0.0205  0.2545
 5059SOL     OW26635   2.582   4.138   7.488  0.6676 -0.1975 -0.0471
 5059SOL    HW126636   2.649   4.133   7.556  0.2339 -0.2253  0.3793
 5059SOL    HW226637   2.514   4.087   7.533 -1.0176  2.6283  0.6315
 5060SOL     OW26638   1.036   3.301  17.024  0.3293  0.4512 -0.0014
 5060SOL    HW126639   1.050   3.250  17.104 -0.8919  3.2458  2.0033
 5060SOL    HW226640   0.973   3.363  17.061 -0.3991 -0.2857 -0.0044
 5061SOL     OW26641   0.301   0.148   2.884 -0.0583  0.1722 -0.0478
 5061SOL    HW126642   0.246   0.197   2.824 -1.9395  0.7612  2.1386
 5061SOL    HW226643   0.258   0.063   2.888  0.9066 -0.4474 -2.7718
 5062SOL     OW26644   4.421   3.064   8.061  0.0305 -0.3989 -0.1829
 5062SOL    HW126645   4.486   3.026   8.001 -0.3170 -2.3401  0.6747
 5062SOL    HW226646   4.441   3.025   8.147 -0.6380 -0.7997 -0.2113
 5063SOL     OW26647   4.661   4.715   9.900  0.3548  0.2939  0.4990
 5063SOL    HW126648   4.701   4.721   9.813 -1.1237 -1.1696 -0.2812
 5063SOL    HW226649   0.006   0.018   9.961  1.0375  0.3221 -0.2715
 5064SOL     OW26650   2.571   4.687   6.316 -0.2571  0.7154 -0.2915
 5064SOL    HW126651   2.544   0.050   6.285  0.7474  1.4608  0.9304
 5064SOL    HW226652   2.604   4.649   6.235 -1.1778 -0.7954  0.0428
 5065SOL     OW26653   4.536   4.679   8.543 -0.6751 -0.1155  0.3039
 5065SOL    HW126654   4.547   0.030   8.603  0.3437 -1.0957  1.3423
 5065SOL    HW226655   4.491   4.616   8.600 -1.2566  1.1753  1.2838
 5066SOL     OW26656   1.403   2.960   2.005 -0.3736 -0.5136  0.6176
 5066SOL    HW126657   1.430   2.870   1.986  0.4087  0.0863 -1.1823
 5066SOL    HW226658   1.478   2.996   2.052  1.2988 -4.6381  1.1488
 5067SOL     OW26659   1.071   1.358   8.684 -0.2083  0.0445  0.2296
 5067SOL    HW126660   1.129   1.434   8.693 -0.3902  0.0928  0.9732
 5067SOL    HW226661   1.106   1.300   8.752  0.2632  0.0114 -0.0397
 5068SOL     OW26662   0.402   2.997   5.402 -0.0020  0.1481 -0.3337
 5068SOL    HW126663   0.425   2.904   5.402  1.1378  0.4259 -1.2119
 5068SOL    HW226664   0.478   3.037   5.359  1.6014 -1.5265  0.9475
 5069SOL     OW26665   1.412   0.325   3.076  0.2016  0.1909  0.2151
 5069SOL    HW126666   1.481   0.371   3.029 -0.3410 -0.4814 -1.2245
 5069SOL    HW226667   1.345   0.371   3.025  0.2512 -0.9187 -0.8213
 5070SOL     OW26668   4.448   4.590   9.822 -0.6029  0.2072 -0.2213
 5070SOL    HW126669   4.405   4.617   9.903 -0.5189 -2.0438  0.5923
 5070SOL    HW226670   4.535   4.629   9.826 -1.0229  0.8744  2.5454
 5071SOL     OW26671   3.870   0.228  14.804  0.6188 -0.3610 -0.1581
 5071SOL    HW126672   3.961   0.252  14.789  1.2153 -1.2216  2.1367
 5071SOL    HW226673   3.855   0.222  14.898  0.6089  0.0073 -0.1353
 5072SOL     OW26674   3.858   1.082  10.392  0.1139  0.1475  0.2247
 5072SOL    HW126675   3.796   1.084  10.465 -0.7522 -1.7600 -0.4615
 5072SOL    HW226676   3.801   1.115  10.323 -0.6508 -1.5013  0.0648
 5073SOL     OW26677   3.555   0.336  11.793  0.3686 -0.0718 -0.2894
 5073SOL    HW126678   3.650   0.333  11.792  0.3815  0.4576 -0.2634
 5073SOL    HW226679   3.521   0.312  11.880  0.2965  0.5102 -0.1606
 5074SOL     OW26680   0.234   4.174   3.233  0.3538  0.4291  0.0661
 5074SOL    HW126681   0.207   4.238   3.299  2.5710  0.8380  0.5792
 5074SOL    HW226682   0.244   4.095   3.287 -1.0093 -0.2601 -0.6859
 5075SOL     OW26683   2.522   1.848   0.283 -0.0548 -0.1843 -0.4584
 5075SOL    HW126684   2.531   1.828   0.376 -0.1334  1.2306 -0.1436
 5075SOL    HW226685   2.450   1.912   0.279 -0.5188 -0.5931  1.1158
 5076SOL     OW26686   4.659   4.394   8.662  0.2687  0.2511  0.7037
 5076SOL    HW126687   4.696   4.478   8.689  2.3338 -0.3717 -0.2107
 5076SOL    HW226688   4.701   4.387   8.577  2.0145 -1.9304  1.7754
 5077SOL     OW26689   4.187   2.979  17.617 -0.1131 -0.3249  0.0787
 5077SOL    HW126690   4.130   2.914  17.658  0.5170 -0.5511  0.5927
 5077SOL    HW226691   4.128   3.053  17.606  0.6117  0.1952 -0.2607
 5078SOL     OW26692   0.618   0.221  15.594  0.0671 -1.2072  0.1881
 5078SOL    HW126693   0.592   0.313  15.600  2.1742 -0.5050 -1.3108
 5078SOL    HW226694   0.656   0.191  15.676 -0.2746 -2.8533 -0.2472
 5079SOL     OW26695   2.179   2.179  12.822  0.5409 -0.3015 -0.3417
 5079SOL    HW126696   2.168   2.096  12.775 -2.2556  0.0975 -0.3819
 5079SOL    HW226697   2.270   2.198  12.797  0.1338  1.3365 -0.5656
 5080SOL     OW26698   4.261   3.716   3.772 -0.1320 -0.2150 -0.0215
 5080SOL    HW126699   4.347   3.721   3.732 -0.6298  1.4796 -0.8595
 5080SOL    HW226700   4.205   3.676   3.706 -0.4183 -0.2373  0.2344
 5081SOL     OW26701   3.482   0.313  10.492 -0.0951 -0.5782 -0.0009
 5081SOL    HW126702   3.544   0.305  10.420 -0.5019 -0.4624 -0.3614
 5081SOL    HW226703   3.500   0.231  10.539 -0.3064 -0.2465  0.6537
 5082SOL     OW26704   1.650   3.374  13.935 -0.3841  0.3121 -0.4245
 5082SOL    HW126705   1.723   3.360  13.875  0.3959 -0.0036  0.6088
 5082SOL    HW226706   1.583   3.363  13.868  0.1035  1.5873 -1.1292
 5083SOL     OW26707   3.384   0.669   8.963 -0.2287  0.3707  0.1705
 5083SOL    HW126708   3.409   0.638   9.050  1.8201  0.8700 -0.2374
 5083SOL    HW226709   3.459   0.728   8.949 -0.1215  0.7467  2.2419
 5084SOL     OW26710   4.605   1.879  13.632  0.1046  0.4874 -0.0791
 5084SOL    HW126711   4.667   1.826  13.582 -0.2429  0.6299 -0.6648
 5084SOL    HW226712   4.644   1.965  13.649 -1.1927  1.0611 -0.0596
 5085SOL     OW26713   3.163   3.702   6.648 -0.5735 -0.0134  0.1826
 5085SOL    HW126714   3.177   3.642   6.721 -0.4471 -1.5018 -1.0580
 5085SOL    HW226715   3.097   3.761   6.683 -1.7708 -0.5156 -1.2209
 5086SOL     OW26716   3.322   1.879   1.764  0.1332  0.4583  0.2681
 5086SOL    HW126717   3.404   1.862   1.810 -0.2720  1.5300  1.3988
 5086SOL    HW226718   3.260   1.888   1.837 -1.1209  2.0579 -0.9914
 5087SOL     OW26719   4.099   3.657  12.649 -0.1632 -0.3219  0.0144
 5087SOL    HW126720   4.012   3.619  12.656 -0.0586 -0.3988  0.9285
 5087SOL    HW226721   4.112   3.661  12.555 -0.8790  0.8506 -0.0389
 5088SOL     OW26722   3.843   1.988   1.385  0.2702  0.3829  0.0669
 5088SOL    HW126723   3.844   2.035   1.468 -0.2708  1.3084 -0.4579
 5088SOL    HW226724   3.937   1.993   1.365  0.4373 -1.5232  0.3722
 5089SOL     OW26725   3.449   1.136   6.223  0.4066 -0.3360 -0.4340
 5089SOL    HW126726   3.515   1.116   6.289  0.1430  1.7654  0.4733
 5089SOL    HW226727   3.404   1.052   6.223  0.8148 -0.5627 -2.9679
 5090SOL     OW26728   0.302   3.174   3.272  0.8337 -0.5043 -0.0414
 5090SOL    HW126729   0.349   3.178   3.356  2.1113  1.3259 -0.8548
 5090SOL    HW226730   0.373   3.186   3.209  0.7347  0.6119  0.0665
 5091SOL     OW26731   2.645   4.447   2.548  0.0213  0.0176  0.2956
 5091SOL    HW126732   2.698   4.380   2.591 -0.5772  1.0884  2.6880
 5091SOL    HW226733   2.645   4.422   2.456  2.8250  0.5476  0.1752
 5092SOL     OW26734   2.671   1.467   2.579  0.0499  0.5166  0.2940
 5092SOL    HW126735   2.619   1.397   2.542  0.3440  1.1175 -1.2303
 5092SOL    HW226736   2.655   1.454   2.673  2.6389  0.9517  0.8086
 5093SOL     OW26737   3.540   0.170   2.622  0.1318 -0.1192  0.1597
 5093SOL    HW126738   3.519   0.139   2.534 -0.7697  0.9725 -0.0061
 5093SOL    HW226739   3.486   0.246   2.644 -0.2820 -0.0449 -1.0580
 5094SOL     OW26740   3.356   2.341   8.026 -0.8165  0.4979  0.1853
 5094SOL    HW126741   3.269   2.368   7.997 -0.4059 -0.6677 -2.1080
 5094SOL    HW226742   3.347   2.250   7.999 -1.4183  0.2490  1.1964
 5095SOL     OW26743   0.243   3.616  12.706  0.1502 -0.3080  0.3416
 5095SOL    HW126744   0.295   3.621  12.626  0.3758 -0.3153  0.4865
 5095SOL    HW226745   0.314   3.596  12.767  0.2105  0.2763  0.4677
 5096SOL     OW26746   2.439   2.329   1.627 -0.8037 -1.3346  0.1652
 5096SOL    HW126747   2.442   2.310   1.533 -0.3046 -2.0846  0.3314
 5096SOL    HW226748   2.344   2.321   1.638 -0.8935  1.5581  1.2644
 5097SOL     OW26749   1.882   2.489   3.175  0.7053 -0.2672  0.0630
 5097SOL    HW126750   1.908   2.440   3.097 -1.0615 -0.4437 -0.4104
 5097SOL    HW226751   1.949   2.451   3.231  0.9265 -1.3017 -0.9123
 5098SOL     OW26752   0.031   3.292   8.576  1.0888  0.1474  0.0491
 5098SOL    HW126753   4.716   3.351   8.511 -0.0366  0.5988  1.1315
 5098SOL    HW226754   0.115   3.285   8.530  0.5005  1.4254 -1.2350
 5099SOL     OW26755   2.452   0.098   1.205  0.4313  0.0354  0.3455
 5099SOL    HW126756   2.479   0.092   1.113  0.4288 -1.5856  0.4531
 5099SOL    HW226757   2.356   0.089   1.198  0.5518 -1.2979  0.3767
 5100SOL     OW26758   3.894   0.350   2.496  0.1816 -0.0536 -0.5123
 5100SOL    HW126759   3.957   0.407   2.452  1.2137 -0.5604  0.3283
 5100SOL    HW226760   3.941   0.267   2.486  0.2805 -0.0376 -0.1632
 5101SOL     OW26761   4.473   2.885   9.469 -0.5173  0.2476  0.1155
 5101SOL    HW126762   4.433   2.801   9.447 -0.8886  1.0271 -2.2464
 5101SOL    HW226763   4.408   2.906   9.536 -0.0478 -1.1440  1.0038
 5102SOL     OW26764   1.600   1.284  16.377 -0.5828 -0.1723 -0.2048
 5102SOL    HW126765   1.540   1.269  16.450 -0.3129  0.8801  0.2481
 5102SOL    HW226766   1.631   1.374  16.392  0.6194 -1.2547  3.7255
 5103SOL     OW26767   0.593   0.188   3.986 -0.0144  0.1396  0.6532
 5103SOL    HW126768   0.611   0.139   4.066 -0.8802  0.6460  1.1598
 5103SOL    HW226769   0.502   0.217   3.998  0.5292  1.6770  1.0587
 5104SOL     OW26770   3.645   1.081   4.005  0.3551  0.4404  0.1502
 5104SOL    HW126771   3.654   0.989   4.029  1.6022  0.7882  1.0376
 5104SOL    HW226772   3.666   1.117   4.091 -0.2065  0.1989  0.3842
 5105SOL     OW26773   4.160   1.566   3.063 -0.5323 -0.4151  0.0527
 5105SOL    HW126774   4.177   1.554   2.970 -0.0776  2.2099 -0.1896
 5105SOL    HW226775   4.094   1.497   3.078  0.5847 -1.9790 -2.3058
 5106SOL     OW26776   3.741   0.374  13.630 -0.0838  0.1156 -0.2430
 5106SOL    HW126777   3.823   0.404  13.669  0.3637 -2.5024  0.8158
 5106SOL    HW226778   3.776   0.340  13.547  1.6575 -0.0224  0.5442
 5107SOL     OW26779   4.460   1.515  17.066 -0.1575 -0.0110  0.5749
 5107SOL    HW126780   4.395   1.448  17.088 -0.4819 -0.0114 -0.3691
 5107SOL    HW226781   4.439   1.595  17.113 -2.0362  0.1959 -0.5954
 5108SOL     OW26782   0.315   0.617   6.470  0.0820 -0.4026  0.1429
 5108SOL    HW126783   0.331   0.589   6.560 -0.6632 -1.3907 -0.0321
 5108SOL    HW226784   0.241   0.562   6.445  0.2860  0.8905 -3.3648
 5109SOL     OW26785   3.462   2.139   1.532  0.2151 -0.5503 -0.5186
 5109SOL    HW126786   3.458   2.124   1.627  0.6836 -1.9537 -0.7084
 5109SOL    HW226787   3.553   2.157   1.509 -0.8499  1.8144 -2.8465
 5110SOL     OW26788   1.349   0.125   8.781 -0.5179 -0.8638  0.0014
 5110SOL    HW126789   1.294   0.070   8.725  0.1635 -2.8236  1.2283
 5110SOL    HW226790   1.296   0.203   8.772 -1.4586 -1.3400  1.4476
 5111SOL     OW26791   0.267   4.542   8.291  0.2580 -0.5570  0.1207
 5111SOL    HW126792   0.248   4.469   8.350  0.5676 -0.4181  0.3946
 5111SOL    HW226793   0.277   4.489   8.212  0.6192 -0.1969 -0.0763
 5112SOL     OW26794   1.140   0.545   4.155  0.0681  0.0267  0.0931
 5112SOL    HW126795   1.148   0.617   4.218 -4.4607 -0.9386  1.7602
 5112SOL    HW226796   1.209   0.557   4.090  0.7791 -0.7747  0.6959
 5113SOL     OW26797   1.383   4.034   6.534  0.1592 -0.6086 -0.2636
 5113SOL    HW126798   1.302   4.081   6.554  0.6022  0.1840 -0.3579
 5113SOL    HW226799   1.410   4.082   6.456  0.8226  0.2962  0.5237
 5114SOL     OW26800   1.951   3.812  15.969 -0.1982  0.3170 -1.0539
 5114SOL    HW126801   2.010   3.738  15.982  0.2521  0.9444  0.5043
 5114SOL    HW226802   1.955   3.806  15.874 -1.0622  0.5838 -1.1032
 5115SOL     OW26803   3.007   0.214   9.470 -0.0993  0.2682  0.3088
 5115SOL    HW126804   3.005   0.127   9.431 -0.9281 -0.0065  0.9564
 5115SOL    HW226805   2.925   0.252   9.438 -1.3782 -2.0451  0.8489
 5116SOL     OW26806   3.723   4.702   7.407  0.2209  0.2909 -0.3452
 5116SOL    HW126807   3.764   4.642   7.469 -1.3981  1.0155  1.4309
 5116SOL    HW226808   3.668   0.035   7.461  0.2592  0.2658 -0.2802
 5117SOL     OW26809   1.463   1.952   6.475  0.0298  0.2288  0.3942
 5117SOL    HW126810   1.490   1.904   6.554 -3.9984  1.1919  2.3555
 5117SOL    HW226811   1.496   1.892   6.409  0.4199  1.0779 -0.1871
 5118SOL     OW26812   4.429   1.007   5.004 -0.0707 -0.2868 -0.0218
 5118SOL    HW126813   4.353   0.971   5.050  0.1059 -0.2902  0.2597
 5118SOL    HW226814   4.377   1.019   4.924  2.0914 -0.9027 -1.5239
 5119SOL     OW26815   0.825   4.048   7.820 -0.0251  0.3324 -0.1100
 5119SOL    HW126816   0.900   3.989   7.821 -0.0048  0.3498 -0.9013
 5119SOL    HW226817   0.855   4.135   7.796  1.1382 -0.0151  0.0671
 5120SOL     OW26818   3.847   4.099   2.368  0.0194 -0.3212 -0.2507
 5120SOL    HW126819   3.888   4.028   2.319 -0.8108 -0.1904 -1.1445
 5120SOL    HW226820   3.754   4.081   2.353 -0.1042 -2.3058  2.8594
 5121SOL     OW26821   4.289   4.565   4.480  0.3958 -0.5785 -0.0330
 5121SOL    HW126822   4.217   4.601   4.429 -2.1391 -1.8713  2.5990
 5121SOL    HW226823   4.360   4.628   4.469  0.6364 -0.9496 -0.6112
 5122SOL     OW26824   4.624   0.819  11.159 -0.4324  0.3603 -0.1173
 5122SOL    HW126825   4.567   0.802  11.084  1.5668  2.1293 -2.0028
 5122SOL    HW226826   4.637   0.727  11.184  1.3730  0.3857 -0.9719
 5123SOL     OW26827   3.014   1.781   5.159 -0.0580 -0.1720  0.4380
 5123SOL    HW126828   3.086   1.721   5.179  1.1957  0.4203 -2.3441
 5123SOL    HW226829   2.980   1.813   5.243  1.2285 -2.1778  1.7330
 5124SOL     OW26830   1.027   0.261  10.420  0.0019 -0.0705 -0.2168
 5124SOL    HW126831   0.953   0.270  10.480  0.0948 -1.2225  0.0585
 5124SOL    HW226832   0.986   0.223  10.342 -3.1494 -0.9129  1.8447
 5125SOL     OW26833   1.739   2.389   7.332 -0.5441 -0.8463  0.8074
 5125SOL    HW126834   1.738   2.470   7.384  0.5303  0.9666 -1.9612
 5125SOL    HW226835   1.799   2.341   7.389  1.3576 -1.7906 -2.0023
 5126SOL     OW26836   0.170   0.052   5.858 -0.9685  0.5439  0.0231
 5126SOL    HW126837   0.099   0.042   5.922 -1.5156 -3.0905 -1.1767
 5126SOL    HW226838   0.122   0.086   5.782 -0.0726  1.0073 -0.3416
 5127SOL     OW26839   4.306   3.401  14.027  0.8847  0.2266 -0.5788
 5127SOL    HW126840   4.400   3.402  14.011  1.0967 -1.5250  0.6096
 5127SOL    HW226841   4.269   3.337  13.966  0.3951 -0.8750  0.8671
 5128SOL     OW26842   3.462   2.478   5.906  0.0014 -0.1171  0.5069
 5128SOL    HW126843   3.409   2.552   5.936 -2.0697 -0.2222 -2.9766
 5128SOL    HW226844   3.434   2.472   5.815 -1.3706  0.0254  0.9281
 5129SOL     OW26845   3.838   2.243   5.001  0.2962 -0.2260 -0.2153
 5129SOL    HW126846   3.800   2.163   5.037  1.1800 -0.7198 -0.3905
 5129SOL    HW226847   3.929   2.218   5.015  0.0836 -0.8401  0.0932
 5130SOL     OW26848   0.653   0.797   9.315  0.1680 -0.1734 -0.4110
 5130SOL    HW126849   0.734   0.831   9.277 -0.7655  2.6708  0.1663
 5130SOL    HW226850   0.675   0.792   9.407  1.7700 -1.6526 -0.8796
 5131SOL     OW26851   4.289   0.052  11.665  0.3262  0.4662 -0.7135
 5131SOL    HW126852   4.289   0.148  11.657 -0.3790  0.5249  0.0070
 5131SOL    HW226853   4.362   0.034  11.605 -0.2985 -0.0971 -1.3053
 5132SOL     OW26854   1.664   3.130   2.287 -0.2207  0.2586 -0.4555
 5132SOL    HW126855   1.598   3.192   2.255 -1.7875 -1.6653 -0.9384
 5132SOL    HW226856   1.744   3.183   2.287  1.8258 -2.8437  1.2109
 5133SOL     OW26857   3.211   0.100   7.527  0.0124  0.0902 -0.0837
 5133SOL    HW126858   3.130   0.144   7.506 -1.0274 -0.2939  3.0809
 5133SOL    HW226859   3.188   0.062   7.612 -1.3338  0.7965 -0.1441
 5134SOL     OW26860   1.415   3.089   2.650  0.5637 -0.6228 -0.2442
 5134SOL    HW126861   1.484   3.142   2.691  0.4618 -0.4489 -0.3016
 5134SOL    HW226862   1.355   3.068   2.722 -1.1025 -0.3944 -1.5728
 5135SOL     OW26863   2.020   4.693  17.548 -0.5044  0.4058  0.1622
 5135SOL    HW126864   2.017   4.691  17.452  2.5561 -0.8588  0.0979
 5135SOL    HW226865   1.988   4.605  17.568 -1.7009  0.9480  0.6384
 5136SOL     OW26866   1.098   3.327   7.559  0.2437  0.0086  0.5380
 5136SOL    HW126867   1.178   3.378   7.544 -0.9018  0.6617 -3.4135
 5136SOL    HW226868   1.032   3.380   7.515  1.5722  1.2784  0.0431
 5137SOL     OW26869   0.766   3.948  17.042  0.7769  0.4941 -0.1955
 5137SOL    HW126870   0.749   4.029  16.995 -0.9924 -1.0784 -2.2211
 5137SOL    HW226871   0.708   3.888  16.995 -0.2641  0.6536  0.8860
 5138SOL     OW26872   2.674   3.846   3.899 -0.6546 -0.0631 -0.4596
 5138SOL    HW126873   2.641   3.781   3.837  2.6417 -0.1144 -2.1920
 5138SOL    HW226874   2.724   3.785   3.955  0.5248  0.3918 -1.0133
 5139SOL     OW26875   0.473   2.886   4.678 -0.5035  0.3096  0.2632
 5139SOL    HW126876   0.469   2.920   4.767  0.8007 -1.7976  1.1221
 5139SOL    HW226877   0.436   2.964   4.637 -1.3865 -0.3066 -0.0935
 5140SOL     OW26878   4.496   0.067   2.517  0.2328  0.4989 -0.3717
 5140SOL    HW126879   4.451   0.034   2.439 -0.6419  1.3426 -0.2315
 5140SOL    HW226880   4.514   0.154   2.483  0.2053 -0.2656 -2.3167
 5141SOL     OW26881   3.911   4.615   1.251 -0.5950  0.4917 -0.2864
 5141SOL    HW126882   4.005   4.611   1.238 -0.6489  1.0208 -0.8319
 5141SOL    HW226883   3.918   4.659   1.336 -0.2571 -0.8373  0.3727
 5142SOL     OW26884   4.585   0.100   5.182 -0.7787  0.2106  0.5582
 5142SOL    HW126885   4.607   0.191   5.163  0.4002 -0.0770  0.5175
 5142SOL    HW226886   4.541   0.085   5.098  1.4363 -1.7194 -0.2703
 5143SOL     OW26887   3.360   2.263  12.204 -0.2410 -0.6114 -0.2860
 5143SOL    HW126888   3.303   2.309  12.142  1.2732 -0.3945 -1.5231
 5143SOL    HW226889   3.324   2.305  12.282  0.1306 -2.9518  1.1789
 5144SOL     OW26890   2.111   1.314  16.012 -0.5478 -0.3292  0.0655
 5144SOL    HW126891   2.113   1.331  16.106  0.1175 -1.3361  0.2387
 5144SOL    HW226892   2.066   1.230  16.010 -0.7741 -0.1872 -0.8495
 5145SOL     OW26893   0.343   3.806  13.732 -0.3658  0.3848  0.2497
 5145SOL    HW126894   0.321   3.831  13.822 -2.3951 -1.2297  0.2041
 5145SOL    HW226895   0.438   3.818  13.735 -0.2266 -1.2452  2.3698
 5146SOL     OW26896   2.926   0.688   7.821  0.5023 -0.4986 -0.5622
 5146SOL    HW126897   2.868   0.765   7.817  3.4569  1.9180  2.9546
 5146SOL    HW226898   3.011   0.725   7.796  0.8573 -1.2564 -0.4535
 5147SOL     OW26899   1.870   2.263   5.511  0.4378  0.3394  0.2292
 5147SOL    HW126900   1.815   2.324   5.461 -1.1158  0.0893  1.6138
 5147SOL    HW226901   1.923   2.328   5.558 -0.1327 -0.3429  1.8359
 5148SOL     OW26902   4.329   3.024   7.557  0.4261  0.3420  0.3045
 5148SOL    HW126903   4.379   2.975   7.622  1.8024  2.3321  0.7650
 5148SOL    HW226904   4.319   3.111   7.597  1.5432  0.4058  0.4697
 5149SOL     OW26905   3.023   3.878  13.968 -0.3600 -0.2837 -0.5245
 5149SOL    HW126906   2.997   3.824  14.042 -0.3196 -1.4475 -1.3460
 5149SOL    HW226907   2.993   3.957  14.011 -0.4017 -0.2955 -0.5314
 5150SOL     OW26908   0.234   1.382  10.501  0.5286  0.3630  0.1114
 5150SOL    HW126909   0.277   1.441  10.440  0.7278 -0.5343 -0.6093
 5150SOL    HW226910   0.272   1.304  10.460  2.8178  0.6011  1.7707
 5151SOL     OW26911   4.401   4.335   4.118  0.2547  0.7157  0.1029
 5151SOL    HW126912   4.391   4.252   4.163  2.4391  0.3027 -0.1695
 5151SOL    HW226913   4.315   4.376   4.128  0.0543 -0.1587  1.9225
 5152SOL     OW26914   4.491   1.936   4.514 -0.2149 -0.4647  0.0253
 5152SOL    HW126915   4.561   1.955   4.451  0.1987 -0.3794  0.5120
 5152SOL    HW226916   4.461   2.022   4.544  3.3604  0.5812  0.7186
 5153SOL     OW26917   0.194   1.907   4.092  0.8240 -0.1591 -0.0664
 5153SOL    HW126918   0.219   1.850   4.165  1.0557 -0.1145 -0.1122
 5153SOL    HW226919   0.158   1.838   4.036  0.6385 -0.5747  0.5661
 5154SOL     OW26920   1.808   1.830   5.304 -0.3547 -0.4487  0.2382
 5154SOL    HW126921   1.747   1.891   5.345  0.6507 -0.6752  2.0626
 5154SOL    HW226922   1.869   1.819   5.377  1.2792  1.2121 -0.8463
 5155SOL     OW26923   3.712   0.533   2.941  0.3551 -0.0095 -0.0560
 5155SOL    HW126924   3.725   0.489   2.856 -0.1342  0.0617 -0.1678
 5155SOL    HW226925   3.767   0.478   2.997 -2.8176 -1.8981  1.1950
 5156SOL     OW26926   2.585   4.701   5.384  0.5318  0.3506  0.7134
 5156SOL    HW126927   2.543   4.721   5.468 -1.4253 -0.1589 -0.1484
 5156SOL    HW226928   2.669   4.673   5.421  0.1152 -1.8569 -0.0377
 5157SOL     OW26929   0.805   4.521   9.702 -0.2302  0.2515 -0.3674
 5157SOL    HW126930   0.806   4.436   9.746 -1.9627  0.3727 -0.0990
 5157SOL    HW226931   0.730   4.511   9.643  0.8933 -3.1655 -1.2110
 5158SOL     OW26932   3.925   0.467   1.815  0.0175 -0.2680  0.2848
 5158SOL    HW126933   3.876   0.461   1.733 -0.0264  0.2259  0.2749
 5158SOL    HW226934   3.987   0.394   1.811 -1.7340 -1.8095  1.2179
 5159SOL     OW26935   2.447   3.161   1.986 -0.2787  0.5096  0.2446
 5159SOL    HW126936   2.535   3.187   1.956  0.4451 -2.5088 -0.1917
 5159SOL    HW226937   2.395   3.233   1.950  2.4068  1.5583 -1.5962
 5160SOL     OW26938   3.102   3.007  14.424 -0.1494  0.9395 -0.3238
 5160SOL    HW126939   3.087   3.050  14.509  2.1365  1.1511 -0.0213
 5160SOL    HW226940   3.029   3.040  14.373  0.1730  0.2633 -1.2149
 5161SOL     OW26941   2.255   0.825   0.541  0.1051  0.1231  0.1333
 5161SOL    HW126942   2.212   0.757   0.594 -1.1572 -0.9096 -2.2044
 5161SOL    HW226943   2.305   0.867   0.611  1.2714 -1.7012  0.4002
 5162SOL     OW26944   0.630   2.772  17.643  0.3961 -0.0623 -0.0784
 5162SOL    HW126945   0.540   2.743  17.630  0.2459 -0.4001  1.6600
 5162SOL    HW226946   0.621   2.851   0.000 -0.8393 -0.0236 -0.3329
 5163SOL     OW26947   1.551   0.709  12.212 -0.1987 -0.3803  0.5484
 5163SOL    HW126948   1.613   0.648  12.171 -1.4629 -0.4477 -1.3041
 5163SOL    HW226949   1.489   0.721  12.139  1.0837 -0.5557 -0.5547
 5164SOL     OW26950   2.973   2.289   4.542  0.0050 -0.5105  0.2607
 5164SOL    HW126951   3.058   2.324   4.569  0.2879 -2.6915  2.2881
 5164SOL    HW226952   2.920   2.365   4.564  1.9837  1.2220 -1.0127
 5165SOL     OW26953   0.832   3.734   8.289 -0.4306 -0.1021  0.0317
 5165SOL    HW126954   0.737   3.731   8.294 -0.5910  1.0937 -2.1030
 5165SOL    HW226955   0.839   3.731   8.194 -2.7805  2.3387 -0.2242
 5166SOL     OW26956   1.566   0.651   4.437 -0.2594 -0.3193 -0.0725
 5166SOL    HW126957   1.603   0.599   4.365 -2.0883 -1.0415 -0.4931
 5166SOL    HW226958   1.519   0.705   4.374 -0.8436  0.4462  1.0267
 5167SOL     OW26959   3.881   1.577   6.494  0.2288 -0.3154 -0.2051
 5167SOL    HW126960   3.919   1.663   6.476  0.9078 -0.4113  0.7951
 5167SOL    HW226961   3.828   1.558   6.417 -1.2872  0.1820  0.7193
 5168SOL     OW26962   1.324   3.452   2.122  0.7208 -0.4696 -0.1981
 5168SOL    HW126963   1.294   3.515   2.057  3.4852  0.2261 -0.8116
 5168SOL    HW226964   1.321   3.377   2.063 -0.7899  0.4814 -1.3368
 5169SOL     OW26965   0.224   1.798   2.556 -0.1831 -0.1433 -0.0263
 5169SOL    HW126966   0.269   1.783   2.639 -0.8082 -0.3003  0.2797
 5169SOL    HW226967   0.298   1.829   2.503 -1.5472  0.0510 -1.8218
 5170SOL     OW26968   1.033   1.543  10.383  0.5345  0.3456 -0.1396
 5170SOL    HW126969   1.085   1.623  10.394 -2.0465  1.7773  1.6655
 5170SOL    HW226970   1.025   1.544  10.288 -1.8373  1.5804  0.0764
 5171SOL     OW26971   4.664   3.914   0.465 -0.0188  0.0821  0.2576
 5171SOL    HW126972   4.597   3.916   0.533 -2.2441  0.5033 -1.9319
 5171SOL    HW226973   4.709   3.995   0.488  0.3276  0.0995 -0.4810
 5172SOL     OW26974   2.193   2.725   7.423 -0.1453  0.4798  0.0055
 5172SOL    HW126975   2.149   2.790   7.368  0.1590  1.3465  0.7919
 5172SOL    HW226976   2.287   2.736   7.406 -0.3256  0.0676 -1.2523
 5173SOL     OW26977   2.269   1.402  15.652 -0.3944  0.5212  0.4352
 5173SOL    HW126978   2.219   1.442  15.581  0.1088 -0.7344 -0.6205
 5173SOL    HW226979   2.246   1.312  15.630  0.4175  0.2220  0.8073
 5174SOL     OW26980   2.747   1.634  11.973 -0.3448  0.4894  0.0500
 5174SOL    HW126981   2.733   1.558  12.029 -2.2566  0.9735  0.2302
 5174SOL    HW226982   2.798   1.600  11.899  0.0319  1.7788 -0.2795
 5175SOL     OW26983   2.752   0.580  16.291 -0.1618 -0.5252  0.4492
 5175SOL    HW126984   2.735   0.490  16.263 -1.2130 -0.5795  1.2736
 5175SOL    HW226985   2.848   0.577  16.287 -0.2113 -2.4302  0.5168
 5176SOL     OW26986   3.844   2.101   6.324 -0.0832 -0.5330  0.1054
 5176SOL    HW126987   3.895   2.106   6.243  0.6254 -0.7662  0.5425
 5176SOL    HW226988   3.893   2.163   6.379  0.3495 -1.8285  1.1763
 5177SOL     OW26989   4.331   1.397   7.796  0.4085 -0.2535  0.1217
 5177SOL    HW126990   4.311   1.304   7.789  1.1213 -0.4151  0.2295
 5177SOL    HW226991   4.425   1.396   7.778  0.4251  1.6497  0.0299
 5178SOL     OW26992   0.335   2.361  12.114 -0.2714 -0.7048  0.2691
 5178SOL    HW126993   0.355   2.323  12.028 -1.4266 -0.7481  0.0200
 5178SOL    HW226994   0.269   2.429  12.096  0.6501 -0.1330 -0.9662
 5179SOL     OW26995   1.413   1.621   9.541  0.4972  0.7771 -0.6645
 5179SOL    HW126996   1.339   1.605   9.600 -0.0455 -2.6990 -2.2575
 5179SOL    HW226997   1.456   1.535   9.544 -0.2880  0.3661 -1.1360
 5180SOL     OW26998   3.183   4.296   3.131 -0.1437  0.4254  0.0400
 5180SOL    HW126999   3.172   4.203   3.147  0.5322  0.1815 -0.8928
 5180SOL    HW227000   3.170   4.288   3.036 -0.0127 -0.3317  0.0921
 5181SOL     OW27001   2.378   1.581   1.091 -0.0235  0.2605  0.4252
 5181SOL    HW127002   2.392   1.523   1.016  0.9290  0.4183  0.4803
 5181SOL    HW227003   2.470   1.595   1.114  0.4299 -0.5612 -0.8716
 5182SOL     OW27004   0.097   4.277  16.812  0.3031  0.1143  0.4260
 5182SOL    HW127005   0.174   4.312  16.767  0.4834  0.7047  1.1966
 5182SOL    HW227006   0.060   4.244  16.730 -0.1570  2.3563 -0.2792
 5183SOL     OW27007   3.218   0.026  16.014  0.5806 -0.3878 -0.4849
 5183SOL    HW127008   3.312   0.007  16.011  0.5575 -0.3392 -1.3874
 5183SOL    HW227009   3.213   0.047  16.107 -1.0830 -2.6881 -0.0521
 5184SOL     OW27010   4.723   0.614   6.649  0.0019  0.0346 -0.2037
 5184SOL    HW127011   4.647   0.664   6.618 -0.0400  0.8918  1.3004
 5184SOL    HW227012   0.059   0.684   6.674  0.6568  0.2822 -2.4997
 5185SOL     OW27013   2.154   3.933   5.677  0.1693 -0.2697 -0.0044
 5185SOL    HW127014   2.119   3.845   5.688 -0.0143 -0.2160 -0.1511
 5185SOL    HW227015   2.090   3.983   5.728  1.0508  0.2719  0.5793
 5186SOL     OW27016   4.630   3.330  14.074 -0.8076  0.2817 -0.2535
 5186SOL    HW127017   4.600   3.275  14.002 -0.0863 -0.0321 -0.3156
 5186SOL    HW227018   4.687   3.391  14.026 -1.8869  0.7821 -0.8847
 5187SOL     OW27019   2.549   3.590  10.757  0.3234 -0.0558 -0.0262
 5187SOL    HW127020   2.598   3.657  10.709  0.4015 -1.6113 -2.1462
 5187SOL    HW227021   2.465   3.634  10.745 -0.2486 -0.9266  0.8638
 5188SOL     OW27022   1.520   2.639   7.832  0.2783  0.3105  0.1991
 5188SOL    HW127023   1.463   2.712   7.808 -1.1997 -0.4427  1.3982
 5188SOL    HW227024   1.521   2.632   7.927 -2.8574 -0.9093  0.1574
 5189SOL     OW27025   2.164   2.379   4.333 -0.1544 -0.1116 -0.0374
 5189SOL    HW127026   2.120   2.381   4.248 -2.1545 -0.9005  0.9888
 5189SOL    HW227027   2.179   2.470   4.358 -2.0223  0.6042 -1.5671
 5190SOL     OW27028   3.961   3.910   7.682  0.6050 -0.3873 -0.1254
 5190SOL    HW127029   3.983   4.003   7.693  0.7792 -0.4468  0.0353
 5190SOL    HW227030   4.047   3.867   7.681  0.6753 -0.1418 -2.7002
 5191SOL     OW27031   3.353   0.482   5.190 -0.3667  0.0952 -0.0016
 5191SOL    HW127032   3.447   0.497   5.201 -0.3951  0.0392  0.3260
 5191SOL    HW227033   3.315   0.523   5.268 -0.7299  0.3409 -0.3095
 5192SOL     OW27034   2.867   1.870   3.090  0.3435  0.2240  0.1149
 5192SOL    HW127035   2.909   1.794   3.129  0.0193  0.2262  0.4698
 5192SOL    HW227036   2.858   1.929   3.165 -0.7678  0.6154 -0.3192
 5193SOL     OW27037   1.865   4.021   3.749  0.0497 -0.3961 -0.0454
 5193SOL    HW127038   1.944   3.975   3.777  0.6585  0.7858  0.1560
 5193SOL    HW227039   1.815   4.024   3.830 -1.5425  1.6082 -1.1124
 5194SOL     OW27040   2.229   0.403  13.593  0.0759  0.0075  0.1504
 5194SOL    HW127041   2.287   0.459  13.643 -2.8590  0.4259  3.0573
 5194SOL    HW227042   2.143   0.442  13.610  0.4454  0.3307  1.2232
 5195SOL     OW27043   2.754   1.907   4.709  0.3302 -0.1917  0.5922
 5195SOL    HW127044   2.732   1.830   4.762  1.7995 -0.9155  0.1322
 5195SOL    HW227045   2.721   1.880   4.623  0.6007 -0.1474  0.4745
 5196SOL     OW27046   1.710   4.035   3.972 -0.4440 -0.3328 -0.0164
 5196SOL    HW127047   1.732   4.120   4.009  2.9004 -1.7414  1.1830
 5196SOL    HW227048   1.616   4.047   3.961 -0.8417 -0.4317  3.4674
 5197SOL     OW27049   3.930   3.939  15.377  0.2493  0.5944 -0.0169
 5197SOL    HW127050   3.844   3.941  15.420  1.4964 -0.7475  2.5360
 5197SOL    HW227051   3.983   3.981  15.445 -0.0482 -2.6010  2.1672
 5198SOL     OW27052   2.974   3.045  15.447  0.4125 -0.5227  0.3419
 5198SOL    HW127053   3.036   3.006  15.508 -1.1353 -0.9014  1.6796
 5198SOL    HW227054   2.888   3.028  15.486  0.8772 -1.4922  0.9429
 5199SOL     OW27055   3.511   1.954  15.924 -0.1730 -0.5401  0.3589
 5199SOL    HW127056   3.566   1.876  15.931  1.9758  1.0008  0.4107
 5199SOL    HW227057   3.427   1.915  15.898 -0.1455  0.7912 -1.7474
 5200SOL     OW27058   2.826   2.294  10.069 -0.4531  0.8183  0.2948
 5200SOL    HW127059   2.774   2.215  10.057  1.4882 -0.4514  0.3241
 5200SOL    HW227060   2.829   2.303  10.164 -1.1558  0.5050  0.3396
 5201SOL     OW27061   0.007   3.229  10.442 -0.3248 -0.5053 -0.1535
 5201SOL    HW127062   4.713   3.136  10.459 -1.8657  0.3920  3.2245
 5201SOL    HW227063   0.102   3.231  10.457 -0.2828 -2.5940 -0.1451
 5202SOL     OW27064   4.114   2.675   7.409  0.2062 -0.2089 -0.0157
 5202SOL    HW127065   4.161   2.607   7.457  0.2725 -1.0646 -1.2665
 5202SOL    HW227066   4.169   2.676   7.331 -0.3810 -3.2186 -0.5065
 5203SOL     OW27067   3.046   3.711  14.977 -0.3231 -0.0276  0.4064
 5203SOL    HW127068   3.103   3.652  14.927 -3.3016 -2.2262 -0.4255
 5203SOL    HW227069   3.087   3.790  14.942 -0.3547 -0.7579 -1.2842
 5204SOL     OW27070   1.462   0.884   3.828  0.0850 -0.9008 -0.1764
 5204SOL    HW127071   1.477   0.822   3.756 -1.8748  0.5025 -1.8105
 5204SOL    HW227072   1.480   0.967   3.783  2.6247 -1.5138 -0.3043
 5205SOL     OW27073   4.000   2.331  14.696  0.0918 -0.0861 -0.5990
 5205SOL    HW127074   3.995   2.423  14.671 -1.7003 -0.1545 -0.4783
 5205SOL    HW227075   4.042   2.325  14.782 -0.8490 -0.8425 -0.1978
 5206SOL     OW27076   4.119   1.895   3.923  0.7975 -0.1400 -0.3364
 5206SOL    HW127077   4.085   1.946   3.997 -1.3473  0.0082 -1.4251
 5206SOL    HW227078   4.133   1.964   3.858 -2.1402  0.0280 -0.8123
 5207SOL     OW27079   1.306   4.420   1.386 -0.3429  0.1292  0.9097
 5207SOL    HW127080   1.256   4.364   1.445 -1.5048  0.1347 -0.0725
 5207SOL    HW227081   1.366   4.362   1.338 -2.5237  0.1409 -1.8491
 5208SOL     OW27082   2.485   2.066   2.684  0.0448 -0.1306 -0.4462
 5208SOL    HW127083   2.425   2.005   2.640 -0.0123  0.1903 -0.8175
 5208SOL    HW227084   2.558   2.008   2.708  0.1162  0.2600  0.2514
 5209SOL     OW27085   2.831   2.728   8.597  0.3732 -0.0926 -0.1185
 5209SOL    HW127086   2.790   2.769   8.673 -2.1317  0.7451 -1.9298
 5209SOL    HW227087   2.893   2.794   8.566 -0.3107  0.3508 -0.5348
 5210SOL     OW27088   0.496   3.820  10.329  0.1404  0.3057 -0.2497
 5210SOL    HW127089   0.418   3.874  10.314  1.2229  1.7180 -0.7868
 5210SOL    HW227090   0.532   3.812  10.240  2.9316  0.5343  0.8558
 5211SOL     OW27091   1.616   1.935   9.001  0.2826 -0.0817  0.0735
 5211SOL    HW127092   1.529   1.910   9.034  1.0510  1.5976  3.3443
 5211SOL    HW227093   1.602   1.900   8.913  3.5749 -2.1820  0.3783
 5212SOL     OW27094   2.075   0.831   2.157 -0.2596  0.4758 -0.0522
 5212SOL    HW127095   1.990   0.810   2.196 -0.9230  1.7066 -0.8006
 5212SOL    HW227096   2.135   0.785   2.215  0.6013  2.4180  0.6017
 5213SOL     OW27097   2.093   3.371   4.200 -0.5344  0.3672  0.1778
 5213SOL    HW127098   2.059   3.301   4.143 -0.3871  0.9038 -0.5742
 5213SOL    HW227099   2.056   3.347   4.285 -1.0245 -1.7078 -0.6025
 5214SOL     OW27100   2.913   2.938  12.297 -0.0232 -0.5021 -0.2114
 5214SOL    HW127101   2.901   3.026  12.259 -1.3895 -0.7119 -0.2318
 5214SOL    HW227102   2.861   2.944  12.376  0.3879  0.0701  0.0182
 5215SOL     OW27103   0.009   3.316   3.928  0.0922  0.3686 -0.0898
 5215SOL    HW127104   4.709   3.230   3.962  0.6501  1.5179  3.2788
 5215SOL    HW227105   4.649   3.348   3.896  0.3147  2.1679  1.1077
 5216SOL     OW27106   1.575   3.523   0.447 -0.0099  0.4360  0.0445
 5216SOL    HW127107   1.592   3.489   0.535 -0.4653  0.7362  0.2502
 5216SOL    HW227108   1.650   3.583   0.451 -0.1764  0.4506  2.7953
 5217SOL     OW27109   1.849   4.448   1.570 -0.6813 -0.5492  0.5201
 5217SOL    HW127110   1.805   4.484   1.493 -0.3833  3.0053  2.0094
 5217SOL    HW227111   1.835   4.353   1.565  1.6786 -0.9213  1.1071
 5218SOL     OW27112   1.299   0.030  10.845  0.5659 -0.0306  0.1675
 5218SOL    HW127113   1.226   0.090  10.827 -0.5463 -1.0839  1.1527
 5218SOL    HW227114   1.364   0.093  10.874  2.1729 -1.0500 -1.2314
 5219SOL     OW27115   2.120   0.981   8.388  0.1198  0.5770 -0.0871
 5219SOL    HW127116   2.183   0.909   8.395  2.2516  2.6275  1.8490
 5219SOL    HW227117   2.070   0.955   8.311 -0.2383  0.0087  0.3398
 5220SOL     OW27118   3.867   3.853  15.738 -0.2963 -0.2359  0.1355
 5220SOL    HW127119   3.890   3.882  15.826 -1.0400  1.4199 -0.2164
 5220SOL    HW227120   3.953   3.842  15.698 -0.0986  1.0813  0.1981
 5221SOL     OW27121   2.511   2.652  12.668  0.3401  0.4084  0.6019
 5221SOL    HW127122   2.445   2.617  12.607 -2.2068  1.1210  2.9393
 5221SOL    HW227123   2.587   2.665  12.612  0.4010 -1.4419  0.2439
 5222SOL     OW27124   4.496   3.677   2.547 -0.7786 -0.2236 -0.1955
 5222SOL    HW127125   4.445   3.758   2.547  1.1776  1.0091 -0.5142
 5222SOL    HW227126   4.527   3.692   2.458  3.6520  0.2763  1.4095
 5223SOL     OW27127   0.100   2.576   3.194 -0.1449 -0.2114  0.1062
 5223SOL    HW127128   0.166   2.641   3.170  0.0021  0.2222  1.6803
 5223SOL    HW227129   0.061   2.548   3.112  1.7001 -0.5329 -0.6531
 5224SOL     OW27130   1.673   2.032   5.411 -0.1582  0.3741 -0.2810
 5224SOL    HW127131   1.589   2.013   5.454 -0.3793  1.1770 -0.3569
 5224SOL    HW227132   1.687   2.122   5.438  0.2237  0.2846 -0.1762
 5225SOL     OW27133   2.220   1.733   6.021 -0.0232  0.3052 -0.4157
 5225SOL    HW127134   2.165   1.712   5.945 -2.6593 -3.3325  2.4813
 5225SOL    HW227135   2.262   1.815   5.996 -0.8254  0.9683  0.4068
 5226SOL     OW27136   0.254   4.163  17.661  0.0006  0.1854  0.6045
 5226SOL    HW127137   0.343   4.150  17.628 -0.2905  1.1366 -0.5686
 5226SOL    HW227138   0.261   4.107   0.042  0.6940  0.8417  1.0136
 5227SOL     OW27139   2.230   1.106   6.590 -0.1992  0.2636 -0.0594
 5227SOL    HW127140   2.226   1.083   6.497  0.8737 -1.8879  0.4399
 5227SOL    HW227141   2.260   1.026   6.632 -1.3746 -0.7898 -1.2185
 5228SOL     OW27142   2.538   4.501   3.832  0.3748  0.1044 -0.1087
 5228SOL    HW127143   2.587   4.579   3.857 -1.5210  1.0652  0.5933
 5228SOL    HW227144   2.618   4.457   3.801  0.2051 -0.0498 -0.3208
 5229SOL     OW27145   1.678   2.685   0.478 -0.4886 -0.3980 -0.1062
 5229SOL    HW127146   1.593   2.725   0.458  0.6601  2.3628  0.5013
 5229SOL    HW227147   1.684   2.711   0.570 -2.0275  1.7980 -0.6168
 5230SOL     OW27148   2.901   2.885   2.815 -0.3435 -0.0304 -0.4180
 5230SOL    HW127149   2.861   2.806   2.778 -0.5356 -0.4014  0.5844
 5230SOL    HW227150   2.915   2.933   2.734  0.9580 -1.3649 -0.9899
 5231SOL     OW27151   0.279   0.843   7.712 -0.0172  0.1729  0.6347
 5231SOL    HW127152   0.336   0.782   7.759  0.2833 -0.2328 -0.2599
 5231SOL    HW227153   0.193   0.806   7.730 -0.3948 -0.7873 -3.0568
 5232SOL     OW27154   4.313   3.849   8.713  0.1600  0.2542 -0.1447
 5232SOL    HW127155   4.221   3.865   8.692  0.2790 -1.7567 -2.2081
 5232SOL    HW227156   4.293   3.767   8.758  0.8333 -1.1842 -2.4577
 5233SOL     OW27157   2.357   2.137   7.115 -0.5285  0.0122 -0.2263
 5233SOL    HW127158   2.381   2.227   7.093  1.2735  0.0893  1.9941
 5233SOL    HW227159   2.407   2.128   7.196  1.0888 -1.2314 -1.3734
 5234SOL     OW27160   0.998   2.777   0.979  0.1073 -0.7897 -0.3852
 5234SOL    HW127161   1.046   2.768   0.897  0.0999 -0.3389 -0.4382
 5234SOL    HW227162   0.985   2.692   1.022 -0.5408 -0.4181  0.1501
 5235SOL     OW27163   0.123   3.925   3.503  0.2252 -0.0836  0.3116
 5235SOL    HW127164   0.087   3.853   3.555 -0.1807  0.7044  1.1063
 5235SOL    HW227165   0.200   3.876   3.472  1.3675  2.0529 -0.2425
 5236SOL     OW27166   2.327   0.078   5.321  0.0275 -0.0583  0.4500
 5236SOL    HW127167   2.248   0.119   5.357 -1.3454 -0.7694 -1.7489
 5236SOL    HW227168   2.387   0.096   5.393 -0.3827 -2.7426  1.4299
 5237SOL     OW27169   3.836   4.556   7.081  0.5061 -0.2983  0.1589
 5237SOL    HW127170   3.774   4.615   7.039 -0.1538 -0.5574  0.7596
 5237SOL    HW227171   3.788   4.551   7.164 -3.2681 -1.9279 -2.0968
 5238SOL     OW27172   0.106   4.223   2.114  0.5736  0.2422  1.0034
 5238SOL    HW127173   0.035   4.287   2.119 -0.6354 -1.1594  1.9241
 5238SOL    HW227174   0.163   4.250   2.187  0.5038  0.1375  1.0973
 5239SOL     OW27175   4.359   3.604   4.242  0.4140  0.5865  0.3073
 5239SOL    HW127176   4.345   3.668   4.312 -1.2461  0.5368  0.0164
 5239SOL    HW227177   4.388   3.532   4.298  2.7613  1.8955  0.7859
 5240SOL     OW27178   4.580   2.123   6.205 -0.1687 -0.6286 -0.0534
 5240SOL    HW127179   4.668   2.151   6.182 -0.5362  0.9344  0.4416
 5240SOL    HW227180   4.575   2.028   6.213  1.1777 -0.9669 -3.1665
 5241SOL     OW27181   1.243   3.688   3.631 -0.2609 -0.4043 -0.5201
 5241SOL    HW127182   1.310   3.712   3.567  0.4304 -1.7077 -0.2980
 5241SOL    HW227183   1.178   3.640   3.580  0.0157 -2.2434  0.8321
 5242SOL     OW27184   1.413   2.434   4.370 -0.5218 -0.0111  0.3012
 5242SOL    HW127185   1.425   2.528   4.359  1.4245 -0.0408  2.1994
 5242SOL    HW227186   1.471   2.402   4.301 -1.3665 -2.8903  0.8977
 5243SOL     OW27187   2.036   2.970   4.581 -0.2765 -0.5682 -0.2115
 5243SOL    HW127188   2.112   2.947   4.635 -0.4872 -0.4610  0.1296
 5243SOL    HW227189   2.004   2.881   4.567  1.1008 -0.9855 -0.7717
 5244SOL     OW27190   3.857   3.696   4.545  0.4168 -0.4352 -0.2242
 5244SOL    HW127191   3.791   3.661   4.486 -1.1234 -0.6287  1.6126
 5244SOL    HW227192   3.848   3.787   4.517 -1.6839 -0.5906 -0.0755
 5245SOL     OW27193   4.353   2.868   6.919 -0.0318  0.7917  0.6420
 5245SOL    HW127194   4.446   2.851   6.913  0.1448  1.8005  0.4804
 5245SOL    HW227195   4.318   2.784   6.889 -0.8314  2.3602 -2.7788
 5246SOL     OW27196   0.590   2.309  16.965  0.2958  0.1941 -0.3503
 5246SOL    HW127197   0.609   2.215  16.961  2.9274  0.7028  0.6697
 5246SOL    HW227198   0.648   2.332  16.893  0.1940  1.5631  0.0142
 5247SOL     OW27199   4.695   3.786  12.049 -0.1705  0.0940  0.0239
 5247SOL    HW127200   0.013   3.803  11.964  0.4576  0.5999  0.4341
 5247SOL    HW227201   4.616   3.839  12.043 -1.7395 -2.4963 -2.6317
 5248SOL     OW27202   1.785   0.740   0.111 -0.4965  0.6197  0.0746
 5248SOL    HW127203   1.796   0.798   0.187  0.5615  1.2416 -0.5523
 5248SOL    HW227204   1.879   0.723   0.107 -0.2342  1.2326  3.3248
 5249SOL     OW27205   3.449   1.640   7.684  0.1696  1.0796 -0.1432
 5249SOL    HW127206   3.530   1.605   7.646  0.6316 -1.1356  2.7775
 5249SOL    HW227207   3.392   1.658   7.610 -1.7355 -1.1200  0.8170
 5250SOL     OW27208   0.664   1.469   4.400  0.4604 -0.3306 -0.0885
 5250SOL    HW127209   0.679   1.384   4.359  0.2276 -0.1318 -0.5835
 5250SOL    HW227210   0.655   1.440   4.491 -3.1661  2.4529  0.4553
 5251SOL     OW27211   1.799   4.508   4.936 -0.0929  0.1380 -0.2058
 5251SOL    HW127212   1.712   4.516   4.975  0.9718  3.0984  1.5515
 5251SOL    HW227213   1.836   4.594   4.918 -2.2016  1.0315 -0.3534
 5252SOL     OW27214   3.913   4.004  10.751 -0.5605  0.4947 -0.3343
 5252SOL    HW127215   3.954   3.963  10.828  1.0643 -0.4725 -1.7309
 5252SOL    HW227216   3.962   4.084  10.736  1.1894 -0.1165  2.0269
 5253SOL     OW27217   2.182   1.534   3.858 -0.3893  0.0559 -0.0002
 5253SOL    HW127218   2.102   1.492   3.891 -1.5391  0.9982 -1.5867
 5253SOL    HW227219   2.179   1.615   3.910  0.5803 -0.4506  0.8485
 5254SOL     OW27220   3.425   0.700  16.727 -0.1185  0.3361 -0.4930
 5254SOL    HW127221   3.376   0.670  16.650  0.8946  2.4691 -1.9593
 5254SOL    HW227222   3.513   0.708  16.690 -0.8691 -0.2960 -2.4284
 5255SOL     OW27223   2.382   4.353   6.330 -0.2500 -0.3767 -0.5280
 5255SOL    HW127224   2.372   4.259   6.315  0.3958 -0.6700  0.9195
 5255SOL    HW227225   2.399   4.372   6.238  2.1585  1.7079  0.3542
 5256SOL     OW27226   0.626   0.781   4.452  0.4047 -0.0126  0.0435
 5256SOL    HW127227   0.629   0.758   4.360  1.0993  0.7562 -0.1286
 5256SOL    HW227228   0.713   0.749   4.477 -0.1037 -2.2512 -1.0767
 5257SOL     OW27229   0.909   0.252   0.276 -0.4086  0.5146  0.5997
 5257SOL    HW127230   0.944   0.180   0.329 -0.8224  1.2900  1.9275
 5257SOL    HW227231   0.983   0.312   0.275 -0.3067  0.3885  0.4982
 5258SOL     OW27232   0.006   0.952   0.720  0.0983  0.2800  0.6215
 5258SOL    HW127233   0.074   0.887   0.707 -0.6642 -0.9912  3.0604
 5258SOL    HW227234   4.646   0.914   0.692  0.4150  0.7442 -0.9343
 5259SOL     OW27235   0.541   3.563   4.232  0.0563 -0.0127  0.4248
 5259SOL    HW127236   0.519   3.624   4.162  2.9311  0.3153 -0.1751
 5259SOL    HW227237   0.524   3.473   4.202 -1.9214  0.3381  0.5134
 5260SOL     OW27238   1.592   1.378  11.876  0.3911 -0.4112 -0.0388
 5260SOL    HW127239   1.677   1.371  11.833  1.0463 -1.8551  1.5066
 5260SOL    HW227240   1.605   1.427  11.957 -0.7030 -0.6064  0.2489
 5261SOL     OW27241   3.825   0.295   4.139 -0.1400 -0.5164  0.3635
 5261SOL    HW127242   3.920   0.312   4.140 -0.1598 -0.3088 -1.0745
 5261SOL    HW227243   3.823   0.206   4.174  1.0775 -0.3666  0.8453
 5262SOL     OW27244   1.750   1.002  14.413 -0.5416 -0.3074 -0.2655
 5262SOL    HW127245   1.665   1.004  14.456 -0.9609  0.2626 -1.1144
 5262SOL    HW227246   1.727   0.970  14.326  1.5222 -0.2525 -0.8471
 5263SOL     OW27247   2.406   1.472   6.384  0.0057  0.2912 -0.0382
 5263SOL    HW127248   2.400   1.387   6.341 -3.1738  0.3922  0.1473
 5263SOL    HW227249   2.331   1.467   6.443 -0.6510 -1.7790 -1.0698
 5264SOL     OW27250   4.142   0.928   6.268  0.2588 -0.0916  0.1756
 5264SOL    HW127251   4.196   1.001   6.239 -0.3295 -0.6767 -2.4559
 5264SOL    HW227252   4.141   0.877   6.187  0.6033  2.5002 -1.4325
 5265SOL     OW27253   3.242   1.958   3.603 -0.1697  0.2651  0.0453
 5265SOL    HW127254   3.331   1.993   3.609  0.0392 -0.5425  1.6042
 5265SOL    HW227255   3.271   1.868   3.585 -0.6899  0.0085  0.4992
 5266SOL     OW27256   3.704   0.107   8.301  0.8504 -0.0034 -0.6008
 5266SOL    HW127257   3.673   0.190   8.264 -1.3340  0.1871  1.6720
 5266SOL    HW227258   3.799   0.118   8.308  0.7938  0.3185 -0.3104
 5267SOL     OW27259   2.411   2.488   9.475  0.3231 -0.3067 -0.2791
 5267SOL    HW127260   2.449   2.571   9.445 -1.0301  0.7405  0.8753
 5267SOL    HW227261   2.489   2.434   9.479  1.0054  0.5471 -1.8558
 5268SOL     OW27262   1.369   0.360   2.732 -0.5374  0.3482  0.4129
 5268SOL    HW127263   1.424   0.434   2.704  0.6620 -1.2575 -1.5210
 5268SOL    HW227264   1.345   0.308   2.655  1.5303 -0.5334  0.3606
 5269SOL     OW27265   0.660   0.718  14.012 -0.4309  0.0803  0.1831
 5269SOL    HW127266   0.672   0.780  14.084  0.7926  3.6251 -3.0822
 5269SOL    HW227267   0.601   0.659  14.060  1.7741 -2.2877  0.0214
 5270SOL     OW27268   3.400   0.577   1.484 -0.0875  0.0388  0.3266
 5270SOL    HW127269   3.373   0.572   1.576 -0.0815 -0.6558  0.2896
 5270SOL    HW227270   3.317   0.592   1.440  1.0652 -0.5186 -2.0313
 5271SOL     OW27271   4.694   3.245  11.520 -0.0348 -0.2504 -0.1403
 5271SOL    HW127272   0.053   3.221  11.562 -0.2302 -1.8651 -0.6840
 5271SOL    HW227273   4.713   3.225  11.429 -0.6327  0.6343 -0.4603
 5272SOL     OW27274   2.359   2.379   8.499 -0.3344  0.5534  0.4686
 5272SOL    HW127275   2.399   2.464   8.517  1.8715 -0.0754 -1.5477
 5272SOL    HW227276   2.377   2.367   8.406  1.5395  1.8824  0.6587
 5273SOL     OW27277   3.622   4.231   2.614 -0.2818 -0.5826  0.1080
 5273SOL    HW127278   3.704   4.248   2.568 -0.3117 -0.2977  0.1613
 5273SOL    HW227279   3.651   4.278   2.692 -0.1915 -1.2660  0.4910
 5274SOL     OW27280   0.975   1.207  15.327 -0.1677  0.1119  0.4323
 5274SOL    HW127281   0.883   1.225  15.349 -0.0561 -0.7139  1.5662
 5274SOL    HW227282   1.000   1.300  15.324  1.7478 -0.5460 -3.5023
 5275SOL     OW27283   2.003   2.055   4.674  0.0312 -0.0469 -0.5233
 5275SOL    HW127284   1.998   1.966   4.638  2.3465  0.5407 -2.2284
 5275SOL    HW227285   1.912   2.073   4.700 -0.4991 -1.3481 -1.4684
 5276SOL     OW27286   2.519   4.188   8.241  0.5513 -0.1616 -0.3768
 5276SOL    HW127287   2.528   4.283   8.230  2.2230 -0.1797  0.7394
 5276SOL    HW227288   2.606   4.169   8.206  0.7946 -1.3461  0.8716
 5277SOL     OW27289   0.331   0.130   2.474  0.4039  0.4364  0.2975
 5277SOL    HW127290   0.354   0.100   2.561  0.6946  0.2343  0.1494
 5277SOL    HW227291   0.278   0.063   2.431  1.8057 -0.4683 -0.0166
 5278SOL     OW27292   4.054   1.768  17.491 -0.1017  0.3915  0.3367
 5278SOL    HW127293   4.118   1.827  17.530  0.1263  0.8692 -0.7782
 5278SOL    HW227294   4.017   1.731  17.572  0.1214 -1.5494 -0.4382
 5279SOL     OW27295   4.684   3.664   2.739  0.3677  0.4420  0.0594
 5279SOL    HW127296   4.671   3.574   2.769 -0.5203 -0.4620 -3.0473
 5279SOL    HW227297   4.620   3.673   2.669 -0.7558 -2.8236  0.6526
 5280SOL     OW27298   0.819   1.718   8.865  0.3827 -0.1951  0.2637
 5280SOL    HW127299   0.893   1.776   8.845 -0.0522  0.5865  0.9610
 5280SOL    HW227300   0.754   1.781   8.896  0.1750 -0.9744  1.3768
 5281SOL     OW27301   0.360   2.704   4.070  0.4218 -0.6596 -0.8294
 5281SOL    HW127302   0.349   2.795   4.098  0.9599 -0.0577 -2.6177
 5281SOL    HW227303   0.365   2.709   3.975  0.6839 -2.1756 -0.8934
 5282SOL     OW27304   1.967   4.457  15.236 -0.5355  0.0998  0.4766
 5282SOL    HW127305   1.891   4.422  15.187  0.7101 -1.0269 -0.6648
 5282SOL    HW227306   1.997   4.527  15.179  0.3177 -0.2631  0.4851
 5283SOL     OW27307   2.205   3.594   3.256  0.9110 -0.3271  0.2446
 5283SOL    HW127308   2.249   3.562   3.335  0.2843  0.0482  0.7487
 5283SOL    HW227309   2.237   3.684   3.247 -2.3526  0.9364  1.3649
 5284SOL     OW27310   2.642   0.840   5.347  0.3086  0.2915 -0.2428
 5284SOL    HW127311   2.636   0.854   5.441  1.2220 -1.2792  0.0401
 5284SOL    HW227312   2.552   0.867   5.327  0.4937  0.2274 -1.1885
 5285SOL     OW27313   4.226   2.790   8.608  0.3281 -0.0372 -0.4237
 5285SOL    HW127314   4.308   2.792   8.657  0.5053  0.1299 -0.7198
 5285SOL    HW227315   4.229   2.876   8.564  2.4728  1.1581  2.0864
 5286SOL     OW27316   2.310   1.482   4.976  0.0898  0.1657  0.0165
 5286SOL    HW127317   2.404   1.472   4.961  0.6702  1.6673  2.6233
 5286SOL    HW227318   2.278   1.392   4.970 -1.6886  0.9412 -1.9361
 5287SOL     OW27319   2.514   1.396  11.142 -0.3729 -0.6122  0.1425
 5287SOL    HW127320   2.560   1.373  11.223 -0.4850  0.3522  0.4765
 5287SOL    HW227321   2.585   1.448  11.103 -0.3419 -0.0321  0.9903
 5288SOL     OW27322   2.899   1.622   3.172 -0.0959 -0.4509  0.3169
 5288SOL    HW127323   2.864   1.616   3.083 -0.9327 -0.5813  0.6617
 5288SOL    HW227324   2.977   1.567   3.165  0.3513  0.3548 -1.1160
 5289SOL     OW27325   1.969   2.251  11.014  0.2502  0.5721 -0.2247
 5289SOL    HW127326   1.912   2.246  11.091  0.4997  0.4967 -0.0455
 5289SOL    HW227327   2.006   2.337  11.031  1.8242  0.0415 -0.9068
 5290SOL     OW27328   0.263   2.898  11.518  0.0944 -0.2977  0.6028
 5290SOL    HW127329   0.170   2.918  11.524  0.5405  1.9805 -0.1072
 5290SOL    HW227330   0.262   2.859  11.431  0.1358  0.3884  0.2968
 5291SOL     OW27331   0.166   0.312   2.695 -0.0115 -0.0406  0.1095
 5291SOL    HW127332   0.082   0.338   2.732 -1.1218  0.0724 -2.5402
 5291SOL    HW227333   0.140   0.232   2.650 -3.4874  0.6133  0.9947
 5292SOL     OW27334   2.050   3.355   4.467 -0.1260  0.1436 -0.1818
 5292SOL    HW127335   2.024   3.316   4.550  0.7769  0.4312  0.2393
 5292SOL    HW227336   2.021   3.444   4.488 -1.1245 -0.2181 -0.0620
 5293SOL     OW27337   0.073   2.645  11.590 -0.5133 -0.2472 -0.2710
 5293SOL    HW127338   0.081   2.672  11.681 -0.5391 -1.0799 -0.0267
 5293SOL    HW227339   0.012   2.717  11.570  1.8953  1.7910 -0.2615
 5294SOL     OW27340   3.254   1.081   2.502 -0.2564  0.4046 -0.3208
 5294SOL    HW127341   3.242   1.044   2.414 -1.4886 -0.6978  0.3129
 5294SOL    HW227342   3.349   1.078   2.513 -0.3654  1.2020  0.8016
 5295SOL     OW27343   3.095   0.287  15.902 -0.2586  0.0006 -0.4563
 5295SOL    HW127344   3.142   0.329  15.975  0.9673  2.9570 -2.9411
 5295SOL    HW227345   3.107   0.344  15.826 -0.0617  1.9458  1.0097
 5296SOL     OW27346   2.868   3.069   0.547  0.3209  0.9114  0.0044
 5296SOL    HW127347   2.796   3.011   0.574  1.9300 -0.1431  1.9701
 5296SOL    HW227348   2.817   3.134   0.498  0.8535  1.7747  0.6093
 5297SOL     OW27349   4.059   3.495   4.547 -0.1184  0.4240 -0.3596
 5297SOL    HW127350   4.115   3.547   4.606  0.9985  0.1094 -1.1420
 5297SOL    HW227351   3.983   3.553   4.547 -2.0910 -2.1730  0.7215
 5298SOL     OW27352   2.988   0.463   4.447 -0.1972 -0.2264 -0.5111
 5298SOL    HW127353   2.962   0.555   4.453 -1.6225 -0.6134 -0.5854
 5298SOL    HW227354   3.078   0.485   4.421 -1.5545  3.3718 -2.2494
 5299SOL     OW27355   0.297   4.596   1.950  0.2478 -0.2317 -0.0495
 5299SOL    HW127356   0.302   4.506   1.916 -0.4327 -0.6828  1.0358
 5299SOL    HW227357   0.214   4.613   1.905 -0.7574  0.7676  2.1941
 5300SOL     OW27358   3.002   4.636   8.898  0.1788  0.1312  0.1659
 5300SOL    HW127359   3.020   4.554   8.944 -1.7707  0.5784  1.7473
 5300SOL    HW227360   2.916   4.620   8.861  0.4785  0.1965 -0.5556
 5301SOL     OW27361   3.654   1.731  17.556  0.5445  0.0519 -0.2338
 5301SOL    HW127362   3.573   1.780  17.572 -0.1250 -0.9220 -0.6038
 5301SOL    HW227363   3.715   1.761  17.622  0.3680 -0.2281  0.0592
 5302SOL     OW27364   0.738   3.167  11.527 -0.3080 -0.1123  0.3231
 5302SOL    HW127365   0.753   3.090  11.472  1.0568  0.1592  0.3079
 5302SOL    HW227366   0.680   3.131  11.594 -1.3448  1.2553  0.1612
 5303SOL     OW27367   2.241   4.140  10.691 -0.6206 -0.9701 -0.5079
 5303SOL    HW127368   2.330   4.175  10.698  0.0014 -2.3011 -1.7713
 5303SOL    HW227369   2.202   4.152  10.778 -0.6572 -1.2501 -0.4846
 5304SOL     OW27370   1.049   2.138   0.511  0.0605  0.1582  0.9085
 5304SOL    HW127371   1.042   2.233   0.524 -0.0042  0.3894 -0.7482
 5304SOL    HW227372   1.133   2.138   0.465 -1.4677 -1.0127 -1.8838
 5305SOL     OW27373   1.246   2.191   4.325  0.3737  0.2761  0.1836
 5305SOL    HW127374   1.277   2.274   4.361 -1.8530  0.0992  2.4926
 5305SOL    HW227375   1.163   2.222   4.288  0.9256  0.1435 -1.1594
 5306SOL     OW27376   2.433   3.348   1.213 -0.5427 -0.3208 -0.1158
 5306SOL    HW127377   2.408   3.391   1.295  0.9989  1.4790 -0.5975
 5306SOL    HW227378   2.486   3.412   1.167 -0.0013 -1.0978 -0.5701
 5307SOL     OW27379   0.309   0.008   6.711 -0.2152  0.3957 -0.0303
 5307SOL    HW127380   0.234   4.715   6.767 -0.5637 -2.1442 -1.2476
 5307SOL    HW227381   0.296   0.102   6.702 -1.6043 -0.0143 -2.4411
 5308SOL     OW27382   0.870   3.507  17.065 -0.0246  0.3113  0.3368
 5308SOL    HW127383   0.810   3.567  17.109 -1.2965 -1.0266  0.4382
 5308SOL    HW227384   0.858   3.539  16.976 -1.8485  0.4622  0.6308
 5309SOL     OW27385   3.623   2.184   6.056  0.6177 -0.2102 -0.1327
 5309SOL    HW127386   3.544   2.228   6.026  1.8407  1.5737 -0.7098
 5309SOL    HW227387   3.635   2.214   6.146 -1.7417  1.8707 -0.5257
 5310SOL     OW27388   1.954   2.750   8.860 -0.2252  0.4019  0.1102
 5310SOL    HW127389   1.919   2.710   8.940  1.8692 -2.4835 -0.3960
 5310SOL    HW227390   1.978   2.669   8.813 -0.8459  1.2906 -1.7515
 5311SOL     OW27391   2.563   0.309  16.465 -0.1750 -0.0289  0.0440
 5311SOL    HW127392   2.571   0.216  16.486  0.3190  0.2365  1.0298
 5311SOL    HW227393   2.474   0.316  16.432 -0.0460 -1.1194 -0.5351
 5312SOL     OW27394   1.177   0.768   4.305 -0.5301  0.4206  0.1379
 5312SOL    HW127395   1.158   0.774   4.399  0.4225 -0.0580  0.3648
 5312SOL    HW227396   1.193   0.860   4.286  1.0933  0.3246  1.0071
 5313SOL     OW27397   4.058   3.338   1.380 -0.5509 -0.2542  0.0072
 5313SOL    HW127398   4.134   3.288   1.348 -1.3505 -3.6115  3.3838
 5313SOL    HW227399   4.088   3.423   1.349 -1.5475  0.8709  2.1690
 5314SOL     OW27400   2.291   2.684   6.136 -0.5740 -0.2294  0.2736
 5314SOL    HW127401   2.383   2.707   6.127  0.0508 -2.7526  0.2699
 5314SOL    HW227402   2.243   2.766   6.120  1.4087  0.5545 -1.5021
 5315SOL     OW27403   2.641   1.165   6.161  0.2583  0.5217  0.2964
 5315SOL    HW127404   2.687   1.209   6.233 -2.9691  4.5551 -0.0997
 5315SOL    HW227405   2.651   1.223   6.085 -0.9147 -2.8778 -2.4852
 5316SOL     OW27406   2.800   2.424   8.912  0.1641 -0.0263  0.0852
 5316SOL    HW127407   2.880   2.468   8.884 -0.9179  1.7664 -0.1654
 5316SOL    HW227408   2.766   2.370   8.841 -3.1282  0.3597  1.3741
 5317SOL     OW27409   3.652   0.053   1.487  0.0090 -0.4683 -0.0348
 5317SOL    HW127410   3.592   0.120   1.455  1.1067  0.2486 -0.6152
 5317SOL    HW227411   3.603   4.699   1.512  1.7542 -1.0358  1.6060
 5318SOL     OW27412   2.798   0.242   2.542 -0.1351 -0.0797  0.8099
 5318SOL    HW127413   2.770   0.151   2.542  0.8381 -0.3779 -1.1628
 5318SOL    HW227414   2.831   0.246   2.452  1.8817 -1.6702  1.4725
 5319SOL     OW27415   3.480   0.320   7.768  0.4553  0.1079 -0.6670
 5319SOL    HW127416   3.510   0.397   7.719 -0.0726  0.4155 -0.5013
 5319SOL    HW227417   3.425   0.368   7.829 -0.2370 -1.1532 -0.3086
 5320SOL     OW27418   0.052   4.707   7.815  0.4129 -0.4951  0.1723
 5320SOL    HW127419   0.095   0.068   7.802 -1.7307  0.5662  0.0518
 5320SOL    HW227420   4.711   4.718   7.745  0.7575 -1.0115 -0.2234
 5321SOL     OW27421   0.675   0.148   3.430  0.1118 -0.4199  0.0776
 5321SOL    HW127422   0.761   0.106   3.436  0.3579  0.0622 -0.0902
 5321SOL    HW227423   0.645   0.120   3.517 -1.3295  0.6889 -0.0555
 5322SOL     OW27424   1.800   2.756   3.424  0.0617  0.6144 -0.0562
 5322SOL    HW127425   1.833   2.775   3.512 -2.2445  0.7484  0.7781
 5322SOL    HW227426   1.857   2.817   3.379  2.0935 -1.5548 -0.4138
 5323SOL     OW27427   0.529   1.590  14.895 -0.1540  0.4275  0.1268
 5323SOL    HW127428   0.602   1.651  14.897  0.1934  0.0711 -1.2175
 5323SOL    HW227429   0.494   1.609  14.808 -0.9419  0.6379  0.4882
 5324SOL     OW27430   2.775   3.199  12.315  0.3439 -0.6612 -0.3546
 5324SOL    HW127431   2.764   3.288  12.347  0.0235 -0.6428 -0.5135
 5324SOL    HW227432   2.742   3.207  12.226  0.2116  1.1196 -0.1426
 5325SOL     OW27433   2.282   0.864   3.493 -0.4235  0.5925 -0.3445
 5325SOL    HW127434   2.298   0.958   3.486 -1.2037  0.7488 -0.0013
 5325SOL    HW227435   2.370   0.828   3.484 -0.1917  0.8635  0.8213
 5326SOL     OW27436   3.034   1.014   5.865  0.4600 -0.1574  0.2352
 5326SOL    HW127437   3.055   1.082   5.930 -0.5002 -1.1820  1.6096
 5326SOL    HW227438   3.054   0.939   5.920  0.1228 -0.2117  0.2830
 5327SOL     OW27439   0.686   2.479  14.694 -0.1245  0.3728  0.1312
 5327SOL    HW127440   0.738   2.445  14.621  0.6326  1.0443  0.3577
 5327SOL    HW227441   0.729   2.564  14.699  1.6532 -0.6062  1.6571
 5328SOL     OW27442   1.318   4.080   6.925  0.0633 -0.0365  0.0223
 5328SOL    HW127443   1.335   4.156   6.869  2.5140  0.0073  0.8357
 5328SOL    HW227444   1.342   4.110   7.012 -1.2959  1.7294 -0.2194
 5329SOL     OW27445   3.330   2.573   3.945 -1.1210 -0.9884  0.0172
 5329SOL    HW127446   3.416   2.604   3.916 -1.7541 -0.6450 -1.5432
 5329SOL    HW227447   3.326   2.498   3.885 -0.5346 -0.0259 -1.2419
 5330SOL     OW27448   0.134   4.629   2.903 -0.0304 -0.2996  0.6569
 5330SOL    HW127449   0.099   4.580   2.828 -0.8487  0.4101  0.5723
 5330SOL    HW227450   0.052   4.659   2.943 -0.4085  0.0256 -0.3688
 5331SOL     OW27451   0.909   3.052   3.160 -0.2498  0.2809 -0.2246
 5331SOL    HW127452   0.885   3.050   3.253  1.2834  2.2119  0.2203
 5331SOL    HW227453   0.999   3.019   3.165 -0.4375 -0.4476 -1.5091
 5332SOL     OW27454   3.028   2.710   2.116 -0.0399  0.0156 -0.2856
 5332SOL    HW127455   3.090   2.779   2.139 -0.4416 -0.1511  1.2882
 5332SOL    HW227456   2.991   2.751   2.038 -0.9669 -0.0479  0.1288
 5333SOL     OW27457   0.166   2.789   7.308 -0.3400 -0.7025 -0.4767
 5333SOL    HW127458   0.142   2.775   7.216  1.0644 -1.4676 -0.7181
 5333SOL    HW227459   0.210   2.873   7.296 -1.7712 -0.1308 -1.8304
 5334SOL     OW27460   3.810   3.734   1.334 -0.0647  0.2242  0.6685
 5334SOL    HW127461   3.872   3.745   1.406  0.0607  0.7754  0.4747
 5334SOL    HW227462   3.806   3.639   1.320  2.7699  0.0754  0.8752
 5335SOL     OW27463   2.524   2.927   6.104 -0.2090  0.9535  0.4530
 5335SOL    HW127464   2.595   2.980   6.140 -0.6875  0.3742  2.2277
 5335SOL    HW227465   2.516   2.977   6.022 -1.3926  0.1991  0.1014
 5336SOL     OW27466   2.379   1.606   9.660  0.1227  0.3395  0.1009
 5336SOL    HW127467   2.322   1.602   9.737  0.8669  2.5728  0.7676
 5336SOL    HW227468   2.350   1.684   9.614  1.2525  1.9943  2.1817
 5337SOL     OW27469   2.638   1.274   4.040 -0.1883  0.2550 -0.6277
 5337SOL    HW127470   2.666   1.213   3.972 -0.1581  0.0363 -0.4183
 5337SOL    HW227471   2.580   1.329   3.986 -1.4475 -1.2893 -0.8452
 5338SOL     OW27472   3.199   4.149  10.978 -0.4613  0.1653  0.1749
 5338SOL    HW127473   3.238   4.236  10.972  2.7899 -1.2208  1.2808
 5338SOL    HW227474   3.215   4.124  11.069 -0.5720  1.8297  0.6571
 5339SOL     OW27475   4.494   3.287   2.695 -0.1926 -0.1475  0.5273
 5339SOL    HW127476   4.571   3.290   2.638 -1.5303  1.1025 -1.2429
 5339SOL    HW227477   4.464   3.197   2.689  1.3476 -0.6597  0.5517
 5340SOL     OW27478   1.095   3.933   8.638 -0.4333 -0.0115 -0.2621
 5340SOL    HW127479   1.106   3.923   8.543  1.0858  0.8040 -0.1850
 5340SOL    HW227480   1.129   4.021   8.657 -1.7630  0.2778  0.8026
 5341SOL     OW27481   0.043   1.287   4.694  0.9557  0.1515 -0.0077
 5341SOL    HW127482   0.008   1.326   4.615 -1.0301 -0.0105  0.8046
 5341SOL    HW227483   0.124   1.251   4.656  0.0164 -0.7825 -1.1241
 5342SOL     OW27484   0.044   2.308  15.686 -0.1827  0.1354  0.3533
 5342SOL    HW127485   0.007   2.294  15.774 -0.1614  1.2255  0.5436
 5342SOL    HW227486   0.137   2.299  15.704  0.0777  1.6558 -0.2692
 5343SOL     OW27487   3.255   4.090  15.135 -0.3218 -0.1235  0.6201
 5343SOL    HW127488   3.244   4.184  15.150 -2.6089 -0.1365 -0.9783
 5343SOL    HW227489   3.267   4.090  15.040 -0.2874  0.1129  0.6239
 5344SOL     OW27490   1.039   1.511   6.978  0.5729 -0.0835 -0.5755
 5344SOL    HW127491   1.126   1.526   6.940  0.8302 -3.3406 -1.2986
 5344SOL    HW227492   1.030   1.416   6.984 -0.6146  0.0114 -0.9026
 5345SOL     OW27493   0.637   4.203   6.649  0.1193  0.5758 -0.1277
 5345SOL    HW127494   0.588   4.146   6.708  0.0555 -1.4576 -2.1185
 5345SOL    HW227495   0.728   4.186   6.674  0.5999 -0.6217 -2.6905
 5346SOL     OW27496   3.853   3.609   5.862 -0.5922  0.3485  0.2354
 5346SOL    HW127497   3.791   3.538   5.849  0.0442  0.1688 -1.7259
 5346SOL    HW227498   3.809   3.659   5.931 -0.7082  0.5519  0.0114
 5347SOL     OW27499   0.398   2.925   2.099 -0.1979  0.2043  0.1749
 5347SOL    HW127500   0.409   2.871   2.177 -3.7433 -2.4609 -1.1403
 5347SOL    HW227501   0.399   2.857   2.032  1.8134 -0.2029  0.6129
 5348SOL     OW27502   2.277   1.352   6.661 -0.2364  0.1394  0.0990
 5348SOL    HW127503   2.249   1.264   6.633  0.8187  0.1897 -1.0754
 5348SOL    HW227504   2.198   1.390   6.699 -0.2712  0.4930 -0.3370
 5349SOL     OW27505   4.406   1.953   5.169  0.2667 -0.9492 -0.0267
 5349SOL    HW127506   4.378   1.869   5.131 -0.8120 -0.3891 -0.4687
 5349SOL    HW227507   4.465   1.991   5.104 -1.7031 -0.1289 -1.3021
 5350SOL     OW27508   2.527   1.703  16.408  0.5914  0.0888 -0.3498
 5350SOL    HW127509   2.561   1.648  16.479 -0.1645 -0.3962 -0.3580
 5350SOL    HW227510   2.585   1.779  16.412 -0.8240  1.1877 -0.7385
 5351SOL     OW27511   0.285   3.244  10.453 -0.1532 -0.0575  0.3974
 5351SOL    HW127512   0.368   3.198  10.445 -1.1233 -1.8261  0.5634
 5351SOL    HW227513   0.312   3.325  10.496  1.2331 -1.4128  2.0570
 5352SOL     OW27514   1.644   3.369   6.784  0.1280 -0.0415 -0.1989
 5352SOL    HW127515   1.669   3.289   6.830  1.0834  0.1363 -0.4216
 5352SOL    HW227516   1.612   3.415   6.862 -0.2190 -1.1938  0.3404
 5353SOL     OW27517   0.039   4.134   5.630 -0.0669  0.1760  0.0815
 5353SOL    HW127518   0.095   4.212   5.628 -0.5668  0.4984 -1.5070
 5353SOL    HW227519   0.037   4.110   5.723 -1.4454  0.5306  0.1458
 5354SOL     OW27520   4.580   2.848   3.575 -0.0274 -0.4887  0.4207
 5354SOL    HW127521   4.670   2.867   3.548  0.6694 -1.3636  2.1275
 5354SOL    HW227522   4.551   2.812   3.491 -0.8775 -1.2428  1.0500
 5355SOL     OW27523   4.447   4.135  16.898  0.1572 -0.0068 -0.4581
 5355SOL    HW127524   4.423   4.089  16.978 -1.0453  0.5541 -0.4895
 5355SOL    HW227525   4.508   4.072  16.862  0.0010  0.1446 -0.9860
 5356SOL     OW27526   2.150   1.065  16.368 -0.5050 -0.6467  0.1021
 5356SOL    HW127527   2.059   1.040  16.380 -0.7164  0.4072  0.7418
 5356SOL    HW227528   2.186   1.059  16.457 -0.2969 -0.7693  0.0102
 5357SOL     OW27529   1.519   1.526   1.664 -0.4588 -0.1101  0.5179
 5357SOL    HW127530   1.525   1.487   1.577 -0.3203 -1.6135  1.1970
 5357SOL    HW227531   1.508   1.450   1.722 -0.1000  0.0459  0.7893
 5358SOL     OW27532   1.821   3.265   6.614 -0.0578  0.1704  0.2286
 5358SOL    HW127533   1.774   3.243   6.534  0.7837 -2.2709  0.3969
 5358SOL    HW227534   1.755   3.317   6.659  1.8629  1.5326  1.4953
 5359SOL     OW27535   4.293   4.364   7.683 -0.0531  0.0712  0.2663
 5359SOL    HW127536   4.242   4.445   7.690 -0.5714 -0.4181  2.2315
 5359SOL    HW227537   4.287   4.325   7.770  1.7193 -1.5854 -0.3598
 5360SOL     OW27538   3.383   0.748   8.445 -0.4968 -0.3383  0.2164
 5360SOL    HW127539   3.399   0.839   8.418 -3.3581 -0.1954 -1.0768
 5360SOL    HW227540   3.311   0.756   8.508 -0.5948 -0.9332  0.1760
 5361SOL     OW27541   1.340   1.114   2.577 -0.4801 -0.1192  0.1982
 5361SOL    HW127542   1.406   1.179   2.553  0.7173 -0.8917  1.4000
 5361SOL    HW227543   1.285   1.158   2.642 -1.4012 -0.3987 -0.3851
 5362SOL     OW27544   1.412   1.235  17.661  0.2109  0.4753 -0.0886
 5362SOL    HW127545   1.502   1.202  17.660 -0.1493 -0.5568  1.5994
 5362SOL    HW227546   1.404   1.266   0.054 -1.7542  0.2259 -0.1767
 5363SOL     OW27547   1.317   3.298   8.062  0.2205  0.0215  0.2113
 5363SOL    HW127548   1.408   3.295   8.092  0.1812 -0.1435  0.3152
 5363SOL    HW227549   1.278   3.369   8.113  1.2384  1.3524 -0.8672
 5364SOL     OW27550   2.469   3.122   2.612 -0.2603 -0.4074  0.3910
 5364SOL    HW127551   2.462   3.199   2.556  1.2194  0.6131  1.6191
 5364SOL    HW227552   2.384   3.085   2.589  0.0886 -0.7074 -0.4004
 5365SOL     OW27553   3.284   2.800  14.484  0.3225  0.0171  0.9477
 5365SOL    HW127554   3.244   2.882  14.457  2.0884  1.0486  1.4336
 5365SOL    HW227555   3.323   2.831  14.566  0.7415  2.0147 -0.0093
 5366SOL     OW27556   1.265   2.442  16.525  0.2314  0.0085 -0.2056
 5366SOL    HW127557   1.326   2.442  16.451 -1.2713 -0.9991 -1.4370
 5366SOL    HW227558   1.286   2.534  16.545 -0.8161 -0.3557  2.6913
 5367SOL     OW27559   0.942   2.344   3.226 -0.5879 -0.4961  0.4491
 5367SOL    HW127560   1.009   2.377   3.166 -0.5779 -0.2089  0.6194
 5367SOL    HW227561   0.976   2.257   3.247  1.3438 -0.3718 -2.1966
 5368SOL     OW27562   2.549   1.290   2.438 -0.5355  0.1078 -0.4125
 5368SOL    HW127563   2.473   1.241   2.406 -1.6721  0.0122  2.4397
 5368SOL    HW227564   2.571   1.329   2.353 -0.2907  1.5950  0.3451
 5369SOL     OW27565   0.429   1.160  10.318 -0.4076 -0.5701 -0.2957
 5369SOL    HW127566   0.384   1.081  10.289 -0.7714 -0.5563  0.2400
 5369SOL    HW227567   0.506   1.130  10.366 -0.7790  1.2445  1.4132
 5370SOL     OW27568   2.886   1.712   0.950  0.2936 -0.2353  0.3467
 5370SOL    HW127569   2.927   1.625   0.944  1.4230  0.3793 -0.7906
 5370SOL    HW227570   2.844   1.722   1.036  1.0929  0.9980  0.5847
 5371SOL     OW27571   2.093   0.189   7.886 -0.4274 -0.2082  0.3055
 5371SOL    HW127572   2.035   0.114   7.876  1.2829 -1.6004  1.0183
 5371SOL    HW227573   2.102   0.186   7.981  0.8074  1.8617  0.2585
 5372SOL     OW27574   3.054   2.826   3.956 -1.0914  0.0995 -0.3522
 5372SOL    HW127575   3.119   2.770   3.998 -1.0349  0.3084 -0.1621
 5372SOL    HW227576   2.967   2.787   3.968 -0.6272 -1.1906 -1.2680
 5373SOL     OW27577   2.424   3.511   2.252 -0.4559  0.1168  0.0382
 5373SOL    HW127578   2.453   3.588   2.301  2.3432  0.2612 -1.8655
 5373SOL    HW227579   2.329   3.522   2.240 -0.5525  1.5626  2.1757
 5374SOL     OW27580   4.086   3.869   6.013 -0.2994 -0.2874 -0.2561
 5374SOL    HW127581   4.087   3.957   6.050  1.8983  0.1641 -1.4288
 5374SOL    HW227582   4.069   3.879   5.920  1.0698  1.0585 -0.3566
 5375SOL     OW27583   3.535   0.915  14.052  0.0445  0.4739 -0.0213
 5375SOL    HW127584   3.546   1.001  14.092 -1.3893  0.2641  0.8144
 5375SOL    HW227585   3.628   0.896  14.034  0.0705  0.0581  0.5676
 5376SOL     OW27586   3.825   2.361   8.257  0.2549  0.3206 -0.6858
 5376SOL    HW127587   3.743   2.347   8.210 -0.0367 -0.7215  0.1261
 5376SOL    HW227588   3.845   2.449   8.227 -0.0558 -0.1676 -2.3130
 5377SOL     OW27589   2.068   0.032  10.565 -0.0880 -0.3165 -0.0911
 5377SOL    HW127590   2.123   4.688  10.526 -1.0586 -1.8648  1.2327
 5377SOL    HW227591   2.041   4.708  10.644  2.2770 -1.7325 -0.1194
 5378SOL     OW27592   4.211   2.376   8.283 -0.5736  0.3897 -0.5639
 5378SOL    HW127593   4.168   2.353   8.201  0.2074 -0.6893 -0.6609
 5378SOL    HW227594   4.303   2.376   8.256 -0.5312 -0.6272 -0.3961
 5379SOL     OW27595   1.541   3.272   3.133  1.1259 -0.1401 -0.6704
 5379SOL    HW127596   1.620   3.219   3.144  1.8571  1.0576 -0.1648
 5379SOL    HW227597   1.577   3.342   3.079 -2.1661  2.3461  0.3848
 5380SOL     OW27598   1.488   4.515   9.760  0.3560  0.1754  0.4692
 5380SOL    HW127599   1.504   4.494   9.852  1.0393 -1.8665 -0.1190
 5380SOL    HW227600   1.555   4.458   9.721 -0.3866  0.1683 -0.7964
 5381SOL     OW27601   1.849   1.077   1.023 -0.0556 -0.2356 -0.2817
 5381SOL    HW127602   1.800   1.103   0.945  1.3097  1.2493 -0.6453
 5381SOL    HW227603   1.829   1.152   1.078  1.6905 -0.0881  0.1546
 5382SOL     OW27604   0.952   2.528   1.129 -0.0436 -0.3122 -0.0941
 5382SOL    HW127605   0.857   2.517   1.142 -0.3493  0.5800 -1.5556
 5382SOL    HW227606   0.977   2.439   1.152  0.7895 -0.8326 -3.0595
 5383SOL     OW27607   0.576   2.423  12.223  0.2026  0.4738  0.1749
 5383SOL    HW127608   0.591   2.496  12.163 -2.8390  0.8473 -0.1272
 5383SOL    HW227609   0.486   2.398  12.201  0.2362  0.0692  0.5042
 5384SOL     OW27610   1.864   1.237  16.396  0.7700 -0.2436 -1.1939
 5384SOL    HW127611   1.879   1.164  16.455 -2.2098 -0.6064 -0.8996
 5384SOL    HW227612   1.772   1.259  16.407  0.2917 -3.0165  0.3239
 5385SOL     OW27613   1.414   2.710   2.450 -0.2244  0.2859 -0.2082
 5385SOL    HW127614   1.473   2.785   2.462 -0.0373 -0.1093  1.2680
 5385SOL    HW227615   1.356   2.731   2.377 -0.1589  0.9368 -0.0712
 5386SOL     OW27616   4.162   0.909   8.662  0.9941  0.1136 -0.0636
 5386SOL    HW127617   4.191   0.980   8.604 -0.9300 -0.9847 -2.3483
 5386SOL    HW227618   4.127   0.953   8.739  1.4654  0.3822 -0.0008
 5387SOL     OW27619   3.838   1.028   2.921 -0.1718  0.0348  0.3936
 5387SOL    HW127620   3.923   1.020   2.964  1.2547  2.5448 -2.0124
 5387SOL    HW227621   3.847   0.956   2.859 -2.7166  0.7336 -0.8196
 5388SOL     OW27622   1.954   2.854   2.818  0.1518  0.1424 -0.5764
 5388SOL    HW127623   1.948   2.941   2.857  0.6365 -1.0865  2.2366
 5388SOL    HW227624   1.902   2.802   2.879  1.6236  1.2869  1.6313
 5389SOL     OW27625   1.831   1.351   7.620  0.3534  0.6521 -0.3034
 5389SOL    HW127626   1.837   1.389   7.708  0.8336  0.4167 -0.2323
 5389SOL    HW227627   1.739   1.328   7.616  0.7215 -1.2961  1.9550
 5390SOL     OW27628   1.254   2.435   5.842 -0.6247 -0.3175  0.1351
 5390SOL    HW127629   1.161   2.454   5.849 -0.2695  1.0488  1.0275
 5390SOL    HW227630   1.260   2.344   5.872  2.2975  0.0146  0.5780
 5391SOL     OW27631   2.064   1.761   7.426 -0.7531  0.7848 -0.1100
 5391SOL    HW127632   2.002   1.799   7.488 -1.4289  2.6503 -1.8814
 5391SOL    HW227633   2.118   1.717   7.491 -2.9724  1.0762  1.9346
 5392SOL     OW27634   0.493   4.458   1.080  0.5362 -0.1341 -0.3764
 5392SOL    HW127635   0.542   4.398   1.136  0.5431 -0.2816 -0.5403
 5392SOL    HW227636   0.568   4.480   1.024  2.0318  0.5265  1.8857
 5393SOL     OW27637   4.255   2.079   4.258 -0.0155 -0.2951 -0.0813
 5393SOL    HW127638   4.209   2.152   4.300  0.3297  0.2950 -0.7258
 5393SOL    HW227639   4.200   2.069   4.181 -0.0383  0.4815 -0.1672
 5394SOL     OW27640   3.058   2.804   2.554  0.3566 -0.1285 -0.6473
 5394SOL    HW127641   3.044   2.714   2.524 -0.8509 -0.9996  2.5176
 5394SOL    HW227642   3.131   2.791   2.615 -0.6465  0.4813  0.7013
 5395SOL     OW27643   0.445   1.791   6.654  0.0189  0.5098  0.2693
 5395SOL    HW127644   0.437   1.803   6.748  0.2274  1.6146  0.1471
 5395SOL    HW227645   0.408   1.705   6.637  0.2003  0.4111  0.3670
 5396SOL     OW27646   4.263   2.900   1.891 -0.1664  0.3434 -1.0053
 5396SOL    HW127647   4.289   2.875   1.803  1.2117  1.8734 -1.0214
 5396SOL    HW227648   4.332   2.861   1.945 -0.0783  0.8603 -0.7432
 5397SOL     OW27649   2.209   1.963   8.655  0.1412 -0.2733 -0.1346
 5397SOL    HW127650   2.280   2.017   8.620  1.6903 -1.5689  0.9997
 5397SOL    HW227651   2.176   1.921   8.576 -0.4352  0.3622 -0.2337
 5398SOL     OW27652   0.470   0.829   9.001 -0.6720  0.2395 -0.3926
 5398SOL    HW127653   0.375   0.820   8.997 -0.8400  0.9574  2.5260
 5398SOL    HW227654   0.487   0.918   9.030 -0.3707 -0.3246  1.1343
 5399SOL     OW27655   1.140   1.414   5.341  0.0375  0.0895 -0.0666
 5399SOL    HW127656   1.138   1.396   5.435  1.2656 -1.5188 -0.3444
 5399SOL    HW227657   1.231   1.441   5.329 -1.4039  4.4259 -1.2470
 5400SOL     OW27658   0.673   4.699   4.261 -0.0624  0.4272 -0.7680
 5400SOL    HW127659   0.753   0.004   4.305  0.0363 -0.7738 -0.1616
 5400SOL    HW227660   0.617   4.694   4.339 -0.5279  0.1150 -1.1246
 5401SOL     OW27661   0.097   3.039   4.664 -0.0215 -0.2106 -0.0201
 5401SOL    HW127662   0.121   2.947   4.670  0.2541 -0.0196  1.8739
 5401SOL    HW227663   0.185   3.075   4.648 -0.1756 -0.3024 -1.0990
 5402SOL     OW27664   2.567   0.082   5.875 -0.1021 -0.3086 -0.4789
 5402SOL    HW127665   2.592   0.137   5.801 -0.8713 -1.2987 -1.4908
 5402SOL    HW227666   2.485   0.043   5.842  0.4212 -2.9389  1.3658
 5403SOL     OW27667   0.358   1.802   1.906 -0.2350 -0.1772 -0.3299
 5403SOL    HW127668   0.331   1.863   1.974 -2.8368  0.8074 -2.2351
 5403SOL    HW227669   0.283   1.775   1.853  0.1538 -0.9565 -0.4862
 5404SOL     OW27670   4.307   4.658   9.582 -0.3433 -0.6166  0.7057
 5404SOL    HW127671   4.381   4.716   9.562  1.2279 -2.8812  0.0093
 5404SOL    HW227672   4.348   4.626   9.662  0.0457  0.6715  1.0324
 5405SOL     OW27673   2.944   3.954   3.206  0.6283  0.2041  0.2759
 5405SOL    HW127674   2.967   3.923   3.118 -1.1615 -1.7383  0.4881
 5405SOL    HW227675   2.880   3.888   3.232  2.6413 -1.2694  1.4931
 5406SOL     OW27676   3.993   2.411   8.731  0.2956  0.7764 -0.2314
 5406SOL    HW127677   3.923   2.475   8.739  0.8657  1.1882  1.4618
 5406SOL    HW227678   3.953   2.338   8.684  0.9065 -1.2551  2.3597
 5407SOL     OW27679   4.251   0.811   7.128  0.5187 -0.4882  0.0147
 5407SOL    HW127680   4.235   0.890   7.077 -0.8079  0.2398  1.5707
 5407SOL    HW227681   4.255   0.843   7.219  1.3290 -1.1145  0.2016
 5408SOL     OW27682   2.481   1.384   0.895 -0.4225 -0.7662  0.2628
 5408SOL    HW127683   2.526   1.384   0.811 -1.6741  0.7748 -0.4135
 5408SOL    HW227684   2.553   1.374   0.957  1.3192 -0.6831 -1.7400
 5409SOL     OW27685   4.662   0.816   4.079 -0.1390 -0.4551 -0.0113
 5409SOL    HW127686   4.617   0.785   4.000 -0.5986  0.3557 -0.0628
 5409SOL    HW227687   4.626   0.905   4.079 -0.5242 -0.6154 -0.3839
 5410SOL     OW27688   3.274   2.054   4.501  0.0927 -0.0941  0.0901
 5410SOL    HW127689   3.347   2.004   4.464  2.3805  1.9609  1.8733
 5410SOL    HW227690   3.291   2.141   4.465  2.2359 -0.3978  0.3815
 5411SOL     OW27691   3.001   1.884   8.200 -0.7829  0.3752  0.1774
 5411SOL    HW127692   2.988   1.976   8.225 -3.1091  0.3378 -0.8904
 5411SOL    HW227693   2.985   1.845   8.285 -2.2761  1.9671  0.6358
 5412SOL     OW27694   2.433   3.947   0.319 -0.5513  0.3217 -0.3738
 5412SOL    HW127695   2.343   3.975   0.337 -0.1766  1.1473  0.2319
 5412SOL    HW227696   2.486   4.019   0.351 -0.3574  0.8171 -1.8060
 5413SOL     OW27697   1.239   1.246   1.938  0.2218 -0.2843 -0.3754
 5413SOL    HW127698   1.248   1.210   2.027  1.9214 -0.6677 -0.7178
 5413SOL    HW227699   1.191   1.183   1.886 -1.5359  1.2745 -0.6624
 5414SOL     OW27700   0.183   1.757   7.764  0.0267 -0.1629 -0.1721
 5414SOL    HW127701   0.194   1.852   7.761  0.0171 -0.1154  1.2437
 5414SOL    HW227702   0.158   1.744   7.673 -0.1561 -1.1001  0.0156
 5415SOL     OW27703   2.241   0.115  14.506  0.2265 -0.2483  0.4707
 5415SOL    HW127704   2.301   0.056  14.553  0.5396  0.8680  1.4992
 5415SOL    HW227705   2.169   0.126  14.568  0.3351 -0.6135  0.6702
 5416SOL     OW27706   2.879   2.634   6.612  0.5750  0.1100  0.5301
 5416SOL    HW127707   2.834   2.671   6.688  0.2204 -0.5974  0.6733
 5416SOL    HW227708   2.800   2.597   6.571 -0.7946  2.4000  1.1009
 5417SOL     OW27709   0.219   0.195   1.603 -0.7957  0.9817  0.4712
 5417SOL    HW127710   0.195   0.287   1.613  1.1028  1.7506 -1.9708
 5417SOL    HW227711   0.133   0.154   1.610 -1.2754  1.7129 -1.1361
 5418SOL     OW27712   2.100   2.106   5.360 -0.0677 -0.2797  0.0522
 5418SOL    HW127713   2.084   2.106   5.266  2.6030  0.1694 -0.3911
 5418SOL    HW227714   2.024   2.157   5.387 -0.9484 -0.4542 -2.0784
 5419SOL     OW27715   3.631   1.522  13.599  0.6795 -0.3223 -0.0619
 5419SOL    HW127716   3.623   1.602  13.650 -2.1663 -0.3465 -0.4670
 5419SOL    HW227717   3.545   1.510  13.558  0.4148 -0.2212  0.4694
 5420SOL     OW27718   2.790   2.200  16.166 -0.3411  0.5659  0.1753
 5420SOL    HW127719   2.714   2.187  16.223 -0.5869 -2.9136 -0.9207
 5420SOL    HW227720   2.850   2.248  16.222 -0.4315  1.1965 -0.2777
 5421SOL     OW27721   2.867   4.448  17.083  0.1820 -0.3189  0.2357
 5421SOL    HW127722   2.797   4.427  17.145  1.1341  0.7709  1.6704
 5421SOL    HW227723   2.850   4.374  17.025  0.2560 -0.2487  0.1236
 5422SOL     OW27724   3.561   1.544   7.892 -0.6316 -0.0731 -0.1926
 5422SOL    HW127725   3.494   1.561   7.826  0.8720  0.8170 -1.4978
 5422SOL    HW227726   3.515   1.588   7.963 -0.1461  2.2106 -1.2890
 5423SOL     OW27727   2.965   3.683   4.587  0.1174  0.0218  0.1673
 5423SOL    HW127728   2.946   3.599   4.628  1.0290  0.5992  1.7712
 5423SOL    HW227729   2.906   3.740   4.636 -1.4155 -0.0650 -1.5711
 5424SOL     OW27730   1.334   3.992   8.308 -0.0212  0.2598 -0.1287
 5424SOL    HW127731   1.250   3.972   8.268  0.7560  0.6346 -1.9611
 5424SOL    HW227732   1.374   3.905   8.315 -1.2309 -0.3235 -0.5970
 5425SOL     OW27733   2.005   3.584   4.610 -0.1807 -0.3398  0.4644
 5425SOL    HW127734   2.067   3.654   4.630 -0.7740  0.1935  0.4460
 5425SOL    HW227735   1.959   3.571   4.693  2.1466  0.3732  1.8403
 5426SOL     OW27736   3.630   3.400   2.765 -0.4091 -0.5589 -0.2333
 5426SOL    HW127737   3.679   3.434   2.690  0.9784 -1.1395  0.4180
 5426SOL    HW227738   3.606   3.312   2.736  2.0809 -1.9885  2.1352
 5427SOL     OW27739   4.719   4.129   9.592 -0.1759 -0.3256  0.5487
 5427SOL    HW127740   4.680   4.191   9.653  0.2420 -0.1415  0.6312
 5427SOL    HW227741   0.084   4.124   9.628  0.8106  0.1205 -1.8428
 5428SOL     OW27742   3.141   0.818   4.254 -0.4487  0.2831  0.0887
 5428SOL    HW127743   3.230   0.801   4.225 -0.3941  1.3330 -0.3497
 5428SOL    HW227744   3.115   0.863   4.174  0.7150  0.5871 -0.1183
 5429SOL     OW27745   1.074   1.599  14.731 -0.0387  0.0881 -0.0366
 5429SOL    HW127746   1.050   1.622  14.641  0.4028 -2.5643 -0.8620
 5429SOL    HW227747   1.106   1.511  14.712  0.5969  0.0627  1.2025
 5430SOL     OW27748   0.003   3.305   2.580  0.5414 -0.4746 -0.2937
 5430SOL    HW127749   0.046   3.352   2.508 -0.2942  1.0488  0.2032
 5430SOL    HW227750   0.063   3.320   2.653 -0.9543 -0.6932  0.9842
 5431SOL     OW27751   2.647   0.134   5.162 -0.0199  0.4222 -0.4104
 5431SOL    HW127752   2.612   0.082   5.234 -3.3539  0.1736 -2.2009
 5431SOL    HW227753   2.640   0.073   5.088 -0.2325 -0.6456  0.5009
 5432SOL     OW27754   2.747   4.311  14.029  0.6347  0.3118  0.3995
 5432SOL    HW127755   2.805   4.303  13.954  1.6800  1.9697  1.0086
 5432SOL    HW227756   2.766   4.401  14.057  0.8777  0.1079  0.9064
 5433SOL     OW27757   0.613   1.737   4.344 -1.0050  0.2360 -0.6337
 5433SOL    HW127758   0.632   1.648   4.374 -0.6297  0.7291  0.6129
 5433SOL    HW227759   0.676   1.785   4.398  2.7065 -2.2957 -2.7290
 5434SOL     OW27760   2.269   3.593  12.456  0.2972  0.5166 -0.4293
 5434SOL    HW127761   2.338   3.563  12.397 -2.0550  1.9977 -3.9318
 5434SOL    HW227762   2.187   3.552  12.429 -0.6152  2.7986 -1.1352
 5435SOL     OW27763   1.246   3.371  12.529 -0.1631  0.2540  0.2670
 5435SOL    HW127764   1.154   3.388  12.553 -0.6010 -0.1057 -1.1379
 5435SOL    HW227765   1.261   3.443  12.468  1.1541  0.2655  0.6215
 5436SOL     OW27766   0.524   1.812  12.378 -0.1084  0.7725  0.0160
 5436SOL    HW127767   0.587   1.754  12.334 -1.6765 -1.2064  0.3716
 5436SOL    HW227768   0.460   1.748  12.410  0.4120  1.1673  1.8257
 5437SOL     OW27769   0.851   3.115  15.278 -0.2653 -0.2528 -0.0636
 5437SOL    HW127770   0.825   3.034  15.235  1.4540  0.5781 -2.7272
 5437SOL    HW227771   0.916   3.156  15.220 -0.5112 -0.7591 -0.7002
 5438SOL     OW27772   4.438   0.682   2.836  0.0939 -0.5560  0.4434
 5438SOL    HW127773   4.395   0.606   2.876 -0.3636  0.2992  1.5668
 5438SOL    HW227774   4.476   0.718   2.916  0.3349  1.0412 -0.3952
 5439SOL     OW27775   1.486   4.199   3.493  0.0196 -0.8184  0.2535
 5439SOL    HW127776   1.407   4.193   3.439  0.9397  0.9887 -1.3318
 5439SOL    HW227777   1.559   4.215   3.433  0.0922  1.5383  0.9692
 5440SOL     OW27778   4.242   1.325   5.114  0.5000 -0.5357 -0.1544
 5440SOL    HW127779   4.325   1.337   5.067  0.0318  2.3004 -0.2352
 5440SOL    HW227780   4.263   1.253   5.173  1.0467 -1.5984 -1.6415
 5441SOL     OW27781   1.578   2.969   4.386  0.1038 -0.1244 -0.1189
 5441SOL    HW127782   1.641   3.015   4.330 -1.7937  2.1514 -0.4047
 5441SOL    HW227783   1.504   3.027   4.369  1.5360  1.5738 -0.5750
 5442SOL     OW27784   3.978   0.578   2.079 -0.0569  0.2847  0.1802
 5442SOL    HW127785   3.998   0.670   2.058 -1.5717  0.3447 -1.0127
 5442SOL    HW227786   3.974   0.543   1.990  0.0231 -0.3244  0.4160
 5443SOL     OW27787   1.836   3.289  11.416  0.1872  0.8461  0.0662
 5443SOL    HW127788   1.877   3.213  11.458  1.0232  0.5055 -1.3620
 5443SOL    HW227789   1.756   3.255  11.375  0.8272 -1.0950  0.4229
 5444SOL     OW27790   1.159   3.339   6.650  0.4526 -1.0891  0.1749
 5444SOL    HW127791   1.236   3.386   6.681  0.1708 -0.2106 -0.4453
 5444SOL    HW227792   1.197   3.253   6.634  1.7907 -0.3990 -0.3339
 5445SOL     OW27793   2.337   3.574   2.545  0.0762 -0.4138 -0.5057
 5445SOL    HW127794   2.383   3.642   2.495 -0.4919 -0.4469 -1.0788
 5445SOL    HW227795   2.264   3.556   2.485  1.6867  2.2473 -3.2711
 5446SOL     OW27796   3.319   1.540  13.603 -0.1303 -0.1000  0.0593
 5446SOL    HW127797   3.340   1.490  13.681 -0.2146 -3.1948 -1.9257
 5446SOL    HW227798   3.272   1.616  13.638  2.1520  1.2468  0.2647
 5447SOL     OW27799   2.770   2.749  12.581 -0.1110 -0.2932  0.2905
 5447SOL    HW127800   2.759   2.836  12.541  1.3935  0.1150  0.7795
 5447SOL    HW227801   2.837   2.764  12.647  1.5561  0.8076 -1.6567
 5448SOL     OW27802   0.194   1.650   8.014 -0.3430  0.7774 -0.0951
 5448SOL    HW127803   0.112   1.602   8.004  0.5482 -0.5630 -1.0301
 5448SOL    HW227804   0.211   1.685   7.926  1.5574 -0.0200 -0.0534
 5449SOL     OW27805   4.032   3.771   1.837 -0.6775 -0.0250  0.6047
 5449SOL    HW127806   4.101   3.834   1.854 -0.6873 -0.4145  2.1384
 5449SOL    HW227807   4.035   3.733   1.925 -2.5425 -1.0698  0.2254
 5450SOL     OW27808   3.928   4.324   6.112 -0.3511  0.2872  0.0188
 5450SOL    HW127809   3.972   4.363   6.187 -2.3556  2.1554  0.2068
 5450SOL    HW227810   3.944   4.387   6.042 -0.1851  0.1272 -0.0864
 5451SOL     OW27811   0.472   2.387   8.317  0.1831 -0.2782 -0.3769
 5451SOL    HW127812   0.486   2.334   8.238  0.4468 -1.8731  0.7387
 5451SOL    HW227813   0.524   2.332   8.375 -2.4206 -0.9112  1.3449
 5452SOL     OW27814   2.939   4.259   7.543 -0.1931  0.3244 -0.3568
 5452SOL    HW127815   2.999   4.330   7.524 -2.5520  1.8058 -2.1902
 5452SOL    HW227816   2.865   4.307   7.507  1.3034  2.6232 -0.3307
 5453SOL     OW27817   1.174   0.145   5.654 -0.2164 -0.2065  0.1900
 5453SOL    HW127818   1.167   0.132   5.749  3.8934 -1.0873  0.3728
 5453SOL    HW227819   1.245   0.208   5.651  0.5192 -1.0303  0.4066
 5454SOL     OW27820   3.168   2.246   3.023  0.4657 -0.0672  0.0969
 5454SOL    HW127821   3.189   2.189   3.098  2.1822  1.0557  0.4555
 5454SOL    HW227822   3.227   2.319   3.042 -2.9491  2.1635  2.2540
 5455SOL     OW27823   1.797   3.946  17.358  0.2269  0.4327 -0.0583
 5455SOL    HW127824   1.803   3.985  17.445 -1.3425  0.3007  0.1044
 5455SOL    HW227825   1.766   4.019  17.304 -2.5299 -0.3032  0.5328
 5456SOL     OW27826   1.697   4.084   2.982 -0.4137 -0.5931 -0.5381
 5456SOL    HW127827   1.626   4.060   2.922 -0.0555 -0.7365 -0.9004
 5456SOL    HW227828   1.767   4.063   2.920 -1.0811 -0.9997 -1.1500
 5457SOL     OW27829   0.321   4.333   5.065  0.1458  0.5938  0.3780
 5457SOL    HW127830   0.235   4.292   5.058 -0.0619  1.6186 -3.0297
 5457SOL    HW227831   0.380   4.258   5.050 -0.4391  0.2371 -0.1631
 5458SOL     OW27832   3.482   3.893   1.628  0.1328  0.4139  0.0210
 5458SOL    HW127833   3.409   3.955   1.629 -0.8024 -0.6832 -1.3310
 5458SOL    HW227834   3.448   3.820   1.577  1.5481 -0.4582  0.3350
 5459SOL     OW27835   2.235   2.348   9.146 -0.2247 -0.5870  0.1137
 5459SOL    HW127836   2.305   2.318   9.204  1.7196 -0.6813 -2.2726
 5459SOL    HW227837   2.180   2.270   9.149 -1.1535  0.1928  3.3615
 5460SOL     OW27838   2.219   0.857   9.198 -0.0555  0.3157 -0.2224
 5460SOL    HW127839   2.224   0.762   9.185 -0.6672 -0.1171  2.5763
 5460SOL    HW227840   2.156   0.874   9.268 -1.3725 -0.3134 -1.2385
 5461SOL     OW27841   2.158   0.645   0.739 -0.8367  0.0896  1.1296
 5461SOL    HW127842   2.093   0.703   0.780 -0.5281  0.2192  1.4385
 5461SOL    HW227843   2.160   0.581   0.811  2.0815 -1.8524 -0.7108
 5462SOL     OW27844   0.942   4.537   0.218  0.3448  0.6056  1.0199
 5462SOL    HW127845   0.881   4.475   0.258  1.8911 -0.8882  1.0519
 5462SOL    HW227846   0.888   4.603   0.176 -0.0345 -0.7754 -0.6496
 5463SOL     OW27847   3.399   4.306   5.624  0.4719 -0.4236 -0.1210
 5463SOL    HW127848   3.364   4.230   5.578 -0.3784  0.4422 -0.9103
 5463SOL    HW227849   3.395   4.373   5.555  2.8423  1.3113  1.3965
 5464SOL     OW27850   2.996   1.294   1.129 -0.0989 -0.1145 -0.2625
 5464SOL    HW127851   3.023   1.207   1.102 -0.9796 -0.8322  1.1796
 5464SOL    HW227852   3.007   1.289   1.224  0.4784 -0.1014 -0.3283
 5465SOL     OW27853   4.039   1.096   8.430  0.4532  0.2265 -0.0877
 5465SOL    HW127854   4.101   1.027   8.406  1.0607  0.2835  1.2979
 5465SOL    HW227855   4.087   1.178   8.427  1.5856 -0.4929 -1.6484
 5466SOL     OW27856   2.437   2.604   1.883 -0.1552 -0.5305 -0.4185
 5466SOL    HW127857   2.371   2.571   1.944  0.2533  1.8851  1.3142
 5466SOL    HW227858   2.391   2.599   1.800 -1.7925 -0.4577  0.4958
 5467SOL     OW27859   2.573   3.338   5.811  0.0982  0.2262 -0.3621
 5467SOL    HW127860   2.605   3.425   5.837  2.3381  0.0963 -2.6379
 5467SOL    HW227861   2.535   3.341   5.723  0.9921 -2.9284 -0.8591
 5468SOL     OW27862   1.380   3.137   4.418 -0.0479 -0.4760 -0.4323
 5468SOL    HW127863   1.307   3.160   4.476  2.2410 -0.8199  2.5619
 5468SOL    HW227864   1.382   3.212   4.359 -0.4790  0.6219  0.9487
 5469SOL     OW27865   1.915   1.215   8.180 -0.2111  0.1243 -0.3160
 5469SOL    HW127866   1.824   1.198   8.204 -0.1507 -1.3334 -1.1191
 5469SOL    HW227867   1.951   1.235   8.266 -0.2880  0.0835 -0.2746
 5470SOL     OW27868   1.054   1.489   3.811 -0.3165  0.0973  0.0160
 5470SOL    HW127869   0.975   1.486   3.865 -0.1844 -0.7314  0.1621
 5470SOL    HW227870   1.053   1.584   3.803 -0.1180  0.2043  1.3165
 5471SOL     OW27871   0.325   1.742  10.503 -0.1024  0.2553  0.3026
 5471SOL    HW127872   0.416   1.712  10.502 -0.1910  0.0111 -0.4940
 5471SOL    HW227873   0.331   1.788  10.419 -4.0204 -2.3727 -1.4031
 5472SOL     OW27874   2.626   1.343   0.666 -0.0613 -0.6043 -0.3182
 5472SOL    HW127875   2.563   1.382   0.606 -0.0108 -1.1722 -0.7445
 5472SOL    HW227876   2.653   1.259   0.629 -2.7419 -2.2838  1.5368
 5473SOL     OW27877   2.384   2.023   2.166  0.0594  0.2080 -0.1322
 5473SOL    HW127878   2.420   1.987   2.247 -0.0623 -1.1241 -0.6675
 5473SOL    HW227879   2.447   2.093   2.145  2.4021 -1.3346  1.7363
 5474SOL     OW27880   2.537   2.560  15.427 -0.0707  0.1622 -0.6373
 5474SOL    HW127881   2.556   2.468  15.448 -0.9631  0.3504  1.0536
 5474SOL    HW227882   2.590   2.588  15.353  0.1816  0.4320 -0.3509
 5475SOL     OW27883   1.215   0.786   6.056 -0.4376 -0.2560  0.8690
 5475SOL    HW127884   1.143   0.723   6.057 -0.2971 -0.4555 -2.5316
 5475SOL    HW227885   1.227   0.794   6.151  1.3339  1.2410  0.5142
 5476SOL     OW27886   0.965   4.606   2.045  0.1540  0.2956  0.2347
 5476SOL    HW127887   0.966   4.642   2.133  0.8024  0.3267  0.2191
 5476SOL    HW227888   1.058   4.585   2.033 -0.0734 -0.9690  0.6471
 5477SOL     OW27889   0.357   4.102  14.224 -0.0933 -0.7794  0.7827
 5477SOL    HW127890   0.300   4.165  14.179 -0.3906 -0.4042  1.6945
 5477SOL    HW227891   0.437   4.154  14.234 -0.1513  0.0215 -2.9762
 5478SOL     OW27892   3.517   3.501  10.287  0.0087  0.1826  0.1915
 5478SOL    HW127893   3.459   3.427  10.268 -2.3678  1.4056  2.5917
 5478SOL    HW227894   3.562   3.509  10.204 -0.5932  0.8068 -0.0738
 5479SOL     OW27895   1.527   3.875  15.822 -0.8226  0.4851 -0.1450
 5479SOL    HW127896   1.604   3.899  15.874  0.4307 -2.2466 -0.6889
 5479SOL    HW227897   1.544   3.782  15.807 -1.4559  0.2363  0.6409
 5480SOL     OW27898   0.270   4.128   6.884  0.3362 -0.4987  0.1015
 5480SOL    HW127899   0.233   4.101   6.800  0.9349  0.0567 -0.3383
 5480SOL    HW227900   0.225   4.064   6.940 -0.5060  1.2064  1.3739
 5481SOL     OW27901   1.664   2.755   3.989 -0.2854  0.3447  0.5651
 5481SOL    HW127902   1.602   2.703   3.939 -1.4933  0.0540  2.3579
 5481SOL    HW227903   1.629   2.842   4.005  1.4192  1.1015  0.2289
 5482SOL     OW27904   3.386   2.377   3.105 -0.6988  0.0296 -0.4061
 5482SOL    HW127905   3.396   2.461   3.149 -0.8233  0.1643 -0.6343
 5482SOL    HW227906   3.462   2.331   3.141 -0.7735  0.5566  0.4307
 5483SOL     OW27907   1.092   4.639  15.875 -0.5847 -0.0550 -0.3763
 5483SOL    HW127908   1.097   4.724  15.918 -0.4422 -0.6177  0.7096
 5483SOL    HW227909   1.155   4.657  15.805 -0.7594  1.2932 -0.1847
 5484SOL     OW27910   2.572   4.195   0.404  0.1550 -0.1092 -0.3653
 5484SOL    HW127911   2.660   4.220   0.375  0.7033  0.9910  2.2311
 5484SOL    HW227912   2.595   4.196   0.497  0.5617 -0.6682 -0.4548
 5485SOL     OW27913   2.607   0.960   3.553 -0.2753  0.2021 -0.3620
 5485SOL    HW127914   2.695   0.926   3.568 -0.6258 -0.3376  0.4233
 5485SOL    HW227915   2.600   0.926   3.464  1.2699  0.0085 -0.4123
 5486SOL     OW27916   1.874   3.052  10.551 -0.0119 -0.4123 -0.5551
 5486SOL    HW127917   1.836   2.998  10.481 -1.2851  1.1757 -1.0888
 5486SOL    HW227918   1.799   3.103  10.581 -0.5716 -0.9287 -1.0763
 5487SOL     OW27919   4.637   3.993   0.016 -0.1379  0.0588  0.2416
 5487SOL    HW127920   4.686   3.978  17.632 -0.1773  1.3285 -0.0128
 5487SOL    HW227921   4.674   3.927   0.074  2.3296  1.8020  0.6402
 5488SOL     OW27922   0.486   4.698  16.210 -0.4822 -0.0111  0.6014
 5488SOL    HW127923   0.574   4.721  16.240 -0.3392  0.4962 -0.2212
 5488SOL    HW227924   0.491   4.618  16.158 -0.4823 -0.9532  2.0629
 5489SOL     OW27925   1.516   1.358  14.188  0.6847 -0.7515  0.2391
 5489SOL    HW127926   1.502   1.451  14.208  0.8383 -0.4758 -0.9512
 5489SOL    HW227927   1.432   1.320  14.164 -0.6090  0.6288  2.5802
 5490SOL     OW27928   4.114   3.233   0.005 -0.1299  0.1200  0.1977
 5490SOL    HW127929   4.170   3.292   0.055 -1.5497  1.7192 -0.0807
 5490SOL    HW227930   4.049   3.292  17.663  2.1084  0.4869 -3.0057
 5491SOL     OW27931   0.089   0.472  10.610 -0.0400  0.1542  0.0751
 5491SOL    HW127932   0.092   0.566  10.627 -4.0491  0.3897 -0.4389
 5491SOL    HW227933   0.098   0.429  10.695 -0.5125  0.6730  0.3892
 5492SOL     OW27934   2.776   4.373   8.600  0.7066 -0.5453 -0.0697
 5492SOL    HW127935   2.838   4.328   8.657  0.5242 -0.0430  0.5226
 5492SOL    HW227936   2.777   4.463   8.632 -2.2774 -1.6668  3.1637
 5493SOL     OW27937   4.706   0.354   5.524 -0.0787 -0.1026  0.3728
 5493SOL    HW127938   4.721   0.357   5.619  1.5293  1.6116  0.0789
 5493SOL    HW227939   4.719   0.261   5.506 -0.7259  0.6722 -4.1777
 5494SOL     OW27940   0.744   1.801   3.485  0.3725 -0.0786 -0.0768
 5494SOL    HW127941   0.754   1.862   3.412  1.9677  0.2127  0.4066
 5494SOL    HW227942   0.692   1.850   3.548 -2.3140 -3.6247  0.5381
 5495SOL     OW27943   2.002   1.514   6.573 -0.6458 -0.4441 -0.1284
 5495SOL    HW127944   1.913   1.490   6.546 -0.4397 -0.1457 -1.0570
 5495SOL    HW227945   1.990   1.569   6.650  1.0584 -3.3945  2.2147
 5496SOL     OW27946   3.937   2.613   6.991 -0.0931 -0.5644  0.8594
 5496SOL    HW127947   4.030   2.593   7.004  0.0929 -0.7914 -0.8177
 5496SOL    HW227948   3.923   2.693   7.042  0.9385 -0.6749  1.3158
 5497SOL     OW27949   4.394   0.202   6.033 -0.3228 -0.7002 -0.7229
 5497SOL    HW127950   4.348   0.131   6.077 -0.0313 -2.7084 -3.6781
 5497SOL    HW227951   4.368   0.276   6.087  2.9348 -0.5531  0.6114
 5498SOL     OW27952   2.307   3.819   2.791  0.0483  0.4945  0.0048
 5498SOL    HW127953   2.240   3.755   2.766  1.3772 -0.5754 -0.8526
 5498SOL    HW227954   2.255   3.899   2.794  0.2737  0.7125 -1.8080
 5499SOL     OW27955   2.416   1.855   2.396  0.1912 -0.0111  0.1944
 5499SOL    HW127956   2.365   1.844   2.476  1.1074 -2.1422  0.4591
 5499SOL    HW227957   2.436   1.765   2.372  0.3326  0.4175 -1.3453
 5500SOL     OW27958   3.470   0.604   2.512  0.3551 -0.0708  0.2142
 5500SOL    HW127959   3.425   0.645   2.439 -0.2240 -0.8422  0.1378
 5500SOL    HW227960   3.543   0.562   2.465  2.0143  0.3444  2.4015
 5501SOL     OW27961   0.634   3.229   0.724  0.2135 -0.2656 -0.0955
 5501SOL    HW127962   0.542   3.206   0.721  0.8039 -3.3372  4.1069
 5501SOL    HW227963   0.632   3.304   0.665 -0.2236 -1.5905 -1.7571
 5502SOL     OW27964   4.228   3.339   6.035  0.2475 -0.1063  1.0806
 5502SOL    HW127965   4.316   3.332   6.074 -0.0287  0.5513  1.8282
 5502SOL    HW227966   4.235   3.428   6.002  1.0502 -0.7667 -0.5151
 5503SOL     OW27967   1.701   0.594   4.696  0.1382  0.0141 -0.4977
 5503SOL    HW127968   1.650   0.608   4.616 -1.2709 -2.3859 -0.0332
 5503SOL    HW227969   1.787   0.572   4.662  0.6822  2.3137 -0.6443
 5504SOL     OW27970   2.047   0.543  10.929  0.1415 -0.1901  0.4732
 5504SOL    HW127971   2.071   0.469  10.985  3.8713  1.8371  1.5785
 5504SOL    HW227972   2.002   0.606  10.985 -0.7685 -0.4998  0.1010
 5505SOL     OW27973   0.995   3.864   7.378  0.5975  0.2929  0.1298
 5505SOL    HW127974   1.081   3.896   7.405  0.4169 -0.5088  1.6750
 5505SOL    HW227975   0.986   3.798   7.447 -2.3991  0.5933  0.0536
 5506SOL     OW27976   1.133   0.247  17.142 -0.2833 -0.3592 -0.1301
 5506SOL    HW127977   1.148   0.317  17.205 -0.1391 -1.2844  0.8514
 5506SOL    HW227978   1.216   0.202  17.132 -0.1321 -0.5052  1.8337
 5507SOL     OW27979   0.405   2.341   7.517 -0.4407 -0.1306 -0.0986
 5507SOL    HW127980   0.471   2.369   7.454  1.9084 -0.7311  2.1043
 5507SOL    HW227981   0.419   2.409   7.583 -0.0650  0.7640 -1.0965
 5508SOL     OW27982   2.805   1.011   2.773  0.2649 -0.1119 -0.2451
 5508SOL    HW127983   2.894   0.991   2.746  0.1676 -1.4495  0.4110
 5508SOL    HW227984   2.773   1.057   2.696 -0.7111  0.3361  0.4239
 5509SOL     OW27985   2.274   1.536  15.413 -0.1229 -0.1762 -0.3839
 5509SOL    HW127986   2.297   1.614  15.363  0.9386  0.1759  0.6544
 5509SOL    HW227987   2.352   1.522  15.467 -0.5867 -1.8643 -0.1586
 5510SOL     OW27988   4.166   1.853  10.566 -0.3004  0.2968  0.1663
 5510SOL    HW127989   4.125   1.858  10.652 -0.5806  2.3297 -0.0781
 5510SOL    HW227990   4.246   1.902  10.587 -0.3292  0.7301 -0.7119
 5511SOL     OW27991   1.432   1.560   7.542  0.1661 -0.0810  0.3458
 5511SOL    HW127992   1.342   1.589   7.561  0.4791  0.9160  0.3370
 5511SOL    HW227993   1.429   1.578   7.448  0.7085  1.2262  0.5717
 5512SOL     OW27994   4.218   2.667  12.891  0.2020  0.2002 -0.6197
 5512SOL    HW127995   4.309   2.652  12.864  0.2266  2.9274 -2.1346
 5512SOL    HW227996   4.170   2.633  12.816  0.1268  0.1444 -0.5459
 5513SOL     OW27997   4.236   4.646   8.593 -0.3537 -0.2432  0.4128
 5513SOL    HW127998   4.225   4.553   8.616 -2.1967  0.3547  2.0602
 5513SOL    HW227999   4.229   4.700   8.672 -0.7402  0.0702  0.1640
 5514SOL     OW28000   3.273   4.353   5.002 -0.4841 -0.0191  0.1665
 5514SOL    HW128001   3.338   4.289   5.030  0.3349 -0.2565 -2.2405
 5514SOL    HW228002   3.320   4.437   4.999 -0.1557 -0.1482  1.7993
 5515SOL     OW28003   2.358   4.088   6.340 -0.2793  0.3189 -0.0836
 5515SOL    HW128004   2.290   4.021   6.352 -1.2111  0.9772 -1.6332
 5515SOL    HW228005   2.407   4.047   6.270 -0.9879 -0.1831 -0.2896
 5516SOL     OW28006   0.687   0.855  11.924 -0.2326 -0.1964 -0.7956
 5516SOL    HW128007   0.658   0.774  11.965 -0.8084  0.6808  0.5348
 5516SOL    HW228008   0.725   0.828  11.841  2.2908 -1.6108  0.8534
 5517SOL     OW28009   1.136   3.873   0.285 -0.4040 -0.1130 -0.0684
 5517SOL    HW128010   1.226   3.858   0.315 -0.4374  1.2733  0.7463
 5517SOL    HW228011   1.147   3.876   0.190  0.1084 -0.0730 -0.0078
 5518SOL     OW28012   0.061   1.753   5.829 -0.7612  0.5204  0.1565
 5518SOL    HW128013   4.692   1.776   5.829 -0.4307  1.8468  0.5274
 5518SOL    HW228014   0.088   1.807   5.754  1.7671  0.0234  0.7304
 5519SOL     OW28015   0.766   3.786   2.643 -0.2282  0.3166 -0.0682
 5519SOL    HW128016   0.791   3.853   2.579  0.2651 -1.4323 -1.7352
 5519SOL    HW228017   0.847   3.739   2.665  0.0504  0.9778  0.3153
 5520SOL     OW28018   1.781   0.963   3.172  0.4340 -0.6215 -0.3144
 5520SOL    HW128019   1.872   0.951   3.199  0.8420 -2.0121 -2.3078
 5520SOL    HW228020   1.746   1.033   3.227 -0.8368 -2.5189  1.2920
 5521SOL     OW28021   3.214   4.292   8.869 -0.1525 -0.1287 -0.4345
 5521SOL    HW128022   3.239   4.351   8.941  0.9621 -2.2958  0.9691
 5521SOL    HW228023   3.299   4.249   8.859 -0.9725 -1.6057 -0.9496
 5522SOL     OW28024   0.363   0.813   2.954 -0.0560  0.2043 -0.5515
 5522SOL    HW128025   0.448   0.769   2.958  0.3595  1.0431 -0.1878
 5522SOL    HW228026   0.375   0.882   2.888  3.0259  0.7009  0.5104
 5523SOL     OW28027   2.393   4.685  11.298  0.4320  0.6473 -0.3831
 5523SOL    HW128028   2.365   0.048  11.269 -0.6101  0.1525 -0.8571
 5523SOL    HW228029   2.411   4.708  11.389  3.1682  2.0296 -1.2516
 5524SOL     OW28030   0.610   0.071  14.292 -0.2102  0.8960  0.2983
 5524SOL    HW128031   0.548   0.130  14.335 -0.3160 -0.3328  1.7984
 5524SOL    HW228032   0.650   0.040  14.373  0.9539  0.2044 -0.5355
 5525SOL     OW28033   2.313   4.690   5.899  0.3285 -0.1162 -0.4349
 5525SOL    HW128034   2.275   0.051   5.878 -0.7804 -1.1106 -2.4278
 5525SOL    HW228035   2.278   4.634   5.830  0.2684 -0.4426 -0.1409
 5526SOL     OW28036   3.984   1.977   0.371 -0.1062 -0.4581 -0.1712
 5526SOL    HW128037   3.966   1.955   0.280  0.2612  2.5360 -0.9484
 5526SOL    HW228038   3.895   1.998   0.399  0.4447  2.7097 -0.8670
 5527SOL     OW28039   0.364   2.704  17.661 -0.0826  0.0942  0.3273
 5527SOL    HW128040   0.373   2.619   0.007  0.2194  0.0261  0.1335
 5527SOL    HW228041   0.276   2.732  17.684 -0.0745 -0.8104  1.4625
 5528SOL     OW28042   1.507   0.801   6.774  0.1607  0.5799  0.0875
 5528SOL    HW128043   1.507   0.801   6.870  1.2385  0.1129  0.0920
 5528SOL    HW228044   1.579   0.745   6.744  2.1862  2.4229  1.5215
 5529SOL     OW28045   2.642   3.092   6.791  0.0650  0.2898 -0.2359
 5529SOL    HW128046   2.607   3.124   6.874 -1.6184 -0.3567 -0.7111
 5529SOL    HW228047   2.616   3.152   6.721 -1.7366  0.2233  0.3771
 5530SOL     OW28048   1.511   3.549  16.661 -0.1175  0.0632  0.0558
 5530SOL    HW128049   1.501   3.594  16.745  0.7478  2.1668 -0.9569
 5530SOL    HW228050   1.527   3.627  16.608  0.2492 -0.5033 -0.6728
 5531SOL     OW28051   0.113   4.020   4.502  0.4082  0.5911 -0.2233
 5531SOL    HW128052   0.205   4.013   4.478  0.7312  3.6427  0.1152
 5531SOL    HW228053   0.119   4.081   4.575 -1.0895 -0.8343  1.0992
 5532SOL     OW28054   2.160   0.789   6.019  0.4591 -0.1138  0.3058
 5532SOL    HW128055   2.236   0.809   6.075  0.6447 -0.9572  0.3573
 5532SOL    HW228056   2.093   0.833   6.071 -0.9973 -1.2987 -0.5854
 5533SOL     OW28057   2.791   4.664   1.600 -0.2803 -0.4092 -0.4445
 5533SOL    HW128058   2.857   4.668   1.669  0.5622  0.3566 -1.2918
 5533SOL    HW228059   2.835   4.696   1.521  2.2488 -0.3795  0.9739
 5534SOL     OW28060   3.937   1.397   1.053  0.7810  0.3785 -0.5791
 5534SOL    HW128061   3.932   1.485   1.089  0.7490  0.0491  0.2042
 5534SOL    HW228062   3.911   1.424   0.964  0.0891 -0.2445 -0.5683
 5535SOL     OW28063   3.624   2.688   1.194  0.2313  0.6099 -0.0836
 5535SOL    HW128064   3.598   2.602   1.226  3.0542 -0.4834 -0.7032
 5535SOL    HW228065   3.569   2.741   1.252 -1.7228 -0.5138 -0.9305
 5536SOL     OW28066   4.004   1.388   3.705  0.0539 -0.2924 -0.3924
 5536SOL    HW128067   3.915   1.401   3.674  0.3019  1.1658 -0.5039
 5536SOL    HW228068   4.007   1.475   3.746 -3.3554 -0.7010  0.7144
 5537SOL     OW28069   4.690   3.116  14.896 -0.3623  0.4367  0.1092
 5537SOL    HW128070   0.047   3.108  14.948  0.5000  0.1311 -1.2609
 5537SOL    HW228071   4.645   3.178  14.953  0.9935  0.5501  1.0556
 5538SOL     OW28072   2.576   2.715   7.645  0.5052 -0.1036  0.1521
 5538SOL    HW128073   2.613   2.631   7.671  0.7550 -0.8865 -2.6890
 5538SOL    HW228074   2.558   2.752   7.731 -0.9686 -2.2762  0.7711
 5539SOL     OW28075   1.441   3.249   2.231 -0.5748 -0.1661  0.3938
 5539SOL    HW128076   1.364   3.193   2.228  1.3967 -2.8903  0.9249
 5539SOL    HW228077   1.403   3.337   2.236  1.9291  1.0650 -1.9588
 5540SOL     OW28078   4.135   1.844   2.905  0.2272  0.0199  0.1895
 5540SOL    HW128079   4.062   1.803   2.859  1.5170 -1.2408 -0.6846
 5540SOL    HW228080   4.080   1.892   2.968 -0.7186 -1.5246  0.5528
 5541SOL     OW28081   0.552   1.878  17.478 -0.2787  0.3482  0.1568
 5541SOL    HW128082   0.521   1.916  17.560  0.3213 -0.6200  0.8273
 5541SOL    HW228083   0.512   1.794  17.498 -0.9085  0.5731 -0.1708
 5542SOL     OW28084   1.871   2.241   4.312  0.5128  0.3510 -0.7981
 5542SOL    HW128085   1.932   2.281   4.250  1.8548 -0.8644 -0.2647
 5542SOL    HW228086   1.893   2.149   4.300 -0.3366  0.1322 -0.6640
 5543SOL     OW28087   0.718   2.096   7.043 -0.2969  0.3817 -0.5574
 5543SOL    HW128088   0.703   2.014   7.091 -1.4897 -0.5815 -2.5561
 5543SOL    HW228089   0.636   2.142   7.061 -0.6677 -1.0614  1.5094
 5544SOL     OW28090   0.844   0.250   8.834 -0.0494  0.5771  0.0830
 5544SOL    HW128091   0.870   0.229   8.924 -0.7525 -0.4879  0.0435
 5544SOL    HW228092   0.875   0.176   8.782 -2.8430  0.4466 -1.4150
 5545SOL     OW28093   0.801   2.423  17.155  0.5428  0.2294 -0.3228
 5545SOL    HW128094   0.796   2.337  17.114  1.4946  0.4885 -0.9865
 5545SOL    HW228095   0.732   2.467  17.105  0.3210  0.1205 -0.1104
 5546SOL     OW28096   4.408   0.466   5.482 -0.9274 -0.2228 -0.6816
 5546SOL    HW128097   4.494   0.430   5.459 -0.4467  1.3283 -1.2584
 5546SOL    HW228098   4.393   0.414   5.561  0.0577  1.3615  0.5481
 5547SOL     OW28099   0.887   3.156  13.348  0.2634  0.0909  0.3477
 5547SOL    HW128100   0.946   3.231  13.337  0.1517  0.2600  0.9229
 5547SOL    HW228101   0.876   3.173  13.441 -0.7232  0.9008  0.0747
 5548SOL     OW28102   3.507   3.808   8.263 -0.0316 -0.3036 -0.2099
 5548SOL    HW128103   3.523   3.797   8.170 -2.0206  0.0759 -0.5871
 5548SOL    HW228104   3.474   3.722   8.290 -1.0672  0.3677  0.6539
 5549SOL     OW28105   2.939   2.277   5.965  0.2201 -0.0851 -0.1680
 5549SOL    HW128106   2.850   2.294   5.996  0.0861 -2.1310  0.5577
 5549SOL    HW228107   2.983   2.348   6.012  0.3998  0.0517 -0.5399
 5550SOL     OW28108   0.755   2.424   8.778 -0.4887 -0.0288 -0.1051
 5550SOL    HW128109   0.707   2.382   8.849  0.3092 -0.9018 -0.0910
 5550SOL    HW228110   0.676   2.453   8.732 -0.0386  0.7569 -0.3814
 5551SOL     OW28111   3.661   4.492   1.317  0.1596 -0.2227 -0.1073
 5551SOL    HW128112   3.690   4.420   1.261 -2.1587  0.6361 -2.4303
 5551SOL    HW228113   3.748   4.532   1.319  0.0143  0.0214  1.1711
 5552SOL     OW28114   0.116   0.596   4.099  0.0301  0.3065  0.4277
 5552SOL    HW128115   0.113   0.568   4.007  0.0853  3.2018 -0.4681
 5552SOL    HW228116   0.056   0.670   4.093  0.7409  0.7647 -1.0963
 5553SOL     OW28117   4.048   4.232  16.685  0.4318 -0.3453  0.0331
 5553SOL    HW128118   4.140   4.244  16.707  0.2350 -0.3802  0.9056
 5553SOL    HW228119   4.024   4.322  16.663  1.1652  0.3490  2.0959
 5554SOL     OW28120   2.999   2.252  14.550  0.2009  0.4669 -0.5284
 5554SOL    HW128121   3.054   2.318  14.508 -0.1118  0.4597 -0.9479
 5554SOL    HW228122   2.916   2.259  14.503 -0.9706  0.0015  1.4849
 5555SOL     OW28123   0.489   1.917  17.210 -0.0475 -0.2285 -0.1808
 5555SOL    HW128124   0.527   1.879  17.290  0.9348  0.4775 -0.3056
 5555SOL    HW228125   0.474   1.842  17.153 -0.2631 -2.0516  2.2558
 5556SOL     OW28126   2.016   3.638  14.794  0.3005 -0.3096  0.4439
 5556SOL    HW128127   2.110   3.656  14.795  0.7145 -2.3276 -2.6544
 5556SOL    HW228128   2.014   3.611  14.702 -0.7867 -1.0501  0.6752
 5557SOL     OW28129   4.639   2.140  12.287  0.0700  0.0351  0.4478
 5557SOL    HW128130   4.606   2.050  12.279 -0.9287  0.5123 -0.7746
 5557SOL    HW228131   4.718   2.133  12.341  1.3395  2.4454 -1.1151
 5558SOL     OW28132   2.867   2.939   8.852  0.5201 -0.5520  0.0504
 5558SOL    HW128133   2.826   2.902   8.930  0.5992  0.6443  0.6518
 5558SOL    HW228134   2.856   3.034   8.851 -1.2505 -0.7531  0.5395
 5559SOL     OW28135   1.355   2.535   6.713 -0.7555  0.1925  0.8911
 5559SOL    HW128136   1.260   2.525   6.709 -0.6619 -0.3526 -0.0607
 5559SOL    HW228137   1.365   2.521   6.807  1.4040  0.9064  0.7707
 5560SOL     OW28138   3.339   2.744   8.851 -0.0292 -0.1943  0.7391
 5560SOL    HW128139   3.387   2.800   8.912  1.1623 -0.0553 -0.3090
 5560SOL    HW228140   3.276   2.809   8.819 -0.6980 -0.2606  1.9314
 5561SOL     OW28141   2.575   3.636   8.136  0.3208  0.0523  0.3664
 5561SOL    HW128142   2.641   3.661   8.072 -0.1087 -1.7415 -0.7972
 5561SOL    HW228143   2.537   3.719   8.165  2.1488  0.7898  0.6116
 5562SOL     OW28144   2.158   1.709  13.106  0.1149 -0.3840 -0.0276
 5562SOL    HW128145   2.205   1.787  13.079 -0.5720 -0.5443 -1.7468
 5562SOL    HW228146   2.194   1.693  13.193 -1.1925 -1.9579  0.2336
 5563SOL     OW28147   4.198   4.584   7.863 -0.0785  0.1089 -0.4673
 5563SOL    HW128148   4.134   4.513   7.864  0.3363 -0.2219  1.7891
 5563SOL    HW228149   4.165   4.643   7.930  0.1256 -2.4050  1.8441
 5564SOL     OW28150   3.110   2.828   6.551 -0.3347 -0.2162 -0.4056
 5564SOL    HW128151   3.086   2.736   6.548  1.0094 -0.5869 -0.0057
 5564SOL    HW228152   3.032   2.867   6.591 -0.0823 -1.3415  1.1875
 5565SOL     OW28153   3.390   2.748  12.615  0.1225 -0.4472  0.5224
 5565SOL    HW128154   3.352   2.732  12.529 -1.0953  0.9231  0.8125
 5565SOL    HW228155   3.328   2.808  12.655  0.4762  0.6402 -0.5522
 5566SOL     OW28156   4.703   0.806   6.276 -0.0194  0.4721 -0.2344
 5566SOL    HW128157   4.720   0.895   6.247  1.7632  0.0116 -0.6210
 5566SOL    HW228158   4.663   0.755   6.206  1.7151 -3.3414  1.5129
 5567SOL     OW28159   0.429   2.791   8.526  0.1333  0.3458  0.2815
 5567SOL    HW128160   0.521   2.786   8.498 -0.1130 -1.1620 -0.2216
 5567SOL    HW228161   0.422   2.887   8.531 -0.0828  0.1193  3.8503
 5568SOL     OW28162   3.966   0.298   8.439 -0.0634  0.5364  0.5076
 5568SOL    HW128163   3.925   0.381   8.414 -0.3886 -0.2765 -1.6205
 5568SOL    HW228164   4.016   0.341   8.508 -0.5415  0.9450  0.5959
 5569SOL     OW28165   0.859   3.163   5.846  0.2928 -0.2309  0.1614
 5569SOL    HW128166   0.826   3.217   5.918  0.6510 -1.5781  1.3510
 5569SOL    HW228167   0.882   3.234   5.787  0.4606 -1.5806 -1.3965
 5570SOL     OW28168   3.806   2.236   2.624  0.2248  0.0457  0.1209
 5570SOL    HW128169   3.828   2.166   2.562  0.1066  1.0260 -1.0101
 5570SOL    HW228170   3.712   2.239   2.607  0.3095 -1.5264 -0.6522
 5571SOL     OW28171   0.749   1.613  13.673 -0.2928  0.3247  0.1934
 5571SOL    HW128172   0.676   1.609  13.611  0.4640 -0.4982 -0.6267
 5571SOL    HW228173   0.774   1.704  13.659  1.5879 -0.3587 -0.8427
 5572SOL     OW28174   3.815   0.817   8.135  0.3985 -0.2961  0.3028
 5572SOL    HW128175   3.820   0.808   8.231  4.5603 -2.8804 -0.1685
 5572SOL    HW228176   3.807   0.910   8.115  0.2977 -0.7135 -1.6067
 5573SOL     OW28177   0.732   1.827   0.917 -0.1035 -0.1090 -0.5143
 5573SOL    HW128178   0.656   1.878   0.890 -1.2336 -0.8405  1.3032
 5573SOL    HW228179   0.711   1.734   0.903 -0.4478 -0.3508  1.5944
 5574SOL     OW28180   1.312   3.098   2.909  0.7789 -0.4313  0.3265
 5574SOL    HW128181   1.226   3.057   2.904  0.0519  0.9527  1.3198
 5574SOL    HW228182   1.291   3.190   2.895  0.8930 -0.3949  0.3946
 5575SOL     OW28183   2.853   2.291   5.669  0.3044  0.5459  0.0840
 5575SOL    HW128184   2.910   2.281   5.745 -0.9333  1.5075  1.1486
 5575SOL    HW228185   2.904   2.286   5.589  0.9756 -0.0815  0.5556
 5576SOL     OW28186   1.029   0.985   5.993 -0.7933 -0.6137 -0.0082
 5576SOL    HW128187   1.084   0.909   6.011  0.4306  0.4484  0.8069
 5576SOL    HW228188   1.020   0.986   5.898 -0.8178 -1.0649 -0.0080
 5577SOL     OW28189   3.626   3.914  10.967  0.5738 -0.4480  0.1317
 5577SOL    HW128190   3.590   3.888  10.882 -0.8285  0.0086  0.5933
 5577SOL    HW228191   3.613   4.008  10.960 -0.0353 -0.6479 -1.3726
 5578SOL     OW28192   1.227   2.267   9.922  0.2486 -0.1935 -0.0162
 5578SOL    HW128193   1.297   2.213   9.884  2.1914  2.1455  0.2240
 5578SOL    HW228194   1.144   2.227   9.897 -0.8109  2.7606 -1.2649
 5579SOL     OW28195   3.455   3.248   9.993 -0.2042  0.2774 -0.0244
 5579SOL    HW128196   3.489   3.167  10.031 -0.2364  0.5146  0.5104
 5579SOL    HW228197   3.392   3.269  10.062  0.7065  0.2982  0.7876
 5580SOL     OW28198   2.874   2.284   3.780 -0.1745  0.2019 -0.6626
 5580SOL    HW128199   2.822   2.285   3.860  2.2449 -1.2176  0.9487
 5580SOL    HW228200   2.824   2.349   3.731  1.1363  2.1579  0.6213
 5581SOL     OW28201   4.162   0.185  14.674 -0.1682 -0.0155 -0.0597
 5581SOL    HW128202   4.227   0.128  14.633 -0.2939  0.7899 -1.3912
 5581SOL    HW228203   4.211   0.193  14.756  1.3115  0.8033 -1.0332
 5582SOL     OW28204   3.575   0.399   1.393 -0.3320 -0.2161  0.0575
 5582SOL    HW128205   3.505   0.458   1.421 -0.5526 -0.1338 -0.6919
 5582SOL    HW228206   3.526   0.317   1.395  0.8208 -0.8980  0.4100
 5583SOL     OW28207   1.059   4.137   4.559  0.6703 -0.5129  0.2600
 5583SOL    HW128208   1.044   4.113   4.467 -0.5534  0.4841  0.1902
 5583SOL    HW228209   1.135   4.195   4.559  0.8016 -0.6873 -1.7587
 5584SOL     OW28210   3.299   0.929   3.538 -0.0888  0.2717  0.3068
 5584SOL    HW128211   3.214   0.907   3.501  0.1441  1.9912 -1.2068
 5584SOL    HW228212   3.273   0.963   3.624 -0.5413  0.3042  0.1553
 5585SOL     OW28213   3.891   4.565   9.168  0.1345  0.2153 -0.7231
 5585SOL    HW128214   3.830   4.618   9.219 -0.4564 -0.9690 -0.1958
 5585SOL    HW228215   3.968   4.621   9.167 -0.5332  1.1259 -1.6766
 5586SOL     OW28216   4.334   3.560   8.631  0.6045 -0.0177  0.0401
 5586SOL    HW128217   4.293   3.579   8.716 -1.1805 -1.1133 -0.5674
 5586SOL    HW228218   4.428   3.554   8.645  0.7703 -0.0571 -1.1156
 5587SOL     OW28219   0.884   2.093  16.746 -0.0241  0.0156  0.2647
 5587SOL    HW128220   0.889   2.120  16.837  1.3600 -0.1646  0.2330
 5587SOL    HW228221   0.949   2.024  16.739  0.7804  0.7624  0.3983
 5588SOL     OW28222   4.282   1.722  13.333 -0.3522  0.4002 -0.3995
 5588SOL    HW128223   4.265   1.646  13.277 -0.3380  1.2257 -1.5109
 5588SOL    HW228224   4.362   1.696  13.378  0.1490 -1.0794 -2.1539
 5589SOL     OW28225   1.497   0.130   5.605 -0.7493  0.3766 -0.0361
 5589SOL    HW128226   1.464   0.042   5.586  0.1426  0.3059 -1.2615
 5589SOL    HW228227   1.590   0.131   5.582  0.1670 -1.4057  3.6997
 5590SOL     OW28228   3.022   4.249   0.149  0.0366 -0.1357 -0.6547
 5590SOL    HW128229   3.078   4.187   0.195 -0.4837 -1.0676 -1.2884
 5590SOL    HW228230   3.042   4.333   0.191  1.0508 -0.5288 -0.3619
 5591SOL     OW28231   0.877   3.578   2.384  0.0794 -0.1641  0.1032
 5591SOL    HW128232   0.864   3.657   2.333  1.1987  1.1302  1.8387
 5591SOL    HW228233   0.882   3.506   2.320  0.3968 -1.6596  1.7993
 5592SOL     OW28234   1.841   3.040  14.901  0.2016 -0.4019  0.3769
 5592SOL    HW128235   1.760   3.091  14.899 -0.5614 -1.6427 -0.6106
 5592SOL    HW228236   1.887   3.092  14.835  2.0646  0.2320  2.1727
 5593SOL     OW28237   0.255   4.295   6.603  0.3334 -0.1854 -0.0697
 5593SOL    HW128238   0.195   4.344   6.660 -1.3788 -1.2357 -0.9556
 5593SOL    HW228239   0.219   4.208   6.623 -2.5696  0.2782 -3.3265
 5594SOL     OW28240   3.444   1.486   8.838  0.2150 -0.1579 -0.0721
 5594SOL    HW128241   3.412   1.573   8.813 -0.6815 -0.2144  0.8342
 5594SOL    HW228242   3.365   1.432   8.846  1.5232 -1.8850  1.1433
 5595SOL     OW28243   3.345   1.435   6.582  0.0939  0.0743 -0.3121
 5595SOL    HW128244   3.438   1.430   6.603  0.0751 -0.2907 -0.3239
 5595SOL    HW228245   3.316   1.409   6.669 -0.2004  0.0123 -0.4285
 5596SOL     OW28246   2.467   4.301  14.050 -0.0779  0.0925 -0.0336
 5596SOL    HW128247   2.480   4.366  14.119  0.7577 -0.2080  0.0904
 5596SOL    HW228248   2.555   4.286  14.017  0.6886  1.4103  1.4270
 5597SOL     OW28249   2.983   0.829  11.592  0.3172 -0.3611 -0.5472
 5597SOL    HW128250   3.025   0.790  11.669  0.4254  0.1183 -0.3616
 5597SOL    HW228251   2.934   0.895  11.641  2.4902  1.0478 -0.2749
 5598SOL     OW28252   2.764   1.291   6.584 -0.6686  0.6697  0.5948
 5598SOL    HW128253   2.671   1.275   6.572 -0.2259 -0.3214 -1.4494
 5598SOL    HW228254   2.769   1.374   6.631 -0.4797  0.0143  1.7513
 5599SOL     OW28255   1.625   1.208  13.469 -0.4514  0.1299  0.4401
 5599SOL    HW128256   1.697   1.268  13.488 -0.5935  0.1688  0.8464
 5599SOL    HW228257   1.648   1.142  13.535 -1.9498  0.6350  1.4679
 5600SOL     OW28258   2.885   1.624   1.967 -0.3790  0.2146  0.0127
 5600SOL    HW128259   2.927   1.544   1.933  0.8962  1.0486 -0.3847
 5600SOL    HW228260   2.832   1.580   2.033  1.6221  0.5907  1.8797
 5601SOL     OW28261   1.900   0.451   2.593 -0.3470 -0.5954 -0.1541
 5601SOL    HW128262   1.986   0.468   2.555 -2.0534  3.5091 -2.1280
 5601SOL    HW228263   1.852   0.436   2.511 -0.9554  2.4956 -0.3499
 5602SOL     OW28264   3.689   1.433  14.192 -0.1206  0.4894  0.4254
 5602SOL    HW128265   3.733   1.513  14.163 -3.6177  1.5008 -2.1391
 5602SOL    HW228266   3.677   1.462  14.282 -1.0800 -1.0980  0.8098
 5603SOL     OW28267   0.591   2.405   7.076  0.5290  0.2628 -0.4256
 5603SOL    HW128268   0.684   2.428   7.073  0.7264 -0.4111  0.5192
 5603SOL    HW228269   0.572   2.493   7.043 -1.0463  0.6097  1.3566
 5604SOL     OW28270   0.945   3.815   3.105  0.1300 -0.2659  0.4140
 5604SOL    HW128271   0.863   3.862   3.095 -0.5523 -1.3581  0.8642
 5604SOL    HW228272   0.913   3.725   3.116  0.1259 -0.2196  0.7950
 5605SOL     OW28273   2.351   1.912   3.622 -0.4200 -0.5742  0.5516
 5605SOL    HW128274   2.304   1.901   3.705 -1.3778 -0.2241  0.0528
 5605SOL    HW228275   2.421   1.847   3.624  2.0004  2.1193  3.6637
 5606SOL     OW28276   2.746   1.120   3.834 -0.4278  0.1226  0.3120
 5606SOL    HW128277   2.756   1.150   3.744 -1.3902  1.2465  0.5743
 5606SOL    HW228278   2.765   1.028   3.819 -1.0599  0.1637 -0.7312
 5607SOL     OW28279   1.810   0.085   6.670 -0.1873  0.2904  0.1526
 5607SOL    HW128280   1.761   0.003   6.660  2.9817 -1.4579 -1.0401
 5607SOL    HW228281   1.899   0.056   6.654 -0.1126  0.0628  1.0034
 5608SOL     OW28282   1.846   1.618  10.496 -0.3487  0.1980 -0.4222
 5608SOL    HW128283   1.766   1.570  10.474 -0.6217 -0.0163  1.0438
 5608SOL    HW228284   1.837   1.617  10.591  1.1605  1.3725 -0.2706
 5609SOL     OW28285   3.171   2.255   6.440 -0.1889 -0.0617 -0.2769
 5609SOL    HW128286   3.228   2.278   6.367 -1.2720  2.1158 -0.4390
 5609SOL    HW228287   3.097   2.313   6.423 -0.5678 -0.6534 -0.6514
 5610SOL     OW28288   2.279   0.152   9.036  0.2485 -0.6630 -0.5178
 5610SOL    HW128289   2.188   0.126   9.055  0.0652 -0.3190 -0.9164
 5610SOL    HW228290   2.296   0.230   9.089 -0.4013  0.4324 -1.9402
 5611SOL     OW28291   4.519   1.695  10.219  0.3284 -0.5955 -0.1161
 5611SOL    HW128292   4.561   1.781  10.223  1.4482 -1.1018 -0.9395
 5611SOL    HW228293   4.478   1.683  10.305 -1.2374  0.8832 -0.6781
 5612SOL     OW28294   1.281   2.417  15.187  0.2978  0.7564  0.0441
 5612SOL    HW128295   1.348   2.350  15.178 -0.8357 -0.3103 -0.5176
 5612SOL    HW228296   1.218   2.351  15.220 -0.1818  0.8431 -0.7009
 5613SOL     OW28297   1.256   4.437   6.072 -0.5134  0.7000 -0.2844
 5613SOL    HW128298   1.310   4.363   6.043 -2.1658 -1.0949  1.2124
 5613SOL    HW228299   1.256   4.489   5.991 -1.8442 -2.2503 -2.2103
 5614SOL     OW28300   3.657   1.553   3.899  0.2685 -0.6249  0.3731
 5614SOL    HW128301   3.605   1.488   3.946  0.3639 -0.5099  0.6366
 5614SOL    HW228302   3.622   1.632   3.940  0.1659  0.4308 -1.7391
 5615SOL     OW28303   1.363   3.224   6.339 -0.4326 -0.1135 -0.6111
 5615SOL    HW128304   1.317   3.305   6.361  1.1111  0.8374 -0.8918
 5615SOL    HW228305   1.294   3.158   6.341  0.2725 -0.8328  0.0007
 5616SOL     OW28306   4.495   0.058  17.326  0.2969 -0.3476 -0.0227
 5616SOL    HW128307   4.527   0.139  17.285  1.8109 -1.3837 -0.8864
 5616SOL    HW228308   4.501   4.723  17.251  2.0136 -0.4540  0.1891
 5617SOL     OW28309   2.392   1.358   7.647 -0.1731  0.0845 -0.0400
 5617SOL    HW128310   2.430   1.316   7.569  1.4972  2.2583 -0.3844
 5617SOL    HW228311   2.328   1.290   7.665  0.1057 -0.0810  0.3402
 5618SOL     OW28312   0.899   2.894   7.802 -0.1122  0.5492  0.0438
 5618SOL    HW128313   0.928   2.965   7.745  1.1178  0.1857  0.2068
 5618SOL    HW228314   0.889   2.940   7.885  1.0382  1.4588 -0.3252
 5619SOL     OW28315   1.676   2.863  17.168  0.1348  0.6779  0.0864
 5619SOL    HW128316   1.585   2.850  17.143  0.0584  1.0971  0.1501
 5619SOL    HW228317   1.705   2.929  17.105 -1.5416 -0.2251 -1.6089
 5620SOL     OW28318   0.758   2.109   1.217  0.3510  0.1778 -0.0692
 5620SOL    HW128319   0.830   2.059   1.179  1.4170  0.6473  1.3576
 5620SOL    HW228320   0.719   2.155   1.143  2.7941  1.3009 -0.6520
 5621SOL     OW28321   3.922   2.449   2.912  0.1607 -0.1639 -0.2590
 5621SOL    HW128322   3.934   2.512   2.840  1.2475 -1.4428 -1.1968
 5621SOL    HW228323   3.958   2.383   2.853 -1.6980 -1.2819 -0.0992
 5622SOL     OW28324   2.351   4.105   3.131 -0.0772  0.3360 -0.1582
 5622SOL    HW128325   2.436   4.080   3.096 -0.7773 -0.1212 -1.5554
 5622SOL    HW228326   2.365   4.193   3.166 -0.3285 -0.5837  2.2833
 5623SOL     OW28327   1.710   2.470   4.998 -0.6264  0.0735 -0.5353
 5623SOL    HW128328   1.654   2.527   4.945 -1.0103  0.4068  0.2221
 5623SOL    HW228329   1.748   2.420   4.926  1.0853 -1.6607  1.5680
 5624SOL     OW28330   2.301   1.971  15.197  0.3499  0.2328  0.4790
 5624SOL    HW128331   2.334   1.885  15.173 -0.8812 -0.7365  2.1829
 5624SOL    HW228332   2.234   1.945  15.261 -1.7683  0.7363 -1.5240
 5625SOL     OW28333   3.792   0.766   2.776  0.2512 -0.1638 -0.1263
 5625SOL    HW128334   3.764   0.728   2.859 -1.1228 -1.5048 -1.2115
 5625SOL    HW228335   3.749   0.715   2.708 -1.2185  1.6072 -0.5207
 5626SOL     OW28336   3.015   1.444   5.095  0.1180  0.3540 -0.1817
 5626SOL    HW128337   3.061   1.455   5.178 -0.3761 -1.0985  0.2763
 5626SOL    HW228338   3.088   1.422   5.036 -0.8559  0.3341 -1.3818
 5627SOL     OW28339   2.086   1.267   8.978 -0.1279  0.6329 -0.2251
 5627SOL    HW128340   2.069   1.198   9.042  1.5685 -0.5370 -1.0294
 5627SOL    HW228341   2.179   1.250   8.961 -0.3055 -0.8037  0.2380
 5628SOL     OW28342   1.632   3.803  11.778 -0.1801 -0.1185 -0.2675
 5628SOL    HW128343   1.617   3.897  11.763  1.8680  0.0253 -1.4790
 5628SOL    HW228344   1.538   3.788  11.789  0.2871 -1.9087  1.3262
 5629SOL     OW28345   1.273   1.203   6.871 -0.3978 -0.1374  0.0695
 5629SOL    HW128346   1.301   1.295   6.872 -0.9325  0.0303 -0.2931
 5629SOL    HW228347   1.351   1.161   6.836  0.3837  0.2554  1.3329
 5630SOL     OW28348   3.646   1.759  15.225  0.3080  0.5038 -0.0993
 5630SOL    HW128349   3.708   1.707  15.277  0.1773  0.4331 -0.0130
 5630SOL    HW228350   3.582   1.793  15.288 -0.9536  0.7619 -1.5203
 5631SOL     OW28351   0.899   0.426   6.680  0.1876 -0.1830 -0.0542
 5631SOL    HW128352   0.845   0.348   6.670  0.3549 -0.2475 -0.4542
 5631SOL    HW228353   0.981   0.383   6.656 -1.3904 -3.0107 -0.4229
 5632SOL     OW28354   4.012   3.628   7.474  0.6435  0.1632 -0.0559
 5632SOL    HW128355   3.979   3.717   7.475  0.0692 -0.0575  1.2758
 5632SOL    HW228356   4.092   3.635   7.421  1.2681 -1.5187  0.6379
 5633SOL     OW28357   1.714   3.009   0.557  0.0992 -0.2182 -0.1448
 5633SOL    HW128358   1.697   3.078   0.621 -0.4031  1.0019 -1.6038
 5633SOL    HW228359   1.645   2.947   0.582  1.6482 -2.2205 -0.8841
 5634SOL     OW28360   2.379   3.989   1.836 -0.0050 -0.1926  0.5540
 5634SOL    HW128361   2.294   3.946   1.847 -0.3933  0.1401 -1.1791
 5634SOL    HW228362   2.437   3.919   1.809  0.3902  0.7304 -0.9729
 5635SOL     OW28363   4.449   3.497  12.985 -0.2442  0.1146  0.3763
 5635SOL    HW128364   4.419   3.562  12.923 -3.2156  0.5132  2.1773
 5635SOL    HW228365   4.396   3.525  13.060 -0.4835  0.7985 -0.0477
 5636SOL     OW28366   4.147   1.596  17.296 -0.1646 -0.2702  0.1076
 5636SOL    HW128367   4.066   1.590  17.246 -1.2267  0.2536  1.7854
 5636SOL    HW228368   4.120   1.652  17.369  1.8514 -1.1504  1.5242
 5637SOL     OW28369   1.907   2.090   6.610  0.2050 -0.5197  0.0632
 5637SOL    HW128370   1.961   2.161   6.646 -2.5079  0.9638  1.1826
 5637SOL    HW228371   1.889   2.108   6.518 -1.7291  0.7150  0.6972
 5638SOL     OW28372   3.274   2.244   5.106 -0.0634 -0.1840 -0.5785
 5638SOL    HW128373   3.353   2.290   5.078 -2.7655  3.1226 -2.6746
 5638SOL    HW228374   3.317   2.172   5.153  0.2789  1.9695  2.4034
 5639SOL     OW28375   1.534   1.365  14.499 -0.3818  0.6793 -0.6330
 5639SOL    HW128376   1.562   1.329  14.414 -1.2304 -3.4985  0.9090
 5639SOL    HW228377   1.445   1.331  14.504  0.0867 -0.5243 -0.5041
 5640SOL     OW28378   3.831   1.608   3.403 -0.2253 -0.6699 -0.4427
 5640SOL    HW128379   3.808   1.565   3.485 -1.0868 -1.4378 -1.0888
 5640SOL    HW228380   3.862   1.528   3.361 -2.0077 -0.9059 -1.2657
 5641SOL     OW28381   3.596   3.868  15.744  0.2436 -0.7018  0.4483
 5641SOL    HW128382   3.603   3.958  15.776  0.3967 -0.5616  0.0242
 5641SOL    HW228383   3.686   3.836  15.747  1.0254  1.5224  0.0753
 5642SOL     OW28384   0.442   4.342   6.974 -0.4373  0.1681 -0.0939
 5642SOL    HW128385   0.390   4.272   6.936 -1.1562  0.7175 -0.1270
 5642SOL    HW228386   0.533   4.312   6.972 -1.3406 -2.3753 -2.5850
 5643SOL     OW28387   2.485   4.705  11.537  0.0837 -0.4896 -0.0339
 5643SOL    HW128388   2.579   4.697  11.552 -0.0497 -2.4698 -0.2868
 5643SOL    HW228389   2.452   4.722  11.625  1.8342 -1.2607  0.7867
 5644SOL     OW28390   1.460   4.198   1.258 -0.2559  0.1533  0.5539
 5644SOL    HW128391   1.541   4.154   1.235 -0.7668 -0.4340 -0.1475
 5644SOL    HW228392   1.400   4.125   1.272  1.0935 -1.2302 -0.8828
 5645SOL     OW28393   0.736   0.624  15.893  0.3593 -0.1449  0.1095
 5645SOL    HW128394   0.730   0.583  15.980 -0.2001 -2.2029 -0.9157
 5645SOL    HW228395   0.760   0.713  15.921  0.9715 -0.4540  0.5714
 5646SOL     OW28396   1.478   1.124   7.190  0.0343 -0.0784 -0.1168
 5646SOL    HW128397   1.539   1.132   7.264 -0.1929 -1.0885  0.1718
 5646SOL    HW228398   1.502   1.203   7.142  0.4816 -0.3918 -0.4056
 5647SOL     OW28399   1.451   4.366   1.013  0.0059  0.2434 -0.1179
 5647SOL    HW128400   1.419   4.304   1.079 -0.3855  0.3560 -0.2058
 5647SOL    HW228401   1.412   4.318   0.940 -0.6821 -0.3256  0.6200
 5648SOL     OW28402   3.680   3.492   0.933 -0.0510 -0.4927  0.1445
 5648SOL    HW128403   3.664   3.584   0.956  0.5256 -0.7481  1.5691
 5648SOL    HW228404   3.589   3.472   0.956 -0.3876  0.5848 -0.2469
 5649SOL     OW28405   2.303   3.014   7.640 -0.6345 -0.3890  0.0975
 5649SOL    HW128406   2.230   2.953   7.633 -1.2900  0.3898  0.1669
 5649SOL    HW228407   2.334   2.995   7.728  1.1831  1.2239 -0.1965
 5650SOL     OW28408   1.168   3.856   4.126 -0.0144 -0.4307  0.0715
 5650SOL    HW128409   1.206   3.804   4.055  2.9069  0.7045  0.8183
 5650SOL    HW228410   1.078   3.841   4.096 -0.0070 -0.7360  0.2039
 5651SOL     OW28411   2.546   0.327   7.850  0.0863  0.3517  0.5154
 5651SOL    HW128412   2.539   0.251   7.792  0.5614  0.1645  0.7064
 5651SOL    HW228413   2.640   0.343   7.858  0.3527 -0.3686 -1.3150
 5652SOL     OW28414   1.867   2.005   6.889 -0.2042 -0.1630 -0.2809
 5652SOL    HW128415   1.779   2.026   6.920 -0.3274 -0.2006 -0.6052
 5652SOL    HW228416   1.874   2.046   6.803  0.3209 -0.9087 -0.5912
 5653SOL     OW28417   1.121   3.939   3.547  0.1349  0.8343  0.3696
 5653SOL    HW128418   1.129   3.867   3.609 -0.7457  0.9797  0.6486
 5653SOL    HW228419   1.031   3.928   3.515  0.5488 -1.4437 -0.0506
 5654SOL     OW28420   1.097   2.616   8.200  0.9409  0.3289 -0.0001
 5654SOL    HW128421   1.134   2.560   8.133 -0.3064 -0.0904 -0.3425
 5654SOL    HW228422   1.023   2.557   8.215  1.9979 -0.7383  0.9704
 5655SOL     OW28423   1.611   3.200   6.445 -0.1560  0.4658 -0.0389
 5655SOL    HW128424   1.584   3.222   6.356 -1.8998 -2.1704 -0.1612
 5655SOL    HW228425   1.563   3.121   6.469  3.2134 -1.4518  0.3539
 5656SOL     OW28426   1.976   0.876   8.170  0.0513 -0.5177 -0.0145
 5656SOL    HW128427   1.949   0.930   8.096 -1.5281  0.6873  1.4225
 5656SOL    HW228428   1.956   0.787   8.143 -0.3903 -0.5724  0.4915
 5657SOL     OW28429   2.556   3.953   2.768 -0.5432  0.2857 -0.4607
 5657SOL    HW128430   2.625   3.888   2.786  0.4934  1.8933  1.3205
 5657SOL    HW228431   2.474   3.906   2.749  0.9274 -2.7172  0.5464
 5658SOL     OW28432   3.194   4.277   8.507  0.1339 -0.6000 -0.6310
 5658SOL    HW128433   3.161   4.350   8.559 -0.5803 -1.9116  0.7400
 5658SOL    HW228434   3.251   4.234   8.571  0.0176 -0.0772 -0.1835
 5659SOL     OW28435   0.038   2.032   5.705  0.2039  0.2864  0.2340
 5659SOL    HW128436   4.677   2.072   5.686  1.3141  1.0753 -3.1743
 5659SOL    HW228437   0.067   2.095   5.770  1.6158  0.8053 -0.8914
 5660SOL     OW28438   4.136   2.949  16.271  0.4265 -0.5671  0.3045
 5660SOL    HW128439   4.172   3.028  16.311 -1.9468  0.6052  0.1244
 5660SOL    HW228440   4.195   2.926  16.199 -0.7086  0.1961 -0.8549
 5661SOL     OW28441   1.065   1.650   4.082 -0.1542 -0.1478  0.0368
 5661SOL    HW128442   0.977   1.625   4.056 -0.6494  0.3238  1.2495
 5661SOL    HW228443   1.066   1.605   4.167  1.7763  0.7859  0.5275
 5662SOL     OW28444   2.981   2.662   8.213 -0.5607  0.0124  0.1410
 5662SOL    HW128445   2.997   2.750   8.177  0.0385 -0.2880 -0.3375
 5662SOL    HW228446   2.985   2.609   8.133  1.3480  1.2576 -0.6063
 5663SOL     OW28447   2.968   2.066   1.303  0.0637  0.1472 -0.3773
 5663SOL    HW128448   3.015   1.993   1.262  0.1395 -0.9328  1.5861
 5663SOL    HW228449   3.034   2.098   1.364 -2.2084 -1.0573  2.7216
 5664SOL     OW28450   3.200   0.431  14.125  0.5899 -0.5588 -0.2093
 5664SOL    HW128451   3.213   0.348  14.081 -0.5461 -1.4660  1.1454
 5664SOL    HW228452   3.137   0.411  14.194 -1.0288  3.6262 -0.4357
 5665SOL     OW28453   2.723   2.100   3.258 -0.1930  0.3275 -0.4353
 5665SOL    HW128454   2.750   2.065   3.342 -0.7715  0.0053 -0.3811
 5665SOL    HW228455   2.804   2.108   3.208 -0.1697  1.1720 -0.2507
 5666SOL     OW28456   4.320   0.296   8.262  0.0435 -0.3365  0.0217
 5666SOL    HW128457   4.411   0.304   8.293 -0.0203  1.7025 -0.3311
 5666SOL    HW228458   4.306   0.216   8.314  0.3584 -0.9508 -0.8269
 5667SOL     OW28459   4.208   2.360   0.925  0.0447  0.2643  0.1979
 5667SOL    HW128460   4.226   2.438   0.977 -0.2760  0.0619  0.6197
 5667SOL    HW228461   4.121   2.390   0.896  0.0645  0.0035 -0.1382
 5668SOL     OW28462   1.260   2.101   4.959 -0.1313 -0.0278 -0.0879
 5668SOL    HW128463   1.237   2.186   4.998  0.2238  0.7254 -1.5324
 5668SOL    HW228464   1.173   2.063   4.945  0.1649 -0.2670 -1.2804
 5669SOL     OW28465   1.999   4.536  12.853  1.2184  0.1858  0.2565
 5669SOL    HW128466   2.057   4.592  12.802  0.6211  0.8445  0.3047
 5669SOL    HW228467   1.940   4.610  12.872 -0.9551 -1.5073  0.1303
 5670SOL     OW28468   2.527   2.773   9.033 -0.1403 -0.8645 -0.0093
 5670SOL    HW128469   2.612   2.775   9.078  0.1934 -2.2976 -0.5838
 5670SOL    HW228470   2.517   2.866   9.012 -0.1126 -1.1884 -1.4145
 5671SOL     OW28471   2.036   4.679   6.632  0.0546  0.3509 -0.0550
 5671SOL    HW128472   2.113   4.627   6.608 -0.1065  0.6241 -1.1876
 5671SOL    HW228473   1.977   4.606   6.651  0.9147 -0.7709 -1.7042
 5672SOL     OW28474   3.204   0.361   1.951 -0.2037  0.1707 -0.1540
 5672SOL    HW128475   3.258   0.289   1.982  1.6206  0.6515 -2.2055
 5672SOL    HW228476   3.151   0.307   1.893 -1.0245  0.5641  0.2204
 5673SOL     OW28477   0.663   3.404   9.888 -0.4848 -0.0678 -0.0648
 5673SOL    HW128478   0.708   3.419   9.972 -0.0938  0.5872 -0.3960
 5673SOL    HW228479   0.594   3.345   9.918  0.9587 -2.4630 -1.4571
 5674SOL     OW28480   3.064   3.761   1.460 -0.3173 -0.2861 -0.1361
 5674SOL    HW128481   3.071   3.850   1.428  2.6644 -0.5212 -0.0640
 5674SOL    HW228482   3.149   3.718   1.459  0.4186  1.1993 -1.4893
 5675SOL     OW28483   1.690   1.908   7.613 -0.6274 -0.0126  0.4261
 5675SOL    HW128484   1.780   1.942   7.607 -0.1439 -1.1259  1.3037
 5675SOL    HW228485   1.682   1.875   7.523 -1.5631  1.3394  0.0223
 5676SOL     OW28486   3.162   2.963  15.657  0.1473  0.0547 -0.1288
 5676SOL    HW128487   3.214   2.915  15.592 -0.3213 -0.6975  0.0563
 5676SOL    HW228488   3.221   2.965  15.733  0.4991 -0.9284 -0.3689
 5677SOL     OW28489   1.091   2.096  16.451  0.3728 -0.4463 -0.3585
 5677SOL    HW128490   1.125   2.134  16.532 -0.9803  1.3609 -0.6364
 5677SOL    HW228491   1.003   2.134  16.450  1.1898  1.3591 -2.2497
 5678SOL     OW28492   0.155   4.642   6.348 -0.1997 -0.0939 -0.1759
 5678SOL    HW128493   0.127   4.551   6.339  3.3951 -1.1561 -0.7600
 5678SOL    HW228494   0.081   4.694   6.317  1.3991  3.2204  1.6443
 5679SOL     OW28495   1.189   2.055  10.917  0.0365 -0.1865 -0.1311
 5679SOL    HW128496   1.209   2.143  10.884 -0.0500  0.1687  0.7545
 5679SOL    HW228497   1.123   2.068  10.986  1.7978  0.1809  1.4822
 5680SOL     OW28498   3.865   1.204   5.582 -0.1873  0.4436 -0.3682
 5680SOL    HW128499   3.921   1.127   5.573  0.3187  0.7181  0.4172
 5680SOL    HW228500   3.781   1.174   5.547 -0.3200  0.8731 -0.4282
 5681SOL     OW28501   0.056   4.102   6.236  0.0713  0.3826 -0.3093
 5681SOL    HW128502   4.706   4.149   6.196  1.0139  0.3305 -2.0985
 5681SOL    HW228503   0.001   4.061   6.303  0.2524  0.1779 -0.2870
 5682SOL     OW28504   4.237   1.032   3.699 -0.1744  0.1619  0.0035
 5682SOL    HW128505   4.164   1.067   3.752  0.7200  0.1247  1.2645
 5682SOL    HW228506   4.263   1.118   3.668 -2.1521  0.5177 -0.6490
 5683SOL     OW28507   1.016   3.085  17.206 -0.0126 -0.0393  0.4526
 5683SOL    HW128508   0.940   3.049  17.158  0.2944 -1.1516  0.8013
 5683SOL    HW228509   1.055   3.006  17.243  0.1846 -0.7708 -1.3135
 5684SOL     OW28510   1.772   1.442   6.494 -0.3020 -0.1718  0.6291
 5684SOL    HW128511   1.769   1.351   6.524  1.0902 -0.1138  0.9399
 5684SOL    HW228512   1.681   1.450   6.467  0.3628  0.1363 -1.5311
 5685SOL     OW28513   3.346   2.372   6.213 -0.2885 -0.2295 -0.4463
 5685SOL    HW128514   3.357   2.308   6.143  1.4516 -1.3874  0.8958
 5685SOL    HW228515   3.429   2.354   6.257 -1.4068 -0.3003  1.5961
 5686SOL     OW28516   2.485   2.979   9.398 -0.5020  0.4919 -0.3137
 5686SOL    HW128517   2.526   2.993   9.483 -2.4848  0.3036  0.6713
 5686SOL    HW228518   2.502   3.065   9.360  1.4627 -0.7693 -2.3250
 5687SOL     OW28519   3.943   3.947  10.035 -0.5169 -0.2309  0.5954
 5687SOL    HW128520   3.962   3.865  10.081 -2.0329 -0.5837  0.6202
 5687SOL    HW228521   4.010   4.001  10.075 -0.3209 -0.8642  1.1141
 5688SOL     OW28522   0.008   3.104   6.999  0.0941  0.0948  0.1692
 5688SOL    HW128523   0.029   3.168   6.931  0.0028 -0.1422 -0.0802
 5688SOL    HW228524   4.704   3.032   6.942 -0.4506 -0.6551  1.3942
 5689SOL     OW28525   2.053   2.091   0.612  0.1760  0.4895 -0.2415
 5689SOL    HW128526   2.117   2.030   0.575 -1.0718  0.3962 -2.2794
 5689SOL    HW228527   1.973   2.051   0.577  0.5266 -0.9912  0.6507
 5690SOL     OW28528   0.217   3.037  10.679  0.5642 -0.1610  0.5574
 5690SOL    HW128529   0.230   3.091  10.600  1.5409  0.6150  1.2496
 5690SOL    HW228530   0.240   2.953  10.639  1.9653  0.3495  0.2984
 5691SOL     OW28531   2.649   1.405   9.072 -0.0342  0.0004 -0.7729
 5691SOL    HW128532   2.687   1.340   9.013 -0.0030 -1.2559  0.6337
 5691SOL    HW228533   2.575   1.349   9.095  0.7977 -1.1641 -0.8806
 5692SOL     OW28534   4.646   0.424  15.223 -0.7205  0.5516 -0.3297
 5692SOL    HW128535   4.640   0.471  15.140 -0.0900  1.2988  0.0564
 5692SOL    HW228536   4.553   0.406  15.239 -0.2269 -2.2354 -0.6268
 5693SOL     OW28537   3.990   2.850   7.108  0.3923  0.0622 -0.2784
 5693SOL    HW128538   4.054   2.918   7.089 -1.3723  1.2095 -2.2037
 5693SOL    HW228539   3.961   2.876   7.195 -0.2320 -0.2263 -0.3988
 5694SOL     OW28540   2.119   2.671   7.767 -0.1112 -0.1908  0.1035
 5694SOL    HW128541   2.188   2.664   7.833 -0.8368  1.2821  1.0177
 5694SOL    HW228542   2.149   2.614   7.696  0.6716 -0.9878  1.0801
 5695SOL     OW28543   2.926   2.671   4.979 -0.0546 -0.7903 -0.5043
 5695SOL    HW128544   2.861   2.699   5.043  2.0863 -1.3384  1.9328
 5695SOL    HW228545   2.877   2.607   4.928 -0.8176 -1.2085  0.7699
 5696SOL     OW28546   2.879   4.123   5.494  0.2670 -0.1868 -0.2956
 5696SOL    HW128547   2.890   4.113   5.400  1.1429  0.5685 -0.2802
 5696SOL    HW228548   2.860   4.217   5.496  1.1175  0.0093 -1.4579
 5697SOL     OW28549   1.860   2.369  11.882  0.0363  0.4097 -0.1954
 5697SOL    HW128550   1.767   2.357  11.900 -0.0163  2.4562  0.9034
 5697SOL    HW228551   1.875   2.463  11.891 -1.1766  0.5068  0.7792
 5698SOL     OW28552   0.870   1.799   8.574  0.1284 -0.1474  0.0243
 5698SOL    HW128553   0.777   1.811   8.593 -0.1142 -1.5384 -0.2958
 5698SOL    HW228554   0.904   1.847   8.650 -1.1130  0.6847  0.0411
 5699SOL     OW28555   3.063   0.948   7.811 -0.4147 -0.3394  0.1846
 5699SOL    HW128556   3.105   1.004   7.746 -2.1176  1.2691  0.4532
 5699SOL    HW228557   3.138   0.921   7.864  0.3637  0.3508 -0.5701
 5700SOL     OW28558   1.648   0.955   6.064  0.3478  0.1543  0.7783
 5700SOL    HW128559   1.555   0.956   6.041 -0.0459  0.9061  2.4166
 5700SOL    HW228560   1.661   1.044   6.095  2.3651 -0.7546  2.5500
 5701SOL     OW28561   2.909   0.244  15.576 -0.3778 -0.5241 -0.0250
 5701SOL    HW128562   2.900   0.169  15.516  1.5836 -1.3774  0.7636
 5701SOL    HW228563   2.996   0.281  15.562 -0.6557  0.5697  1.1862
 5702SOL     OW28564   0.015   1.376  16.319 -0.2953  0.4814  0.4319
 5702SOL    HW128565   4.710   1.341  16.235  3.4818 -0.5814 -0.4394
 5702SOL    HW228566   0.085   1.313  16.336 -1.6500 -0.3923  2.7030
 5703SOL     OW28567   1.151   3.627   5.586 -0.6335 -0.3391  0.1082
 5703SOL    HW128568   1.112   3.587   5.508  1.5751 -0.2208 -1.0644
 5703SOL    HW228569   1.143   3.720   5.565  0.2933 -0.6706 -1.7271
 5704SOL     OW28570   2.931   3.714   9.462 -0.0295  0.6036  0.1865
 5704SOL    HW128571   2.986   3.694   9.386 -1.2578 -2.3468  0.0758
 5704SOL    HW228572   2.965   3.654   9.528 -0.7178  0.7490  0.6717
 5705SOL     OW28573   0.537   3.515   5.850  0.6651  0.2201  0.6521
 5705SOL    HW128574   0.561   3.423   5.836 -1.7006 -0.0800 -1.5177
 5705SOL    HW228575   0.445   3.511   5.822  0.6417 -1.6511  0.9617
 5706SOL     OW28576   0.580   0.246   2.041  0.2352 -0.1198  0.2349
 5706SOL    HW128577   0.505   0.236   1.983 -0.3336  2.9198  0.4596
 5706SOL    HW228578   0.540   0.307   2.103  1.6504 -0.2794  1.3035
 5707SOL     OW28579   2.282   1.810   4.400 -0.5367 -0.0853  0.5654
 5707SOL    HW128580   2.309   1.720   4.421 -0.1941 -0.5004 -1.7073
 5707SOL    HW228581   2.328   1.830   4.318  0.6437 -0.3345  1.1585
 5708SOL     OW28582   4.011   2.089   7.593 -0.9042 -0.0409 -0.6645
 5708SOL    HW128583   4.049   2.091   7.681  1.1226  0.4837 -1.5423
 5708SOL    HW228584   3.985   2.181   7.586 -1.1378  0.0033  0.8719
 5709SOL     OW28585   2.676   1.499   7.257 -0.3520 -0.0141  0.0518
 5709SOL    HW128586   2.725   1.452   7.324  2.4014  0.1900 -1.7809
 5709SOL    HW228587   2.635   1.569   7.307  0.4834  0.8982 -0.5230
 5710SOL     OW28588   4.434   1.281  16.733  0.4736  0.3561  0.1134
 5710SOL    HW128589   4.498   1.282  16.804 -0.1909  1.1333  0.6983
 5710SOL    HW228590   4.486   1.295  16.653 -1.2541  1.0890 -0.8756
 5711SOL     OW28591   1.819   4.167   1.634 -0.3504 -0.0879  0.6101
 5711SOL    HW128592   1.741   4.121   1.664 -0.4474 -1.4020 -1.6862
 5711SOL    HW228593   1.880   4.119   1.690 -0.2281 -0.4569  0.1548
 5712SOL     OW28594   1.977   4.066   5.845  0.5275  0.1386 -0.3419
 5712SOL    HW128595   1.900   4.088   5.793  0.9700 -0.1230 -1.0943
 5712SOL    HW228596   1.943   4.074   5.935 -1.5764 -0.8745 -1.0335
 5713SOL     OW28597   3.143   3.818  10.884 -0.4278  0.4117  0.3155
 5713SOL    HW128598   3.156   3.909  10.911  1.5348  0.6806 -1.5034
 5713SOL    HW228599   3.218   3.797  10.829  1.1829  0.7177  2.3773
 5714SOL     OW28600   2.752   1.516   6.762  0.2093  0.1574 -0.3557
 5714SOL    HW128601   2.743   1.477   6.849  0.1591  0.6251 -0.1514
 5714SOL    HW228602   2.814   1.585   6.786  0.7569 -0.8968  1.2787
 5715SOL     OW28603   1.690   4.663  11.592 -0.1465 -0.2174  0.6526
 5715SOL    HW128604   1.727   4.600  11.530  0.6679  0.1995  0.7220
 5715SOL    HW228605   1.679   0.008  11.526  0.4264 -0.7246  0.0227
 5716SOL     OW28606   1.068   2.506   4.012  0.1713 -0.0670 -0.3328
 5716SOL    HW128607   0.989   2.457   4.037  0.0524  0.3754  0.1584
 5716SOL    HW228608   1.051   2.598   4.033 -1.1697 -0.0895 -1.2670
 5717SOL     OW28609   4.381   4.712   2.270  0.9335 -0.6343 -0.2772
 5717SOL    HW128610   4.434   4.719   2.191 -0.7513  1.6683 -1.2314
 5717SOL    HW228611   4.294   4.700   2.232  0.6269  2.5246 -0.5868
 5718SOL     OW28612   4.094   3.540   2.798 -0.3208  0.4638  0.5045
 5718SOL    HW128613   4.163   3.503   2.743 -1.8936  0.3439 -1.4306
 5718SOL    HW228614   4.023   3.484   2.766  0.1474  0.9004 -1.2820
 5719SOL     OW28615   3.865   2.052  16.653  0.0468  0.0667  0.2690
 5719SOL    HW128616   3.944   2.016  16.614  0.9199  2.7030 -0.3843
 5719SOL    HW228617   3.797   1.998  16.612  0.3128 -1.1336  1.4272
 5720SOL     OW28618   3.539   3.813   0.891 -0.3326  0.0207 -0.2576
 5720SOL    HW128619   3.496   3.746   0.943  0.1075 -2.0018 -2.5220
 5720SOL    HW228620   3.489   3.812   0.810 -1.9689 -0.9709  0.7712
 5721SOL     OW28621   2.871   2.860   7.060  0.4385 -0.0282  0.1646
 5721SOL    HW128622   2.961   2.836   7.035 -0.3135  0.8718 -3.4314
 5721SOL    HW228623   2.864   2.954   7.072  0.1602  0.1049 -1.0334
 5722SOL     OW28624   1.706   1.540   2.775 -0.5858 -0.0221  0.1770
 5722SOL    HW128625   1.752   1.476   2.721 -1.1491  0.0371 -0.3592
 5722SOL    HW228626   1.631   1.484   2.797 -1.8296  2.3842  2.0727
 5723SOL     OW28627   2.284   3.141   8.977 -0.1668  0.1092 -0.1018
 5723SOL    HW128628   2.203   3.179   9.010  1.4200  2.9756  0.4865
 5723SOL    HW228629   2.267   3.048   8.995 -0.0265 -0.1241 -1.1577
 5724SOL     OW28630   0.859   4.393  13.992 -0.7340 -0.0311  0.1047
 5724SOL    HW128631   0.808   4.465  14.028  3.1663  1.8581  1.8529
 5724SOL    HW228632   0.860   4.342  14.074  0.9970  0.8682  0.6643
 5725SOL     OW28633   1.423   2.765   0.492  0.1192 -0.5697 -0.4141
 5725SOL    HW128634   1.373   2.779   0.572 -1.2370 -0.0026 -1.3660
 5725SOL    HW228635   1.364   2.800   0.424  1.1263  0.6422 -0.6751
 5726SOL     OW28636   3.270   2.599  16.203 -0.0685  0.3729 -0.6886
 5726SOL    HW128637   3.364   2.605  16.188  0.3367  1.8483  2.4495
 5726SOL    HW228638   3.260   2.504  16.210  0.0722  0.1789 -3.0424
 5727SOL     OW28639   2.406   0.981   7.828  0.2982 -0.8911 -0.5852
 5727SOL    HW128640   2.486   1.031   7.842 -0.6528  1.3245 -3.1766
 5727SOL    HW228641   2.421   0.954   7.738 -1.2589 -1.0341 -0.8007
 5728SOL     OW28642   0.599   3.670   0.384  0.2313  0.0675  0.3837
 5728SOL    HW128643   0.680   3.695   0.340  0.6203 -1.9514 -0.0788
 5728SOL    HW228644   0.528   3.724   0.349  0.6662  0.5995  0.3240
 5729SOL     OW28645   1.728   2.142   2.705 -0.3117 -0.0765  0.1374
 5729SOL    HW128646   1.708   2.065   2.653  3.2329 -1.6322  1.0383
 5729SOL    HW228647   1.803   2.170   2.651 -0.7598 -1.2490 -1.0846
 5730SOL     OW28648   3.361   0.964  15.911 -0.7811  0.1767  0.2510
 5730SOL    HW128649   3.386   1.036  15.854 -2.3888 -1.2175 -2.1936
 5730SOL    HW228650   3.390   0.884  15.867  1.3817  1.0366  0.1061
 5731SOL     OW28651   1.164   2.638   7.761  0.0580  0.0311  0.2903
 5731SOL    HW128652   1.199   2.717   7.803  2.5281 -0.2839 -1.1582
 5731SOL    HW228653   1.241   2.631   7.706 -0.8614  1.5799 -1.1683
 5732SOL     OW28654   3.135   4.400  14.394  0.0589  0.0341 -0.3618
 5732SOL    HW128655   3.131   4.367  14.304 -0.2062  1.3888 -0.8575
 5732SOL    HW228656   3.224   4.434  14.405  0.0185 -0.6811  2.0674
 5733SOL     OW28657   1.422   2.227   7.433 -0.6156  0.7858  0.6058
 5733SOL    HW128658   1.509   2.265   7.425 -1.6596  3.2915  0.7871
 5733SOL    HW228659   1.409   2.237   7.528 -1.5618 -4.7209  1.0595
 5734SOL     OW28660   3.395   4.519   2.382  0.2212 -0.2350 -0.0258
 5734SOL    HW128661   3.412   4.529   2.476 -1.4101  0.0617  0.2317
 5734SOL    HW228662   3.329   4.449   2.385 -0.2352  0.0463 -3.4008
 5735SOL     OW28663   4.242   2.354  12.733 -0.0354 -0.1661 -0.1863
 5735SOL    HW128664   4.232   2.288  12.665  0.8386 -0.4393 -0.0409
 5735SOL    HW228665   4.158   2.400  12.723 -0.0357  0.0913  0.9392
 5736SOL     OW28666   2.719   2.241   6.380 -0.2217 -0.3290 -0.4921
 5736SOL    HW128667   2.633   2.279   6.397  0.8024  1.0132  1.7710
 5736SOL    HW228668   2.699   2.163   6.330 -0.9967  0.7852 -1.9314
 5737SOL     OW28669   2.753   1.975   7.719  0.0042  0.3190  0.3605
 5737SOL    HW128670   2.721   1.989   7.630  0.8459 -1.4482 -0.2299
 5737SOL    HW228671   2.676   1.928   7.752  0.1017  0.7917  1.2577
 5738SOL     OW28672   1.663   1.141  13.124  0.1528  0.0775 -0.0868
 5738SOL    HW128673   1.712   1.076  13.174 -0.7607 -0.4405  0.1350
 5738SOL    HW228674   1.639   1.205  13.190 -0.8501  1.9202 -2.2387
 5739SOL     OW28675   3.180   4.022   9.974  0.0512 -0.4995  0.0738
 5739SOL    HW128676   3.245   3.994  10.038  1.5922  2.1902 -0.3153
 5739SOL    HW228677   3.135   4.103   9.997  1.3255 -0.0171  0.8344
 5740SOL     OW28678   4.490   4.318   4.442 -0.0901  0.2238 -0.2164
 5740SOL    HW128679   4.411   4.357   4.404 -1.3909 -0.5613  1.6526
 5740SOL    HW228680   4.504   4.247   4.380 -0.8986  0.4318 -0.6441
 5741SOL     OW28681   1.580   2.997   9.852 -0.3720 -0.0648 -0.0441
 5741SOL    HW128682   1.514   3.066   9.857 -0.7121 -0.2157 -2.7511
 5741SOL    HW228683   1.664   3.043   9.855  1.6852 -3.7715 -0.3918
 5742SOL     OW28684   3.229   0.247   5.253 -0.3669  0.0551  0.4574
 5742SOL    HW128685   3.152   0.302   5.261  0.2929  0.7218  2.2099
 5742SOL    HW228686   3.289   0.319   5.233 -0.0840 -0.5481 -0.8778
 5743SOL     OW28687   4.690   2.912   2.068 -0.3920  0.2384 -0.2056
 5743SOL    HW128688   0.026   2.980   2.037  1.4068 -0.4385  1.7612
 5743SOL    HW228689   0.001   2.838   2.017 -0.0994 -0.0548  0.4093
 5744SOL     OW28690   2.709   3.925  16.221 -0.5834 -0.3176  0.2139
 5744SOL    HW128691   2.763   4.004  16.220  1.3432 -1.6014  0.6600
 5744SOL    HW228692   2.757   3.871  16.285 -0.0180 -0.2116 -0.1183
 5745SOL     OW28693   2.221   4.086   2.899 -0.3041 -0.6021 -0.1622
 5745SOL    HW128694   2.259   4.095   2.987 -0.6570  0.3687 -0.1072
 5745SOL    HW228695   2.227   4.175   2.864 -0.8518 -0.5374 -0.0837
 5746SOL     OW28696   0.527   4.600   1.501  0.2418  0.2197 -0.1232
 5746SOL    HW128697   0.433   4.615   1.503  0.2737  0.1896  1.8240
 5746SOL    HW228698   0.537   4.556   1.417  2.1319  2.6533 -1.1798
 5747SOL     OW28699   0.724   4.145   2.772  0.4436  0.2200 -0.0290
 5747SOL    HW128700   0.811   4.156   2.811  0.5593  2.2988 -0.8646
 5747SOL    HW228701   0.668   4.213   2.809 -2.0626 -0.8962 -1.7937
 5748SOL     OW28702   4.199   2.679   4.032 -0.1754 -0.1404 -0.0636
 5748SOL    HW128703   4.117   2.726   4.021  0.9585  1.7881 -0.4129
 5748SOL    HW228704   4.248   2.761   4.021  1.3976 -0.9821  0.7299
 5749SOL     OW28705   4.675   3.965   2.566  0.0803  0.2533  0.3711
 5749SOL    HW128706   4.580   3.961   2.556  0.1101  0.3499  0.0613
 5749SOL    HW228707   4.702   3.898   2.504  1.0754  0.1754  0.8823
 5750SOL     OW28708   1.461   2.195  14.424 -0.4818  0.2301  0.1469
 5750SOL    HW128709   1.385   2.233  14.468 -0.3729  1.3120 -0.6070
 5750SOL    HW228710   1.479   2.117  14.476 -1.2043  0.7926  1.2526
 5751SOL     OW28711   0.929   0.592   6.352  0.0801  0.5596  0.3714
 5751SOL    HW128712   0.842   0.558   6.333  0.1701 -0.3116  1.4668
 5751SOL    HW228713   0.959   0.522   6.411  1.2458  0.2815 -0.5611
 5752SOL     OW28714   4.155   3.621   1.673 -0.0200  0.0428  0.1405
 5752SOL    HW128715   4.125   3.658   1.756 -0.6114 -1.7786  0.7292
 5752SOL    HW228716   4.075   3.643   1.626 -1.0987 -1.6502  1.1837
 5753SOL     OW28717   3.570   4.174  10.926 -0.2349 -0.2685 -0.4651
 5753SOL    HW128718   3.561   4.250  10.984 -1.0836  0.5150 -1.6155
 5753SOL    HW228719   3.518   4.197  10.849 -0.3747  2.1254  0.3411
 5754SOL     OW28720   3.813   3.765   8.360  0.5061  0.0083  0.0659
 5754SOL    HW128721   3.751   3.811   8.416 -0.0690  0.6252 -1.0716
 5754SOL    HW228722   3.842   3.832   8.298  0.3538  2.3015  2.4827
 5755SOL     OW28723   3.526   3.819   6.694  0.1559  0.0271  0.6023
 5755SOL    HW128724   3.464   3.868   6.748  0.3220 -0.5536  1.3167
 5755SOL    HW228725   3.582   3.782   6.763  1.3865 -0.7484 -0.7967
 5756SOL     OW28726   1.280   1.650   1.719 -0.3588  0.2726  0.0686
 5756SOL    HW128727   1.359   1.605   1.688 -1.7554 -2.7602  0.9058
 5756SOL    HW228728   1.317   1.695   1.796  0.3375  0.0113 -0.1072
 5757SOL     OW28729   3.976   4.048   1.348 -0.3119  0.6698  0.2324
 5757SOL    HW128730   4.051   4.108   1.342 -0.9414  1.6925  2.3427
 5757SOL    HW228731   4.008   3.984   1.411 -1.2654  0.3854  0.4211
 5758SOL     OW28732   4.622   0.020   8.974 -0.2212 -0.3656  0.0220
 5758SOL    HW128733   4.597   0.063   8.891  0.8555  1.0341  0.4311
 5758SOL    HW228734   4.551   4.680   8.985  0.0667 -0.2511  2.5178
 5759SOL     OW28735   3.250   2.760  12.357  0.2379  0.2348 -0.0854
 5759SOL    HW128736   3.177   2.702  12.333  1.2145 -0.4185 -1.4669
 5759SOL    HW228737   3.192   2.834  12.376  1.7477  1.1273  1.0478
 5760SOL     OW28738   4.598   4.405   3.437 -0.7627 -0.0978 -0.6535
 5760SOL    HW128739   4.647   4.329   3.468 -1.8349 -0.6779 -0.4076
 5760SOL    HW228740   4.610   4.473   3.504  0.5901 -2.7987  1.8108
 5761SOL     OW28741   2.132   0.872   4.386  0.2976 -0.3416  0.0184
 5761SOL    HW128742   2.131   0.921   4.304  2.0036 -0.8130 -0.2919
 5761SOL    HW228743   2.057   0.906   4.435 -0.1043 -0.4598 -0.5181
 5762SOL     OW28744   0.188   1.244   1.740 -0.0813 -0.1963 -0.1674
 5762SOL    HW128745   0.103   1.277   1.709 -0.1561 -1.0376 -0.8663
 5762SOL    HW228746   0.234   1.254   1.657 -0.6007  1.3314 -0.2635
 5763SOL     OW28747   4.159   1.933   1.812  0.6203 -0.0787 -0.7634
 5763SOL    HW128748   4.190   1.998   1.874  4.1679 -1.4480 -1.1259
 5763SOL    HW228749   4.150   1.853   1.865 -0.0348  0.8431  0.5075
 5764SOL     OW28750   2.447   3.909   8.136  0.8303  0.5451 -0.1755
 5764SOL    HW128751   2.431   3.882   8.046 -1.3443 -0.6626  0.5567
 5764SOL    HW228752   2.520   3.970   8.131  0.3857  1.1889  1.2210
 5765SOL     OW28753   4.253   4.372   5.854 -0.0126  0.8299  0.0231
 5765SOL    HW128754   4.347   4.371   5.834  0.4155  1.0569  2.0962
 5765SOL    HW228755   4.227   4.328   5.772 -0.2573 -0.8126  0.9820
 5766SOL     OW28756   1.416   2.131  13.731  0.9719 -0.6589  0.1392
 5766SOL    HW128757   1.444   2.059  13.676  0.1917  0.0211 -1.1365
 5766SOL    HW228758   1.488   2.128  13.794  0.3767  2.2023  0.9768
 5767SOL     OW28759   4.165   1.417  13.858  0.4151 -0.3062 -0.5099
 5767SOL    HW128760   4.112   1.386  13.932  3.9326 -1.1848  1.6523
 5767SOL    HW228761   4.096   1.429  13.792 -1.3471 -0.2802  1.3343
 5768SOL     OW28762   4.124   3.940  11.945  0.3715  0.2942  0.0466
 5768SOL    HW128763   4.046   3.885  11.946  0.3517  0.3221 -0.0085
 5768SOL    HW228764   4.124   4.000  11.871 -2.4153  1.0966  0.7118
 5769SOL     OW28765   1.233   2.554   3.445 -0.5898  0.3068  0.1411
 5769SOL    HW128766   1.290   2.557   3.369  0.2429  3.0335  0.8800
 5769SOL    HW228767   1.182   2.632   3.422  0.3264  0.9998  0.4364
 5770SOL     OW28768   0.604   4.221   1.437  0.0937 -0.0004  0.0333
 5770SOL    HW128769   0.509   4.215   1.452  0.4046 -0.5046  1.8175
 5770SOL    HW228770   0.633   4.149   1.493 -0.8204  1.0548  1.8718
 5771SOL     OW28771   4.273   3.396   3.264  0.2149 -0.2247 -0.3011
 5771SOL    HW128772   4.237   3.335   3.328  2.4102 -0.9997  0.2255
 5771SOL    HW228773   4.261   3.345   3.183  0.2472  0.3965 -0.6997
 5772SOL     OW28774   3.910   0.393   3.068  0.3182 -0.5509  0.8667
 5772SOL    HW128775   3.997   0.430   3.052  0.3692 -0.3852  1.5380
 5772SOL    HW228776   3.928   0.315   3.120  1.4050 -1.9141 -1.5423
 5773SOL     OW28777   1.287   1.460  11.366 -0.4978 -0.0325  0.3717
 5773SOL    HW128778   1.354   1.503  11.418 -1.6132  0.3814  1.4594
 5773SOL    HW228779   1.339   1.443  11.287 -0.5597  1.9318 -0.0791
 5774SOL     OW28780   2.285   2.481   0.621 -0.0376 -0.9730 -0.0017
 5774SOL    HW128781   2.375   2.512   0.631 -1.3111  2.0758  2.0500
 5774SOL    HW228782   2.240   2.544   0.677 -0.4359 -2.4698  1.3682
 5775SOL     OW28783   0.061   3.035   2.524 -0.0352  0.2970 -0.2096
 5775SOL    HW128784   0.088   3.122   2.552  2.3201 -0.6022  0.3181
 5775SOL    HW228785   0.008   3.056   2.448  1.7299 -0.3720 -1.6310
 5776SOL     OW28786   4.020   0.732   9.341  1.1271 -0.1256 -0.2119
 5776SOL    HW128787   4.095   0.774   9.384  0.3806  0.6637  0.3090
 5776SOL    HW228788   3.984   0.679   9.412  1.0292  0.4408  0.1668
 5777SOL     OW28789   3.303   2.970   9.830 -0.2184  0.0590  1.0700
 5777SOL    HW128790   3.345   2.987   9.914  0.5846 -1.1696  0.9008
 5777SOL    HW228791   3.240   2.900   9.849  1.2999 -1.9218 -1.2223
 5778SOL     OW28792   3.400   1.543   4.368  0.1813  0.0599  0.1229
 5778SOL    HW128793   3.410   1.638   4.372  0.9263 -0.0024 -0.2157
 5778SOL    HW228794   3.472   1.518   4.426  1.6163  0.1373 -1.6173
 5779SOL     OW28795   0.350   4.678   6.131 -0.3036  0.3963 -0.0477
 5779SOL    HW128796   0.420   4.614   6.122  0.1141  0.7756  0.4540
 5779SOL    HW228797   0.349   4.692   6.226  0.5400  0.1611 -0.0075
 5780SOL     OW28798   4.652   1.141   2.029 -0.2818 -0.4488  0.2997
 5780SOL    HW128799   4.706   1.131   2.107  1.4879 -1.0031 -0.9954
 5780SOL    HW228800   4.664   1.232   2.003  1.3377 -0.0691  2.3994
 5781SOL     OW28801   2.670   4.539   7.643  0.6990 -0.4025  0.0337
 5781SOL    HW128802   2.633   4.463   7.688 -0.9005 -0.9282 -2.2119
 5781SOL    HW228803   2.694   4.503   7.558 -1.1236 -0.1024 -0.5904
 5782SOL     OW28804   2.597   4.138   3.018  0.2413  0.3407  0.1417
 5782SOL    HW128805   2.610   4.077   2.946  0.4603 -0.6898  1.0496
 5782SOL    HW228806   2.689   4.141   3.044  0.1918 -1.5317  0.5841
 5783SOL     OW28807   2.937   0.542   9.833  0.3643  0.0713  0.4867
 5783SOL    HW128808   2.961   0.450   9.837 -0.1463  0.1757  5.8466
 5783SOL    HW228809   2.931   0.542   9.737 -0.1630  0.9188  0.5132
 5784SOL     OW28810   2.623   2.181   1.777  0.3566 -0.2317  0.0431
 5784SOL    HW128811   2.546   2.208   1.728  0.2620 -0.4696  0.0576
 5784SOL    HW228812   2.649   2.100   1.732  0.8953  0.3437 -0.6805
 5785SOL     OW28813   1.293   0.323  12.302  0.1244  0.0865 -0.5845
 5785SOL    HW128814   1.227   0.379  12.260 -2.1981  0.4341  3.5820
 5785SOL    HW228815   1.309   0.264  12.228 -0.2869 -0.4337 -0.2570
 5786SOL     OW28816   3.218   3.553   8.289 -1.0355 -0.5236  0.1971
 5786SOL    HW128817   3.124   3.539   8.301 -0.8974 -1.4096  0.2565
 5786SOL    HW228818   3.232   3.491   8.217  0.7509 -0.6821  0.6778
 5787SOL     OW28819   0.005   1.701  11.899  0.2070  0.6465 -0.0415
 5787SOL    HW128820   0.003   1.606  11.897 -2.3171  0.7030 -0.2616
 5787SOL    HW228821   0.091   1.716  11.858  1.1480  0.4582  1.8872
 5788SOL     OW28822   1.107   2.634  14.984 -0.0072  0.6696 -0.4035
 5788SOL    HW128823   1.090   2.632  14.890 -2.2244 -2.3147  0.0660
 5788SOL    HW228824   1.149   2.548  14.990  0.4124  0.7832 -1.6745
 5789SOL     OW28825   3.987   3.792   4.984 -0.4840 -0.2352 -0.3659
 5789SOL    HW128826   3.908   3.766   4.937 -1.8535  3.0931  0.1004
 5789SOL    HW228827   4.045   3.716   4.979 -0.0338  0.1924 -1.6708
 5790SOL     OW28828   2.889   2.141   4.768  0.1588  0.5205  0.2261
 5790SOL    HW128829   2.822   2.077   4.746  0.6577 -1.1555  3.5638
 5790SOL    HW228830   2.914   2.176   4.683 -1.0318  0.8064 -0.0077
 5791SOL     OW28831   0.508   1.651  13.481  0.4227  0.1567  0.3477
 5791SOL    HW128832   0.514   1.664  13.387 -1.1058 -0.5309  0.1478
 5791SOL    HW228833   0.496   1.745  13.494 -1.8545 -0.2068  0.9263
 5792SOL     OW28834   4.277   0.453  12.708  0.8640  0.1060  0.3549
 5792SOL    HW128835   4.346   0.386  12.719  0.0053 -0.7005  0.8197
 5792SOL    HW228836   4.238   0.413  12.631  1.5469  0.4580 -0.1755
 5793SOL     OW28837   2.378   0.516  13.771 -0.1506 -0.2853 -0.1382
 5793SOL    HW128838   2.386   0.603  13.810 -1.5952  0.3508 -1.2529
 5793SOL    HW228839   2.307   0.475  13.822  0.2922  2.2524  2.5381
 5794SOL     OW28840   0.474   3.792   5.906 -0.1976  0.6208  0.4085
 5794SOL    HW128841   0.565   3.822   5.909 -0.2280  0.6794  0.7444
 5794SOL    HW228842   0.488   3.701   5.881  1.9469  0.9792  0.3492
 5795SOL     OW28843   0.491   1.607   5.921  0.4671  0.6325  0.4799
 5795SOL    HW128844   0.520   1.522   5.953  0.3030  1.1888  2.1155
 5795SOL    HW228845   0.437   1.583   5.845  0.7086 -0.5389  0.6745
 5796SOL     OW28846   0.901   2.043   1.736 -0.3227 -0.3629  0.3872
 5796SOL    HW128847   0.970   1.986   1.704 -1.3664 -0.6747 -1.3344
 5796SOL    HW228848   0.835   2.006   1.678  0.3643  1.3328 -1.4711
 5797SOL     OW28849   3.223   2.201   6.720  0.3779  0.1389  0.1204
 5797SOL    HW128850   3.203   2.226   6.630  1.6896 -0.9692 -0.4820
 5797SOL    HW228851   3.147   2.234   6.767  1.1214 -1.8930  2.7359
 5798SOL     OW28852   1.686   4.051   5.051  0.3502 -0.3796  0.3471
 5798SOL    HW128853   1.749   4.007   5.108  2.0879 -1.5247 -2.4706
 5798SOL    HW228854   1.740   4.108   4.997 -1.0108  0.0873 -0.5144
 5799SOL     OW28855   0.510   0.312   8.333  0.2846  0.2683 -0.0606
 5799SOL    HW128856   0.510   0.234   8.277 -1.8429 -0.2646  0.6800
 5799SOL    HW228857   0.598   0.347   8.320 -0.0540  1.1799  0.0564
 5800SOL     OW28858   0.101   3.903  11.364  0.2399 -0.4049 -0.2222
 5800SOL    HW128859   0.134   3.901  11.454 -1.6303  1.5486  0.5137
 5800SOL    HW228860   0.180   3.908  11.309  0.8636  2.1770  0.9109
 5801SOL     OW28861   2.026   3.488  11.430 -0.8272 -0.0954  0.3458
 5801SOL    HW128862   1.975   3.407  11.433 -2.6133  1.0434  0.9579
 5801SOL    HW228863   1.962   3.539  11.379 -2.0707  1.0698  3.0636
 5802SOL     OW28864   2.318   1.458   2.202  0.1750  0.0755  0.6169
 5802SOL    HW128865   2.362   1.490   2.124 -0.1724  0.2097  0.4759
 5802SOL    HW228866   2.229   1.488   2.183  0.6952  2.1426  1.4772
 5803SOL     OW28867   4.170   0.082   7.666  0.1152  0.7141 -0.0393
 5803SOL    HW128868   4.164   0.006   7.724 -1.4689  0.6987 -0.2342
 5803SOL    HW228869   4.260   0.110   7.686  0.6288 -0.0561 -1.2820
 5804SOL     OW28870   0.178   2.878   4.146 -0.0908 -0.8559  0.0060
 5804SOL    HW128871   0.200   2.970   4.133  1.6325 -1.4503 -1.2312
 5804SOL    HW228872   0.195   2.866   4.240 -0.7834 -0.1628  0.2169
 5805SOL     OW28873   3.897   4.542   8.221 -0.4323  0.4720  0.4961
 5805SOL    HW128874   3.855   4.544   8.306 -0.0211 -2.7563  0.7842
 5805SOL    HW228875   3.918   4.450   8.200  1.0206  1.2523 -1.4764
 5806SOL     OW28876   2.055   2.432   5.602  0.2843  0.8844 -0.9990
 5806SOL    HW128877   2.078   2.518   5.567  1.2525  0.6365 -0.9729
 5806SOL    HW228878   2.142   2.415   5.636 -0.6837  0.4772  1.2964
 5807SOL     OW28879   3.341   0.390   8.245 -0.0163  0.2710 -0.1001
 5807SOL    HW128880   3.386   0.340   8.177 -2.8458 -1.6663 -0.5396
 5807SOL    HW228881   3.249   0.368   8.229 -0.1372  1.6681 -1.3590
 5808SOL     OW28882   1.979   3.770   4.398  0.0971 -0.1060 -0.3861
 5808SOL    HW128883   2.050   3.779   4.334  0.5961 -1.4321 -0.0119
 5808SOL    HW228884   2.026   3.713   4.459  1.1191 -2.8738 -3.7190
 5809SOL     OW28885   1.137   4.297   3.064 -0.1974  0.2778 -0.2929
 5809SOL    HW128886   1.214   4.355   3.057  2.1593 -2.6014  1.9400
 5809SOL    HW228887   1.187   4.216   3.074  0.3402  0.5559 -0.6796
 5810SOL     OW28888   3.885   2.014   5.300  0.0582 -0.6742  0.3963
 5810SOL    HW128889   3.805   2.043   5.342  1.0642  0.3901  1.5684
 5810SOL    HW228890   3.926   1.971   5.375 -0.0481 -0.6171  0.4876
 5811SOL     OW28891   3.993   3.467  10.572 -0.1120  0.0863 -0.0279
 5811SOL    HW128892   4.050   3.495  10.500 -1.0830  3.9696  0.7119
 5811SOL    HW228893   3.907   3.471  10.530  0.7726  0.1001 -1.8424
 5812SOL     OW28894   4.607   3.886  16.617  0.3151  0.2324 -0.4610
 5812SOL    HW128895   4.655   3.818  16.570 -1.2721  0.0828 -1.8635
 5812SOL    HW228896   4.584   3.941  16.542 -2.6834  0.8866  0.9425
 5813SOL     OW28897   1.111   0.208   5.355  0.1218 -0.5431 -0.0983
 5813SOL    HW128898   1.174   0.158   5.303  1.4219  0.5694  0.3923
 5813SOL    HW228899   1.142   0.206   5.446  0.4699 -0.6332 -0.2172
 5814SOL     OW28900   1.755   2.457   9.738 -0.1448  0.5370 -0.0928
 5814SOL    HW128901   1.662   2.433   9.739  0.4115 -1.6198  1.3182
 5814SOL    HW228902   1.748   2.538   9.788 -1.3976 -0.8232  1.9567
 5815SOL     OW28903   1.617   2.192   7.705 -0.2438 -0.2073 -0.3623
 5815SOL    HW128904   1.599   2.114   7.653 -3.1683 -0.9617  1.7854
 5815SOL    HW228905   1.708   2.195   7.675  0.0986  3.1040  0.9616
 5816SOL     OW28906   0.301   3.652  11.629 -0.0303 -0.0181  1.0192
 5816SOL    HW128907   0.371   3.716  11.621  0.5268 -0.9882 -2.0868
 5816SOL    HW228908   0.342   3.569  11.653  1.0014  0.4997  1.0364
 5817SOL     OW28909   0.843   0.261   4.357 -0.1894 -0.2364  0.1973
 5817SOL    HW128910   0.909   0.224   4.298  0.8854 -0.5051  1.5659
 5817SOL    HW228911   0.796   0.183   4.386 -2.1407 -0.1960 -2.8969
 5818SOL     OW28912   3.643   3.474  10.067  0.0823  0.3476  0.1115
 5818SOL    HW128913   3.580   3.415  10.026  0.4273  0.2639 -0.2993
 5818SOL    HW228914   3.713   3.466  10.002  0.2210  2.0274  0.0550
 5819SOL     OW28915   2.503   0.831   8.571  0.1308  0.5299  0.0934
 5819SOL    HW128916   2.456   0.749   8.585  3.1898 -1.2956 -0.1180
 5819SOL    HW228917   2.506   0.824   8.475  2.3770 -0.6457  0.2521
 5820SOL     OW28918   1.667   2.222  10.894 -0.0534 -0.1573 -0.0238
 5820SOL    HW128919   1.608   2.221  10.969  0.0485  0.2578  0.0573
 5820SOL    HW228920   1.632   2.142  10.852 -0.2006 -0.3358  0.4365
 5821SOL     OW28921   1.258   3.191  16.715  0.0685 -0.4060 -0.1342
 5821SOL    HW128922   1.164   3.181  16.729  0.2680 -1.8707  0.0979
 5821SOL    HW228923   1.267   3.247  16.638 -1.0634 -0.3875 -0.2612
 5822SOL     OW28924   4.547   0.964   4.526  0.0319  0.3959 -0.1803
 5822SOL    HW128925   4.592   0.990   4.607 -0.5940 -1.0971  0.6354
 5822SOL    HW228926   4.579   0.874   4.530  1.0146  0.6473 -2.5440
 5823SOL     OW28927   0.680   2.489   1.231 -0.3381  0.3167 -0.1925
 5823SOL    HW128928   0.637   2.447   1.157 -0.7423  0.6788 -0.1676
 5823SOL    HW228929   0.676   2.416   1.293 -1.9154  0.4908 -0.1033
 5824SOL     OW28930   3.340   1.460   1.219 -0.0658 -0.4094 -0.0279
 5824SOL    HW128931   3.292   1.518   1.160  0.4762 -0.1429 -0.2036
 5824SOL    HW228932   3.418   1.506   1.249 -0.9170  0.1243  1.4043
 5825SOL     OW28933   2.448   1.324   4.590  0.2400 -0.4933 -0.2074
 5825SOL    HW128934   2.377   1.281   4.638 -2.6053  2.7805 -1.4696
 5825SOL    HW228935   2.521   1.262   4.591 -0.0511 -0.8275  0.2891
 5826SOL     OW28936   3.758   2.141  16.887 -0.1405  0.0743 -0.1433
 5826SOL    HW128937   3.789   2.112  16.801  0.4878  2.1274 -0.6056
 5826SOL    HW228938   3.663   2.141  16.875  0.0711  0.4492 -1.7312
 5827SOL     OW28939   0.982   3.350   6.404  0.5095 -0.3094 -0.4182
 5827SOL    HW128940   1.024   3.325   6.487 -0.3586  0.6062  0.3012
 5827SOL    HW228941   0.947   3.438   6.417  1.1234  0.1166 -1.6955
 5828SOL     OW28942   1.621   1.852   3.491 -0.4417  0.1991  0.6594
 5828SOL    HW128943   1.702   1.804   3.475 -0.8144 -0.1946 -0.0588
 5828SOL    HW228944   1.556   1.789   3.459 -0.4580  0.1188  0.8530
 5829SOL     OW28945   0.801   1.178   8.758  0.6131  0.0365  0.2876
 5829SOL    HW128946   0.734   1.172   8.827 -1.3885 -0.8495 -1.7104
 5829SOL    HW228947   0.818   1.271   8.747  0.5557 -0.0501 -0.5404
 5830SOL     OW28948   4.404   0.704   9.921 -0.2007 -0.2754 -0.3523
 5830SOL    HW128949   4.414   0.684   9.828  0.8288  0.7378 -0.4533
 5830SOL    HW228950   4.341   0.639   9.952 -0.4350  1.0546  2.0206
 5831SOL     OW28951   1.765   1.243   2.076 -0.3216  0.1919  0.3435
 5831SOL    HW128952   1.685   1.198   2.100  0.5457 -1.0791  0.8623
 5831SOL    HW228953   1.725   1.329   2.085 -0.5166  0.3095 -1.8094
 5832SOL     OW28954   3.792   1.817  14.705  0.3402 -0.4739 -1.1416
 5832SOL    HW128955   3.855   1.866  14.653  1.5275 -0.1365  0.6288
 5832SOL    HW228956   3.800   1.726  14.678  0.4598 -1.0571  0.8892
 5833SOL     OW28957   1.161   3.488   1.711  0.2733  0.4983  0.0524
 5833SOL    HW128958   1.179   3.556   1.646 -0.0502  0.4423 -0.0930
 5833SOL    HW228959   1.068   3.496   1.732 -0.5268 -2.7712 -2.1783
 5834SOL     OW28960   1.352   3.385   4.308 -0.3548 -0.4568 -0.1251
 5834SOL    HW128961   1.309   3.360   4.226 -1.5190 -0.3879  0.4657
 5834SOL    HW228962   1.274   3.422   4.350  0.2744  0.3369  0.3301
 5835SOL     OW28963   0.644   2.035  17.034 -0.2188  0.6264  0.2347
 5835SOL    HW128964   0.581   2.013  17.103 -0.0121  0.6597  0.4311
 5835SOL    HW228965   0.604   1.987  16.961  2.5993 -0.3725 -0.6495
 5836SOL     OW28966   1.976   0.594   4.923 -0.3244 -0.3539 -0.0207
 5836SOL    HW128967   1.973   0.558   4.834 -0.9351 -0.5555  0.0813
 5836SOL    HW228968   2.022   0.677   4.910 -0.9166  0.2826  1.9369
 5837SOL     OW28969   0.077   4.376   1.685  0.6542 -0.2396  0.1121
 5837SOL    HW128970   0.152   4.317   1.678 -0.0262 -1.1717  0.4938
 5837SOL    HW228971   0.028   4.327   1.751 -1.8924  1.7239 -0.3168
 5838SOL     OW28972   1.805   4.048  11.250 -0.0502 -0.0487  0.1939
 5838SOL    HW128973   1.855   3.966  11.256 -0.5417 -0.2778  1.2963
 5838SOL    HW228974   1.721   4.005  11.268 -0.2758  0.7411  1.0035
 5839SOL     OW28975   2.336   2.941   6.383  0.3484 -0.0185  0.2852
 5839SOL    HW128976   2.397   2.879   6.421  1.3427 -0.0513 -1.3565
 5839SOL    HW228977   2.319   2.912   6.293  1.2756 -0.0511  0.1275
 5840SOL     OW28978   2.527   1.423  15.549 -0.4600  0.1058  0.0457
 5840SOL    HW128979   2.607   1.424  15.601 -0.0022  0.8058 -0.6553
 5840SOL    HW228980   2.459   1.436  15.615 -0.6059 -0.0710 -0.0701
 5841SOL     OW28981   2.908   0.154   3.254 -0.0954 -0.1190 -0.1423
 5841SOL    HW128982   2.835   0.213   3.274 -0.8467 -1.0074 -0.2497
 5841SOL    HW228983   2.932   0.193   3.170 -2.0223  0.6284 -0.3481
 5842SOL     OW28984   2.509   1.209   6.551  0.9520 -0.1654  0.4692
 5842SOL    HW128985   2.441   1.219   6.618  0.4367  0.0822 -0.0885
 5842SOL    HW228986   2.463   1.222   6.468  0.7820  0.8238  0.7077
 5843SOL     OW28987   0.830   2.110   5.227  0.2346 -0.3321 -0.1378
 5843SOL    HW128988   0.751   2.078   5.269  0.9489  0.0775  1.4943
 5843SOL    HW228989   0.892   2.036   5.227  1.2855  0.5670  1.5254
 5844SOL     OW28990   3.886   0.014   3.031 -0.0516 -0.2451  0.0056
 5844SOL    HW128991   3.935   0.009   3.113 -0.8107 -0.3588  0.4533
 5844SOL    HW228992   3.800   0.049   3.052  0.2097  0.3127  0.1458
 5845SOL     OW28993   2.818   4.460  10.255  0.4821  0.2833  0.0570
 5845SOL    HW128994   2.824   4.369  10.228  1.0334  0.4248 -0.2889
 5845SOL    HW228995   2.791   4.448  10.347  1.1113 -2.8940 -0.1655
 5846SOL     OW28996   0.700   0.451   2.999 -0.1282  0.0218  0.0249
 5846SOL    HW128997   0.777   0.413   3.042  0.4892  3.3120  1.8693
 5846SOL    HW228998   0.662   0.381   2.946 -3.3674  1.2556  0.7153
 5847SOL     OW28999   3.759   3.779   3.314  0.6198 -0.5688 -0.2998
 5847SOL    HW129000   3.759   3.783   3.218 -1.1971  0.1676 -0.2784
 5847SOL    HW229001   3.823   3.842   3.347 -2.9755  1.3303  3.0998
 5848SOL     OW29002   2.171   3.744   7.709  0.3039 -0.3442 -0.1557
 5848SOL    HW129003   2.210   3.717   7.626 -0.3868 -0.9355 -0.2920
 5848SOL    HW229004   2.080   3.722   7.688  1.2323 -2.1980 -2.2549
 5849SOL     OW29005   1.232   1.739   5.876 -0.0004  0.1923 -0.6011
 5849SOL    HW129006   1.265   1.660   5.834 -0.2211  1.2318 -2.6906
 5849SOL    HW229007   1.310   1.772   5.920  1.4410  1.3533 -4.1049
 5850SOL     OW29008   1.675   0.977  13.620  0.5322 -0.4616  0.2387
 5850SOL    HW129009   1.744   1.008  13.678  0.2673  1.8770 -0.6586
 5850SOL    HW229010   1.718   0.897  13.590 -2.5078 -1.7292 -0.7010
 5851SOL     OW29011   1.193   0.877  16.192  0.0563  0.3782  0.2166
 5851SOL    HW129012   1.209   0.969  16.214  0.0178  0.5099 -0.3258
 5851SOL    HW229013   1.098   0.875  16.205  0.2161  0.8725  1.4592
 5852SOL     OW29014   2.764   1.147   2.540  0.0630 -0.1096 -0.1523
 5852SOL    HW129015   2.815   1.142   2.459 -1.3652 -0.4626 -1.0424
 5852SOL    HW229016   2.702   1.217   2.520 -0.3548 -0.3727  0.2199
 5853SOL     OW29017   4.603   0.416   3.419 -0.3444  1.1369  0.2324
 5853SOL    HW129018   4.696   0.440   3.420  0.0220 -0.1807 -2.4541
 5853SOL    HW229019   4.557   0.493   3.387 -0.7289  1.3041  1.1831
 5854SOL     OW29020   0.705   0.612   9.043 -0.2752  0.6031 -0.5363
 5854SOL    HW129021   0.699   0.528   9.087  0.6617  0.4485 -0.6976
 5854SOL    HW229022   0.645   0.672   9.087 -3.2901 -3.1101  0.3348
 5855SOL     OW29023   2.468   3.240   4.660 -0.3471  0.4722  0.2223
 5855SOL    HW129024   2.418   3.283   4.730 -0.5661  2.1862 -0.9729
 5855SOL    HW229025   2.396   3.199   4.612  0.3072  0.7046 -0.9509
 5856SOL     OW29026   1.529   0.887   3.150 -0.3233  0.3825  0.9440
 5856SOL    HW129027   1.526   0.908   3.244 -1.2630  0.6233  0.8587
 5856SOL    HW229028   1.615   0.925   3.131 -0.7157  0.3224 -0.9002
 5857SOL     OW29029   0.696   4.357   3.278 -0.5280 -0.2781  0.7180
 5857SOL    HW129030   0.663   4.292   3.215  0.0778 -0.1298  0.2423
 5857SOL    HW229031   0.763   4.400   3.224 -1.1130  0.0492  0.2469
 5858SOL     OW29032   4.542   1.743  15.853 -0.4257  0.0492 -0.4139
 5858SOL    HW129033   4.524   1.699  15.771 -0.1975  0.3129 -0.6049
 5858SOL    HW229034   4.583   1.817  15.809  1.4287  0.6762  2.3261
 5859SOL     OW29035   3.345   1.067  12.077  0.4909  0.1303  0.2443
 5859SOL    HW129036   3.370   1.158  12.090 -0.5993  0.5660 -0.6581
 5859SOL    HW229037   3.320   1.075  11.985 -0.2538  0.1569  0.4501
 5860SOL     OW29038   4.431   2.003   1.608 -0.4319  0.0279  0.0975
 5860SOL    HW129039   4.353   1.950   1.591 -0.6883  0.4829 -0.1312
 5860SOL    HW229040   4.457   1.982   1.697 -2.4057 -1.8423  0.2416
 5861SOL     OW29041   0.253   1.579   9.060 -0.4087 -0.4397  0.4330
 5861SOL    HW129042   0.239   1.618   8.974 -1.0117  0.1745  0.8138
 5861SOL    HW229043   0.345   1.596   9.079 -0.2593 -2.0367  1.2208
 5862SOL     OW29044   1.360   1.270  11.855  0.6226 -0.2546  0.0549
 5862SOL    HW129045   1.345   1.246  11.947  0.3956  1.4273  0.4588
 5862SOL    HW229046   1.452   1.299  11.856  0.6043 -0.2297  1.6604
 5863SOL     OW29047   1.353   2.839   7.710 -0.2542 -0.0846  0.0229
 5863SOL    HW129048   1.343   2.905   7.779 -0.0420 -0.2046  0.1677
 5863SOL    HW229049   1.301   2.871   7.636  0.5623  1.1497 -0.0250
 5864SOL     OW29050   2.760   3.868  11.645  0.0829  0.5496 -0.2054
 5864SOL    HW129051   2.798   3.901  11.564  0.7159 -1.3215 -0.6720
 5864SOL    HW229052   2.824   3.902  11.708  1.1286 -2.9824  0.6522
 5865SOL     OW29053   4.180   0.066   4.669  0.1465 -0.0234  0.2216
 5865SOL    HW129054   4.095   0.051   4.626 -0.0367  0.4612  0.4052
 5865SOL    HW229055   4.242   0.051   4.598  2.2098  2.4809  1.4789
 5866SOL     OW29056   3.294   0.180   0.998 -0.0615 -0.3093  0.2897
 5866SOL    HW129057   3.295   0.222   1.084 -1.5287  0.1157  0.1042
 5866SOL    HW229058   3.387   0.158   0.995 -0.0377 -0.1853  0.1262
 5867SOL     OW29059   2.506   4.032  15.661 -0.0345  0.3458 -0.1037
 5867SOL    HW129060   2.511   3.966  15.592 -0.0909 -1.8404  1.9698
 5867SOL    HW229061   2.421   3.999  15.689 -0.1369  0.2653 -0.5177
 5868SOL     OW29062   3.460   0.482  13.411 -0.3694  0.5001  0.0230
 5868SOL    HW129063   3.474   0.567  13.369  0.1605 -0.0148 -0.8308
 5868SOL    HW229064   3.441   0.422  13.340  2.0059  1.7030 -1.6320
 5869SOL     OW29065   1.831   4.212   4.886 -0.2228  0.3680  0.3765
 5869SOL    HW129066   1.913   4.216   4.837  1.9520 -0.4467  3.9271
 5869SOL    HW229067   1.815   4.303   4.908  0.9290  0.8971 -0.9657
 5870SOL     OW29068   3.306   4.601   6.988 -0.2270 -0.0865  0.3435
 5870SOL    HW129069   3.393   4.628   7.016 -0.8446  2.0482  0.2724
 5870SOL    HW229070   3.256   4.620   7.068  1.0731 -0.0204  1.1307
 5871SOL     OW29071   0.524   3.753   8.271  0.3487  0.1665  0.0874
 5871SOL    HW129072   0.468   3.820   8.311  0.3725  0.5073 -0.4578
 5871SOL    HW229073   0.510   3.763   8.177 -0.1857 -3.8949 -0.2627
 5872SOL     OW29074   2.711   1.503   3.018  0.1959 -0.6377 -0.4251
 5872SOL    HW129075   2.661   1.548   2.949 -1.1808 -0.4071  0.7317
 5872SOL    HW229076   2.678   1.414   3.004 -1.0621 -0.3305  0.5926
 5873SOL     OW29077   4.283   0.946   6.531 -0.5659  0.6422  0.2904
 5873SOL    HW129078   4.236   0.928   6.449  0.6824  2.1643 -0.7612
 5873SOL    HW229079   4.330   1.027   6.510 -0.4139  0.4320 -0.1882
 5874SOL     OW29080   4.500   3.468   3.484  0.1861 -0.6740  0.2454
 5874SOL    HW129081   4.550   3.450   3.404  1.0719 -1.8094  1.0511
 5874SOL    HW229082   4.520   3.393   3.539  1.5053  1.0702  2.1547
 5875SOL     OW29083   3.367   1.398  10.652 -0.0804  0.1425  0.5840
 5875SOL    HW129084   3.369   1.303  10.660 -0.3007  0.1165  0.3167
 5875SOL    HW229085   3.461   1.417  10.648  0.0457 -0.9684 -1.9248
 5876SOL     OW29086   0.200   0.666  13.386  0.4257 -0.9063 -0.1363
 5876SOL    HW129087   0.186   0.597  13.320  0.6411  0.6847 -1.8525
 5876SOL    HW229088   0.292   0.645  13.399  0.1147 -2.7814 -0.9563
 5877SOL     OW29089   3.348   0.042   5.396  0.3572 -0.0473  0.1230
 5877SOL    HW129090   3.320   0.099   5.324  3.2862  1.9754  0.5671
 5877SOL    HW229091   3.284   4.697   5.383  1.2884 -1.0121  0.6529
 5878SOL     OW29092   2.383   4.149   7.798  0.0186  0.2717  0.4787
 5878SOL    HW129093   2.440   4.087   7.752  1.7578  0.3882  2.5138
 5878SOL    HW229094   2.306   4.141   7.741  0.7479 -0.5804 -0.4050
 5879SOL     OW29095   2.449   1.573   9.145  0.1424 -0.4388 -0.0189
 5879SOL    HW129096   2.391   1.521   9.201 -0.3581 -0.3349 -0.4438
 5879SOL    HW229097   2.536   1.535   9.162  0.6513  0.9657  0.4808
 5880SOL     OW29098   2.221   3.925   3.543 -0.4743  0.1095  0.3581
 5880SOL    HW129099   2.190   4.006   3.503 -1.8982  0.2893  1.8269
 5880SOL    HW229100   2.173   3.927   3.626  0.0497 -0.3739  0.6755
 5881SOL     OW29101   2.116   2.401  13.352 -0.3949 -0.3312  0.2874
 5881SOL    HW129102   2.027   2.399  13.388 -0.4485  2.9075  0.3059
 5881SOL    HW229103   2.095   2.360  13.268 -2.5666  0.2427  0.5444
 5882SOL     OW29104   2.169   2.659   8.482 -0.1453  0.0313  0.0971
 5882SOL    HW129105   2.188   2.649   8.389 -2.5543 -2.5594 -0.1299
 5882SOL    HW229106   2.107   2.732   8.488  1.0158  0.9448  0.8728
 5883SOL     OW29107   2.481   2.203  11.262 -0.5047  0.5855 -0.1846
 5883SOL    HW129108   2.461   2.115  11.292  1.3699  0.1649 -0.2070
 5883SOL    HW229109   2.548   2.194  11.195 -0.2244 -0.1062  0.1889
 5884SOL     OW29110   0.940   1.163   4.696  0.0260 -0.4420  0.2498
 5884SOL    HW129111   0.851   1.141   4.724  0.0841  0.9683  1.5113
 5884SOL    HW229112   0.947   1.256   4.716 -0.4971 -0.4177  0.2998
 5885SOL     OW29113   2.653   2.345   3.569  0.1345  0.1855  0.4569
 5885SOL    HW129114   2.686   2.344   3.479 -0.7401  0.3020  0.1322
 5885SOL    HW229115   2.630   2.252   3.562  2.7280 -0.4508  0.3756
 5886SOL     OW29116   1.890   4.407  10.794  0.4369  0.4302  0.3508
 5886SOL    HW129117   1.860   4.371  10.878 -0.4664 -0.1597 -0.2197
 5886SOL    HW229118   1.873   4.331  10.739 -0.3354  0.3604  0.6750
 5887SOL     OW29119   3.553   3.329   8.933 -0.6112 -0.4766 -0.6206
 5887SOL    HW129120   3.571   3.374   8.850  0.0728  0.3142 -0.0572
 5887SOL    HW229121   3.458   3.328   8.932 -0.6155 -0.6082  0.5038
 5888SOL     OW29122   3.913   2.882   1.389 -0.0267 -0.4029 -0.2486
 5888SOL    HW129123   3.852   2.943   1.347 -1.4482 -1.7744 -0.1921
 5888SOL    HW229124   3.991   2.932   1.367  0.4608 -0.6756  0.8802
 5889SOL     OW29125   2.133   1.085   2.150 -1.1389  0.5796 -0.5689
 5889SOL    HW129126   2.106   0.994   2.157 -0.4613  0.4625  0.5894
 5889SOL    HW229127   2.210   1.079   2.092 -0.1675 -0.3459  0.8301
 5890SOL     OW29128   1.850   2.440  16.730  0.3109 -0.3220  0.2569
 5890SOL    HW129129   1.905   2.518  16.727  2.1813 -1.6567 -0.0504
 5890SOL    HW229130   1.900   2.387  16.669  1.1823 -0.8243  1.4127
 5891SOL     OW29131   0.030   2.766   5.625 -1.0744 -0.2889  0.2246
 5891SOL    HW129132   0.054   2.845   5.674 -0.1866 -0.8721  0.7249
 5891SOL    HW229133   0.105   2.708   5.634  0.8576  2.2151  0.2080
 5892SOL     OW29134   1.477   1.861   6.739 -0.4249 -0.4831  0.3749
 5892SOL    HW129135   1.486   1.923   6.812  2.6926  0.1222 -0.5090
 5892SOL    HW229136   1.566   1.850   6.707 -1.2887 -2.6065 -1.2846
 5893SOL     OW29137   1.697   4.057  14.217  0.2647 -0.3845  0.4745
 5893SOL    HW129138   1.611   4.049  14.260 -0.9313  3.1421 -1.2376
 5893SOL    HW229139   1.743   4.126  14.265 -0.2325 -0.0323  0.4558
 5894SOL     OW29140   0.555   3.280   6.969 -0.1161  0.4013 -0.3206
 5894SOL    HW129141   0.605   3.202   6.996  1.1360  0.4377 -2.4997
 5894SOL    HW229142   0.599   3.292   6.885 -0.7955 -0.9423 -0.8680
 5895SOL     OW29143   3.543   0.016   5.193  0.7131 -0.2933  0.0056
 5895SOL    HW129144   3.606   0.083   5.220 -0.1164  0.0978  0.9533
 5895SOL    HW229145   3.478   0.029   5.262 -0.4782  0.1461 -1.1910
 5896SOL     OW29146   1.189   0.812  13.184 -0.4115  0.2563 -0.2700
 5896SOL    HW129147   1.126   0.769  13.126 -1.0903  1.6949 -0.5974
 5896SOL    HW229148   1.272   0.790  13.140 -1.7627  0.5551 -2.9569
 5897SOL     OW29149   4.671   2.124   7.719  0.1274  0.3217 -0.2627
 5897SOL    HW129150   4.585   2.091   7.693 -0.6728  1.2666  1.1706
 5897SOL    HW229151   4.679   2.080   7.803  1.7518  0.9170 -0.1066
 5898SOL     OW29152   3.288   2.603   7.242  0.0451  0.6388  0.5023
 5898SOL    HW129153   3.319   2.669   7.181  2.8963 -0.1329  1.1210
 5898SOL    HW229154   3.365   2.547   7.252  0.5668  1.4171  0.8847
 5899SOL     OW29155   4.520   3.979   0.697 -0.0422  0.1812  0.1682
 5899SOL    HW129156   4.475   3.928   0.764  3.1464 -2.0391  0.6053
 5899SOL    HW229157   4.503   4.063   0.740 -0.5498 -0.3121  0.9202
 5900SOL     OW29158   1.586   3.549   5.620  0.2368  0.1203 -0.8694
 5900SOL    HW129159   1.669   3.527   5.577  0.6450 -0.6219  0.2640
 5900SOL    HW229160   1.586   3.640   5.591  3.4072  0.4733  0.2502
 5901SOL     OW29161   4.405   0.789  16.155  0.4629 -0.4621  0.1626
 5901SOL    HW129162   4.476   0.853  16.159  0.1230  0.0352 -1.4930
 5901SOL    HW229163   4.381   0.778  16.247  1.4876 -1.3097  0.3227
 5902SOL     OW29164   3.970   2.191   8.391  0.1318 -0.0419 -0.6966
 5902SOL    HW129165   4.049   2.230   8.352 -0.3172  1.9323  0.3613
 5902SOL    HW229166   3.898   2.241   8.352 -0.4709 -0.4336 -0.0768
 5903SOL     OW29167   1.718   1.774   9.406  0.6625 -0.0207  0.0558
 5903SOL    HW129168   1.699   1.867   9.392  0.1900 -0.1305 -0.0212
 5903SOL    HW229169   1.668   1.765   9.487  0.5508  3.5999  0.3873
 5904SOL     OW29170   0.727   0.486   8.283  0.0065  0.2105 -0.5775
 5904SOL    HW129171   0.641   0.517   8.254 -0.1906 -0.3762 -0.6204
 5904SOL    HW229172   0.789   0.554   8.258 -0.0212 -0.1555 -1.6375
 5905SOL     OW29173   0.534   1.028  11.794 -0.4076  0.1189 -0.1950
 5905SOL    HW129174   0.602   0.992  11.851 -0.1680  1.8824  0.6097
 5905SOL    HW229175   0.488   0.950  11.764  0.3902 -0.4008 -0.0781
 5906SOL     OW29176   3.774   0.756   7.862 -0.4878  0.1952  0.1590
 5906SOL    HW129177   3.850   0.753   7.804 -1.0066  0.1025 -0.5166
 5906SOL    HW229178   3.810   0.756   7.951  2.4925 -0.7744 -1.0612
 5907SOL     OW29179   4.005   3.740  17.638 -0.2895 -0.7133  0.2327
 5907SOL    HW129180   3.977   3.831  17.632  1.4056 -0.2066 -0.0834
 5907SOL    HW229181   4.099   3.742  17.654  0.0967  0.2271 -2.1147
 5908SOL     OW29182   3.568   2.837  14.378 -0.0417  0.0741 -0.2333
 5908SOL    HW129183   3.475   2.825  14.396  0.3478  0.4855  1.9837
 5908SOL    HW229184   3.593   2.744  14.377  0.3992  0.1987 -2.1075
 5909SOL     OW29185   2.455   1.233  15.371  0.2379 -0.0479 -0.3338
 5909SOL    HW129186   2.483   1.289  15.443 -1.6416 -1.4300  1.4724
 5909SOL    HW229187   2.371   1.197  15.399 -0.3999  2.8967  1.4838
 5910SOL     OW29188   3.606   3.199   4.246  0.0771  0.0973  0.2287
 5910SOL    HW129189   3.684   3.237   4.286 -0.5165  2.0153 -0.3998
 5910SOL    HW229190   3.589   3.266   4.179 -0.6233 -1.3821 -1.0653
 5911SOL     OW29191   2.189   1.312   4.370  0.1810 -0.5890  0.2199
 5911SOL    HW129192   2.258   1.251   4.344  1.6718  1.1321  0.2171
 5911SOL    HW229193   2.132   1.316   4.293 -1.8820  0.5987  1.7826
 5912SOL     OW29194   0.051   4.526   1.364 -0.1230 -0.1588  0.1705
 5912SOL    HW129195   0.030   4.522   1.271  0.5920 -4.1609  0.1836
 5912SOL    HW229196   4.715   4.598   1.384 -0.3760 -0.0035 -1.1209
 5913SOL     OW29197   0.981   2.042   4.923  0.0550  0.0781  0.1577
 5913SOL    HW129198   0.908   2.021   4.981 -0.2409  1.1394  0.1768
 5913SOL    HW229199   0.957   2.128   4.887  0.2404  0.9232  2.0595
 5914SOL     OW29200   0.715   0.741   0.761 -0.7367  0.3266 -0.0273
 5914SOL    HW129201   0.736   0.833   0.773 -2.9900  0.9437 -0.8632
 5914SOL    HW229202   0.620   0.735   0.761 -0.6653 -1.3323  3.7320
 5915SOL     OW29203   0.480   4.490  16.042  0.1571 -0.5942  0.0692
 5915SOL    HW129204   0.561   4.445  16.064 -0.7008 -1.7929  0.8104
 5915SOL    HW229205   0.420   4.415  16.041  1.7512 -1.8612 -2.5529
 5916SOL     OW29206   2.917   4.641   4.862 -0.4932 -0.2084  0.3736
 5916SOL    HW129207   2.837   4.657   4.912 -1.0396 -1.5686 -0.0710
 5916SOL    HW229208   2.946   0.008   4.849 -0.4482 -0.1682  0.7524
 5917SOL     OW29209   1.326   4.295   6.765 -0.1676  0.4625  0.2356
 5917SOL    HW129210   1.381   4.355   6.816 -0.2619  1.1141 -0.4223
 5917SOL    HW229211   1.344   4.317   6.674  2.1366  0.0058  0.5757
 5918SOL     OW29212   1.352   0.584   2.957  0.3325 -0.0119  0.0316
 5918SOL    HW129213   1.414   0.608   2.888 -0.3829 -0.4005 -0.7441
 5918SOL    HW229214   1.291   0.658   2.957 -1.3347 -1.4018 -2.3635
 5919SOL     OW29215   4.630   1.415   8.630  0.3676  0.2935 -0.6144
 5919SOL    HW129216   4.573   1.485   8.663 -0.2343 -0.1029 -0.8112
 5919SOL    HW229217   4.608   1.341   8.686 -2.5358  0.9140 -0.9483
 5920SOL     OW29218   3.043   0.539   6.819 -0.0188 -0.1276  0.1073
 5920SOL    HW129219   3.098   0.468   6.854 -3.9266 -3.3790 -0.2663
 5920SOL    HW229220   2.956   0.502   6.832 -0.7697  1.2301 -1.1511
 5921SOL     OW29221   3.812   3.285   6.109  0.1328  0.2619 -0.2988
 5921SOL    HW129222   3.736   3.343   6.118  0.7385  1.0994 -0.5207
 5921SOL    HW229223   3.819   3.256   6.200  1.9738  1.1773 -0.1348
 5922SOL     OW29224   1.688   3.204   3.965 -0.1998  0.1433  0.4910
 5922SOL    HW129225   1.594   3.192   3.955  0.2806 -1.1881 -2.3187
 5922SOL    HW229226   1.718   3.246   3.884 -0.5998  1.9029  1.2467
 5923SOL     OW29227   2.511   1.734   5.015  0.2310 -0.6467  0.0393
 5923SOL    HW129228   2.471   1.672   5.077  1.6616  0.7956  2.4151
 5923SOL    HW229229   2.508   1.822   5.052 -1.8432  0.2084 -2.1200
 5924SOL     OW29230   4.617   1.408   5.144 -0.0154 -0.2914 -0.2004
 5924SOL    HW129231   4.652   1.349   5.077  1.2358 -0.8917  0.9708
 5924SOL    HW229232   4.609   1.483   5.086  1.8682 -0.1210 -0.2328
 5925SOL     OW29233   3.180   4.230  10.362  0.3438  0.9072  0.0119
 5925SOL    HW129234   3.175   4.268  10.449  1.5215  0.4101  0.2955
 5925SOL    HW229235   3.103   4.174  10.366  1.0136  0.0936  1.4686
 5926SOL     OW29236   2.349   3.697   4.984 -0.5116 -0.2635  0.3411
 5926SOL    HW129237   2.403   3.713   5.061 -2.2347  0.8425  1.3136
 5926SOL    HW229238   2.424   3.669   4.931 -0.6768 -0.3082  0.1310
 5927SOL     OW29239   0.797   2.910   8.286 -0.2011 -0.4757  0.2995
 5927SOL    HW129240   0.844   2.943   8.363  0.9568  1.7224 -1.3885
 5927SOL    HW229241   0.741   2.842   8.324 -3.2218  1.7208 -0.2353
 5928SOL     OW29242   0.943   0.672   8.241 -1.0045  0.7517  0.1499
 5928SOL    HW129243   1.038   0.684   8.242 -0.7669 -1.0151 -0.2448
 5928SOL    HW229244   0.922   0.728   8.166 -0.4013  0.0035 -0.5872
 5929SOL     OW29245   2.207   3.638   5.344 -0.1479 -0.2995  0.5777
 5929SOL    HW129246   2.296   3.652   5.312  0.8393 -1.6177  2.7712
 5929SOL    HW229247   2.224   3.550   5.379  1.0375 -0.4078 -0.2533
 5930SOL     OW29248   2.800   3.754   5.081 -0.0405 -0.3882 -0.5709
 5930SOL    HW129249   2.751   3.805   5.145  0.4089  0.6210 -1.0308
 5930SOL    HW229250   2.868   3.698   5.119 -0.0866 -0.3021 -0.3666
 5931SOL     OW29251   3.810   3.207   9.720  0.2123 -0.2639 -0.3724
 5931SOL    HW129252   3.892   3.161   9.702  0.0677  0.2220 -2.2823
 5931SOL    HW229253   3.800   3.233   9.629 -1.1538  1.3118  0.2435
 5932SOL     OW29254   1.717   4.237   3.672  0.1028 -0.1010  0.0381
 5932SOL    HW129255   1.637   4.209   3.716  0.8951 -1.2930  0.7200
 5932SOL    HW229256   1.767   4.158   3.687  0.5486  0.8623  3.5695
 5933SOL     OW29257   3.379   2.005   4.749 -0.1409 -0.3602 -0.0064
 5933SOL    HW129258   3.347   1.919   4.723  3.1037 -1.1529 -1.3316
 5933SOL    HW229259   3.349   2.065   4.680  0.7652  0.6750  0.5058
 5934SOL     OW29260   3.961   3.025   1.100 -0.5599 -0.1702 -0.2525
 5934SOL    HW129261   4.039   3.060   1.142  0.9482 -0.6050 -2.6630
 5934SOL    HW229262   3.934   3.106   1.056  0.3899  2.2639  3.6701
 5935SOL     OW29263   2.763   2.678  11.464  0.6176 -0.8181 -0.2013
 5935SOL    HW129264   2.700   2.719  11.405 -0.9916 -2.5149  0.3399
 5935SOL    HW229265   2.711   2.660  11.542 -0.3976 -0.6314 -0.8293
 5936SOL     OW29266   0.986   3.641   5.336  0.6089  0.2396  0.1896
 5936SOL    HW129267   1.061   3.690   5.303  0.8860 -0.3633 -0.0585
 5936SOL    HW229268   0.918   3.675   5.276  1.1996  1.6322  0.3025
 5937SOL     OW29269   2.968   1.903   5.531 -0.0378  0.3963 -0.0811
 5937SOL    HW129270   2.996   1.989   5.500  0.1683 -0.1183 -1.3504
 5937SOL    HW229271   2.885   1.900   5.484  0.8024  1.2631 -1.6258
 5938SOL     OW29272   0.578   1.726   6.979  0.4488 -0.3615 -0.2566
 5938SOL    HW129273   0.624   1.792   6.927  1.8687 -1.5053 -0.4833
 5938SOL    HW229274   0.651   1.677   7.017 -0.3921 -1.4438 -0.0368
 5939SOL     OW29275   4.259   0.584   0.586 -0.4653  0.1008 -0.3302
 5939SOL    HW129276   4.300   0.650   0.530 -0.2568 -0.7418 -1.1746
 5939SOL    HW229277   4.210   0.528   0.526 -1.5311  0.9500 -0.2444
 5940SOL     OW29278   3.448   4.304   4.620 -0.1547  0.2742  0.1000
 5940SOL    HW129279   3.466   4.300   4.526  0.5187  0.7558  0.2128
 5940SOL    HW229280   3.449   4.213   4.651 -0.3844  0.0323 -0.5843
 5941SOL     OW29281   1.700   3.105  17.027 -0.4444  0.1519  0.5913
 5941SOL    HW129282   1.760   3.180  17.024 -0.7102  0.3149 -0.5893
 5941SOL    HW229283   1.640   3.135  16.958 -0.8025  0.9787  1.2569
 5942SOL     OW29284   2.085   2.266   6.173  0.2266 -0.5243  0.0533
 5942SOL    HW129285   2.110   2.296   6.085 -0.3480 -0.9483 -0.2545
 5942SOL    HW229286   2.001   2.312   6.180  0.0960 -0.5584 -1.3773
 5943SOL     OW29287   4.442   1.424   2.722 -0.9846 -0.3962  0.0244
 5943SOL    HW129288   4.530   1.427   2.759 -1.1630  0.8978  0.3479
 5943SOL    HW229289   4.460   1.468   2.638 -2.4811  1.3098  0.6031
 5944SOL     OW29290   1.320   1.158  12.121  0.1391  0.4068  0.2081
 5944SOL    HW129291   1.396   1.129  12.172  0.9815  1.1362 -0.6424
 5944SOL    HW229292   1.275   1.205  12.192 -0.1647 -0.8813  0.8666
 5945SOL     OW29293   1.428   3.131   3.931  0.3380  0.6281 -0.0024
 5945SOL    HW129294   1.448   3.058   3.872  1.5621  1.5143 -0.6690
 5945SOL    HW229295   1.332   3.134   3.927  0.1912 -3.1989  0.5350
 5946SOL     OW29296   2.959   0.923   1.246 -0.1036  0.1645 -0.4946
 5946SOL    HW129297   2.876   0.970   1.237  0.0524  0.1487 -1.9898
 5946SOL    HW229298   2.958   0.846   1.188  2.0480  0.1469 -0.4856
 5947SOL     OW29299   2.482   0.292  11.062  0.2387  0.6744  0.3874
 5947SOL    HW129300   2.547   0.242  11.113 -0.3781 -1.0884 -0.5632
 5947SOL    HW229301   2.508   0.382  11.082  0.4589  0.6703  0.1197
 5948SOL     OW29302   2.084   1.451   2.858 -0.2256  0.1008  0.6045
 5948SOL    HW129303   2.124   1.537   2.845 -2.9677  1.6424  2.4838
 5948SOL    HW229304   1.990   1.467   2.864 -0.2730 -0.5162  1.5068
 5949SOL     OW29305   2.943   1.157   1.640 -0.2475  0.4418 -0.6376
 5949SOL    HW129306   2.884   1.084   1.626 -2.5378  2.4565 -1.4477
 5949SOL    HW229307   3.007   1.110   1.693 -1.8743 -0.6409  0.3483
 5950SOL     OW29308   3.332   2.510   5.211 -0.2298 -0.0537  0.1731
 5950SOL    HW129309   3.271   2.577   5.242 -1.1968  0.6428 -3.3055
 5950SOL    HW229310   3.265   2.442   5.201 -0.9275  0.5529  0.7293
 5951SOL     OW29311   2.131   0.185  17.045 -0.0100 -0.7928  0.6670
 5951SOL    HW129312   2.045   0.211  17.078 -0.2896 -3.8188  2.3715
 5951SOL    HW229313   2.114   0.190  16.951  0.8422  0.6903  0.6018
 5952SOL     OW29314   4.634   0.616  16.171  0.0486  0.4907  0.0945
 5952SOL    HW129315   4.629   0.557  16.246  0.3717  1.2876  0.7404
 5952SOL    HW229316   4.543   0.644  16.165 -0.0631  0.3614  1.2067
 5953SOL     OW29317   4.005   1.331   6.575 -0.2221 -0.0087  0.7838
 5953SOL    HW129318   3.968   1.418   6.560 -0.8731  0.1585  3.3346
 5953SOL    HW229319   4.016   1.313   6.481 -0.3041  1.7273  0.4437
 5954SOL     OW29320   3.898   3.933   5.798  0.7314 -0.3792  0.2104
 5954SOL    HW129321   3.906   4.028   5.805  0.4452 -0.3796  0.5469
 5954SOL    HW229322   3.837   3.916   5.726 -0.0788 -0.8321  0.9958
 5955SOL     OW29323   1.360   0.001   7.001  0.9769  0.3126 -0.2163
 5955SOL    HW129324   1.442   0.040   7.031  0.7289 -0.5759  1.6067
 5955SOL    HW229325   1.332   4.683   7.082  0.9433  1.2962  0.2676
 5956SOL     OW29326   0.124   1.728   2.813  0.2149 -0.0353 -0.1655
 5956SOL    HW129327   0.051   1.770   2.767 -0.6340  0.5031  1.6581
 5956SOL    HW229328   0.132   1.787   2.888 -0.5988 -0.7856  0.5032
 5957SOL     OW29329   2.024   3.035   5.551 -0.1154 -0.3526  0.0003
 5957SOL    HW129330   1.932   3.019   5.534 -0.2471 -0.6017  0.9388
 5957SOL    HW229331   2.029   3.114   5.605  0.1510 -0.8471  0.7012
 5958SOL     OW29332   1.023   2.243   1.119 -0.4273  0.1188  0.2902
 5958SOL    HW129333   0.956   2.229   1.052  1.2897  0.7485 -1.5629
 5958SOL    HW229334   1.045   2.153   1.142 -2.3296 -0.6964 -1.1290
 5959SOL     OW29335   3.929   1.362   8.573  0.1374 -0.2443 -0.1419
 5959SOL    HW129336   4.021   1.341   8.554  0.1810 -3.0299  3.0298
 5959SOL    HW229337   3.891   1.376   8.487 -1.4480  1.9254  0.9059
 5960SOL     OW29338   1.951   3.186   5.985 -0.4330 -0.1102 -0.1755
 5960SOL    HW129339   1.979   3.151   6.069  1.1340 -0.0607 -0.6744
 5960SOL    HW229340   1.878   3.243   6.006 -0.2173  0.4928 -1.0305
 5961SOL     OW29341   2.274   1.653   5.741  0.0371 -0.1614  0.1296
 5961SOL    HW129342   2.205   1.591   5.716 -1.6272  1.3529  0.9686
 5961SOL    HW229343   2.336   1.613   5.680  0.0488 -1.4692  0.9838
 5962SOL     OW29344   2.522   2.376   4.318  0.1492 -0.4335  0.2150
 5962SOL    HW129345   2.533   2.282   4.330 -1.9109 -0.7424 -0.4193
 5962SOL    HW229346   2.447   2.387   4.377  0.1653  1.1361 -0.0625
 5963SOL     OW29347   3.441   1.940   9.136 -0.0672 -0.2098  0.2256
 5963SOL    HW129348   3.481   1.952   9.221  1.5045 -2.4960 -0.2038
 5963SOL    HW229349   3.366   1.993   9.162 -1.4508 -0.9244 -2.2757
 5964SOL     OW29350   2.616   0.644  10.571 -0.3022  0.0800 -0.2029
 5964SOL    HW129351   2.561   0.588  10.626 -0.5323  0.9394  0.4343
 5964SOL    HW229352   2.551   0.702  10.531  1.0420  0.2227 -2.1970
 5965SOL     OW29353   0.864   1.196  13.880 -0.1138  0.0943 -0.1801
 5965SOL    HW129354   0.839   1.203  13.787 -0.4135  0.6568 -0.0559
 5965SOL    HW229355   0.894   1.105  13.875 -0.1261  0.1184 -0.7519
 5966SOL     OW29356   0.715   3.179   2.518 -0.4614 -0.6076 -0.3487
 5966SOL    HW129357   0.722   3.094   2.563 -1.3496 -0.9432 -0.8306
 5966SOL    HW229358   0.796   3.193   2.469 -0.6811  0.8833 -0.2804
 5967SOL     OW29359   3.619   2.099   8.929  0.0359 -0.8418 -0.2136
 5967SOL    HW129360   3.655   2.093   9.017 -0.7653 -0.1171  0.1605
 5967SOL    HW229361   3.526   2.097   8.952  0.1688 -1.5537  0.2734
 5968SOL     OW29362   0.955   2.169   9.247  0.3399 -0.0917  0.2291
 5968SOL    HW129363   0.951   2.075   9.268  0.0853 -0.2455 -0.5164
 5968SOL    HW229364   1.047   2.184   9.265  0.8415 -2.0371 -0.7831
 5969SOL     OW29365   2.374   2.128   5.454  0.0731 -0.1881 -0.0971
 5969SOL    HW129366   2.279   2.118   5.446  0.0059 -0.3157  0.8325
 5969SOL    HW229367   2.402   2.037   5.464 -1.0267 -0.3061  1.8840
 5970SOL     OW29368   2.331   1.955  16.276  0.1392 -0.5533 -0.1856
 5970SOL    HW129369   2.374   1.908  16.204  1.1195  0.2383 -0.1072
 5970SOL    HW229370   2.283   1.882  16.315  0.0674 -0.1383  0.4837
 5971SOL     OW29371   3.503   3.982   4.686 -0.2003  0.3020 -0.4158
 5971SOL    HW129372   3.458   3.919   4.630 -0.4314 -0.5547  0.7358
 5971SOL    HW229373   3.585   3.998   4.639 -0.4333 -0.7085 -1.1541
 5972SOL     OW29374   4.115   2.040   3.547 -0.2318 -0.3068  0.5730
 5972SOL    HW129375   4.037   1.997   3.582 -1.0440 -0.8615 -1.9111
 5972SOL    HW229376   4.154   2.081   3.624  2.0679  0.8328 -1.1841
 5973SOL     OW29377   0.274   0.059   2.158  0.1385  0.1951  0.1476
 5973SOL    HW129378   0.269   4.711   2.094 -1.8938 -0.0656  0.5940
 5973SOL    HW229379   0.368   0.047   2.173  0.1775  0.6608  0.2804
 5974SOL     OW29380   1.474   0.114   8.385 -0.0985 -0.2416 -0.2347
 5974SOL    HW129381   1.516   0.038   8.425  1.6353  1.3343  0.9684
 5974SOL    HW229382   1.530   0.184   8.419 -0.0148 -0.8111  0.8184
 5975SOL     OW29383   1.326   2.788   7.263 -0.3055 -0.1260 -0.3062
 5975SOL    HW129384   1.348   2.711   7.315  0.1885  0.4914  0.3981
 5975SOL    HW229385   1.309   2.859   7.324 -0.5031  0.0167 -0.5242
 5976SOL     OW29386   0.097   0.792   5.352 -0.4627  0.0951  0.2827
 5976SOL    HW129387   0.169   0.768   5.411 -2.1236 -1.0294  1.8441
 5976SOL    HW229388   0.064   0.874   5.389 -2.2479 -0.1409 -0.7948
 5977SOL     OW29389   1.781   0.317   6.494 -0.8078 -0.3028 -0.3576
 5977SOL    HW129390   1.818   0.397   6.531 -3.3740 -0.0853  1.7163
 5977SOL    HW229391   1.826   0.256   6.554  1.1446  0.0924 -1.4110
 5978SOL     OW29392   2.204   3.928   4.809 -0.1269 -0.4550  0.0137
 5978SOL    HW129393   2.212   3.843   4.854  0.6593 -1.1067 -1.3407
 5978SOL    HW229394   2.276   3.916   4.748 -0.9771 -0.1611 -1.0410
 5979SOL     OW29395   1.646   1.513   8.800 -0.3375 -0.4391  0.4021
 5979SOL    HW129396   1.713   1.487   8.863  1.1164  0.9940 -0.5564
 5979SOL    HW229397   1.585   1.440   8.810 -0.2867 -0.4636  0.5323
 5980SOL     OW29398   1.767   3.804   1.600  0.2124 -0.4837  0.5321
 5980SOL    HW129399   1.738   3.878   1.653 -0.0435  0.5404 -1.0393
 5980SOL    HW229400   1.712   3.795   1.522 -0.6001  1.4224  0.8751
 5981SOL     OW29401   1.662   3.330   9.529  0.1843  0.1131  0.6477
 5981SOL    HW129402   1.672   3.411   9.480 -0.4630  1.7152  3.1266
 5981SOL    HW229403   1.621   3.355   9.612 -1.2441  3.0443 -0.9521
 5982SOL     OW29404   0.701   1.034   5.227 -0.1974  0.0914  0.0158
 5982SOL    HW129405   0.698   0.973   5.153  0.4676  0.4672 -0.3146
 5982SOL    HW229406   0.722   1.112   5.177 -0.8308  1.4025  1.7848
 5983SOL     OW29407   2.285   4.593   4.473 -0.0889 -0.0284 -0.1702
 5983SOL    HW129408   2.249   4.674   4.437  0.8466  0.1243 -0.7553
 5983SOL    HW229409   2.256   4.532   4.404 -0.4220  1.1614 -1.0828
 5984SOL     OW29410   1.781   1.866   8.290  0.2896 -0.1146 -0.1310
 5984SOL    HW129411   1.725   1.917   8.232 -0.0704 -1.3150 -0.8329
 5984SOL    HW229412   1.843   1.933   8.318  0.5984  0.4169 -2.0407
 5985SOL     OW29413   2.236   2.366  14.398  0.0138  0.3832  0.8619
 5985SOL    HW129414   2.143   2.343  14.393  0.5515 -1.2545 -1.9789
 5985SOL    HW229415   2.246   2.461  14.404 -0.2414  0.4530  0.1828
 5986SOL     OW29416   3.651   0.539   4.293 -0.3227 -0.0258 -0.0405
 5986SOL    HW129417   3.705   0.546   4.214 -0.4792  2.1072  0.0541
 5986SOL    HW229418   3.680   0.620   4.335  1.7250 -0.1198 -1.2869
 5987SOL     OW29419   4.464   3.377   5.710 -0.7018  0.1505  0.1441
 5987SOL    HW129420   4.443   3.283   5.710  0.3024 -0.0696  0.7187
 5987SOL    HW229421   4.376   3.414   5.697 -0.9702 -0.2855  0.6884
 5988SOL     OW29422   2.783   0.598   3.339 -0.3429 -0.2291  0.7843
 5988SOL    HW129423   2.761   0.507   3.319 -1.0263  0.2474 -0.6308
 5988SOL    HW229424   2.834   0.577   3.417  1.3556  0.1071 -0.2341
 5989SOL     OW29425   1.700   0.194   2.537 -0.2661 -0.4450 -0.1520
 5989SOL    HW129426   1.679   0.120   2.480 -1.3536 -0.9470  0.8935
 5989SOL    HW229427   1.701   0.270   2.478  0.2868 -0.4518 -0.1468
 5990SOL     OW29428   0.989   0.851   4.083  0.4619  0.0171 -0.4646
 5990SOL    HW129429   1.052   0.877   4.015  2.4060 -1.5197  0.7620
 5990SOL    HW229430   1.039   0.776   4.114  0.1072 -0.4500 -1.0390
 5991SOL     OW29431   3.059   4.719   8.552 -0.1282 -0.0539 -0.1972
 5991SOL    HW129432   3.097   4.652   8.497  0.1090  0.2229 -0.3683
 5991SOL    HW229433   2.969   4.720   8.518 -0.5698 -0.1169  0.9459
 5992SOL     OW29434   1.125   0.690   2.798 -0.2107 -0.4897 -0.1282
 5992SOL    HW129435   1.163   0.645   2.722  0.5350 -1.0975  0.6115
 5992SOL    HW229436   1.049   0.725   2.752 -0.4073 -1.0048 -0.1930
 5993SOL     OW29437   3.391   2.379   7.409  0.0110 -0.0518 -0.3433
 5993SOL    HW129438   3.333   2.455   7.396  2.3915  1.9897  0.9004
 5993SOL    HW229439   3.444   2.394   7.487 -0.9769  1.8240 -0.0251
 5994SOL     OW29440   3.236   2.467   7.694  0.2294 -0.8132 -0.3928
 5994SOL    HW129441   3.191   2.462   7.778 -0.1065 -0.9234 -0.5783
 5994SOL    HW229442   3.219   2.383   7.652  1.0238 -1.4770  0.6001
 5995SOL     OW29443   1.027   3.729  16.148  0.1347  0.3791 -0.4998
 5995SOL    HW129444   1.089   3.680  16.094  0.0698  0.2449 -0.4526
 5995SOL    HW229445   0.948   3.721  16.095  0.9063 -0.9996 -1.4339
 5996SOL     OW29446   3.956   4.519   3.638  0.0481  0.8649 -0.6637
 5996SOL    HW129447   3.889   4.469   3.591 -0.9080  2.1494 -0.6710
 5996SOL    HW229448   3.900   4.535   3.714  2.1358  1.2483  0.8049
 5997SOL     OW29449   2.112   1.254   0.370 -0.1906 -0.2453 -0.1360
 5997SOL    HW129450   2.124   1.320   0.302  1.1701 -1.7758 -1.3699
 5997SOL    HW229451   2.148   1.291   0.451  1.3094  0.4991 -1.1474
 5998SOL     OW29452   2.455   3.956   6.142 -0.2701  0.6707  0.1929
 5998SOL    HW129453   2.509   3.882   6.114 -0.6943  0.0431  1.0119
 5998SOL    HW229454   2.369   3.948   6.101 -0.2086 -0.1836  0.2292
 5999SOL     OW29455   4.673   1.513   3.855 -0.6076 -0.2497 -0.5024
 5999SOL    HW129456   4.699   1.537   3.766  0.6152  1.0355  0.2009
 5999SOL    HW229457   4.585   1.477   3.848 -1.5016  2.0516 -0.9137
 6000SOL     OW29458   3.126   0.277   2.401 -0.4772  0.7847  0.4442
 6000SOL    HW129459   3.173   0.194   2.400 -0.2311  0.9560 -1.9305
 6000SOL    HW229460   3.073   0.270   2.322  2.0936  3.5667 -1.4948
 6001SOL     OW29461   0.441   4.512   3.815  0.6781  0.3201 -0.6799
 6001SOL    HW129462   0.369   4.456   3.786  0.3872 -0.0089  0.6747
 6001SOL    HW229463   0.388   4.558   3.879 -0.6551  1.7471 -2.8198
 6002SOL     OW29464   4.023   3.971   2.696  0.0657  0.1223 -0.1954
 6002SOL    HW129465   4.115   3.990   2.717  0.7551 -1.4197 -1.8370
 6002SOL    HW229466   4.024   3.885   2.654 -1.4629 -0.8751  1.8161
 6003SOL     OW29467   3.648   3.664   4.376  0.4033  0.2298  0.4236
 6003SOL    HW129468   3.564   3.632   4.409  0.9743 -0.5122  1.1756
 6003SOL    HW229469   3.621   3.704   4.293  0.9900  1.5062  0.8495
 6004SOL     OW29470   0.062   2.394   5.448  0.0325  0.3902 -0.0330
 6004SOL    HW129471   4.702   2.438   5.456 -0.6416 -1.2331  1.6290
 6004SOL    HW229472   0.084   2.403   5.355 -1.7468  0.9580 -0.3917
 6005SOL     OW29473   3.042   1.863   3.757  0.3567  0.0481  0.5212
 6005SOL    HW129474   3.133   1.893   3.752  0.8099 -1.7238 -1.8105
 6005SOL    HW229475   3.054   1.805   3.832  0.4163 -0.8767 -0.2061
 6006SOL     OW29476   0.276   2.429   7.099  0.7325 -0.1658 -0.2426
 6006SOL    HW129477   0.247   2.401   7.186 -1.4647  1.4268 -0.4528
 6006SOL    HW229478   0.324   2.508   7.124 -0.5085  0.2066  1.0116
 6007SOL     OW29479   3.601   1.655   1.652  0.1996  0.3342 -0.1061
 6007SOL    HW129480   3.621   1.568   1.617 -1.8433  1.3442 -3.7177
 6007SOL    HW229481   3.539   1.637   1.723  0.2657  0.9327  0.1025
 6008SOL     OW29482   2.924   3.303   3.125  0.1470  0.4329 -0.0773
 6008SOL    HW129483   2.872   3.223   3.133 -0.6318  0.6636 -2.6510
 6008SOL    HW229484   2.981   3.275   3.053  0.6865  0.7667  0.2213
 6009SOL     OW29485   0.025   3.395   0.580 -0.4342 -0.1186  0.1514
 6009SOL    HW129486   4.723   3.485   0.601  0.4019  0.3336 -0.7443
 6009SOL    HW229487   0.090   3.380   0.650 -2.5078  0.0245  2.1033
 6010SOL     OW29488   1.011   3.265   8.830  0.3547  0.0998  0.6855
 6010SOL    HW129489   0.983   3.279   8.920 -1.0528  0.0456  0.2538
 6010SOL    HW229490   1.063   3.185   8.839 -2.3798 -1.5593  1.6991
 6011SOL     OW29491   1.579   2.496   2.362  0.1823  0.0543  0.3467
 6011SOL    HW129492   1.524   2.574   2.364  1.0117  0.5899  2.4524
 6011SOL    HW229493   1.534   2.445   2.295  1.9030 -2.3816  1.0541
 6012SOL     OW29494   3.624   4.297   7.033 -0.2391  0.2288 -0.4885
 6012SOL    HW129495   3.612   4.337   7.120 -0.4508  0.8449 -0.8012
 6012SOL    HW229496   3.681   4.358   6.986  0.6312 -0.1956  0.0039
 6013SOL     OW29497   3.835   2.188   4.629 -0.0321  0.2350  0.6358
 6013SOL    HW129498   3.780   2.128   4.680  0.6637 -0.5508  0.4619
 6013SOL    HW229499   3.913   2.199   4.683  1.2321  1.1216 -1.3818
 6014SOL     OW29500   0.946   1.550   7.357  0.2774 -0.1121 -0.2374
 6014SOL    HW129501   0.944   1.622   7.419 -0.1554 -1.0722  0.8801
 6014SOL    HW229502   0.924   1.472   7.408 -1.0928  0.8507  0.6404
 6015SOL     OW29503   3.246   3.563   5.855  0.6369 -0.3750 -0.2136
 6015SOL    HW129504   3.334   3.595   5.877  0.7812 -0.6697 -0.3584
 6015SOL    HW229505   3.197   3.644   5.871 -0.4761 -1.2054  0.5762
 6016SOL     OW29506   3.573   0.920   5.294 -0.1752 -0.2077  0.6421
 6016SOL    HW129507   3.614   0.870   5.364 -0.3200 -0.1343  0.7780
 6016SOL    HW229508   3.520   0.985   5.339 -0.2712  0.6490 -0.7051
 6017SOL     OW29509   2.333   0.658  11.158  0.5896  0.4018 -0.3154
 6017SOL    HW129510   2.347   0.719  11.086  0.8322  0.5339 -0.1571
 6017SOL    HW229511   2.427   0.643  11.171  0.0524 -1.2932  1.6898
 6018SOL     OW29512   3.947   3.268  13.914 -0.0109 -0.5148  0.2135
 6018SOL    HW129513   3.861   3.227  13.912 -0.5430  0.5526  1.0727
 6018SOL    HW229514   3.981   3.225  13.835 -0.9656  0.6322 -0.8314
 6019SOL     OW29515   4.251   3.218  15.402  0.0732  0.1418  0.3018
 6019SOL    HW129516   4.206   3.173  15.473  0.0471 -1.7751 -0.9163
 6019SOL    HW229517   4.175   3.227  15.344 -0.9576  0.2082  1.6763
 6020SOL     OW29518   2.902   4.577   6.597  0.5187 -1.1608 -0.1621
 6020SOL    HW129519   2.917   4.636   6.524 -0.9131 -0.7507 -0.1245
 6020SOL    HW229520   2.994   4.567   6.621 -0.4043  0.3846  3.9846
 6021SOL     OW29521   0.584   3.857  14.073  0.9352  0.1037  0.5423
 6021SOL    HW129522   0.664   3.850  14.020  1.5585  0.0533  1.4841
 6021SOL    HW229523   0.532   3.917  14.020  0.3010 -1.5925 -0.7627
 6022SOL     OW29524   3.137   3.397   5.369 -0.4777 -0.6680  0.4174
 6022SOL    HW129525   3.148   3.304   5.352  2.7125 -0.4171  1.0634
 6022SOL    HW229526   3.156   3.396   5.463  0.1677  1.6390  0.3076
 6023SOL     OW29527   0.812   1.637  13.325  0.3997 -0.4376  0.4932
 6023SOL    HW129528   0.770   1.556  13.297 -1.1898  0.2980  0.6799
 6023SOL    HW229529   0.899   1.604  13.346 -0.0075 -1.5610  0.4085
 6024SOL     OW29530   3.286   3.948  11.494 -0.4271 -0.1440  0.0289
 6024SOL    HW129531   3.309   3.916  11.581  0.1620 -0.2027 -0.1461
 6024SOL    HW229532   3.369   3.988  11.470 -1.1528  0.8315 -0.8303
 6025SOL     OW29533   2.868   0.450  14.876  0.3683 -0.3254  0.1459
 6025SOL    HW129534   2.773   0.442  14.883  0.5128 -2.7110 -0.6199
 6025SOL    HW229535   2.899   0.465  14.965 -0.1853 -2.4699  0.7098
 6026SOL     OW29536   0.584   1.186  14.415  0.1662 -0.5086 -0.5319
 6026SOL    HW129537   0.548   1.258  14.364 -0.3581  0.1249  0.7364
 6026SOL    HW229538   0.664   1.226  14.448 -0.1678  0.6072 -1.0923
 6027SOL     OW29539   2.299   2.430   6.672  0.0583  0.4241  0.5271
 6027SOL    HW129540   2.334   2.428   6.583  2.7888 -3.4749  1.7076
 6027SOL    HW229541   2.227   2.367   6.679  1.3510 -0.8438  2.4026
 6028SOL     OW29542   2.641   1.011  15.039 -0.4446  0.3120  0.4178
 6028SOL    HW129543   2.590   0.996  14.960  1.5107 -1.3287 -0.5637
 6028SOL    HW229544   2.657   0.917  15.054  2.1011  0.9845  1.9531
 6029SOL     OW29545   3.130   4.432   7.453 -0.1935 -0.0728 -0.4821
 6029SOL    HW129546   3.162   4.522   7.453  0.1335 -0.1910 -1.0969
 6029SOL    HW229547   3.180   4.386   7.386  2.6384  3.0209 -0.4628
 6030SOL     OW29548   3.485   1.765  14.526  0.1153 -0.2263 -0.5306
 6030SOL    HW129549   3.494   1.846  14.576  0.0149  0.7617 -2.0967
 6030SOL    HW229550   3.430   1.709  14.580  0.7154 -2.5447 -2.3401
 6031SOL     OW29551   2.999   0.122   9.194 -0.7079 -0.9267 -0.1732
 6031SOL    HW129552   2.988   0.212   9.161  1.0469 -0.7699 -0.3264
 6031SOL    HW229553   2.912   0.090   9.217 -1.6059 -0.2275 -2.5907
 6032SOL     OW29554   1.231   3.808  14.666  0.3457 -0.5708  0.2727
 6032SOL    HW129555   1.195   3.893  14.688 -0.8268 -0.6004 -1.4962
 6032SOL    HW229556   1.306   3.824  14.723  1.8446 -0.6809 -1.6712
 6033SOL     OW29557   2.207   1.944   3.864  0.6880 -0.1148  0.9765
 6033SOL    HW129558   2.217   1.891   3.943 -0.8639 -2.6950 -0.5568
 6033SOL    HW229559   2.236   2.031   3.893  1.8450  0.0457 -0.7042
 6034SOL     OW29560   3.297   4.405  10.957  0.3088 -0.0748 -0.0410
 6034SOL    HW129561   3.264   4.484  10.914 -0.3209 -0.9173 -1.0962
 6034SOL    HW229562   3.385   4.430  10.985  0.1524 -2.3605  2.5200
 6035SOL     OW29563   1.646   4.422   2.808 -0.8603 -0.2806 -0.1690
 6035SOL    HW129564   1.671   4.507   2.846  0.6044 -0.2501 -1.1835
 6035SOL    HW229565   1.675   4.359   2.874 -0.7917 -0.5448 -0.4519
 6036SOL     OW29566   4.471   2.775   5.041 -0.3405  0.7488 -0.2361
 6036SOL    HW129567   4.428   2.738   5.117  1.3366  0.0487  0.3649
 6036SOL    HW229568   4.403   2.833   5.007 -0.5183  1.0443  0.6398
 6037SOL     OW29569   3.978   2.800   1.683 -0.0560 -0.0731  0.2339
 6037SOL    HW129570   3.978   2.894   1.701 -0.2904  0.0534 -0.4297
 6037SOL    HW229571   3.968   2.803   1.588  1.4700 -1.7610  0.0301
 6038SOL     OW29572   4.698   1.738   2.484 -0.3140  0.0282 -0.0349
 6038SOL    HW129573   4.677   1.790   2.562 -0.0768 -0.6023  0.4518
 6038SOL    HW229574   0.070   1.748   2.485 -0.4811  1.5850 -0.2068
 6039SOL     OW29575   3.039   1.130   2.102  0.2223  0.1958 -0.8251
 6039SOL    HW129576   3.033   1.055   2.042  1.6546 -1.0026  0.5543
 6039SOL    HW229577   3.099   1.099   2.170  0.6668 -0.3459 -1.4623
 6040SOL     OW29578   0.946   1.830   6.563 -0.3447  0.3228  0.5868
 6040SOL    HW129579   0.907   1.913   6.534 -1.0346 -0.1478  0.1652
 6040SOL    HW229580   0.864   1.781   6.568 -0.0322 -0.4040 -1.2794
 6041SOL     OW29581   1.776   4.373  14.030  0.8949  0.0000 -0.4871
 6041SOL    HW129582   1.865   4.374  13.994  0.2357  0.5312 -2.1334
 6041SOL    HW229583   1.743   4.286  14.010 -1.8468  0.6087  1.4042
 6042SOL     OW29584   1.589   3.472  17.145  0.2762  0.5907  0.2551
 6042SOL    HW129585   1.527   3.446  17.212 -0.1699  0.2358 -0.2955
 6042SOL    HW229586   1.670   3.489  17.194  0.2226  1.8116 -0.0900
 6043SOL     OW29587   0.728   1.566   4.927 -0.2112 -0.0818 -0.3468
 6043SOL    HW129588   0.751   1.632   4.994  1.7639  0.1068 -1.2077
 6043SOL    HW229589   0.688   1.494   4.975  0.0244  0.3684  0.5510
 6044SOL     OW29590   4.074   1.011   6.994 -0.4028 -0.0321 -0.1487
 6044SOL    HW129591   4.088   1.104   6.977 -1.8854 -0.3451 -3.0846
 6044SOL    HW229592   4.097   0.977   6.907  0.5447  2.2763 -0.7837
 6045SOL     OW29593   1.298   2.902   5.044  0.0182 -0.3875 -0.0252
 6045SOL    HW129594   1.291   2.806   5.052 -3.6969 -0.0826  0.1444
 6045SOL    HW229595   1.215   2.929   5.083 -0.9974  0.6348 -2.9291
 6046SOL     OW29596   2.772   3.984  16.872 -0.2481 -0.2457  0.4336
 6046SOL    HW129597   2.780   3.917  16.940 -0.4531 -1.0941 -0.3717
 6046SOL    HW229598   2.725   3.949  16.797  0.2144 -1.2334  0.5986
 6047SOL     OW29599   0.748   2.455   5.150  0.7331 -0.9205  0.5715
 6047SOL    HW129600   0.717   2.377   5.196  0.4578 -0.0366  1.8841
 6047SOL    HW229601   0.674   2.498   5.108  0.3524 -1.8959  0.2401
 6048SOL     OW29602   3.415   4.581   5.018  0.4599 -0.7131 -0.1785
 6048SOL    HW129603   3.466   4.627   5.085 -0.7946  1.1791 -0.5280
 6048SOL    HW229604   3.352   4.650   4.998  1.6208  0.1422 -0.8841
 6049SOL     OW29605   2.987   4.120  17.123  0.4558  0.9666 -0.1043
 6049SOL    HW129606   2.904   4.161  17.096  0.7463  0.0221 -2.4089
 6049SOL    HW229607   3.004   4.163  17.207 -0.2821 -0.0998  0.6070
 6050SOL     OW29608   2.203   2.841  15.375 -0.8965 -0.2417  0.0745
 6050SOL    HW129609   2.138   2.822  15.308 -0.6239  0.5308 -0.4133
 6050SOL    HW229610   2.192   2.936  15.376  1.0660  0.0044 -0.9710
 6051SOL     OW29611   1.858   3.336  12.567 -0.3477  0.2985  0.2226
 6051SOL    HW129612   1.867   3.430  12.582 -0.4356  0.7006 -2.2035
 6051SOL    HW229613   1.909   3.295  12.637 -0.3945 -0.2939 -0.0947
 6052SOL     OW29614   1.625   3.434   5.856  0.2462  0.9091  0.3148
 6052SOL    HW129615   1.671   3.517   5.873  0.6038  0.5773  0.9479
 6052SOL    HW229616   1.646   3.425   5.764  1.5338  1.7835  0.5183
 6053SOL     OW29617   3.326   3.744   1.411  0.1334  0.0068 -0.0193
 6053SOL    HW129618   3.342   3.670   1.470 -1.3976  1.0449  1.7207
 6053SOL    HW229619   3.388   3.727   1.340  1.3189 -1.4443  1.3512
 6054SOL     OW29620   2.027   3.537  12.334  0.0372  0.5009 -0.0581
 6054SOL    HW129621   2.048   3.610  12.275  0.3646  0.1797 -0.3480
 6054SOL    HW229622   1.941   3.565  12.363 -0.8807 -2.5481  0.1792
 6055SOL     OW29623   2.008   1.007  17.157 -0.4444 -0.0258 -0.3426
 6055SOL    HW129624   2.053   0.983  17.238  0.0414 -3.3537 -1.5993
 6055SOL    HW229625   2.052   0.953  17.091  0.2619  2.6716 -2.0778
 6056SOL     OW29626   4.416   2.562   2.966 -0.2626 -0.2476 -0.2074
 6056SOL    HW129627   4.342   2.502   2.958 -0.4522  0.0317 -0.5393
 6056SOL    HW229628   4.412   2.575   3.060  1.9680  0.3054 -0.1934
 6057SOL     OW29629   3.945   1.165   4.109 -0.1614  0.0855 -0.4303
 6057SOL    HW129630   3.894   1.245   4.123  0.5789  0.0537  2.6416
 6057SOL    HW229631   3.991   1.179   4.026 -0.3010 -1.3885 -0.7419
 6058SOL     OW29632   0.110   1.918   7.195  0.5228  0.2568 -0.2842
 6058SOL    HW129633   0.155   1.968   7.263  0.3746  0.6304 -0.4571
 6058SOL    HW229634   0.188   1.885   7.151  3.3763  2.8885  2.8018
 6059SOL     OW29635   0.957   4.619   6.163 -0.0215 -0.7574 -0.2596
 6059SOL    HW129636   0.937   4.606   6.256 -3.2124  0.0725 -0.8592
 6059SOL    HW229637   1.050   4.641   6.164 -0.0744 -0.5536  0.1679
 6060SOL     OW29638   4.110   0.613   5.312  0.0317 -0.2768  0.8482
 6060SOL    HW129639   4.187   0.662   5.283  0.4286 -2.1114 -1.1302
 6060SOL    HW229640   4.139   0.534   5.358 -1.1031 -2.4745 -2.2179
 6061SOL     OW29641   2.526   1.275  15.109 -0.2506 -0.1273  0.4477
 6061SOL    HW129642   2.515   1.251  15.201  1.3232  1.4284  1.0429
 6061SOL    HW229643   2.545   1.189  15.072 -0.5749 -0.0608  0.1377
 6062SOL     OW29644   2.891   1.319  11.081 -0.1681  0.4420 -0.2562
 6062SOL    HW129645   2.971   1.358  11.116 -0.3449  0.8074 -0.2575
 6062SOL    HW229646   2.830   1.391  11.096 -1.3838 -0.3982 -1.1049
 6063SOL     OW29647   1.438   3.679  13.795  0.6125  0.6862  0.1052
 6063SOL    HW129648   1.498   3.674  13.721 -0.2210 -0.3495 -0.4964
 6063SOL    HW229649   1.350   3.670  13.761  0.3947  0.5880  0.6932
 6064SOL     OW29650   3.634   1.527   4.933 -0.1807 -0.1631 -0.6437
 6064SOL    HW129651   3.629   1.562   5.022  1.2480 -0.7558 -0.3271
 6064SOL    HW229652   3.541   1.527   4.913 -0.3297  2.0618  0.0187
 6065SOL     OW29653   1.443   3.679  14.068  0.0656  0.2020 -1.0197
 6065SOL    HW129654   1.491   3.700  13.988 -1.4644 -0.7340 -2.1941
 6065SOL    HW229655   1.517   3.693  14.126  0.5137 -1.8156 -1.0848
 6066SOL     OW29656   1.822   0.779  13.553  0.1734 -0.0182 -0.3405
 6066SOL    HW129657   1.879   0.718  13.507  0.4851 -0.3211  0.4502
 6066SOL    HW229658   1.735   0.740  13.544 -0.6797  2.2111 -1.6968
 6067SOL     OW29659   3.904   2.341   7.574 -0.4742  0.0878  0.2865
 6067SOL    HW129660   3.851   2.400   7.520 -0.7766 -2.5569 -2.3331
 6067SOL    HW229661   3.964   2.401   7.618 -2.5876  2.4476 -0.0232
 6068SOL     OW29662   3.197   2.575   9.343  0.6273  0.2720  0.1685
 6068SOL    HW129663   3.160   2.566   9.431 -0.0094  1.6794  0.0361
 6068SOL    HW229664   3.180   2.481   9.332  1.0226  0.0789  1.2261
 6069SOL     OW29665   2.278   0.992   8.974 -0.5575  0.6312 -0.2197
 6069SOL    HW129666   2.243   0.935   8.905  1.6525 -1.6390  0.5475
 6069SOL    HW229667   2.243   0.949   9.052 -0.2409 -2.1009 -1.6074
 6070SOL     OW29668   0.545   2.010   3.991  0.1592  0.2734 -0.7429
 6070SOL    HW129669   0.590   1.994   4.074 -0.8168 -0.7511 -0.4070
 6070SOL    HW229670   0.470   2.057   4.029  0.5973  1.1586 -0.9626
 6071SOL     OW29671   3.518   0.958   5.696  0.0515 -0.4449 -0.0350
 6071SOL    HW129672   3.444   0.961   5.636  0.1126  0.1063 -0.0865
 6071SOL    HW229673   3.530   1.053   5.700 -2.5133 -0.1888  1.5064
 6072SOL     OW29674   4.652   3.574   3.727  0.2624 -0.6128  0.5420
 6072SOL    HW129675   4.632   3.584   3.634 -1.9397 -3.1305  0.7486
 6072SOL    HW229676   4.572   3.592   3.775  0.2367 -0.8811  0.5984
 6073SOL     OW29677   2.953   0.539   9.565 -0.4226  0.2986  0.0671
 6073SOL    HW129678   2.936   0.561   9.474 -1.3546 -2.3537 -0.4116
 6073SOL    HW229679   3.040   0.502   9.547 -0.3806  1.7544 -2.6922
 6074SOL     OW29680   2.619   3.602   6.744 -0.4804 -0.4026  0.8561
 6074SOL    HW129681   2.545   3.542   6.749 -0.9187  0.1077  0.4175
 6074SOL    HW229682   2.693   3.540   6.752 -0.3626 -0.2895  0.6493
 6075SOL     OW29683   2.232   0.179   9.473 -0.3574  0.0016  0.0776
 6075SOL    HW129684   2.314   0.225   9.493  0.4472 -2.4340  2.5370
 6075SOL    HW229685   2.263   0.094   9.442  0.0145  1.0449 -2.4454
 6076SOL     OW29686   4.542   2.173   5.646 -0.5476  0.3479 -0.3474
 6076SOL    HW129687   4.519   2.254   5.601 -2.5773 -0.4791 -0.8282
 6076SOL    HW229688   4.482   2.115   5.599 -2.5022  2.4680 -0.4671
 6077SOL     OW29689   1.613   2.909   3.243  0.2265  0.2091  0.0432
 6077SOL    HW129690   1.524   2.904   3.208  0.1422  1.1691  0.1027
 6077SOL    HW229691   1.625   2.827   3.289  3.1009 -0.1037 -1.2332
 6078SOL     OW29692   0.679   1.564   7.629  0.0220  0.4743  0.1506
 6078SOL    HW129693   0.618   1.600   7.694 -0.9072 -1.4930  0.3742
 6078SOL    HW229694   0.667   1.472   7.652  1.9320  0.5813  1.5942
 6079SOL     OW29695   2.902   4.101  14.109 -0.4104 -0.1427  0.1084
 6079SOL    HW129696   2.844   4.177  14.096  0.2785  0.8531  2.7624
 6079SOL    HW229697   2.981   4.145  14.142  0.7497 -2.4577  0.3863
 6080SOL     OW29698   4.579   3.175   3.100  0.5954 -0.2496 -0.3630
 6080SOL    HW129699   4.583   3.263   3.063 -0.2096  0.1792  0.5532
 6080SOL    HW229700   4.636   3.189   3.176 -0.6220  2.2223  0.1243
 6081SOL     OW29701   1.117   3.006   8.887  0.4166 -0.3405  0.1883
 6081SOL    HW129702   1.211   3.003   8.904  0.1975 -0.3956  1.4122
 6081SOL    HW229703   1.095   2.914   8.903  1.8931 -0.5702  0.8720
 6082SOL     OW29704   4.076   2.596  12.115 -0.5061  0.2471  0.0478
 6082SOL    HW129705   4.068   2.501  12.102 -3.3950  0.4456  0.3591
 6082SOL    HW229706   4.072   2.599  12.211  0.3622  1.9208  0.0237
 6083SOL     OW29707   1.840   1.833   1.863 -0.3175 -0.4660  0.3735
 6083SOL    HW129708   1.896   1.838   1.785 -0.8388 -1.2782 -0.0588
 6083SOL    HW229709   1.756   1.812   1.821 -1.5044  1.0035  1.9935
 6084SOL     OW29710   2.958   0.238   3.014  0.4370  0.2872  0.2938
 6084SOL    HW129711   2.869   0.247   2.978  0.2909  4.1016  1.6705
 6084SOL    HW229712   3.008   0.224   2.933  0.6352  1.3731  0.2260
 6085SOL     OW29713   2.567   0.492  11.270  0.0857 -0.2825  0.3390
 6085SOL    HW129714   2.630   0.557  11.300 -0.6063  0.9140 -0.7448
 6085SOL    HW229715   2.579   0.425  11.337  1.5795 -1.7407 -1.3936
 6086SOL     OW29716   0.317   0.398   7.756  0.0867 -0.0745  0.2225
 6086SOL    HW129717   0.266   0.435   7.684 -1.4600  0.0792  1.3982
 6086SOL    HW229718   0.285   0.309   7.767 -1.6003  0.3809 -1.0143
 6087SOL     OW29719   0.393   1.806  15.189  0.7197 -0.2777 -0.3286
 6087SOL    HW129720   0.309   1.780  15.150  0.1470 -0.4112  1.0212
 6087SOL    HW229721   0.413   1.718  15.221  0.0346 -0.2465  0.1781
 6088SOL     OW29722   4.049   4.457   9.688  0.1921 -0.1502  0.1299
 6088SOL    HW129723   3.996   4.391   9.732 -0.2578  0.6619  0.8062
 6088SOL    HW229724   4.134   4.445   9.730  0.3161  1.9476  0.4772
 6089SOL     OW29725   2.718   0.353   9.655  0.0222  0.1486 -0.1345
 6089SOL    HW129726   2.743   0.395   9.737  0.1669  1.7211 -1.0009
 6089SOL    HW229727   2.784   0.381   9.593 -1.2207  2.2863 -0.4895
 6090SOL     OW29728   2.854   2.872  12.816  0.6834  0.6946  0.4033
 6090SOL    HW129729   2.792   2.923  12.764  0.6702 -2.4148 -2.6562
 6090SOL    HW229730   2.925   2.932  12.838  2.0236 -0.7771  0.1296
 6091SOL     OW29731   2.734   2.255  14.476  0.1029  0.4586 -0.0636
 6091SOL    HW129732   2.715   2.349  14.471 -1.5552  0.1712  0.6782
 6091SOL    HW229733   2.648   2.213  14.478  1.1457 -1.6809  0.2224
 6092SOL     OW29734   4.301   0.858   3.917  0.6637  0.0622 -0.1357
 6092SOL    HW129735   4.220   0.809   3.908  0.5919  0.1427  0.0701
 6092SOL    HW229736   4.293   0.913   3.840 -0.2523 -0.9593 -0.7653
 6093SOL     OW29737   3.497   2.137   5.744  0.2384  0.3425  0.7405
 6093SOL    HW129738   3.468   2.213   5.694 -1.5348 -2.5881 -2.7266
 6093SOL    HW229739   3.413   2.091   5.756  1.5609 -2.4543 -0.7510
 6094SOL     OW29740   2.495   3.658   8.619 -0.0901  0.1031  0.3391
 6094SOL    HW129741   2.442   3.626   8.547  1.4645 -1.1188 -0.2456
 6094SOL    HW229742   2.439   3.677   8.694 -0.3648  0.1238  0.1274
 6095SOL     OW29743   3.245   2.085   3.875  0.0475 -0.1137 -0.2538
 6095SOL    HW129744   3.242   2.083   3.780 -0.8225 -2.0669 -0.2000
 6095SOL    HW229745   3.152   2.091   3.900  0.4286  2.3917  0.5618
 6096SOL     OW29746   2.712   1.738  15.846 -0.4565  0.0124 -0.8692
 6096SOL    HW129747   2.700   1.683  15.923 -1.2698 -2.5522 -2.8353
 6096SOL    HW229748   2.705   1.826  15.884  1.1126  0.0289 -0.6434
 6097SOL     OW29749   3.237   2.730   9.614 -0.4010  0.1426 -0.7756
 6097SOL    HW129750   3.248   2.819   9.578  0.3775 -0.7759 -2.7986
 6097SOL    HW229751   3.213   2.754   9.703  0.5391  1.1925 -0.8074
 6098SOL     OW29752   3.694   2.049   0.426 -0.5106  0.4287  0.0099
 6098SOL    HW129753   3.628   2.001   0.378  1.3462 -0.9710 -1.1205
 6098SOL    HW229754   3.695   2.130   0.375  1.2729 -0.2329 -1.0012
 6099SOL     OW29755   4.600   3.062   2.329  0.1841  0.0777 -0.0798
 6099SOL    HW129756   4.604   2.996   2.260 -0.8933 -1.6184  1.4965
 6099SOL    HW229757   4.541   3.130   2.296  1.0585  0.3783 -1.0283
 6100SOL     OW29758   4.157   1.767   9.802  0.2631  0.1687 -0.3819
 6100SOL    HW129759   4.217   1.771   9.728  2.9346 -2.2963  1.6494
 6100SOL    HW229760   4.077   1.798   9.759 -0.3504 -1.1365 -0.1796
 6101SOL     OW29761   4.263   3.435  14.312 -0.1510  0.2328  0.1889
 6101SOL    HW129762   4.213   3.516  14.329 -0.3654  0.2099 -0.3464
 6101SOL    HW229763   4.281   3.439  14.218  0.6966 -1.6636  0.2859
 6102SOL     OW29764   0.394   1.312   8.572  0.1692 -0.1371 -0.0291
 6102SOL    HW129765   0.309   1.332   8.611 -0.4905  0.2522 -1.7158
 6102SOL    HW229766   0.386   1.217   8.585  0.8714 -0.2992 -0.7950
 6103SOL     OW29767   3.769   2.997   6.170  0.0199 -0.4344  0.2684
 6103SOL    HW129768   3.853   2.976   6.210  0.1559  1.6549  1.1003
 6103SOL    HW229769   3.726   3.043   6.242  2.2532  1.5732  0.3054
 6104SOL     OW29770   3.094   2.437   1.637  0.4176  0.3137  0.1619
 6104SOL    HW129771   3.072   2.344   1.631 -0.4180  0.6163 -1.3580
 6104SOL    HW229772   3.028   2.466   1.574  0.3572  1.5912  0.8068
 6105SOL     OW29773   0.643   1.397   1.115 -0.0674  0.3565 -0.0588
 6105SOL    HW129774   0.705   1.469   1.111 -0.2300  0.5624  1.2870
 6105SOL    HW229775   0.659   1.370   1.205 -0.2321 -1.5634 -0.5998
 6106SOL     OW29776   0.402   4.000   8.157  0.1005 -0.3485  0.1107
 6106SOL    HW129777   0.398   3.983   8.063  3.0156  2.0517 -0.4053
 6106SOL    HW229778   0.461   4.074   8.167  1.0898 -1.2505  0.9514
 6107SOL     OW29779   3.264   3.783  13.916  0.3203  0.0089  0.5818
 6107SOL    HW129780   3.178   3.803  13.953  0.7286  0.2308  1.4109
 6107SOL    HW229781   3.298   3.715  13.975  2.2351 -0.2015 -0.7748
 6108SOL     OW29782   4.108   2.562   5.909  0.2039  0.2001 -0.0736
 6108SOL    HW129783   4.136   2.648   5.940  0.5276 -0.4172  1.3163
 6108SOL    HW229784   4.038   2.554   5.974  0.4323 -1.3629 -0.0333
 6109SOL     OW29785   2.109   0.180   3.830  0.0518 -0.1809 -0.3861
 6109SOL    HW129786   2.103   0.251   3.766  2.3194  0.5942  0.2890
 6109SOL    HW229787   2.128   0.106   3.772  1.7993 -0.2356  0.2528
 6110SOL     OW29788   0.847   1.908   2.362  0.2166  0.2450 -0.8312
 6110SOL    HW129789   0.773   1.889   2.306  0.7860 -1.0413 -1.1625
 6110SOL    HW229790   0.797   1.931   2.441 -0.7254 -0.7112 -1.1465
 6111SOL     OW29791   3.425   1.655  15.032 -0.3861  0.6491 -0.5560
 6111SOL    HW129792   3.488   1.684  15.097 -0.4532  0.8341 -0.5745
 6111SOL    HW229793   3.366   1.730  15.025 -0.3464  0.6503 -0.9120
 6112SOL     OW29794   0.091   3.521  16.359  0.3420 -0.1940 -0.1419
 6112SOL    HW129795   0.030   3.462  16.314  0.2553  1.6891 -2.5303
 6112SOL    HW229796   0.174   3.481  16.335  0.4652  2.3663 -4.0659
 6113SOL     OW29797   2.135   0.814   4.918 -0.3291 -0.2054  0.1799
 6113SOL    HW129798   2.153   0.897   4.873  0.6103  0.3346  1.5245
 6113SOL    HW229799   2.224   0.782   4.934  0.0611  0.1148 -1.3642
 6114SOL     OW29800   1.664   1.924   4.090 -0.4567  0.3476  0.1262
 6114SOL    HW129801   1.595   1.975   4.133  0.7825  1.5097  0.7516
 6114SOL    HW229802   1.747   1.939   4.135  0.4005  3.0045 -2.3182
 6115SOL     OW29803   2.368   1.532   4.406 -0.0488  0.3066 -0.2479
 6115SOL    HW129804   2.411   1.462   4.456  0.2103  1.0746  0.6006
 6115SOL    HW229805   2.290   1.479   4.389  0.7199 -0.6487 -0.7778
 6116SOL     OW29806   2.328   3.134   3.272 -0.1567 -0.0546  0.2826
 6116SOL    HW129807   2.356   3.096   3.355 -0.6534  1.9743  1.3579
 6116SOL    HW229808   2.324   3.054   3.219 -1.4092 -0.8099  1.5290
 6117SOL     OW29809   2.984   3.339   7.877 -0.8450 -0.4836 -0.1028
 6117SOL    HW129810   2.920   3.348   7.947 -0.2141 -3.5097  0.8636
 6117SOL    HW229811   3.006   3.432   7.871 -0.2711 -0.4517  2.8064
 6118SOL     OW29812   0.179   3.475   2.426  0.0768 -0.8466  0.1138
 6118SOL    HW129813   0.202   3.552   2.479 -2.7269  0.4154 -0.5050
 6118SOL    HW229814   0.246   3.491   2.360 -0.9312  1.2057 -0.4102
 6119SOL     OW29815   4.111   4.359   8.414  0.3816 -0.1593  0.5092
 6119SOL    HW129816   4.110   4.370   8.509 -0.2506  0.5435  0.4190
 6119SOL    HW229817   4.098   4.264   8.417 -0.1234 -0.1089 -0.0047
 6120SOL     OW29818   2.236   4.474  11.277 -0.1660  0.7375  0.3083
 6120SOL    HW129819   2.149   4.490  11.314  0.2891 -0.3959  1.8570
 6120SOL    HW229820   2.286   4.553  11.300  1.8991 -0.1945 -0.9802
 6121SOL     OW29821   4.714   2.469   2.976  0.7740  0.2425  0.2988
 6121SOL    HW129822   4.631   2.503   2.941 -0.0502 -1.9539  0.1383
 6121SOL    HW229823   4.723   2.392   2.920 -3.3108 -0.1530  0.1645
 6122SOL     OW29824   0.578   1.262  15.045  0.0197 -0.3145  0.2863
 6122SOL    HW129825   0.530   1.340  15.071  1.5126 -0.2718  2.9202
 6122SOL    HW229826   0.552   1.245  14.955 -1.0604 -1.5205  0.8178
 6123SOL     OW29827   4.600   0.908   2.310 -0.7966  0.1688 -0.0687
 6123SOL    HW129828   4.529   0.889   2.249  1.0006 -2.0326 -1.4731
 6123SOL    HW229829   4.549   0.957   2.374 -1.4481  1.1691 -1.3725
 6124SOL     OW29830   1.427   3.141   3.340  0.2867 -0.6409  0.4352
 6124SOL    HW129831   1.482   3.171   3.412  0.3699  0.0821  0.0730
 6124SOL    HW229832   1.478   3.191   3.276 -0.2028  1.8711  2.0028
 6125SOL     OW29833   2.372   2.922   5.010 -0.1258 -0.4109 -0.1118
 6125SOL    HW129834   2.385   2.937   5.103  2.0098  1.2409 -0.6404
 6125SOL    HW229835   2.461   2.936   4.976 -0.0918 -2.3453 -0.8011
 6126SOL     OW29836   0.510   4.118  13.867 -0.6386 -0.5005  0.2578
 6126SOL    HW129837   0.500   4.178  13.793 -0.2812 -0.3582  0.3233
 6126SOL    HW229838   0.605   4.115  13.878 -0.5790 -0.5855 -0.3006
 6127SOL     OW29839   1.348   0.270   7.549  0.2687  0.0830  0.4847
 6127SOL    HW129840   1.417   0.283   7.484 -0.9392 -1.9424 -1.2233
 6127SOL    HW229841   1.271   0.294   7.496  0.7603  2.1709  0.6973
 6128SOL     OW29842   1.147   3.480  16.828 -0.1674 -0.6013  0.2129
 6128SOL    HW129843   1.102   3.414  16.881 -0.9304 -0.2901 -0.0387
 6128SOL    HW229844   1.236   3.464  16.858  0.2587  1.0918 -0.1834
 6129SOL     OW29845   4.133   2.825   6.045 -0.1310  0.1536 -0.3128
 6129SOL    HW129846   4.150   2.905   6.094 -1.8288  0.1171  0.3420
 6129SOL    HW229847   4.135   2.766   6.121 -0.8154  1.0584  0.4023
 6130SOL     OW29848   2.705   2.403   1.188  0.4105 -0.8277 -0.1102
 6130SOL    HW129849   2.613   2.389   1.166  0.7080 -1.5959 -0.9265
 6130SOL    HW229850   2.731   2.314   1.214  2.3960 -0.2285 -0.0147
 6131SOL     OW29851   4.014   3.352   7.176  0.0054  0.4068 -0.2762
 6131SOL    HW129852   3.965   3.272   7.196  0.1816  0.4744  0.4324
 6131SOL    HW229853   4.095   3.332   7.222 -0.1070  1.1939  0.2704
 6132SOL     OW29854   3.393   1.660   2.958 -0.3553 -0.3618  0.3570
 6132SOL    HW129855   3.437   1.587   3.001  1.1177  1.5072  2.0768
 6132SOL    HW229856   3.387   1.629   2.868 -1.0624  0.1244  0.2366
 6133SOL     OW29857   2.737   4.680   2.435 -0.8680  0.9438  0.6655
 6133SOL    HW129858   2.802   4.634   2.383 -1.5409  1.7027 -0.8432
 6133SOL    HW229859   2.679   4.611   2.467  2.2403 -2.6674 -1.5910
 6134SOL     OW29860   0.613   0.609   2.591 -0.0816  0.0503  0.0665
 6134SOL    HW129861   0.590   0.566   2.673  1.1816 -0.1596  0.3018
 6134SOL    HW229862   0.640   0.698   2.614  0.6090 -0.4247  1.0738
 6135SOL     OW29863   0.818   2.160   2.490 -0.4655 -0.3700  0.1217
 6135SOL    HW129864   0.889   2.100   2.466  0.6118  0.5823  0.8904
 6135SOL    HW229865   0.876   2.236   2.500  1.6708 -2.2198  1.6560
 6136SOL     OW29866   0.520   4.008  17.481  0.3572 -0.2259  0.7376
 6136SOL    HW129867   0.603   3.974  17.448  0.4278  0.5305  0.1051
 6136SOL    HW229868   0.524   4.090  17.430  0.1279 -0.7699 -0.1579
 6137SOL     OW29869   1.842   2.004   9.642 -0.4813 -0.2882 -0.1613
 6137SOL    HW129870   1.936   2.005   9.659 -0.4997  0.6608 -0.1028
 6137SOL    HW229871   1.850   2.036   9.551  1.0391 -2.1778 -0.6984
 6138SOL     OW29872   2.920   2.414   9.189  0.1111 -0.2077  0.4750
 6138SOL    HW129873   2.860   2.473   9.235  0.2483 -0.9241  1.5930
 6138SOL    HW229874   2.875   2.393   9.108  0.0091 -0.1083  0.5055
 6139SOL     OW29875   2.624   1.129   7.984  0.2565  0.2800 -0.3819
 6139SOL    HW129876   2.640   1.085   8.067  2.5647 -1.7406 -1.9018
 6139SOL    HW229877   2.709   1.162   7.957  0.3972  0.3681  0.1648
 6140SOL     OW29878   1.252   0.341  10.792 -0.5742  0.8996  0.2074
 6140SOL    HW129879   1.161   0.373  10.787 -0.7919  0.2312 -0.0671
 6140SOL    HW229880   1.250   0.295  10.708  0.5074 -1.1296  1.3116
 6141SOL     OW29881   4.608   1.739   7.318 -0.2115  0.0023 -0.2032
 6141SOL    HW129882   4.701   1.725   7.331  0.0702  2.9465  0.6877
 6141SOL    HW229883   4.614   1.791   7.238  2.9543  0.8770  0.6439
 6142SOL     OW29884   0.973   0.235   2.423 -0.4677 -0.2561  0.2691
 6142SOL    HW129885   0.927   0.203   2.501  1.1231 -0.0249  1.3012
 6142SOL    HW229886   0.931   0.177   2.360  1.5835 -0.0815 -1.2694
 6143SOL     OW29887   1.175   1.686   7.589  0.0088 -0.2866 -0.0072
 6143SOL    HW129888   1.158   1.605   7.639 -1.3103 -0.0116 -0.0070
 6143SOL    HW229889   1.090   1.724   7.570  0.5848  0.3935 -1.1792
 6144SOL     OW29890   2.067   2.360   3.335 -0.7421 -0.0602 -0.2912
 6144SOL    HW129891   2.131   2.289   3.341  1.9450  2.3070 -1.2374
 6144SOL    HW229892   2.130   2.431   3.347 -2.1778  1.3378 -1.0243
 6145SOL     OW29893   0.898   2.768  10.303  0.0417  0.1055 -0.3233
 6145SOL    HW129894   0.900   2.862  10.282  0.9804 -0.6164 -3.4035
 6145SOL    HW229895   0.820   2.740  10.256 -0.5653 -0.0527  0.7704
 6146SOL     OW29896   1.724   1.096   3.731  0.6751 -0.0674 -0.0850
 6146SOL    HW129897   1.801   1.042   3.751  1.0723  0.6638  0.3493
 6146SOL    HW229898   1.678   1.110   3.813 -0.1649 -0.1172 -0.5502
 6147SOL     OW29899   2.038   0.612  10.472  0.3091  0.1449 -0.3848
 6147SOL    HW129900   2.080   0.563  10.543 -2.9287 -1.1234  0.6518
 6147SOL    HW229901   2.073   0.699  10.491  2.5978 -0.6012 -1.1942
 6148SOL     OW29902   0.157   3.467   3.114  0.3477 -0.0239 -0.2527
 6148SOL    HW129903   0.102   3.399   3.154 -0.7173  0.5630 -0.7278
 6148SOL    HW229904   0.106   3.477   3.035 -0.8100 -0.2694  0.4646
 6149SOL     OW29905   1.952   2.960  17.500  0.4375  0.3536 -0.9322
 6149SOL    HW129906   1.995   2.886  17.460 -1.2136 -0.1614 -1.7605
 6149SOL    HW229907   1.919   2.923  17.582  4.5637 -0.8480  0.1527
 6150SOL     OW29908   2.747   4.376   7.416  0.3237  0.0843 -0.2624
 6150SOL    HW129909   2.757   4.419   7.331  0.5220  0.8550  0.1469
 6150SOL    HW229910   2.686   4.304   7.399  1.7741 -0.9927 -0.8669
 6151SOL     OW29911   1.324   3.440   3.032 -0.3183  0.1395 -0.0130
 6151SOL    HW129912   1.381   3.372   3.067  1.0058  0.6610 -1.1624
 6151SOL    HW229913   1.341   3.527   3.067 -1.6146  0.3000  0.2193
 6152SOL     OW29914   2.914   0.200   0.393  0.2110 -0.0034 -0.2372
 6152SOL    HW129915   2.845   0.196   0.460 -0.9634 -0.2885 -1.4450
 6152SOL    HW229916   2.991   0.223   0.445 -0.3847  1.7702 -0.1154
 6153SOL     OW29917   0.936   3.988  14.041 -0.7228  0.0120 -0.2247
 6153SOL    HW129918   0.985   3.919  14.087 -2.1455 -1.1929 -0.5013
 6153SOL    HW229919   0.958   3.980  13.948 -0.8327 -1.2332 -0.1519
 6154SOL     OW29920   2.756   2.783  16.145  0.1600 -0.1308 -0.4470
 6154SOL    HW129921   2.703   2.840  16.200 -0.3084 -0.6812 -0.3294
 6154SOL    HW229922   2.758   2.835  16.065  4.1962  1.8324  0.9490
 6155SOL     OW29923   3.197   2.042   9.207 -0.1351  0.2789 -0.4698
 6155SOL    HW129924   3.146   1.980   9.259 -0.4277  0.9161  0.0044
 6155SOL    HW229925   3.180   2.123   9.254  0.0180 -0.0459  0.1451
 6156SOL     OW29926   3.127   1.318  11.788  0.1489  0.3196  0.2858
 6156SOL    HW129927   3.163   1.233  11.812 -0.8117 -0.4440 -0.9519
 6156SOL    HW229928   3.207   1.370  11.784 -0.2000  0.6970 -2.1525
 6157SOL     OW29929   3.449   3.607   6.535 -0.0500 -0.5160  0.3391
 6157SOL    HW129930   3.368   3.559   6.557 -0.5905  0.6479  0.8995
 6157SOL    HW229931   3.459   3.660   6.614  2.7819 -1.7203  0.7739
 6158SOL     OW29932   2.563   1.965   1.392 -0.0647 -0.3155  0.3637
 6158SOL    HW129933   2.484   1.910   1.397 -0.3442  0.0491 -0.0359
 6158SOL    HW229934   2.619   1.896   1.356 -1.7382 -0.8903 -1.1420
 6159SOL     OW29935   3.681   2.917   4.531  0.4079  0.0557 -0.1130
 6159SOL    HW129936   3.645   2.895   4.445 -0.9347 -0.4456  0.5698
 6159SOL    HW229937   3.619   2.988   4.549  0.3214 -0.1486  0.3762
 6160SOL     OW29938   0.126   3.829   5.169 -0.0982 -0.4374 -0.0603
 6160SOL    HW129939   0.128   3.781   5.251 -5.3998  1.8781  1.4154
 6160SOL    HW229940   0.182   3.906   5.181  0.4045 -0.6820 -0.8405
 6161SOL     OW29941   4.614   4.448   2.149 -0.0343  0.7600 -0.3852
 6161SOL    HW129942   4.524   4.418   2.147  0.6523 -1.5428  3.4394
 6161SOL    HW229943   4.605   4.527   2.096  0.0812  0.9449 -0.1308
 6162SOL     OW29944   1.659   4.111  17.168 -0.0713  0.4759  0.3605
 6162SOL    HW129945   1.573   4.136  17.202 -1.6187 -0.9577 -2.4720
 6162SOL    HW229946   1.704   4.195  17.173  2.3303 -0.8083  0.2296
 6163SOL     OW29947   4.014   1.851   5.479  0.2635  0.0309 -0.1050
 6163SOL    HW129948   4.048   1.795   5.549 -0.8120 -1.7267 -0.9730
 6163SOL    HW229949   3.964   1.788   5.427  0.4213  0.6266 -0.9773
 6164SOL     OW29950   1.342   1.660   9.285 -0.3852 -0.3299  0.1457
 6164SOL    HW129951   1.370   1.648   9.376 -1.8087  1.9888  0.8987
 6164SOL    HW229952   1.250   1.633   9.290 -0.5434 -0.1195 -1.6107
 6165SOL     OW29953   4.585   4.595   3.862 -0.1402 -0.0016  0.4570
 6165SOL    HW129954   4.607   4.662   3.927 -1.2361  0.8467 -0.0546
 6165SOL    HW229955   4.594   4.526   3.928  1.9514  0.7869  1.0083
 6166SOL     OW29956   0.711   1.549   8.062  0.1008  0.3187  0.4446
 6166SOL    HW129957   0.802   1.580   8.056  0.0326  0.1257 -1.7297
 6166SOL    HW229958   0.690   1.585   8.148  1.3359 -3.3296  2.2869
 6167SOL     OW29959   4.409   4.380   7.433  0.5067 -0.2098 -0.4547
 6167SOL    HW129960   4.504   4.384   7.441  0.1122  0.5528  3.9229
 6167SOL    HW229961   4.383   4.378   7.525 -1.1337  1.0819 -0.8670
 6168SOL     OW29962   4.230   3.938   0.182 -0.1120 -0.4039 -0.0870
 6168SOL    HW129963   4.162   3.998   0.213  1.9750  0.9471  1.8547
 6168SOL    HW229964   4.280   3.993   0.122 -0.9871  1.3224  0.7795
 6169SOL     OW29965   3.968   1.437  13.072 -0.2652  0.0829 -0.2659
 6169SOL    HW129966   3.973   1.426  12.977 -3.2995 -0.5639 -0.3582
 6169SOL    HW229967   3.886   1.398  13.103 -0.2815  0.0923 -0.2964
 6170SOL     OW29968   2.606   3.299   6.625 -0.0181 -0.2283  0.0804
 6170SOL    HW129969   2.622   3.390   6.598 -0.1995 -0.9537 -2.5482
 6170SOL    HW229970   2.548   3.280   6.550  1.4664 -1.9175 -0.6272
 6171SOL     OW29971   3.630   4.431   7.293  0.0176  0.5312  0.1202
 6171SOL    HW129972   3.704   4.422   7.354  1.4034  0.6379 -1.5481
 6171SOL    HW229973   3.567   4.453   7.362  0.7180  2.4566  0.1594
 6172SOL     OW29974   1.153   2.212  14.097 -0.0156 -0.0496 -0.0866
 6172SOL    HW129975   1.214   2.218  14.170 -0.1259  2.5038 -0.2192
 6172SOL    HW229976   1.193   2.150  14.036  1.3114 -0.1839  0.9207
 6173SOL     OW29977   3.547   0.158   8.673  0.4116  0.0433  0.4547
 6173SOL    HW129978   3.607   0.094   8.634  0.6542  0.4265  0.2004
 6173SOL    HW229979   3.587   0.242   8.651  0.1917  0.1749  0.5627
 6174SOL     OW29980   2.430   3.744   3.039  0.9282  0.4971  1.0013
 6174SOL    HW129981   2.376   3.783   3.108 -0.9862  0.0251 -0.2225
 6174SOL    HW229982   2.407   3.782   2.954  0.6525 -0.7420  0.5149
 6175SOL     OW29983   4.325   3.770   6.661 -0.6002 -0.2291  0.1366
 6175SOL    HW129984   4.281   3.823   6.595  0.8425  0.3725 -0.3410
 6175SOL    HW229985   4.342   3.687   6.617  0.7392  0.3039 -0.3560
 6176SOL     OW29986   0.021   2.970  14.667  0.0889 -0.4569 -0.5528
 6176SOL    HW129987   0.016   3.019  14.749  0.9080 -2.2387  0.5482
 6176SOL    HW229988   0.038   3.044  14.608  0.6435 -1.5958 -1.8336
 6177SOL     OW29989   2.092   3.036   6.474  0.1893 -0.2739 -0.1113
 6177SOL    HW129990   2.179   2.997   6.484 -0.0887 -0.0048  3.5194
 6177SOL    HW229991   2.040   2.956   6.467 -0.1140 -0.1931  1.1295
 6178SOL     OW29992   1.776   1.205   2.872  0.5155  0.1435  0.1742
 6178SOL    HW129993   1.811   1.214   2.783  0.8925 -1.0998  0.1979
 6178SOL    HW229994   1.800   1.116   2.898 -3.6848 -0.5201  1.6868
 6179SOL     OW29995   2.276   4.490   8.126 -0.4472  0.2408  0.6561
 6179SOL    HW129996   2.201   4.443   8.161  1.8595 -3.0558  1.1595
 6179SOL    HW229997   2.349   4.435   8.156  1.9636  2.0750 -1.8122
 6180SOL     OW29998   0.653   0.948   3.556  0.1486 -0.0286 -0.5553
 6180SOL    HW129999   0.685   0.884   3.493 -1.3704 -1.2672 -0.0674
 6180SOL    HW230000   0.664   1.035   3.519  2.1944 -0.3009 -0.5584
 6181SOL     OW30001   1.319   4.213   5.758  0.5520  0.1477  0.1585
 6181SOL    HW130002   1.291   4.130   5.797  0.1828  0.3344  0.2992
 6181SOL    HW230003   1.269   4.218   5.676  0.7954 -2.2057 -0.1472
 6182SOL     OW30004   3.377   3.885   7.798 -0.4895  0.4695  0.5543
 6182SOL    HW130005   3.396   3.966   7.751  0.5478  0.2349  0.5634
 6182SOL    HW230006   3.332   3.835   7.729  0.9311 -2.1243  1.5062
 6183SOL     OW30007   2.084   3.510  12.805  0.1458  0.2723  0.8432
 6183SOL    HW130008   2.048   3.424  12.784 -1.0780  0.5499  1.7732
 6183SOL    HW230009   2.161   3.481  12.854  0.6218 -1.2404 -0.8327
 6184SOL     OW30010   3.409   2.294   0.478 -0.9693  0.1764 -0.4615
 6184SOL    HW130011   3.416   2.382   0.443 -1.4645  0.0835 -0.7945
 6184SOL    HW230012   3.448   2.301   0.565  1.7455 -1.3327 -1.5585
 6185SOL     OW30013   2.683   3.413   3.376 -0.1434 -0.1083 -0.3651
 6185SOL    HW130014   2.739   3.350   3.331 -0.3373 -0.5039 -0.0486
 6185SOL    HW230015   2.633   3.431   3.297 -0.6529  1.6153  0.3384
 6186SOL     OW30016   4.377   1.653  12.969 -0.2024 -0.2740 -0.5690
 6186SOL    HW130017   4.396   1.576  12.916 -2.1267 -1.7041  0.7684
 6186SOL    HW230018   4.350   1.607  13.049  0.5130  1.7779  0.8267
 6187SOL     OW30019   2.438   1.448  13.811 -0.9127  0.1903 -0.2636
 6187SOL    HW130020   2.365   1.448  13.749 -2.0190 -2.8661  1.0258
 6187SOL    HW230021   2.404   1.379  13.868  1.2035 -1.7154 -1.3200
 6188SOL     OW30022   0.170   0.623  12.042 -0.6354  0.5764  0.3491
 6188SOL    HW130023   0.157   0.554  12.107  0.6883  0.0505  0.0535
 6188SOL    HW230024   0.255   0.607  12.002 -1.0746 -0.9932  0.0155
 6189SOL     OW30025   1.306   3.190   8.353 -0.0728  0.0679 -0.1758
 6189SOL    HW130026   1.322   3.131   8.279  0.0059 -0.5935  0.3700
 6189SOL    HW230027   1.371   3.173   8.422 -0.1808  0.7919  0.1023
 6190SOL     OW30028   1.536   1.028   5.399 -0.4750  0.5982 -0.0291
 6190SOL    HW130029   1.615   1.042   5.346  0.1711  0.7069  0.9711
 6190SOL    HW230030   1.555   1.092   5.467 -0.8970 -2.3306  2.8606
 6191SOL     OW30031   2.010   0.700  12.429 -0.5138  0.3135 -0.2414
 6191SOL    HW130032   1.915   0.703  12.416 -0.2616 -0.0982 -2.3260
 6191SOL    HW230033   2.018   0.750  12.510  1.2975 -0.0945 -0.1670
 6192SOL     OW30034   4.424   1.764   5.570 -0.0019  0.5393 -0.1642
 6192SOL    HW130035   4.458   1.760   5.660  0.4597 -1.2249 -0.4153
 6192SOL    HW230036   4.429   1.858   5.552  0.6335  0.6100  0.3445
 6193SOL     OW30037   1.849   3.991   6.075  0.2037 -0.1088 -0.3936
 6193SOL    HW130038   1.898   3.910   6.091  1.9424  0.8716 -0.7620
 6193SOL    HW230039   1.780   3.969   6.138  0.3428 -1.7411 -0.8099
 6194SOL     OW30040   2.231   3.386  16.356  0.0661  0.4706  0.2650
 6194SOL    HW130041   2.253   3.372  16.264 -0.8413  1.1034 -0.0432
 6194SOL    HW230042   2.255   3.476  16.378 -0.8990  0.3127  1.9503
 6195SOL     OW30043   1.238   2.191   7.113 -0.1874  0.5842  0.6166
 6195SOL    HW130044   1.149   2.167   7.086 -0.2648  2.9042 -1.2188
 6195SOL    HW230045   1.285   2.110   7.134 -2.0458 -1.3193 -2.5018
 6196SOL     OW30046   4.487   0.207   9.874 -0.1075 -0.2578  0.2423
 6196SOL    HW130047   4.521   0.119   9.887 -1.9203 -0.9928  0.1167
 6196SOL    HW230048   4.508   0.217   9.781 -0.5331 -2.2792 -0.0779
 6197SOL     OW30049   4.526   1.833   3.585  0.0832  0.1558 -0.5080
 6197SOL    HW130050   4.442   1.851   3.543 -0.0113 -0.3723 -0.5517
 6197SOL    HW230051   4.585   1.881   3.528  0.0274  1.3341  0.4313
 6198SOL     OW30052   2.799   1.067   6.760 -0.3015  0.1307 -0.3391
 6198SOL    HW130053   2.887   1.055   6.725 -0.5049 -1.7506 -0.2099
 6198SOL    HW230054   2.763   1.137   6.706 -0.4448 -1.6237 -2.5594
 6199SOL     OW30055   1.348   4.463   5.127 -0.6336  1.0258 -0.2612
 6199SOL    HW130056   1.386   4.550   5.114 -0.9526  0.9844 -1.5544
 6199SOL    HW230057   1.432   4.419   5.139 -0.1595  1.6340 -1.3323
 6200SOL     OW30058   1.364   2.811  14.843  0.1480 -0.7848 -0.3108
 6200SOL    HW130059   1.379   2.796  14.936  0.8084  0.4591 -0.2265
 6200SOL    HW230060   1.433   2.877  14.835 -0.2042 -0.3701  0.0802
 6201SOL     OW30061   0.589   3.671  12.362 -0.6264 -0.4475 -0.1540
 6201SOL    HW130062   0.662   3.730  12.381 -0.3736  0.0341 -2.5595
 6201SOL    HW230063   0.535   3.734  12.313  0.2745  0.7839  0.4360
 6202SOL     OW30064   3.137   0.972   5.313 -0.1607  0.0430 -0.1345
 6202SOL    HW130065   3.082   1.015   5.379  0.8255  0.3251  0.5134
 6202SOL    HW230066   3.063   0.942   5.260 -1.9515  0.7494  1.9852
 6203SOL     OW30067   4.422   0.010   4.974  0.1951  0.3904 -0.3372
 6203SOL    HW130068   4.329   0.029   4.984 -0.1870 -1.8908  0.5793
 6203SOL    HW230069   4.457   0.088   4.933  0.5185 -1.3675 -3.3940
 6204SOL     OW30070   3.354   1.173   7.076  0.2218 -0.6139 -0.1756
 6204SOL    HW130071   3.416   1.229   7.030 -1.1600 -0.0011 -1.2852
 6204SOL    HW230072   3.404   1.145   7.153  1.1948 -1.2706 -1.0512
 6205SOL     OW30073   0.307   1.468   4.046 -0.0819 -0.3489 -0.0620
 6205SOL    HW130074   0.235   1.412   4.019 -1.2539  0.7833  0.7292
 6205SOL    HW230075   0.386   1.431   4.007 -0.9122 -0.5704 -1.5151
 6206SOL     OW30076   3.227   3.805   8.012  0.3105 -0.0294 -0.4288
 6206SOL    HW130077   3.268   3.872   7.957  0.1998  0.6752  0.3474
 6206SOL    HW230078   3.283   3.730   7.992  0.9921  0.1813  0.6702
 6207SOL     OW30079   2.111   0.695   4.106  0.6125 -0.1999  0.4475
 6207SOL    HW130080   2.030   0.713   4.155 -0.1306  2.4969 -1.7914
 6207SOL    HW230081   2.074   0.672   4.021 -0.7938  0.0485  0.9788
 6208SOL     OW30082   1.665   1.040   7.019  0.1504 -0.1467  0.4295
 6208SOL    HW130083   1.758   1.044   6.997 -0.1664  1.7829 -0.5565
 6208SOL    HW230084   1.654   1.088   7.101  2.5545  1.2604 -0.0870
 6209SOL     OW30085   2.515   1.604   2.824 -0.0090 -0.4994 -0.0708
 6209SOL    HW130086   2.482   1.691   2.848  2.2841  0.7876 -1.4827
 6209SOL    HW230087   2.433   1.558   2.805  0.0113 -0.5456 -0.0443
 6210SOL     OW30088   1.270   3.933  17.064 -0.8714 -0.0503  0.3191
 6210SOL    HW130089   1.348   3.897  17.022 -2.4738 -0.8249 -1.9748
 6210SOL    HW230090   1.200   3.904  17.005 -2.2455  2.0086  0.9329
 6211SOL     OW30091   3.990   2.314  15.849 -0.3720  0.0829  0.0840
 6211SOL    HW130092   3.926   2.279  15.910  0.8172 -2.5615 -0.2105
 6211SOL    HW230093   3.937   2.345  15.775  0.3195  0.4782 -0.2536
 6212SOL     OW30094   2.112   4.588   3.147  0.3970 -0.2914 -0.0559
 6212SOL    HW130095   2.072   4.626   3.225 -1.6919  0.9012 -1.7070
 6212SOL    HW230096   2.139   4.668   3.101 -2.5960  0.0058 -1.3400
 6213SOL     OW30097   3.276   1.369  16.654  0.0757  0.3844 -0.4969
 6213SOL    HW130098   3.275   1.276  16.631  0.0429  0.4224 -0.6480
 6213SOL    HW230099   3.221   1.371  16.733  1.2768  0.9298  0.3380
 6214SOL     OW30100   2.099   4.016  14.774  0.0557 -0.6654 -0.3806
 6214SOL    HW130101   2.020   3.970  14.746 -0.0156 -0.9649  0.2976
 6214SOL    HW230102   2.103   4.020  14.870  0.8921 -0.2902 -0.4317
 6215SOL     OW30103   2.094   1.493   4.679  0.1588  0.7099 -0.0877
 6215SOL    HW130104   2.032   1.432   4.719  0.5216 -0.0039 -0.6253
 6215SOL    HW230105   2.137   1.431   4.621  0.5579  1.2495 -0.3699
 6216SOL     OW30106   4.709   1.055   5.380  0.2248 -0.1635  0.5213
 6216SOL    HW130107   0.057   1.105   5.341 -0.1200  1.0736  1.4779
 6216SOL    HW230108   4.677   1.127   5.435  0.6594 -0.7742  1.5531
 6217SOL     OW30109   2.258   3.222   6.011 -0.2552 -0.3266  0.7064
 6217SOL    HW130110   2.255   3.278   6.089 -0.1763  1.0927 -0.3201
 6217SOL    HW230111   2.202   3.271   5.951 -0.7186 -2.8207 -0.9189
 6218SOL     OW30112   1.208   4.651  17.036 -0.0764 -0.0194 -0.2900
 6218SOL    HW130113   1.226   4.662  16.943  0.0767  0.1823 -0.2369
 6218SOL    HW230114   1.119   4.615  17.042  0.5981 -1.2298  2.4572
 6219SOL     OW30115   2.544   2.640   8.474 -0.5956  0.1105 -0.3149
 6219SOL    HW130116   2.545   2.666   8.566  0.7323 -1.0301  0.0048
 6219SOL    HW230117   2.628   2.593   8.474  0.6907  2.4160  1.6567
 6220SOL     OW30118   2.653   0.623   4.361 -0.1358 -0.1389 -0.2346
 6220SOL    HW130119   2.636   0.572   4.441  1.2796  0.1133  0.2258
 6220SOL    HW230120   2.743   0.652   4.374  0.2745 -1.9608  0.9337
 6221SOL     OW30121   1.162   0.985  11.434  0.1216 -0.2506 -0.1312
 6221SOL    HW130122   1.169   1.073  11.398 -1.1878 -0.1798 -0.1837
 6221SOL    HW230123   1.187   0.995  11.526  0.7657  1.6932 -0.5168
 6222SOL     OW30124   1.655   0.614  16.256 -0.0369 -0.1614  0.3330
 6222SOL    HW130125   1.686   0.703  16.275  0.0010  0.1124 -0.9917
 6222SOL    HW230126   1.570   0.631  16.215 -0.8059  2.2986  2.8896
 6223SOL     OW30127   2.753   2.878   0.331  0.3173  1.0837 -0.0066
 6223SOL    HW130128   2.761   2.806   0.394 -1.6671  1.6149  0.8555
 6223SOL    HW230129   2.840   2.866   0.292  0.6819  0.6905  0.9216
 6224SOL     OW30130   0.988   1.660   6.017 -0.5841  0.1836 -0.1700
 6224SOL    HW130131   0.983   1.613   5.934 -3.1430 -2.2844  1.3889
 6224SOL    HW230132   1.054   1.723   5.988  1.2872 -1.4164  0.6195
 6225SOL     OW30133   0.611   1.180   2.823 -0.4432 -0.2327 -0.4932
 6225SOL    HW130134   0.543   1.119   2.795 -1.5160  0.5017  0.5103
 6225SOL    HW230135   0.569   1.263   2.800  1.7393  1.3605  1.2455
 6226SOL     OW30136   0.029   1.024   5.050  0.2974 -0.1828 -0.1346
 6226SOL    HW130137   0.039   1.106   5.099 -1.8689  0.3978 -0.6652
 6226SOL    HW230138   0.121   0.996   5.053  0.4118  0.1379 -0.6021
 6227SOL     OW30139   0.163   1.206   5.206 -0.2826  0.0043  0.7688
 6227SOL    HW130140   0.249   1.202   5.165 -0.1958 -2.2507  1.1935
 6227SOL    HW230141   0.139   1.298   5.195  0.4371  0.1795  0.6662
 6228SOL     OW30142   2.014   3.575  16.528 -0.2053 -0.2225  0.3762
 6228SOL    HW130143   2.107   3.579  16.507 -0.3442 -0.5251 -0.2893
 6228SOL    HW230144   1.971   3.583  16.443  0.3876 -0.2872  0.0700
 6229SOL     OW30145   4.655   4.426   3.155 -0.1630  0.1834  0.5776
 6229SOL    HW130146   4.633   4.453   3.244 -0.4616 -0.4482  0.6905
 6229SOL    HW230147   4.698   4.342   3.166  0.7330  0.4974 -0.5097
 6230SOL     OW30148   4.066   4.094   8.459  0.1388 -0.2522 -0.1297
 6230SOL    HW130149   4.013   4.078   8.380  0.4267 -0.3911 -0.2952
 6230SOL    HW230150   4.155   4.072   8.432 -0.6286 -2.3968 -0.9156
 6231SOL     OW30151   2.755   1.005   5.865 -0.1820  0.4731  0.0845
 6231SOL    HW130152   2.847   1.027   5.846  0.2733  0.1384  1.8368
 6231SOL    HW230153   2.770   0.961   5.949 -1.4576 -2.1906 -1.0911
 6232SOL     OW30154   4.615   2.834  13.491  0.0485 -0.1870 -0.1851
 6232SOL    HW130155   4.697   2.813  13.536  0.3803  2.6989  0.5817
 6232SOL    HW230156   4.635   2.828  13.398  0.5842 -0.3139 -0.0625
 6233SOL     OW30157   0.552   3.929  14.349  0.1962 -0.1676 -0.0540
 6233SOL    HW130158   0.511   4.015  14.357 -1.1875 -0.5535 -2.8321
 6233SOL    HW230159   0.582   3.926  14.258 -1.4010  0.7633 -0.6032
 6234SOL     OW30160   2.781   2.221   6.665 -0.0164  0.2182  0.0214
 6234SOL    HW130161   2.686   2.210   6.673  0.5957 -3.3505  2.4265
 6234SOL    HW230162   2.801   2.260   6.580 -1.1991  0.5007 -0.1276
 6235SOL     OW30163   0.563   4.462   6.160 -0.4155 -0.7362 -0.7829
 6235SOL    HW130164   0.641   4.466   6.105  0.8854 -0.9184  1.0340
 6235SOL    HW230165   0.599   4.471   6.249  0.7502 -3.2700 -0.9888
 6236SOL     OW30166   2.511   0.696   9.166 -0.1411 -0.0299 -0.5165
 6236SOL    HW130167   2.477   0.707   9.077 -0.3810 -2.5061 -0.7442
 6236SOL    HW230168   2.443   0.655   9.220  0.4026 -2.6585 -1.8088
 6237SOL     OW30169   2.013   0.082  12.418  0.3558 -0.3629  0.7473
 6237SOL    HW130170   1.954   0.151  12.448  0.4719 -0.5591  1.4362
 6237SOL    HW230171   1.964   0.000  12.408 -0.8273  0.3759  0.5704
 6238SOL     OW30172   2.285   0.213  11.255 -0.5297 -0.8683  0.0950
 6238SOL    HW130173   2.370   0.235  11.216 -1.2963 -0.1366 -1.1640
 6238SOL    HW230174   2.253   0.303  11.252  0.8534 -0.3850 -0.3045
 6239SOL     OW30175   3.795   1.564   6.753 -0.4281  0.6775  0.7687
 6239SOL    HW130176   3.820   1.546   6.663 -1.4236  1.4963  0.3333
 6239SOL    HW230177   3.761   1.485   6.796 -3.7304 -0.2187 -3.5411
 6240SOL     OW30178   1.182   0.981   8.018  0.3823 -0.5376 -0.1443
 6240SOL    HW130179   1.236   0.994   8.096  0.8162 -2.5929 -0.0925
 6240SOL    HW230180   1.237   0.913   7.978 -1.1416 -2.2791  0.6998
 6241SOL     OW30181   1.555   0.695   3.656  0.0990 -0.6117  0.1396
 6241SOL    HW130182   1.620   0.683   3.587 -0.4898  0.0083 -0.5215
 6241SOL    HW230183   1.478   0.665   3.608  0.9713 -3.7072  0.6690
 6242SOL     OW30184   1.209   0.957  11.951  0.4259 -0.3452  0.5196
 6242SOL    HW130185   1.226   1.045  11.985 -1.2032  0.0438  0.2921
 6242SOL    HW230186   1.287   0.905  11.972  0.5334  0.1556  1.3539
 6243SOL     OW30187   0.306   2.152   3.781  0.1925  0.2496 -0.3101
 6243SOL    HW130188   0.317   2.057   3.791  1.1968  0.6672  2.6850
 6243SOL    HW230189   0.336   2.169   3.692  0.1284  2.4423  0.0818
 6244SOL     OW30190   1.118   3.486   6.096 -0.3258  0.3341  0.3300
 6244SOL    HW130191   1.174   3.445   6.030  0.2406 -0.5030  1.3346
 6244SOL    HW230192   1.043   3.429   6.085 -2.6282  3.6644 -1.1633
 6245SOL     OW30193   2.598   0.087   2.797 -0.2546  0.1196  0.4139
 6245SOL    HW130194   2.540   0.043   2.733  0.7817  1.3588 -1.3763
 6245SOL    HW230195   2.612   0.022   2.865  0.5291  3.2335  3.2255
 6246SOL     OW30196   3.334   3.283  10.247 -0.4714 -0.2529 -0.2544
 6246SOL    HW130197   3.269   3.350  10.270 -0.6295 -0.5294  0.0957
 6246SOL    HW230198   3.290   3.202  10.272  1.3720 -1.1310  0.0818
 6247SOL     OW30199   4.127   2.166   3.798  0.2047 -0.2084 -0.4360
 6247SOL    HW130200   4.070   2.232   3.837  0.9067 -0.7347  1.4893
 6247SOL    HW230201   4.210   2.213   3.802  0.5909 -0.9942  1.1061
 6248SOL     OW30202   1.886   0.775   8.821  0.6607  0.6893  0.2118
 6248SOL    HW130203   1.839   0.858   8.814  0.5800  0.5184 -1.2528
 6248SOL    HW230204   1.832   0.736   8.890 -4.3746  1.7529 -3.1163
 6249SOL     OW30205   3.643   1.094   6.445  0.3803 -0.3143 -0.0584
 6249SOL    HW130206   3.583   1.024   6.470 -0.2557 -0.5781 -2.3242
 6249SOL    HW230207   3.720   1.082   6.501 -0.8567 -0.3810  1.6278
 6250SOL     OW30208   1.706   2.364   5.755  0.2310 -0.1312 -0.3638
 6250SOL    HW130209   1.653   2.391   5.830 -0.9553 -1.1559 -0.8322
 6250SOL    HW230210   1.714   2.269   5.761 -0.0769 -0.1091  0.3958
 6251SOL     OW30211   3.998   1.396   6.098  0.3618  0.0688 -0.4591
 6251SOL    HW130212   4.014   1.372   6.189 -0.2807  0.1186 -0.3315
 6251SOL    HW230213   3.912   1.354   6.095  0.6309 -0.6680  2.1678
 6252SOL     OW30214   3.055   1.278   5.381  0.3312  0.2474 -0.8284
 6252SOL    HW130215   3.043   1.238   5.467  1.4198 -1.5132 -1.5080
 6252SOL    HW230216   3.111   1.356   5.390  0.0249  0.4768 -0.9073
 6253SOL     OW30217   3.002   2.538   2.551  0.6378  0.1613 -0.7275
 6253SOL    HW130218   3.077   2.483   2.576 -0.4920 -0.6883  0.7267
 6253SOL    HW230219   3.002   2.517   2.457  0.1357 -0.7648 -0.5120
 6254SOL     OW30220   0.248   2.512   3.425  0.5354  0.3528  0.7391
 6254SOL    HW130221   0.217   2.422   3.436 -0.4763  0.6224  0.0709
 6254SOL    HW230222   0.224   2.538   3.336 -2.9912 -1.8876  1.0369
 6255SOL     OW30223   3.206   2.953   0.725 -0.0213 -0.3080 -0.0262
 6255SOL    HW130224   3.236   2.878   0.776  2.9001 -0.3532 -1.7785
 6255SOL    HW230225   3.144   3.000   0.781 -1.1059 -1.2617 -0.4162
 6256SOL     OW30226   3.618   1.332   8.686 -0.0876  0.0828  0.1759
 6256SOL    HW130227   3.654   1.418   8.664 -0.9783  0.4293  0.0532
 6256SOL    HW230228   3.584   1.355   8.772  0.6447 -0.2982  0.5626
 6257SOL     OW30229   0.429   1.857  12.692  0.4226  0.2153 -0.0161
 6257SOL    HW130230   0.477   1.940  12.690  0.5823  0.0978 -0.9552
 6257SOL    HW230231   0.356   1.879  12.635  0.8877  0.5940 -0.4665
 6258SOL     OW30232   2.478   1.448  10.580  0.3645 -0.4406 -0.2269
 6258SOL    HW130233   2.559   1.497  10.591 -0.2347  0.0412  2.0872
 6258SOL    HW230234   2.493   1.413  10.492 -2.6978  1.8346 -1.6553
 6259SOL     OW30235   3.997   1.917   8.332 -0.0105 -0.0686 -0.0682
 6259SOL    HW130236   3.992   2.003   8.373 -0.2880  0.0377 -0.3256
 6259SOL    HW230237   4.063   1.878   8.389  0.1209 -1.3053 -1.0619
 6260SOL     OW30238   4.337   2.983   9.717  0.0919 -0.0484  0.4632
 6260SOL    HW130239   4.346   2.918   9.787 -1.6289  0.7405  1.4225
 6260SOL    HW230240   4.346   3.066   9.764  0.5812  0.4374 -0.4736
 6261SOL     OW30241   1.688   2.939   4.859  0.6570 -0.3196 -0.3374
 6261SOL    HW130242   1.723   3.011   4.806 -0.0041  0.5002  0.3371
 6261SOL    HW230243   1.734   2.967   4.939 -0.6446 -1.4032  0.7894
 6262SOL     OW30244   3.998   3.449   4.945  0.4806  0.0236 -0.3172
 6262SOL    HW130245   4.024   3.358   4.930 -2.1270 -1.0568  1.8970
 6262SOL    HW230246   3.932   3.458   4.877  1.2598 -0.0364 -1.0925
 6263SOL     OW30247   2.979   4.627  12.664 -0.3248  0.6672 -0.0936
 6263SOL    HW130248   2.992   4.713  12.704 -0.8089  1.3992 -1.4881
 6263SOL    HW230249   2.928   4.650  12.585  1.6494  0.3021 -1.4673
 6264SOL     OW30250   1.103   0.188   8.085  0.5487 -0.5021 -0.2276
 6264SOL    HW130251   1.094   0.272   8.131 -0.8399 -0.8615  0.1580
 6264SOL    HW230252   1.071   0.222   8.001 -0.4285 -2.3965 -0.6214
 6265SOL     OW30253   1.434   1.853  13.668 -0.7759 -0.2683  0.3241
 6265SOL    HW130254   1.502   1.876  13.605 -0.8012  0.2750  0.4876
 6265SOL    HW230255   1.370   1.812  13.610 -0.8937  1.8295 -1.0323
 6266SOL     OW30256   0.135   1.103   7.160  0.1720 -0.1552  0.2401
 6266SOL    HW130257   0.147   1.175   7.222 -1.1295 -1.5333  2.0757
 6266SOL    HW230258   0.082   1.143   7.091 -1.0265 -0.2435  1.1031
 6267SOL     OW30259   2.967   0.195   7.468 -0.2037  0.1237 -0.2739
 6267SOL    HW130260   2.929   0.180   7.555  0.9603 -1.1241  0.0208
 6267SOL    HW230261   2.889   0.184   7.414 -0.1219 -0.0702 -0.3527
 6268SOL     OW30262   2.255   3.408   6.219 -0.5745 -0.1617 -0.5203
 6268SOL    HW130263   2.193   3.477   6.240  0.1808  0.3686 -0.0052
 6268SOL    HW230264   2.339   3.452   6.233 -0.3896 -0.8256  0.4404
 6269SOL     OW30265   0.785   1.490   6.333 -0.2376  0.1993  0.5284
 6269SOL    HW130266   0.835   1.477   6.414  0.5355  0.3154  0.0718
 6269SOL    HW230267   0.804   1.582   6.314 -1.9649  0.3856 -0.2714
 6270SOL     OW30268   2.598   4.599  11.173 -0.0958 -0.3261  0.1271
 6270SOL    HW130269   2.508   4.620  11.196  0.6538  0.9433  1.8998
 6270SOL    HW230270   2.608   4.509  11.206  0.0987 -0.5519 -0.5405
 6271SOL     OW30271   3.225   2.567   8.529  0.5612  0.0261  0.4133
 6271SOL    HW130272   3.284   2.630   8.488  1.8621  0.3602  2.7788
 6271SOL    HW230273   3.190   2.514   8.457  2.1563  1.4074 -1.3775
 6272SOL     OW30274   1.897   0.590   3.243 -0.0263 -0.2271 -0.1274
 6272SOL    HW130275   1.948   0.555   3.169  0.3328  0.0809 -0.0275
 6272SOL    HW230276   1.916   0.683   3.227  1.1700 -0.6550 -1.2788
 6273SOL     OW30277   3.778   1.884   7.069  0.3161  0.7989  0.6749
 6273SOL    HW130278   3.858   1.884   7.122  1.9831  0.5688 -1.8506
 6273SOL    HW230279   3.811   1.880   6.979 -1.1497 -1.1107  0.2187
 6274SOL     OW30280   4.317   2.437   3.991  0.1212  0.1563  0.8987
 6274SOL    HW130281   4.271   2.520   3.980 -0.3177 -0.2451 -0.2993
 6274SOL    HW230282   4.404   2.466   4.016  0.4564  1.3929 -1.7629
 6275SOL     OW30283   1.428   3.135   7.593 -0.1588 -0.2481 -0.5314
 6275SOL    HW130284   1.412   3.138   7.499 -1.9154  2.8319 -0.1187
 6275SOL    HW230285   1.341   3.125   7.630  0.8708 -2.0002  1.4425
 6276SOL     OW30286   3.427   4.303   6.206  0.5891  0.4804  0.1130
 6276SOL    HW130287   3.462   4.314   6.294  1.0981 -0.7158  0.0492
 6276SOL    HW230288   3.503   4.331   6.155  0.4091 -1.1979 -1.0843
 6277SOL     OW30289   0.836   3.695   7.988 -0.1385 -0.3887  0.3648
 6277SOL    HW130290   0.879   3.776   7.959  0.1095 -0.8605 -0.5819
 6277SOL    HW230291   0.906   3.637   7.959  0.3607  1.0989 -1.4096
 6278SOL     OW30292   0.369   0.173   1.382  0.8270 -0.1350 -0.0914
 6278SOL    HW130293   0.319   0.182   1.463  0.4931 -1.2336 -0.1708
 6278SOL    HW230294   0.462   0.188   1.395  0.7680 -2.0032  2.6595
 6279SOL     OW30295   0.991   4.043   0.466  0.0528  0.1094 -0.1562
 6279SOL    HW130296   1.054   4.003   0.406  0.6855  2.1287 -0.8483
 6279SOL    HW230297   0.918   4.056   0.405 -0.6977  0.1228  0.7379
 6280SOL     OW30298   0.534   2.503   3.789 -0.3303  0.4949  0.0123
 6280SOL    HW130299   0.464   2.554   3.749 -1.1929  0.3030  1.2830
 6280SOL    HW230300   0.569   2.463   3.710  1.5538 -0.6927  1.4431
 6281SOL     OW30301   3.078   0.432   5.359  0.5885 -0.1449  0.1460
 6281SOL    HW130302   3.105   0.523   5.370 -1.7068  0.4489  0.7762
 6281SOL    HW230303   2.992   0.436   5.317  1.1062  0.6968 -0.8447
 6282SOL     OW30304   2.428   0.771  10.933 -0.3185 -0.4330 -0.3259
 6282SOL    HW130305   2.479   0.826  10.993 -1.4691 -1.6703  1.7885
 6282SOL    HW230306   2.409   0.838  10.868 -2.5200 -1.4955 -0.7778
 6283SOL     OW30307   3.657   1.347  11.953  0.1162 -0.2438  0.1781
 6283SOL    HW130308   3.646   1.441  11.933 -0.6591 -0.3076  0.3133
 6283SOL    HW230309   3.748   1.348  11.923  0.1224  1.4605  0.2192
 6284SOL     OW30310   4.219   4.088  12.162  0.0953 -0.4285 -0.7013
 6284SOL    HW130311   4.260   4.173  12.148  3.3785 -2.3188 -2.5664
 6284SOL    HW230312   4.213   4.052  12.073  2.5796 -2.1484 -0.1572
 6285SOL     OW30313   2.140   1.348  15.278  0.0136  0.3404  0.1835
 6285SOL    HW130314   2.111   1.287  15.345  1.1397  0.8305  1.1228
 6285SOL    HW230315   2.201   1.403  15.327 -0.0125  0.8155 -0.3127
 6286SOL     OW30316   4.200   0.918   5.366  0.1327  0.7952  0.3274
 6286SOL    HW130317   4.273   0.858   5.384  1.3956  2.3997  0.4800
 6286SOL    HW230318   4.254   0.997   5.363 -0.0211  0.9234  1.1639
 6287SOL     OW30319   3.776   2.397   7.017 -0.1222 -0.3053 -0.5580
 6287SOL    HW130320   3.830   2.475   7.006 -0.5595  0.0654 -0.0450
 6287SOL    HW230321   3.806   2.346   6.942 -1.7960 -1.9845 -0.0793
 6288SOL     OW30322   1.239   2.249   3.910 -0.1250  0.2486 -0.3290
 6288SOL    HW130323   1.322   2.274   3.951 -0.8317 -0.1723  1.3908
 6288SOL    HW230324   1.181   2.297   3.970 -0.4753  0.4794 -0.8576
 6289SOL     OW30325   3.603   3.690   8.890 -0.2405 -0.2505  0.2403
 6289SOL    HW130326   3.647   3.622   8.940  0.0235 -1.1830 -1.2657
 6289SOL    HW230327   3.671   3.756   8.906 -0.2053  0.0678 -1.2085
 6290SOL     OW30328   4.617   2.552   3.428 -0.9677  0.4122 -0.5398
 6290SOL    HW130329   4.622   2.467   3.385  2.1869  0.1596  0.3062
 6290SOL    HW230330   4.703   2.586   3.401 -0.7096 -0.6782 -1.0472
 6291SOL     OW30331   0.534   1.645   7.349  0.2527 -0.3393  0.4175
 6291SOL    HW130332   0.536   1.736   7.322 -1.9913  0.1244  1.8777
 6291SOL    HW230333   0.584   1.654   7.430  0.8463  1.9996 -0.2245
 6292SOL     OW30334   0.104   1.445  11.839 -0.1395 -0.0719 -0.6124
 6292SOL    HW130335   0.182   1.392  11.819  0.6008  1.4966 -1.8709
 6292SOL    HW230336   0.066   1.460  11.752  0.5656 -1.7261 -1.2167
 6293SOL     OW30337   3.111   0.291   7.896 -0.3368 -0.1887  0.1728
 6293SOL    HW130338   3.143   0.201   7.889  0.7472  0.3156 -1.1919
 6293SOL    HW230339   3.181   0.340   7.855  3.0620 -3.3558  2.1789
 6294SOL     OW30340   3.491   4.142   5.053  0.2299  0.6278  0.0018
 6294SOL    HW130341   3.515   4.064   5.003 -1.5798 -0.3817  0.6763
 6294SOL    HW230342   3.575   4.186   5.063  1.0274 -1.0786  0.8725
 6295SOL     OW30343   0.307   0.441  10.108  0.9922 -0.6251  0.2088
 6295SOL    HW130344   0.288   0.366  10.165  0.7442 -0.8145 -0.1206
 6295SOL    HW230345   0.266   0.419  10.024  1.1775  1.3879 -0.4095
 6296SOL     OW30346   0.858   1.250   1.024 -0.0250  0.0155 -0.1126
 6296SOL    HW130347   0.787   1.308   1.055  0.1194 -0.2508  0.7176
 6296SOL    HW230348   0.814   1.169   0.999  0.4074 -0.4287  0.5995
 6297SOL     OW30349   2.323   2.045   0.274  0.5206  0.5122  0.5958
 6297SOL    HW130350   2.384   2.089   0.214 -0.1705  2.2129  1.1461
 6297SOL    HW230351   2.311   2.108   0.345  0.2209 -0.6253  1.5475
 6298SOL     OW30352   1.821   0.421   5.545 -0.0064  0.2227 -0.0440
 6298SOL    HW130353   1.777   0.502   5.572 -1.4189 -0.7112  0.4531
 6298SOL    HW230354   1.765   0.392   5.474  0.0470 -1.3552  0.5596
 6299SOL     OW30355   2.732   1.207   3.588  0.0909 -0.5317 -0.3060
 6299SOL    HW130356   2.675   1.135   3.563 -2.6440  0.5753  2.7200
 6299SOL    HW230357   2.716   1.274   3.522  2.8787 -0.4422 -0.9112
 6300SOL     OW30358   4.557   4.512  12.115  0.0228 -0.3894  0.1517
 6300SOL    HW130359   4.547   4.562  12.034  0.9338 -0.1884  0.1644
 6300SOL    HW230360   4.542   4.586  12.175 -0.3950 -0.9931  0.7920
 6301SOL     OW30361   0.875   0.669   7.031 -0.4597 -0.0893  0.3833
 6301SOL    HW130362   0.792   0.640   7.069 -1.2556  1.1411 -0.4150
 6301SOL    HW230363   0.899   0.728   7.102  1.4331  0.0056 -0.3368
 6302SOL     OW30364   3.457   2.099   6.621  0.4859  0.3168  0.1696
 6302SOL    HW130365   3.421   2.135   6.702 -0.6040 -2.5455  0.9634
 6302SOL    HW230366   3.381   2.061   6.577  1.3689 -1.3174  0.0367
 6303SOL     OW30367   1.840   1.505   2.369  0.1494 -0.0057  0.5253
 6303SOL    HW130368   1.886   1.429   2.405 -0.5183 -0.8166 -0.3420
 6303SOL    HW230369   1.914   1.565   2.354  0.7312 -1.2169 -1.4327
 6304SOL     OW30370   3.511   3.947   8.537  0.1160 -0.1023  0.0578
 6304SOL    HW130371   3.585   3.899   8.576  0.3621 -2.6916 -3.5662
 6304SOL    HW230372   3.507   3.895   8.456 -1.7491 -2.4272  1.6380
 6305SOL     OW30373   2.032   4.557  11.431 -0.4029  0.1456 -0.1844
 6305SOL    HW130374   2.005   4.552  11.523  1.4924  0.2598  0.3869
 6305SOL    HW230375   2.003   4.643  11.400  0.7195 -0.0052 -1.6567
 6306SOL     OW30376   1.489   2.571  15.302 -0.1812  0.1358 -0.0843
 6306SOL    HW130377   1.417   2.508  15.297 -0.3791  0.0941  3.3242
 6306SOL    HW230378   1.461   2.622  15.226  1.2627  0.3366 -0.4930
 6307SOL     OW30379   1.287   0.316   3.883 -0.0332 -0.4818  0.3602
 6307SOL    HW130380   1.347   0.243   3.898 -0.1849 -0.3543  1.5671
 6307SOL    HW230381   1.260   0.298   3.793 -0.4954 -0.4515  0.4899
 6308SOL     OW30382   4.397   3.671   0.398  0.5505  0.4520 -0.1911
 6308SOL    HW130383   4.333   3.714   0.341 -0.3238  0.5855  0.8755
 6308SOL    HW230384   4.406   3.584   0.358 -2.5251  0.3546 -0.7052
 6309SOL     OW30385   4.096   1.277   5.875 -0.1184 -0.3349  0.0050
 6309SOL    HW130386   4.183   1.318   5.872  0.2089 -1.0158  0.1813
 6309SOL    HW230387   4.058   1.314   5.954 -1.5527  0.4619 -1.0518
 6310SOL     OW30388   0.530   4.718   2.225 -0.2136 -0.2651  0.5275
 6310SOL    HW130389   0.588   4.685   2.157  0.9852  0.9561  0.9653
 6310SOL    HW230390   0.588   0.035   2.289  0.4046 -1.5373  0.7685
 6311SOL     OW30391   2.390   2.836  11.446 -0.2426 -0.0113 -0.3105
 6311SOL    HW130392   2.432   2.852  11.531 -0.7552 -1.1030  0.1585
 6311SOL    HW230393   2.455   2.821  11.377  0.9118  1.8149  0.3964
 6312SOL     OW30394   0.114   1.733   0.195 -0.4148  0.5633  0.2260
 6312SOL    HW130395   0.142   1.755   0.106 -0.1390  1.3362  0.5019
 6312SOL    HW230396   0.198   1.752   0.238 -1.5718 -1.5607  3.4769
 6313SOL     OW30397   3.719   4.585   5.490 -0.2297 -0.2242  0.0715
 6313SOL    HW130398   3.706   4.549   5.402  2.7616 -1.5139  0.1549
 6313SOL    HW230399   3.751   4.674   5.473  4.3974 -1.9992 -0.6667
 6314SOL     OW30400   1.556   1.062   4.439  0.4867 -0.2523 -0.1019
 6314SOL    HW130401   1.521   1.145   4.407  1.3857  0.4223  0.6680
 6314SOL    HW230402   1.650   1.079   4.441  0.2410  1.1892 -0.9082
 6315SOL     OW30403   0.987   2.406  11.296 -0.3206  0.1715  0.0837
 6315SOL    HW130404   1.024   2.488  11.263 -0.9750  0.0900 -0.8616
 6315SOL    HW230405   0.925   2.383  11.227  1.2669  0.4806 -1.4586
 6316SOL     OW30406   0.310   3.646   4.868  0.1490  0.6650 -0.2959
 6316SOL    HW130407   0.374   3.716   4.872  0.5280  0.3913 -1.4163
 6316SOL    HW230408   0.228   3.694   4.852 -0.8812 -0.3637  1.9070
 6317SOL     OW30409   0.013   1.561  16.650  0.3016 -0.5662 -0.7058
 6317SOL    HW130410   4.687   1.595  16.724 -0.9114 -0.6748 -1.4605
 6317SOL    HW230411   0.032   1.637  16.596 -2.3156  0.9682  0.5433
 6318SOL     OW30412   0.255   3.732   0.490  0.6840 -0.2221 -0.0648
 6318SOL    HW130413   0.256   3.825   0.514  2.5615  0.2648 -2.0820
 6318SOL    HW230414   0.312   3.688   0.553 -0.6711 -4.2852 -1.6694
 6319SOL     OW30415   1.487   4.055   7.379  0.3030  0.6511  0.2528
 6319SOL    HW130416   1.536   4.028   7.301  0.5171  1.1853  0.2005
 6319SOL    HW230417   1.520   4.145   7.376  0.6110  0.4993 -0.8227
 6320SOL     OW30418   2.648   3.343  17.360 -0.1102 -0.4766  0.0771
 6320SOL    HW130419   2.610   3.332  17.273 -0.2912  0.1263  0.0800
 6320SOL    HW230420   2.564   3.363  17.400 -0.1318  0.4210 -0.4098
 6321SOL     OW30421   1.444   2.306   9.458 -0.0415  0.4343 -0.1713
 6321SOL    HW130422   1.406   2.390   9.433  1.8636  1.4101  0.2045
 6321SOL    HW230423   1.370   2.268   9.504 -0.0233  0.6901  0.0724
 6322SOL     OW30424   1.340   3.136  17.363  0.1629 -0.1339 -0.4499
 6322SOL    HW130425   1.342   3.136  17.267  0.2535 -1.3563 -0.4480
 6322SOL    HW230426   1.433   3.118  17.376  0.4909  0.4009 -2.0694
 6323SOL     OW30427   2.344   2.382   5.680  0.6233  0.2707  0.5991
 6323SOL    HW130428   2.421   2.326   5.693  0.1675 -0.9569 -2.1163
 6323SOL    HW230429   2.373   2.452   5.739 -0.0443  0.4762  0.6734
 6324SOL     OW30430   3.114   3.357   1.994 -0.0689 -0.5556  0.2597
 6324SOL    HW130431   3.176   3.309   1.940  1.3568  1.4502  0.1381
 6324SOL    HW230432   3.083   3.421   1.931 -1.4217  0.3405  1.8105
 6325SOL     OW30433   2.058   3.174  13.709 -0.5004 -0.2978 -0.4807
 6325SOL    HW130434   2.102   3.204  13.629  0.5637 -1.5640 -0.3535
 6325SOL    HW230435   2.135   3.150  13.760 -0.2279 -0.7811 -1.1104
 6326SOL     OW30436   1.208   3.556  16.590 -0.0319  0.2149 -0.5075
 6326SOL    HW130437   1.278   3.496  16.568  1.0053  1.3454 -0.2923
 6326SOL    HW230438   1.176   3.534  16.678 -1.0036  0.7833 -0.7115
 6327SOL     OW30439   3.048   1.917   4.618  0.3066  0.1704 -0.4004
 6327SOL    HW130440   3.002   1.953   4.694  0.1863 -0.3643 -0.2176
 6327SOL    HW230441   3.101   1.988   4.583  3.1735 -1.7547 -0.0133
 6328SOL     OW30442   2.764   3.040   5.805 -0.2794 -0.3089  0.2194
 6328SOL    HW130443   2.669   3.055   5.800 -0.4048 -0.6581  1.5290
 6328SOL    HW230444   2.788   3.093   5.881  1.2962 -4.0896  2.3762
 6329SOL     OW30445   3.979   4.065   1.016 -0.3515  0.4736  0.0697
 6329SOL    HW130446   4.074   4.077   1.014 -0.4146  0.7180 -1.4320
 6329SOL    HW230447   3.947   4.155   1.023 -3.9735 -0.6428 -1.8407
 6330SOL     OW30448   4.225   3.604   5.938 -0.4766  0.2109  0.1811
 6330SOL    HW130449   4.163   3.677   5.939  0.4358  0.9695  1.5013
 6330SOL    HW230450   4.237   3.590   5.844  1.2598  1.9749  0.1569
 6331SOL     OW30451   3.480   2.615   4.796 -0.1636  0.2013 -0.3365
 6331SOL    HW130452   3.452   2.702   4.825 -2.6668 -0.0573 -2.0145
 6331SOL    HW230453   3.571   2.645   4.795 -0.9967  2.6894 -2.7554
 6332SOL     OW30454   3.709   3.297   1.892 -0.1075 -0.3975  0.2285
 6332SOL    HW130455   3.740   3.210   1.866  0.7181  0.3773 -1.4048
 6332SOL    HW230456   3.618   3.276   1.910  0.0203 -0.2039  1.0717
 6333SOL     OW30457   2.928   2.000   9.674 -0.6803  0.3500  0.1484
 6333SOL    HW130458   2.853   2.056   9.688 -0.5889  0.7200 -0.8238
 6333SOL    HW230459   2.902   1.925   9.728 -0.0379  0.4302  0.5686
 6334SOL     OW30460   0.645   0.254  14.668  0.4538 -0.7689  0.1945
 6334SOL    HW130461   0.626   0.323  14.603  0.0989  0.2788  1.4073
 6334SOL    HW230462   0.640   0.308  14.747 -0.6166  0.0251 -0.3970
 6335SOL     OW30463   1.910   4.203  12.925 -0.2355 -0.1328 -0.2363
 6335SOL    HW130464   1.955   4.240  12.849  1.6751  0.2865  1.0826
 6335SOL    HW230465   1.970   4.231  12.995 -0.2575 -0.5830 -0.0406
 6336SOL     OW30466   4.083   1.972  16.514 -0.1996  0.0805  0.5431
 6336SOL    HW130467   4.143   1.994  16.585 -1.8063  2.1693  1.2586
 6336SOL    HW230468   4.082   1.877  16.521 -0.8684  0.0548  0.0996
 6337SOL     OW30469   0.717   2.912   5.845  0.0791  0.1738  0.4519
 6337SOL    HW130470   0.770   2.833   5.842  1.4896  1.1940 -1.3096
 6337SOL    HW230471   0.785   2.979   5.842  0.0931  0.1529  0.3204
 6338SOL     OW30472   4.465   0.544   4.418 -0.0781 -0.0199 -0.4916
 6338SOL    HW130473   4.531   0.494   4.466 -0.9387 -0.3787  0.3141
 6338SOL    HW230474   4.529   0.601   4.375 -1.6388  0.7366 -1.8131
 6339SOL     OW30475   3.117   0.542   8.566 -0.1861  0.5557  0.4275
 6339SOL    HW130476   3.148   0.607   8.628  0.6702  0.1500  0.4210
 6339SOL    HW230477   3.185   0.475   8.573 -1.4371 -0.8405 -0.8941
 6340SOL     OW30478   0.284   3.112   2.908  0.0126  0.1515  0.6242
 6340SOL    HW130479   0.218   3.055   2.946 -1.9649  1.9392 -0.1426
 6340SOL    HW230480   0.340   3.121   2.985  1.1626  0.3375 -0.2333
 6341SOL     OW30481   2.840   4.315   0.455 -0.6009  0.7451 -0.9192
 6341SOL    HW130482   2.898   4.379   0.412  2.0615 -2.7947 -2.5827
 6341SOL    HW230483   2.895   4.237   0.464 -1.0359  0.5577  0.0309
 6342SOL     OW30484   1.519   2.096   7.216 -0.5419  0.3410 -0.4368
 6342SOL    HW130485   1.511   2.010   7.257 -1.3130  0.7730  0.3243
 6342SOL    HW230486   1.479   2.151   7.284 -0.4681  1.0504 -0.9790
 6343SOL     OW30487   2.891   0.456   7.592 -0.1549 -0.3914 -0.5648
 6343SOL    HW130488   2.951   0.531   7.587 -1.0912  0.3710 -0.3733
 6343SOL    HW230489   2.950   0.401   7.542  1.4721  0.0892  0.8153
 6344SOL     OW30490   2.061   3.808   1.580  0.5520  0.9133  0.3776
 6344SOL    HW130491   2.110   3.786   1.660 -0.8914  1.2349  1.3581
 6344SOL    HW230492   1.969   3.791   1.600  0.8197 -0.2283  0.6665
 6345SOL     OW30493   1.624   4.638   6.208 -0.1275 -0.4624 -0.2158
 6345SOL    HW130494   1.585   4.603   6.128  1.7244 -2.7409 -0.0980
 6345SOL    HW230495   1.717   4.623   6.196 -0.7669 -1.3916 -3.9909
 6346SOL     OW30496   3.425   3.170   0.846 -0.4125  0.0348  0.1168
 6346SOL    HW130497   3.441   3.251   0.894 -1.6662 -0.1616  0.8644
 6346SOL    HW230498   3.373   3.122   0.911  1.7509 -2.3813  0.0587
 6347SOL     OW30499   0.293   3.656  17.694  0.6001 -0.0779  0.3542
 6347SOL    HW130500   0.293   3.715  17.618 -1.2920 -1.4988 -0.7517
 6347SOL    HW230501   0.230   3.702   0.053  0.6531 -0.0714  0.4082
 6348SOL     OW30502   4.335   1.755   3.962  0.2122 -0.0678  0.3024
 6348SOL    HW130503   4.261   1.802   3.925 -0.8922 -0.2448  2.3009
 6348SOL    HW230504   4.288   1.711   4.033 -0.0052 -0.5960 -0.1729
 6349SOL     OW30505   0.510   1.326   7.740 -0.7751  0.2338 -0.3484
 6349SOL    HW130506   0.445   1.390   7.712  0.4015  1.7105  0.3601
 6349SOL    HW230507   0.456   1.247   7.744  1.0041 -0.8270  2.3173
 6350SOL     OW30508   1.559   0.031  17.523  0.0063  0.2168  0.0232
 6350SOL    HW130509   1.636   0.009  17.575 -1.5140 -0.5427  1.9194
 6350SOL    HW230510   1.487   0.045  17.585  0.0824  1.4112 -0.1548
 6351SOL     OW30511   1.384   0.691  10.091 -0.0089 -0.1159  0.1569
 6351SOL    HW130512   1.465   0.651  10.060 -0.1882 -1.5704  1.6121
 6351SOL    HW230513   1.329   0.617  10.115  0.2573  0.0305  1.2107
 6352SOL     OW30514   3.628   0.576  11.535 -0.0960 -0.0616  0.4550
 6352SOL    HW130515   3.615   0.638  11.464  1.3416  0.1032  0.3360
 6352SOL    HW230516   3.575   0.613  11.606 -0.2568  0.1590  0.2195
 6353SOL     OW30517   2.179   1.183  15.507 -0.1088  0.3196 -0.3320
 6353SOL    HW130518   2.142   1.169  15.594  0.4020  2.4764  0.2439
 6353SOL    HW230519   2.171   1.093  15.477 -0.1123  0.7070 -1.5118
 6354SOL     OW30520   0.182   0.551   5.702  0.3816  0.0639 -0.0987
 6354SOL    HW130521   0.125   0.483   5.739  2.3442 -2.6097 -2.0369
 6354SOL    HW230522   0.214   0.607   5.773  0.0099 -0.4672  0.4867
 6355SOL     OW30523   2.274   2.186   3.320 -0.3925 -0.0163  0.3422
 6355SOL    HW130524   2.338   2.240   3.274 -0.1338  0.4601  1.2514
 6355SOL    HW230525   2.314   2.186   3.407 -1.0734  1.9904  0.6673
 6356SOL     OW30526   0.799   1.345  14.367 -0.1377 -0.8068 -0.1754
 6356SOL    HW130527   0.769   1.405  14.298  2.3015  1.0617  0.4029
 6356SOL    HW230528   0.883   1.384  14.391 -1.3867  1.8337 -0.0339
 6357SOL     OW30529   0.348   1.808   4.311 -0.2929  0.6940  0.6534
 6357SOL    HW130530   0.442   1.814   4.298  0.0104 -3.2137  1.1013
 6357SOL    HW230531   0.339   1.714   4.293  0.2162  0.9083 -0.7320
 6358SOL     OW30532   1.616   0.596   5.632 -0.0168 -0.0761  0.5432
 6358SOL    HW130533   1.555   0.528   5.604 -0.6630  0.9077 -0.4437
 6358SOL    HW230534   1.584   0.658   5.566  0.1685 -0.7097 -0.1483
 6359SOL     OW30535   3.309   2.878  15.427 -0.1662  0.0692  0.3791
 6359SOL    HW130536   3.314   2.783  15.437  1.0949 -0.1682 -2.5051
 6359SOL    HW230537   3.400   2.897  15.405 -0.3791  0.1407 -0.4493
 6360SOL     OW30538   4.239   3.420   0.853 -0.3386 -0.1880  0.1443
 6360SOL    HW130539   4.248   3.485   0.784 -1.1161  0.9580  1.1138
 6360SOL    HW230540   4.290   3.347   0.818 -0.5224 -0.4428  0.4087
 6361SOL     OW30541   2.884   1.461   4.703 -0.0879  0.2371  0.0054
 6361SOL    HW130542   2.916   1.386   4.653  0.4752  0.2444  0.3598
 6361SOL    HW230543   2.961   1.517   4.694  0.9115 -1.0433  0.8398
 6362SOL     OW30544   0.579   2.157   2.988  0.6527 -0.3956  0.1964
 6362SOL    HW130545   0.658   2.171   2.935 -0.6167 -0.4396 -1.7038
 6362SOL    HW230546   0.549   2.246   3.006 -1.4336 -0.8510 -0.9666
 6363SOL     OW30547   2.588   3.148   1.304  0.3280 -0.0548  0.6008
 6363SOL    HW130548   2.515   3.202   1.273  1.1071  1.2396  0.9958
 6363SOL    HW230549   2.638   3.221   1.341  2.0815 -0.8049 -0.2541
 6364SOL     OW30550   3.206   2.251   4.195  0.2027 -0.1702  0.1379
 6364SOL    HW130551   3.248   2.167   4.176 -0.5006 -0.6471  0.6592
 6364SOL    HW230552   3.130   2.222   4.245 -0.5257 -0.6250 -1.2423
 6365SOL     OW30553   1.031   2.964  10.110  0.7106 -0.7278  0.8353
 6365SOL    HW130554   0.950   2.925  10.075  0.0496  0.9999  0.4604
 6365SOL    HW230555   1.093   2.974  10.038  0.8165 -2.7174  0.6482
 6366SOL     OW30556   3.388   2.588   2.795 -0.2692  0.4292  0.0526
 6366SOL    HW130557   3.332   2.515   2.769 -2.0359  2.3350 -1.4519
 6366SOL    HW230558   3.326   2.660   2.801 -2.2069 -1.1414 -1.3207
 6367SOL     OW30559   0.580   2.642   6.966 -0.1001  0.2252 -0.2247
 6367SOL    HW130560   0.545   2.694   6.893 -1.0441  2.1001  1.5657
 6367SOL    HW230561   0.511   2.647   7.032  1.2128  1.4732  1.0343
 6368SOL     OW30562   0.224   0.037   5.412 -0.3624 -0.1736 -0.0461
 6368SOL    HW130563   0.138   4.719   5.405 -0.8385  0.8205 -0.0287
 6368SOL    HW230564   0.280   4.686   5.390 -2.0246 -1.4566  0.1135
 6369SOL     OW30565   0.571   4.270  17.341  0.2003  0.3717  0.7138
 6369SOL    HW130566   0.485   4.237  17.313 -0.7301  2.4937  1.1244
 6369SOL    HW230567   0.565   4.362  17.317  1.9980  0.2024 -0.3837
 6370SOL     OW30568   4.525   1.504   9.847  1.0546 -0.1765  0.1137
 6370SOL    HW130569   4.594   1.445   9.878  0.6658 -0.4675  0.4295
 6370SOL    HW230570   4.576   1.569   9.799  0.0144  1.5195  1.3168
 6371SOL     OW30571   2.675   1.299   4.309 -0.1843  0.6843  0.8787
 6371SOL    HW130572   2.680   1.287   4.214 -0.8398 -0.3391  0.9726
 6371SOL    HW230573   2.710   1.220   4.349  0.8457  0.7313  0.0636
 6372SOL     OW30574   1.428   1.713   0.435 -0.1897 -0.1759 -0.1684
 6372SOL    HW130575   1.387   1.776   0.374 -0.3823 -1.5339 -1.4352
 6372SOL    HW230576   1.438   1.758   0.519  0.5215 -0.0935 -0.3009
 6373SOL     OW30577   2.655   0.706  12.072 -0.0316 -0.0063  0.2770
 6373SOL    HW130578   2.678   0.746  12.156  1.2374  0.7330 -0.4202
 6373SOL    HW230579   2.563   0.687  12.087  0.0878  0.5024  1.6404
 6374SOL     OW30580   2.230   1.717   8.751  0.1377 -0.2914  0.4010
 6374SOL    HW130581   2.316   1.721   8.711  0.2187 -0.9985  0.4872
 6374SOL    HW230582   2.211   1.810   8.757  0.3354 -0.1208 -1.7403
 6375SOL     OW30583   0.594   1.974   5.296 -0.0108  0.3493  0.3696
 6375SOL    HW130584   0.563   1.899   5.246 -2.3325  1.1067  0.6794
 6375SOL    HW230585   0.514   2.017   5.327 -1.3840 -2.9169  1.3408
 6376SOL     OW30586   1.053   0.984   3.391  0.0252  0.3275  0.5805
 6376SOL    HW130587   0.975   1.007   3.340 -1.0072 -0.6833  1.7132
 6376SOL    HW230588   1.006   0.988   3.474 -0.8712 -1.4588  0.1381
 6377SOL     OW30589   2.345   2.524   5.187  0.4595  0.1162  0.5283
 6377SOL    HW130590   2.429   2.512   5.142  0.1515 -1.3217  0.3079
 6377SOL    HW230591   2.376   2.492   5.272  0.5063 -1.1949  0.0184
 6378SOL     OW30592   0.484   1.623   4.597 -0.1247  0.2594 -0.1634
 6378SOL    HW130593   0.478   1.697   4.536 -3.2737 -2.1623 -2.7855
 6378SOL    HW230594   0.439   1.557   4.545 -0.8406  0.3145  0.3900
 6379SOL     OW30595   2.966   2.629  16.470  0.2713  0.8388  0.8011
 6379SOL    HW130596   2.912   2.567  16.519  0.3322 -1.1394 -1.6478
 6379SOL    HW230597   2.905   2.700  16.456  0.4693  0.8742  0.0999
 6380SOL     OW30598   0.511   1.306   3.323 -0.0646  0.0016  0.7064
 6380SOL    HW130599   0.570   1.378   3.341  0.0985  0.1896 -0.5376
 6380SOL    HW230600   0.458   1.348   3.255  1.5300 -0.2516 -0.6884
 6381SOL     OW30601   4.305   1.567   8.785 -0.0366  0.3884 -0.7560
 6381SOL    HW130602   4.296   1.491   8.843  1.8682  0.2755 -0.6069
 6381SOL    HW230603   4.213   1.573   8.760 -0.4977 -0.5166  0.6738
 6382SOL     OW30604   0.446   2.272   1.174 -0.0844  0.0221 -0.0273
 6382SOL    HW130605   0.521   2.273   1.115 -0.0348  2.6703  0.1006
 6382SOL    HW230606   0.443   2.183   1.211 -1.2303  0.5634  1.1668
 6383SOL     OW30607   3.331   2.961  13.179 -0.0580  0.2737  0.0264
 6383SOL    HW130608   3.326   3.028  13.110 -0.3413 -0.1992 -0.4193
 6383SOL    HW230609   3.359   3.010  13.256  0.3562  0.9912 -0.5743
 6384SOL     OW30610   1.959   3.949  16.202  0.5398  0.4315 -0.4139
 6384SOL    HW130611   2.002   4.030  16.174  0.6941 -0.4181 -2.6184
 6384SOL    HW230612   1.963   3.907  16.116 -0.6143  0.4982 -0.4985
 6385SOL     OW30613   0.332   0.448   4.253  0.2861 -0.4142 -0.3614
 6385SOL    HW130614   0.393   0.520   4.238 -0.6209 -0.0374 -2.3024
 6385SOL    HW230615   0.249   0.496   4.256  2.1587  2.7882  0.2502
 6386SOL     OW30616   1.217   2.153   6.050 -0.5564  0.2812 -0.4328
 6386SOL    HW130617   1.145   2.183   5.995 -0.5096 -0.8352 -1.0903
 6386SOL    HW230618   1.180   2.095   6.116  2.3318  0.7262  1.6274
 6387SOL     OW30619   2.622   4.318   5.050 -0.0421 -0.0218 -0.7260
 6387SOL    HW130620   2.693   4.323   5.114 -1.2125 -2.5614  0.7629
 6387SOL    HW230621   2.662   4.347   4.968  3.6612  2.2664  1.8902
 6388SOL     OW30622   2.536   2.111   3.544  0.4202 -0.2058  0.4868
 6388SOL    HW130623   2.472   2.046   3.574 -0.6102  0.0898 -1.0666
 6388SOL    HW230624   2.615   2.057   3.539  1.3676  1.3421 -0.8240
 6389SOL     OW30625   2.043   2.339   8.088  0.2188 -0.0869  0.4796
 6389SOL    HW130626   1.961   2.389   8.089  0.5260  0.4336 -0.9885
 6389SOL    HW230627   2.102   2.410   8.064 -1.5859  1.5653  0.8679
 6390SOL     OW30628   1.795   2.448   8.058 -0.5048 -0.1808 -0.2579
 6390SOL    HW130629   1.779   2.414   8.145  0.4581  0.6026  0.2268
 6390SOL    HW230630   1.750   2.383   8.004 -1.8424  0.8348 -0.3589
 6391SOL     OW30631   3.129   2.130   1.717  0.2507  0.4728  0.2604
 6391SOL    HW130632   3.070   2.125   1.793 -0.3813  0.0542 -0.2553
 6391SOL    HW230633   3.199   2.074   1.751 -0.3565  0.1099  0.9160
 6392SOL     OW30634   4.104   1.360  13.578 -0.1553  0.4672  0.3028
 6392SOL    HW130635   4.057   1.282  13.549  0.3864  0.6348 -1.0190
 6392SOL    HW230636   4.038   1.424  13.550 -1.1061  0.0557  1.6054
 6393SOL     OW30637   0.568   0.182   7.665  0.1708  0.1234  0.2730
 6393SOL    HW130638   0.612   0.163   7.582  1.4653  0.7811  0.8132
 6393SOL    HW230639   0.628   0.145   7.729  1.5542 -1.1610 -1.7680
 6394SOL     OW30640   3.096   0.768   1.729  0.5908 -0.0224  0.2977
 6394SOL    HW130641   3.003   0.756   1.750  0.7450  0.1598  1.0737
 6394SOL    HW230642   3.091   0.809   1.643 -1.6809 -0.9331  0.0046
 6395SOL     OW30643   1.238   4.258   2.479 -0.5808 -0.3452 -0.1149
 6395SOL    HW130644   1.180   4.182   2.489 -0.5691 -0.1372  1.5905
 6395SOL    HW230645   1.171   4.326   2.470 -0.0899 -0.1240 -2.0554
 6396SOL     OW30646   1.933   3.522   8.217 -0.0904  0.2368 -0.4277
 6396SOL    HW130647   1.903   3.544   8.305 -1.3132 -2.2388 -0.2289
 6396SOL    HW230648   2.019   3.563   8.212 -0.1982  0.5055 -0.0769
 6397SOL     OW30649   2.103   3.900   3.795  1.0538 -0.8076  0.4310
 6397SOL    HW130650   2.071   3.811   3.812 -0.8040 -0.4445 -1.1057
 6397SOL    HW230651   2.197   3.893   3.810  0.8338 -0.4482  1.9192
 6398SOL     OW30652   3.730   1.159   0.911 -0.4331 -0.2873 -0.0097
 6398SOL    HW130653   3.680   1.203   0.979 -0.5250 -2.8811  1.5699
 6398SOL    HW230654   3.694   1.217   0.843 -2.7741  0.5545  1.9566
 6399SOL     OW30655   1.422   2.906   4.791  0.3080 -0.1057 -0.1350
 6399SOL    HW130656   1.394   2.922   4.881 -3.6047 -3.9814 -0.6487
 6399SOL    HW230657   1.515   2.929   4.792  0.2064  0.2792  0.2168
 6400SOL     OW30658   1.833   3.233  10.821  0.8053 -0.6231  0.1774
 6400SOL    HW130659   1.855   3.282  10.901 -0.9327  0.5975 -0.1086
 6400SOL    HW230660   1.827   3.140  10.839 -0.7611 -0.2415  1.6492
 6401SOL     OW30661   1.485   0.062   3.109 -0.5867 -0.4154  0.2095
 6401SOL    HW130662   1.450   0.151   3.102 -2.7399 -1.6373 -4.1979
 6401SOL    HW230663   1.403   0.019   3.133 -0.9779 -0.2441 -0.8392
 6402SOL     OW30664   1.454   3.055  15.527  0.2699  0.1663  0.2324
 6402SOL    HW130665   1.394   3.029  15.458  1.6269 -2.9422  0.2299
 6402SOL    HW230666   1.400   3.049  15.606  0.7215  1.5362  0.6518
 6403SOL     OW30667   4.462   2.991   6.516  0.0225  0.3313  0.2061
 6403SOL    HW130668   4.521   3.036   6.576  0.1424 -0.4176  0.6417
 6403SOL    HW230669   4.407   2.941   6.575 -0.0010  1.0933  0.8231
 6404SOL     OW30670   3.022   0.125   8.226  0.0551  1.6781  0.1971
 6404SOL    HW130671   2.988   0.168   8.303  2.3754 -0.5550  2.4731
 6404SOL    HW230672   3.107   0.093   8.258 -0.1534  0.2487 -0.6407
 6405SOL     OW30673   1.718   2.399  11.488  0.5841  0.0083  0.2357
 6405SOL    HW130674   1.813   2.407  11.486  0.5187  0.7104 -0.0464
 6405SOL    HW230675   1.692   2.405  11.580 -1.3224 -1.1234 -0.2087
 6406SOL     OW30676   2.998   4.490   2.726 -0.2588  0.0105  0.1839
 6406SOL    HW130677   2.992   4.421   2.660 -2.6280  0.3351  0.0570
 6406SOL    HW230678   2.966   4.566   2.677 -1.1387 -0.4839 -0.0073
 6407SOL     OW30679   1.532   3.652  16.909 -0.0575 -0.6733  0.1677
 6407SOL    HW130680   1.537   3.600  16.989  0.5958  0.8708  1.1124
 6407SOL    HW230681   1.550   3.743  16.930  0.6510 -0.7598 -0.0696
 6408SOL     OW30682   1.582   1.225  12.831 -0.2627  0.0040 -0.4826
 6408SOL    HW130683   1.620   1.301  12.875 -0.9570 -1.2689  2.3396
 6408SOL    HW230684   1.558   1.271  12.751  1.8470  0.0730 -1.0522
 6409SOL     OW30685   3.533   0.855   7.784  0.1900 -0.4424 -0.1339
 6409SOL    HW130686   3.573   0.926   7.734 -0.2538 -0.7538 -0.9464
 6409SOL    HW230687   3.594   0.847   7.857  0.5167 -0.6002 -0.4234
 6410SOL     OW30688   4.297   3.084   2.648  0.5135 -0.4858  0.7943
 6410SOL    HW130689   4.307   3.029   2.571 -1.4621  3.2992 -2.2150
 6410SOL    HW230690   4.263   3.171   2.624 -0.5185 -0.9792  0.4307
 6411SOL     OW30691   1.918   4.532   5.930 -0.4189 -0.4900  0.0480
 6411SOL    HW130692   1.982   4.500   5.866 -0.3393  1.5337 -0.8821
 6411SOL    HW230693   1.846   4.472   5.912 -0.1928 -0.4241 -1.0428
 6412SOL     OW30694   3.835   4.208   4.165  0.5785 -0.3887  0.2109
 6412SOL    HW130695   3.890   4.202   4.087  1.8885  1.5372  0.9672
 6412SOL    HW230696   3.776   4.135   4.146  0.1705 -0.0564  0.1832
 6413SOL     OW30697   1.041   1.967  13.056  0.7557 -0.4966  0.0833
 6413SOL    HW130698   1.081   2.003  12.977  0.7578  3.0319  1.7243
 6413SOL    HW230699   0.948   1.987  13.044  1.2060  2.8495  2.1502
 6414SOL     OW30700   1.460   4.614  17.119  0.3728  0.5199 -0.3163
 6414SOL    HW130701   1.488   4.591  17.030  0.6763  3.5563 -1.0251
 6414SOL    HW230702   1.366   4.627  17.111 -0.0350 -1.7559  0.8405
 6415SOL     OW30703   3.672   1.183   4.266  0.1247 -0.3408 -0.2555
 6415SOL    HW130704   3.589   1.170   4.311 -0.1086 -0.5616 -0.7414
 6415SOL    HW230705   3.744   1.169   4.326  0.1215  2.1193  0.3344
 6416SOL     OW30706   1.100   3.336  13.266 -0.0849 -0.0297 -0.2668
 6416SOL    HW130707   1.089   3.380  13.181 -1.3549 -0.3870 -0.2965
 6416SOL    HW230708   1.096   3.247  13.232  1.6946 -0.6180  1.1162
 6417SOL     OW30709   3.689   1.037   8.323 -0.4651  0.1838  0.5690
 6417SOL    HW130710   3.640   1.092   8.384  0.2911  1.3609  0.1082
 6417SOL    HW230711   3.614   0.999   8.278 -1.9181  1.7297  1.6718
 6418SOL     OW30712   3.016   3.168  13.685 -0.2589  0.0867  0.0151
 6418SOL    HW130713   3.020   3.131  13.773  2.1632  0.0854 -0.0926
 6418SOL    HW230714   2.924   3.196  13.686  0.5713  2.8078 -0.3850
 6419SOL     OW30715   2.978   3.647  12.862  0.0341  0.0247 -0.0314
 6419SOL    HW130716   2.984   3.704  12.785 -1.7005  1.7137  1.0529
 6419SOL    HW230717   2.934   3.571  12.825  2.3590 -1.2788 -0.1322
 6420SOL     OW30718   2.456   1.879   4.075  0.1886  0.0134  0.1157
 6420SOL    HW130719   2.463   1.789   4.107  2.0545  0.0779 -0.0713
 6420SOL    HW230720   2.530   1.883   4.014 -1.0294 -1.8435 -1.5189
 6421SOL     OW30721   2.122   1.982  14.523 -0.1989 -0.1344 -0.2774
 6421SOL    HW130722   2.102   1.888  14.516  1.6730 -0.7968  3.3200
 6421SOL    HW230723   2.112   2.012  14.433  1.9796  0.2948 -0.3715
 6422SOL     OW30724   1.711   2.893   9.500  0.1435 -0.0298  0.2932
 6422SOL    HW130725   1.635   2.951   9.512 -0.5853 -1.3089  1.8742
 6422SOL    HW230726   1.771   2.966   9.514 -3.3000  2.8967 -0.0386
 6423SOL     OW30727   2.148   1.232  14.372 -0.0736 -0.1040  0.0996
 6423SOL    HW130728   2.061   1.246  14.408 -0.4313 -0.3651 -0.6650
 6423SOL    HW230729   2.131   1.168  14.303  4.8163  0.4816 -1.7031
 6424SOL     OW30730   1.949   2.037   8.411 -0.4816 -0.7201  0.7227
 6424SOL    HW130731   1.914   2.093   8.481 -0.2800 -3.1097  2.7702
 6424SOL    HW230732   2.036   2.072   8.393 -2.1851  1.9819 -2.1402
 6425SOL     OW30733   1.996   4.718   3.362 -0.0581 -0.0313  0.3792
 6425SOL    HW130734   1.975   4.723   3.455  3.4474  0.8284  1.1333
 6425SOL    HW230735   2.041   0.078   3.348 -1.3251  0.6183  0.1747
 6426SOL     OW30736   1.857   1.036   4.258  0.4309 -0.2589 -0.3433
 6426SOL    HW130737   1.866   1.098   4.330  1.9151 -0.2685 -0.5103
 6426SOL    HW230738   1.946   1.018   4.226  0.4952  1.4316 -1.0601
 6427SOL     OW30739   1.265   0.075  14.333 -0.2213  0.2519 -0.1060
 6427SOL    HW130740   1.296   4.719  14.290  0.6066  0.2752  0.4437
 6427SOL    HW230741   1.190   0.093  14.276 -2.2034  2.5163  3.1955
 6428SOL     OW30742   1.324   1.707  12.560  0.5681  0.5366  0.1104
 6428SOL    HW130743   1.394   1.643  12.548  1.8782  1.9107  0.4202
 6428SOL    HW230744   1.350   1.738  12.647  0.3388 -1.9643  1.0548
 6429SOL     OW30745   2.698   1.224   4.672 -0.5178  0.2900 -0.1260
 6429SOL    HW130746   2.693   1.175   4.754 -0.1814  1.2847  0.4909
 6429SOL    HW230747   2.729   1.153   4.616 -0.3102  1.8979 -2.0437
 6430SOL     OW30748   4.538   0.642  12.692 -0.1166  0.4118 -0.0855
 6430SOL    HW130749   4.599   0.694  12.745 -0.4712  1.0543 -0.3067
 6430SOL    HW230750   4.460   0.697  12.701 -0.1788  0.2609  0.3201
 6431SOL     OW30751   0.809   0.820   2.365 -0.4921 -0.1131  0.6888
 6431SOL    HW130752   0.792   0.734   2.404 -0.4470 -1.4590 -2.2798
 6431SOL    HW230753   0.743   0.872   2.413  2.1018  1.9710  1.9888
 6432SOL     OW30754   2.387   3.474  12.250  0.3691  0.5167 -0.6163
 6432SOL    HW130755   2.367   3.389  12.211  1.5374 -0.0258 -0.0139
 6432SOL    HW230756   2.429   3.520  12.177  0.2510  0.5951 -0.6348
 6433SOL     OW30757   3.066   4.261   6.388  0.3569  0.0628 -0.4029
 6433SOL    HW130758   3.146   4.210   6.382  0.9199  0.9316 -0.2682
 6433SOL    HW230759   3.105   4.348   6.390 -0.9026  0.5425  2.7336
 6434SOL     OW30760   4.607   4.417  10.433  0.3434 -0.0579  0.0283
 6434SOL    HW130761   4.686   4.468  10.412  0.3101 -0.4259 -0.9587
 6434SOL    HW230762   4.577   4.394  10.346 -0.2674  2.4126 -0.4088
 6435SOL     OW30763   0.595   3.930   6.773 -0.0275 -0.4529 -0.2349
 6435SOL    HW130764   0.665   3.868   6.751  1.0646 -0.1666  2.3689
 6435SOL    HW230765   0.579   3.918   6.867  3.9082 -0.6530  0.4377
 6436SOL     OW30766   3.086   4.561   2.989  0.3102 -0.0784 -0.3255
 6436SOL    HW130767   3.005   4.600   3.022  1.6317  0.6693  2.0517
 6436SOL    HW230768   3.052   4.542   2.902 -3.2678 -0.3781  1.1332
 6437SOL     OW30769   2.687   0.694  13.431 -0.2112 -0.0586  0.6732
 6437SOL    HW130770   2.701   0.785  13.406 -0.7142 -0.7260 -2.0872
 6437SOL    HW230771   2.593   0.684  13.441 -0.4325 -0.2534 -1.4441
 6438SOL     OW30772   3.288   2.453  12.702 -0.2192 -0.1246 -0.3364
 6438SOL    HW130773   3.318   2.541  12.681 -1.5298  0.7486  1.4025
 6438SOL    HW230774   3.364   2.424  12.751  0.7027  0.9244 -1.1430
 6439SOL     OW30775   1.814   3.612   6.741  0.1837 -0.2785 -0.4580
 6439SOL    HW130776   1.779   3.665   6.670 -0.1041 -2.4810 -1.9371
 6439SOL    HW230777   1.753   3.541   6.760  0.2377  0.0754  1.0821
 6440SOL     OW30778   1.761   1.370   8.498 -0.1392  0.8072 -0.1940
 6440SOL    HW130779   1.839   1.335   8.454  0.0253  0.7097  0.1765
 6440SOL    HW230780   1.736   1.433   8.431 -4.2245 -1.2917 -0.6729
 6441SOL     OW30781   2.615   1.630   9.849 -0.0932 -0.0142  0.3493
 6441SOL    HW130782   2.640   1.538   9.840  0.9503  0.1327  1.6214
 6441SOL    HW230783   2.554   1.634   9.776 -0.6079  0.5994  0.8171
 6442SOL     OW30784   1.964   3.296  15.295  0.0274 -0.0686 -0.2625
 6442SOL    HW130785   1.967   3.376  15.242  0.1861  0.2512  0.2343
 6442SOL    HW230786   1.917   3.235  15.239 -1.1876 -0.5988  1.3378
 6443SOL     OW30787   0.871   2.931  11.438 -0.1584  0.5280 -0.1721
 6443SOL    HW130788   0.950   2.973  11.473  0.3368  1.1898 -2.0661
 6443SOL    HW230789   0.913   2.879  11.369 -0.8384  0.7886 -0.7873
 6444SOL     OW30790   1.902   3.419   6.148 -0.1935 -0.8604 -0.4321
 6444SOL    HW130791   1.910   3.339   6.200 -3.0920 -1.5382 -1.0031
 6444SOL    HW230792   1.861   3.479   6.210 -2.0933 -1.6590 -0.9228
 6445SOL     OW30793   4.605   0.790   8.184 -0.2809  0.3835  0.5906
 6445SOL    HW130794   4.556   0.817   8.261  1.0301 -0.6507  1.7900
 6445SOL    HW230795   4.686   0.771   8.231 -1.5968 -2.1519  1.8394
 6446SOL     OW30796   4.639   3.997  14.506  0.2356 -0.4330  0.4091
 6446SOL    HW130797   4.588   4.018  14.428  2.4513  0.9377 -0.6575
 6446SOL    HW230798   4.700   4.071  14.501 -2.3565  1.6144 -0.6656
 6447SOL     OW30799   4.639   2.770   1.164  0.1332 -0.6184 -0.0945
 6447SOL    HW130800   4.708   2.705   1.174 -0.1036 -0.9833 -0.8469
 6447SOL    HW230801   4.689   2.851   1.168  1.2369 -1.4344  2.6208
 6448SOL     OW30802   4.268   3.463   3.861  0.5951 -0.1516  0.5944
 6448SOL    HW130803   4.233   3.451   3.949 -1.5142 -1.5450 -0.4183
 6448SOL    HW230804   4.253   3.557   3.851  0.2180 -0.3121 -0.4138
 6449SOL     OW30805   3.142   1.593   5.706 -0.1926  0.2889  0.0260
 6449SOL    HW130806   3.098   1.674   5.733 -0.4787 -0.0777  0.6496
 6449SOL    HW230807   3.178   1.567   5.791 -0.7448  1.5651  0.6418
 6450SOL     OW30808   1.016   2.071   9.838  0.1812 -0.1511 -0.3509
 6450SOL    HW130809   1.007   2.130   9.763  0.5835 -0.2151 -0.4511
 6450SOL    HW230810   0.935   2.020   9.839  0.0548  0.0632  1.0205
 6451SOL     OW30811   4.689   1.608   4.261 -0.2398  0.2449  0.0343
 6451SOL    HW130812   4.604   1.610   4.216 -0.2451 -0.2621  0.0206
 6451SOL    HW230813   0.020   1.624   4.185 -0.7224 -2.4955 -0.9089
 6452SOL     OW30814   2.339   2.039  14.247  0.0177 -0.6869  0.1894
 6452SOL    HW130815   2.246   2.032  14.269 -0.2912  0.2768 -0.8222
 6452SOL    HW230816   2.333   2.120  14.196 -1.8854  0.0551  1.6000
 6453SOL     OW30817   4.630   0.980  11.414  0.5363 -0.6210  0.6136
 6453SOL    HW130818   4.626   0.914  11.344  0.0190  0.2334 -0.1700
 6453SOL    HW230819   4.597   1.061  11.374  0.6586 -0.7140  0.3205
 6454SOL     OW30820   4.650   4.340   0.782 -0.3676 -0.0696 -0.1664
 6454SOL    HW130821   4.612   4.426   0.798 -1.2301 -0.1920 -1.6083
 6454SOL    HW230822   0.010   4.359   0.739 -0.5256 -0.2509 -0.5485
 6455SOL     OW30823   4.547   2.950   4.477  0.0432 -0.3996  0.7318
 6455SOL    HW130824   4.636   2.941   4.511  0.1287  1.3372  0.9824
 6455SOL    HW230825   4.523   2.858   4.473  0.1897 -0.5419  3.2344
 6456SOL     OW30826   4.360   4.183  17.391 -0.0618  0.3944  0.1478
 6456SOL    HW130827   4.337   4.262  17.439  1.1059  0.4770  0.5595
 6456SOL    HW230828   4.393   4.221  17.310 -2.8006  0.9123 -0.7162
 6457SOL     OW30829   3.607   1.355   6.509  0.2329 -0.4846  0.4208
 6457SOL    HW130830   3.703   1.345   6.514  0.5534  2.6171  0.2325
 6457SOL    HW230831   3.579   1.271   6.473  4.2966 -0.7706 -2.1626
 6458SOL     OW30832   1.858   3.472   2.815 -0.3071 -0.0632 -0.3723
 6458SOL    HW130833   1.920   3.530   2.859  0.1226 -1.1927  0.4960
 6458SOL    HW230834   1.923   3.418   2.769  0.5591  0.4832  0.2129
 6459SOL     OW30835   4.355   1.130   8.155  0.5727  0.0416  0.5249
 6459SOL    HW130836   4.365   1.039   8.130 -1.7935  0.2911 -1.3306
 6459SOL    HW230837   4.271   1.157   8.119 -0.4555  0.8273  3.4809
 6460SOL     OW30838   3.466   2.691   9.245  0.3566 -0.1924  0.0418
 6460SOL    HW130839   3.388   2.678   9.299  0.9259 -0.8480  0.7048
 6460SOL    HW230840   3.498   2.776   9.276 -1.1913  0.2095  0.5393
 6461SOL     OW30841   2.451   0.522   4.220  0.1228  0.0135 -0.4500
 6461SOL    HW130842   2.411   0.486   4.299 -0.5231  1.3471 -0.1748
 6461SOL    HW230843   2.515   0.582   4.257 -3.9177  2.7950  2.1052
 6462SOL     OW30844   2.470   1.462   3.890  0.4179  0.3804 -0.1871
 6462SOL    HW130845   2.375   1.474   3.895  0.7326  1.4982  2.8370
 6462SOL    HW230846   2.495   1.511   3.968  2.2872  0.7087 -0.9784
 6463SOL     OW30847   3.351   0.438  13.780 -0.3054  0.3379  0.5006
 6463SOL    HW130848   3.292   0.386  13.835 -2.9246  0.9825 -1.6321
 6463SOL    HW230849   3.294   0.515  13.774  0.0773  0.6983  1.4878
 6464SOL     OW30850   3.166   2.936   2.164 -0.1619 -0.5195  0.3166
 6464SOL    HW130851   3.100   3.005   2.176  1.7613  1.2397  0.7625
 6464SOL    HW230852   3.236   2.972   2.219 -0.9455 -3.5857  3.2731
 6465SOL     OW30853   3.009   2.713  12.158  0.2784  0.0914  0.2176
 6465SOL    HW130854   2.958   2.787  12.190 -2.5096 -1.2926 -1.0066
 6465SOL    HW230855   2.980   2.643  12.216 -0.4564  0.0122 -0.2490
 6466SOL     OW30856   0.464   3.176   2.078  0.1971 -0.1806  0.2732
 6466SOL    HW130857   0.554   3.176   2.112  0.3364  1.8113 -0.1030
 6466SOL    HW230858   0.453   3.081   2.069 -0.5535 -0.2897  2.1972
 6467SOL     OW30859   1.657   3.704  16.109  0.3072 -0.4578  0.1611
 6467SOL    HW130860   1.653   3.751  16.192  0.8439  1.4303 -0.8858
 6467SOL    HW230861   1.750   3.681  16.115  0.1788 -1.0996 -0.3311
 6468SOL     OW30862   2.421   2.903   8.358  0.5130 -0.6955  0.8428
 6468SOL    HW130863   2.463   2.978   8.400  0.1183 -0.1816  0.3219
 6468SOL    HW230864   2.437   2.828   8.415 -1.1471  0.3571  2.6861
 6469SOL     OW30865   4.106   1.692   8.098 -0.2090  0.2374  0.3622
 6469SOL    HW130866   4.167   1.753   8.140  1.3148 -0.5598 -0.7140
 6469SOL    HW230867   4.154   1.615   8.069 -1.5194  0.3457 -2.0563
 6470SOL     OW30868   3.694   2.370   9.433 -0.4962 -0.2491 -0.3239
 6470SOL    HW130869   3.769   2.364   9.374  0.2246 -1.7418  0.7224
 6470SOL    HW230870   3.662   2.281   9.421  0.4303 -0.3361 -2.1794
 6471SOL     OW30871   2.168   1.965  12.675 -0.3910 -0.1557  0.1426
 6471SOL    HW130872   2.190   1.965  12.582  0.6661  2.6264  0.3894
 6471SOL    HW230873   2.189   1.874  12.696 -1.0314  0.2163  2.4329
 6472SOL     OW30874   0.651   3.055  12.253  0.1345 -0.0006 -1.1419
 6472SOL    HW130875   0.696   3.130  12.291 -1.6259 -0.6171  2.1234
 6472SOL    HW230876   0.568   3.059  12.299  0.1665 -1.7585 -0.9323
 6473SOL     OW30877   2.679   1.774  12.869  0.0992 -0.3499 -0.1278
 6473SOL    HW130878   2.590   1.747  12.845 -0.9667  0.7003  2.6655
 6473SOL    HW230879   2.682   1.789  12.963  0.0765  3.0192 -0.6382
 6474SOL     OW30880   4.486   3.047   5.671 -0.1896  0.0220  0.1212
 6474SOL    HW130881   4.430   3.040   5.748 -0.1146  1.5960  0.3131
 6474SOL    HW230882   4.410   3.066   5.616 -1.5430 -0.5911  1.7776
 6475SOL     OW30883   0.608   0.628   7.859  0.1670 -0.0573 -0.3337
 6475SOL    HW130884   0.583   0.629   7.951  0.5260 -3.3554 -0.2016
 6475SOL    HW230885   0.630   0.718   7.834 -0.6014 -0.2404 -1.6895
 6476SOL     OW30886   3.044   4.288   6.724 -0.5898  0.3491 -0.7080
 6476SOL    HW130887   3.032   4.203   6.767 -3.2382  0.7617 -0.6300
 6476SOL    HW230888   2.985   4.278   6.650  1.5389  1.0584 -2.4917
 6477SOL     OW30889   3.154   0.614  12.140 -0.2251  0.7088 -0.2598
 6477SOL    HW130890   3.068   0.581  12.112 -0.1307  0.4336 -0.2284
 6477SOL    HW230891   3.153   0.597  12.234  1.3391  0.8133 -0.2235
 6478SOL     OW30892   0.320   0.812   4.802  0.7450 -0.1794 -0.2096
 6478SOL    HW130893   0.268   0.752   4.856 -3.3298  1.0080 -2.8985
 6478SOL    HW230894   0.325   0.772   4.715  1.2502  0.9181 -0.6915
 6479SOL     OW30895   2.144   2.259   1.515  0.2466  0.2754 -0.2034
 6479SOL    HW130896   2.186   2.175   1.495  0.2048 -0.1330  1.4601
 6479SOL    HW230897   2.077   2.277   1.449  0.5126  0.4566 -0.4249
 6480SOL     OW30898   0.868   0.990   1.842 -0.7793  0.1320  0.7356
 6480SOL    HW130899   0.839   1.081   1.830  2.3156  1.2061  1.1885
 6480SOL    HW230900   0.963   0.995   1.829 -1.0938 -2.2000 -2.2155
 6481SOL     OW30901   4.331   2.721   7.236  0.1117 -0.0033 -0.0797
 6481SOL    HW130902   4.359   2.792   7.294 -0.6490 -0.3868  0.7543
 6481SOL    HW230903   4.407   2.667   7.215 -1.6418 -2.1473 -0.8856
 6482SOL     OW30904   1.985   4.192  16.059  0.7770  0.2471 -0.0879
 6482SOL    HW130905   1.964   4.277  16.097  1.4243 -0.6122  2.2161
 6482SOL    HW230906   1.919   4.186  15.990 -0.7761  1.3912  1.3085
 6483SOL     OW30907   0.385   1.071   3.599 -0.0377 -0.2521  0.1276
 6483SOL    HW130908   0.474   1.041   3.617 -0.0594  1.4211  3.1046
 6483SOL    HW230909   0.356   0.992   3.553 -4.0755  1.0637  0.4234
 6484SOL     OW30910   1.553   0.341   1.495 -0.1320 -0.1063  0.0311
 6484SOL    HW130911   1.644   0.347   1.521 -0.2989  3.2707 -0.1421
 6484SOL    HW230912   1.531   0.434   1.501  2.1416  0.3614  1.0782
 6485SOL     OW30913   3.894   1.944  10.074  0.0017  0.0311  0.0234
 6485SOL    HW130914   3.888   2.038  10.088  1.3697  0.0066  0.7425
 6485SOL    HW230915   3.985   1.926  10.095  0.5384  2.8134  0.0259
 6486SOL     OW30916   4.050   4.467   0.654  0.0378  0.1555  0.4893
 6486SOL    HW130917   4.022   4.557   0.672  0.9445  0.7635 -1.1445
 6486SOL    HW230918   4.078   4.445   0.743 -0.2670 -0.6851  0.3667
 6487SOL     OW30919   2.661   4.402   2.274 -0.2860 -0.5609  0.0475
 6487SOL    HW130920   2.616   4.442   2.200 -0.0980 -1.3509 -0.4952
 6487SOL    HW230921   2.629   4.312   2.272  0.1320 -0.7573  1.9998
 6488SOL     OW30922   2.936   3.352   1.558  0.3668 -0.3424 -0.3380
 6488SOL    HW130923   2.855   3.363   1.509  1.1264  0.4909 -1.3935
 6488SOL    HW230924   2.917   3.289   1.628  1.7186 -1.5209 -1.0453
 6489SOL     OW30925   3.779   4.647   3.792 -0.6507  0.1681 -0.2640
 6489SOL    HW130926   3.800   4.622   3.882  0.4554 -0.0883 -0.5926
 6489SOL    HW230927   3.686   4.670   3.796 -0.9645 -1.1966  0.2938
 6490SOL     OW30928   2.472   1.974   8.295 -0.1595 -0.2176  0.1509
 6490SOL    HW130929   2.552   1.925   8.312 -0.6478 -0.8584  0.6076
 6490SOL    HW230930   2.438   1.974   8.384  0.2438 -0.9617  0.2988
 6491SOL     OW30931   3.420   2.777   0.572  0.1756  0.1465 -0.1772
 6491SOL    HW130932   3.445   2.817   0.489 -1.8175  0.7948 -0.4735
 6491SOL    HW230933   3.452   2.846   0.630 -2.0875  1.2227 -0.1872
 6492SOL     OW30934   2.412   1.223   6.290  0.0991  0.0796 -0.3500
 6492SOL    HW130935   2.343   1.200   6.227 -1.1975  3.0544 -0.0016
 6492SOL    HW230936   2.494   1.199   6.245  0.5251 -1.4989  1.2771
 6493SOL     OW30937   3.957   4.141   1.741 -0.0911  0.0373 -0.4461
 6493SOL    HW130938   3.920   4.069   1.690 -0.1635 -1.3402  1.5521
 6493SOL    HW230939   3.904   4.215   1.713  0.6381  0.9285  0.5590
 6494SOL     OW30940   4.690   0.618   6.050 -0.4866  0.0399 -0.5956
 6494SOL    HW130941   4.704   0.697   5.997  0.4944  0.3715  0.1723
 6494SOL    HW230942   4.594   0.617   6.048 -0.4826  0.1264 -0.8017
 6495SOL     OW30943   3.176   0.899   7.363 -0.2911 -0.6417 -0.6545
 6495SOL    HW130944   3.092   0.906   7.319 -0.5455 -0.8796 -0.2061
 6495SOL    HW230945   3.221   0.878   7.281  0.7242  1.5005 -0.6497
 6496SOL     OW30946   3.688   1.642   7.121 -0.3470  0.7001  0.8056
 6496SOL    HW130947   3.696   1.720   7.067  0.3199 -0.1496 -0.3232
 6496SOL    HW230948   3.779   1.612   7.133 -1.0379 -2.0276 -0.6685
 6497SOL     OW30949   0.815   2.673   5.743 -0.0298  0.0812 -0.6454
 6497SOL    HW130950   0.729   2.634   5.760  0.8870 -0.6321  2.2881
 6497SOL    HW230951   0.809   2.687   5.648  0.1122 -1.0770 -0.8269
 6498SOL     OW30952   1.610   2.220  11.861  0.2386 -0.2667 -0.7907
 6498SOL    HW130953   1.516   2.204  11.863  0.0708  0.5327 -1.9513
 6498SOL    HW230954   1.645   2.170  11.935 -0.6215  1.9669  1.1278
 6499SOL     OW30955   0.200   1.885   1.646  0.3570 -0.0210  0.1113
 6499SOL    HW130956   0.172   1.799   1.678  0.3366  0.3135  0.9882
 6499SOL    HW230957   0.125   1.934   1.679  2.1753  2.0709  1.1362
 6500SOL     OW30958   4.186   1.639   6.605  0.1202 -0.5728 -0.1289
 6500SOL    HW130959   4.193   1.684   6.690  0.4642 -0.4014 -0.2486
 6500SOL    HW230960   4.175   1.713   6.545  2.6535 -0.2526 -0.1868
 6501SOL     OW30961   4.616   2.157   9.313 -0.0489  0.9703  0.5304
 6501SOL    HW130962   4.699   2.172   9.268  0.4175 -0.7585  0.8025
 6501SOL    HW230963   4.586   2.079   9.268 -2.4247  1.7116  0.8435
 6502SOL     OW30964   1.846   0.068   8.387 -0.2893  0.6978 -0.6377
 6502SOL    HW130965   1.890   4.711   8.414  0.5219 -0.2991 -4.9770
 6502SOL    HW230966   1.877   0.135   8.448 -3.4413  1.1197  0.4751
 6503SOL     OW30967   1.880   3.627  14.090  0.0176  0.3435  0.0329
 6503SOL    HW130968   1.944   3.623  14.019 -0.1772  1.1665 -0.1895
 6503SOL    HW230969   1.854   3.535  14.097 -0.6851  0.5747  0.4937
 6504SOL     OW30970   2.306   2.971   7.899 -0.2189 -0.4456  0.3501
 6504SOL    HW130971   2.291   2.882   7.930  0.0062 -0.9278 -0.9223
 6504SOL    HW230972   2.338   3.015   7.978  1.6363 -4.1145  1.6149
 6505SOL     OW30973   1.144   1.071   4.201 -0.4481 -0.0527 -0.4141
 6505SOL    HW130974   1.076   1.009   4.174 -1.9356  0.8705  1.1657
 6505SOL    HW230975   1.177   1.107   4.119 -0.5875 -0.2717 -0.5630
 6506SOL     OW30976   4.607   4.449   6.276  0.2283 -0.1984  0.6559
 6506SOL    HW130977   4.692   4.407   6.285 -0.1158 -1.2495 -0.9137
 6506SOL    HW230978   4.578   4.447   6.367 -1.6745 -3.1889 -0.0176
 6507SOL     OW30979   3.381   3.470  10.886 -0.7013  0.1197  0.0970
 6507SOL    HW130980   3.299   3.488  10.932 -0.0022 -1.2907  1.9028
 6507SOL    HW230981   3.357   3.412  10.815 -1.0871  0.3336  0.0529
 6508SOL     OW30982   3.485   0.183  13.557  0.5115  0.2526  0.7479
 6508SOL    HW130983   3.417   0.138  13.507 -1.0539  2.0119  1.2856
 6508SOL    HW230984   3.536   0.106  13.582 -1.0559 -1.0319 -0.0241
 6509SOL     OW30985   2.183   0.383   6.448  0.4646 -0.1529  0.4221
 6509SOL    HW130986   2.101   0.363   6.403 -0.9950  0.0067  3.0048
 6509SOL    HW230987   2.226   0.298   6.443  1.2492  0.3579 -1.3868
 6510SOL     OW30988   2.057   1.471  13.383  0.2601 -0.2252  0.2284
 6510SOL    HW130989   2.146   1.500  13.360  0.2877 -1.3236 -1.0568
 6510SOL    HW230990   2.007   1.552  13.391 -0.9006 -0.7087 -2.0191
 6511SOL     OW30991   2.678   0.461  16.863 -0.1388 -0.4634  0.1137
 6511SOL    HW130992   2.731   0.382  16.847  1.8442  0.4190  2.3063
 6511SOL    HW230993   2.669   0.457  16.958  1.3032 -1.7634  0.2050
 6512SOL     OW30994   4.371   1.518   9.395 -0.0922 -0.0365 -0.2445
 6512SOL    HW130995   4.301   1.516   9.460  0.8379 -1.8858  0.7047
 6512SOL    HW230996   4.358   1.439   9.343  2.2545 -0.6442  0.1010
 6513SOL     OW30997   2.101   3.501   7.357  0.1637 -0.0849  0.2041
 6513SOL    HW130998   2.102   3.585   7.310  0.3072  0.5088  1.2638
 6513SOL    HW230999   2.101   3.442   7.282  0.7865 -0.0489  0.1757
 6514SOL     OW31000   4.007   0.815   7.434  0.3778 -0.0560  0.2437
 6514SOL    HW131001   4.081   0.868   7.406  1.0685 -0.0605  2.0438
 6514SOL    HW231002   4.004   0.759   7.357  4.6908 -1.5420  1.1245
 6515SOL     OW31003   3.180   2.169  13.271 -0.5193 -0.5117  0.3507
 6515SOL    HW131004   3.180   2.265  13.270  0.6983 -0.5161 -0.1723
 6515SOL    HW231005   3.225   2.148  13.353  1.5973 -1.6248 -1.1246
 6516SOL     OW31006   4.538   3.168   4.307 -0.0367 -0.5753 -0.3113
 6516SOL    HW131007   4.624   3.165   4.266 -0.0572  2.8682 -0.6154
 6516SOL    HW231008   4.547   3.090   4.363 -1.2107 -0.6183 -0.1765
 6517SOL     OW31009   1.229   1.459   3.185  0.4334  0.5832  0.1172
 6517SOL    HW131010   1.218   1.495   3.273  1.1479 -0.4973  0.6495
 6517SOL    HW231011   1.314   1.497   3.163  0.3812 -0.0251 -1.1416
 6518SOL     OW31012   1.284   3.456   4.647  0.3478 -0.3078 -1.0062
 6518SOL    HW131013   1.260   3.409   4.726  0.6314 -0.9667 -1.3068
 6518SOL    HW231014   1.254   3.394   4.579  1.4016 -1.6792 -0.2312
 6519SOL     OW31015   2.573   2.103  16.317 -0.6391  0.3461  0.5637
 6519SOL    HW131016   2.625   2.029  16.347 -0.7308  0.3779  0.8009
 6519SOL    HW231017   2.494   2.058  16.285 -0.2220  0.4433 -0.5916
 6520SOL     OW31018   2.670   3.602   5.833  0.5202 -0.2878  0.0785
 6520SOL    HW131019   2.652   3.677   5.777  0.4699 -2.3086 -2.6586
 6520SOL    HW231020   2.766   3.602   5.831  0.5535 -0.2449  1.7885
 6521SOL     OW31021   2.929   2.180   4.299  0.1135  0.5667  0.5773
 6521SOL    HW131022   2.901   2.090   4.314 -0.8260  0.8607  0.5829
 6521SOL    HW231023   2.959   2.206   4.386 -0.9774 -0.6662  1.3114
 6522SOL     OW31024   1.371   4.378   7.836 -0.2715 -0.0852 -0.1764
 6522SOL    HW131025   1.404   4.301   7.789  0.1253 -0.0764  0.0904
 6522SOL    HW231026   1.424   4.449   7.800 -1.0990  0.9466  0.6269
 6523SOL     OW31027   2.332   2.687   7.971  1.2087  0.5953 -0.4540
 6523SOL    HW131028   2.352   2.596   7.950 -0.6551  0.1225 -0.1707
 6523SOL    HW231029   2.299   2.675   8.060  2.8601  0.0370  0.0763
 6524SOL     OW31030   0.045   3.112  13.423  1.1598  0.0777 -0.1245
 6524SOL    HW131031   0.066   3.031  13.468  2.0986  0.0598 -0.5792
 6524SOL    HW231032   0.017   3.082  13.336 -2.2514  1.0741  0.6431
 6525SOL     OW31033   0.396   0.719   2.452  0.0339  0.2199 -0.0099
 6525SOL    HW131034   0.442   0.739   2.370  0.8206 -3.0215 -0.3929
 6525SOL    HW231035   0.473   0.683   2.498 -0.8911 -0.2458  1.1768
 6526SOL     OW31036   4.366   4.200   6.462  0.4416 -0.1967 -0.0130
 6526SOL    HW131037   4.412   4.120   6.437 -0.1702 -0.2465 -0.9808
 6526SOL    HW231038   4.431   4.248   6.513  0.2984  0.3050 -0.2970
 6527SOL     OW31039   4.138   3.160  14.065  0.1389 -0.0159  0.3662
 6527SOL    HW131040   4.059   3.196  14.025  0.3034  0.8962  0.8619
 6527SOL    HW231041   4.189   3.150  13.984  0.9853  3.1205  0.4808
 6528SOL     OW31042   4.220   1.474   8.013 -0.1608 -0.0569 -0.2148
 6528SOL    HW131043   4.182   1.386   8.015  0.3243 -0.2799 -0.8903
 6528SOL    HW231044   4.271   1.467   7.932  1.0102  0.2223  0.4954
 6529SOL     OW31045   1.692   3.977   7.543 -0.3595 -0.4273 -0.9100
 6529SOL    HW131046   1.671   3.905   7.603 -0.1567  0.4169  0.1808
 6529SOL    HW231047   1.617   3.993   7.486 -0.0254 -0.0173 -1.2350
 6530SOL     OW31048   3.245   4.546   3.883 -0.1943 -0.0440 -0.3421
 6530SOL    HW131049   3.208   4.531   3.970  1.5998  2.1458  0.8230
 6530SOL    HW231050   3.240   4.641   3.890  1.7231  0.0580 -0.2761
 6531SOL     OW31051   2.283   3.422   2.759 -0.0589 -0.0773  0.0834
 6531SOL    HW131052   2.314   3.457   2.843  0.3925  1.6820 -0.8257
 6531SOL    HW231053   2.327   3.479   2.697  0.6553 -0.1861  0.4901
 6532SOL     OW31054   0.300   1.552   3.638  0.4741 -0.0327  0.1154
 6532SOL    HW131055   0.347   1.484   3.686  0.2573 -1.4473 -1.7181
 6532SOL    HW231056   0.230   1.506   3.593 -0.0731  0.0188  0.9188
 6533SOL     OW31057   4.046   2.325   1.734  0.5565 -0.0540 -0.5167
 6533SOL    HW131058   4.024   2.418   1.731 -0.9210 -0.2945  3.2058
 6533SOL    HW231059   4.098   2.321   1.653  2.1293 -1.2008  0.5448
 6534SOL     OW31060   0.234   2.604   5.724  0.1882  0.1252 -0.1268
 6534SOL    HW131061   0.241   2.518   5.684  2.8057  0.9754 -1.5081
 6534SOL    HW231062   0.190   2.583   5.806 -2.1283 -0.6762 -1.5520
 6535SOL     OW31063   2.106   4.239  17.044 -0.2212 -0.1430  0.0561
 6535SOL    HW131064   2.183   4.197  17.006  0.0476  0.2322  0.1860
 6535SOL    HW231065   2.097   4.183  17.122  1.1831 -0.1071  0.2464
 6536SOL     OW31066   2.958   1.196  14.577 -0.0050  0.6096  0.0528
 6536SOL    HW131067   2.961   1.111  14.622  1.2161  0.8442  0.4189
 6536SOL    HW231068   3.030   1.229  14.632 -0.2757 -1.0297  1.4193
 6537SOL     OW31069   3.517   2.549  12.435 -0.6944 -0.0007  0.5996
 6537SOL    HW131070   3.608   2.522  12.425 -0.6606 -0.7641  2.9544
 6537SOL    HW231071   3.497   2.592  12.352 -0.0009  0.5873  0.7448
 6538SOL     OW31072   3.597   0.205   2.905 -0.2804 -0.1935 -0.4606
 6538SOL    HW131073   3.577   0.147   2.831  2.0337 -1.6014  0.0209
 6538SOL    HW231074   3.535   0.278   2.899  0.8087  0.7907  0.1452
 6539SOL     OW31075   0.767   0.500   2.383  0.1314  0.6518  0.0955
 6539SOL    HW131076   0.708   0.500   2.307  2.3338 -0.1229 -1.6133
 6539SOL    HW231077   0.709   0.532   2.452  0.2906 -1.0103  0.9814
 6540SOL     OW31078   3.530   0.665   6.561 -0.6562  0.1298 -0.4973
 6540SOL    HW131079   3.488   0.628   6.483  0.0275 -1.4953 -0.0973
 6540SOL    HW231080   3.544   0.588   6.616  0.1094  0.8391  0.2929
 6541SOL     OW31081   2.550   4.106  14.252 -0.5561  0.3307 -0.0747
 6541SOL    HW131082   2.592   4.052  14.318  0.1619  1.2129  0.1788
 6541SOL    HW231083   2.570   4.192  14.290  1.8757 -0.8745  1.3397
 6542SOL     OW31084   3.405   1.035   5.079  0.6594 -0.2434  0.3184
 6542SOL    HW131085   3.353   0.957   5.094 -0.8132  0.6959  0.0916
 6542SOL    HW231086   3.495   1.008   5.099 -0.0421 -1.2250  2.1344
 6543SOL     OW31087   0.812   3.472   4.298 -0.3998 -0.4926 -0.0905
 6543SOL    HW131088   0.779   3.417   4.227 -0.9167 -0.9595  0.5135
 6543SOL    HW231089   0.775   3.554   4.267  1.3889  0.2742 -0.1847
 6544SOL     OW31090   3.648   3.570   5.670  0.6333 -0.1630  1.1204
 6544SOL    HW131091   3.710   3.643   5.666 -0.2504  0.6344  1.9716
 6544SOL    HW231092   3.567   3.622   5.671  0.5132 -0.3720  1.7613
 6545SOL     OW31093   2.657   2.723   8.223  0.2346  0.1251  0.4369
 6545SOL    HW131094   2.594   2.698   8.290  1.8179  0.6129  2.1007
 6545SOL    HW231095   2.741   2.710   8.267 -1.2001  0.3230  3.1750
 6546SOL     OW31096   0.449   2.465  15.906  0.0620  0.0046  0.7664
 6546SOL    HW131097   0.409   2.483  15.991  0.9260  0.7259  1.0234
 6546SOL    HW231098   0.397   2.387  15.891  0.0998  0.2627 -0.7421
 6547SOL     OW31099   0.399   0.477   2.687  0.3857  0.7634 -0.0691
 6547SOL    HW131100   0.321   0.421   2.689 -0.7964  2.3603 -1.9894
 6547SOL    HW231101   0.401   0.489   2.592 -1.4827  0.3185 -0.1723
 6548SOL     OW31102   2.374   2.307   8.890  0.2061  0.0633 -0.9048
 6548SOL    HW131103   2.287   2.266   8.884 -1.3212  2.7632  2.7249
 6548SOL    HW231104   2.351   2.384   8.942  0.3888 -0.8506  0.5522
 6549SOL     OW31105   4.583   4.002  17.344  0.0597 -0.3478 -0.1782
 6549SOL    HW131106   4.525   4.069  17.380 -0.7334 -2.2689  2.0722
 6549SOL    HW231107   4.657   4.000  17.405 -0.3519 -0.8043  0.2992
 6550SOL     OW31108   2.840   2.162  15.246  0.3316  0.3016 -0.6448
 6550SOL    HW131109   2.867   2.234  15.303 -0.1381 -1.0167  1.2446
 6550SOL    HW231110   2.745   2.166  15.251  0.2579 -1.8608 -0.1838
 6551SOL     OW31111   0.664   2.251  15.473  0.7406  0.1338 -0.0814
 6551SOL    HW131112   0.733   2.234  15.409  0.3684 -0.1279 -0.4122
 6551SOL    HW231113   0.610   2.314  15.426  0.8242 -0.4480 -0.9544
 6552SOL     OW31114   3.875   0.104   7.695 -0.0726  0.5090 -0.3481
 6552SOL    HW131115   3.955   0.133   7.651 -0.0979  1.9372  0.5260
 6552SOL    HW231116   3.858   0.179   7.752  0.0603 -0.4307  0.9100
 6553SOL     OW31117   2.069   1.649   2.468  0.5206  0.0598 -0.6207
 6553SOL    HW131118   2.101   1.587   2.533 -0.7906  2.2713  2.1370
 6553SOL    HW231119   2.104   1.623   2.382  1.6448 -0.4801  0.0124
 6554SOL     OW31120   0.853   0.792   5.595 -0.0563 -0.5500 -0.2755
 6554SOL    HW131121   0.837   0.704   5.561 -0.7922  0.1186 -1.6935
 6554SOL    HW231122   0.931   0.822   5.548 -0.6234  0.4109 -0.6104
 6555SOL     OW31123   1.214   0.300   4.296 -0.0473  0.0466  0.7305
 6555SOL    HW131124   1.233   0.364   4.227  2.0637 -0.1000  1.1926
 6555SOL    HW231125   1.170   0.231   4.246  0.4212  0.2971 -0.0181
 6556SOL     OW31126   0.730   0.510   8.754 -0.0935  0.0948  0.1824
 6556SOL    HW131127   0.769   0.547   8.833  1.7710  1.2350 -1.2770
 6556SOL    HW231128   0.764   0.421   8.745  1.9533  1.0178 -1.1644
 6557SOL     OW31129   1.194   4.623  10.607  0.2105  0.2442  0.4147
 6557SOL    HW131130   1.230   4.648  10.692  1.1552  1.7729 -0.4391
 6557SOL    HW231131   1.234   4.682  10.543 -0.5923 -0.6410 -0.9314
 6558SOL     OW31132   1.477   2.595   8.087 -0.4689 -0.5900  0.3255
 6558SOL    HW131133   1.389   2.611   8.122 -0.5323 -1.0553  0.3855
 6558SOL    HW231134   1.523   2.598   8.171  0.2859  1.0789 -0.1595
 6559SOL     OW31135   0.213   0.950  10.892  0.7331 -0.0507  0.1490
 6559SOL    HW131136   0.173   0.961  10.806  2.3658  0.3156 -0.5630
 6559SOL    HW231137   0.154   0.988  10.957  1.1612  1.1294 -0.1529
 6560SOL     OW31138   4.447   3.807   0.898  0.7156 -0.2569  0.3866
 6560SOL    HW131139   4.372   3.746   0.897  0.6374 -0.1881  1.6648
 6560SOL    HW231140   4.429   3.839   0.987  2.3794 -1.2845  1.0910
 6561SOL     OW31141   3.161   2.730  11.233  0.0725  0.1354  0.0320
 6561SOL    HW131142   3.231   2.792  11.213 -0.0189  0.1570 -0.2208
 6561SOL    HW231143   3.179   2.654  11.177  0.5569 -1.8252  2.8041
 6562SOL     OW31144   1.518   4.650   4.744  0.0432 -0.0345 -0.2271
 6562SOL    HW131145   1.559   4.565   4.734 -1.5222 -0.5267 -2.5049
 6562SOL    HW231146   1.517   4.674   4.651  0.7580  2.9150  0.5373
 6563SOL     OW31147   4.468   0.419   0.705 -0.0664 -0.1788 -0.5965
 6563SOL    HW131148   4.531   0.446   0.637  0.6842  0.0207  0.1815
 6563SOL    HW231149   4.380   0.415   0.667  0.8575  0.6719 -2.8198
 6564SOL     OW31150   4.280   3.826  17.595 -0.2089 -0.4692  0.3149
 6564SOL    HW131151   4.300   3.907  17.643 -3.2752  0.7685 -0.4756
 6564SOL    HW231152   4.242   3.864  17.516 -4.3416 -1.7226  1.7217
 6565SOL     OW31153   2.989   2.318   6.845  0.4034  0.4499  0.3258
 6565SOL    HW131154   2.914   2.288   6.794  1.4162  2.1569 -2.1596
 6565SOL    HW231155   2.944   2.355   6.921 -0.5664 -1.9178  0.9016
 6566SOL     OW31156   4.419   4.538   8.922  0.1483  0.5664  0.0744
 6566SOL    HW131157   4.385   4.476   8.986  2.0048  0.7663  1.2283
 6566SOL    HW231158   4.340   4.585   8.893  1.2014  1.4027 -1.4307
 6567SOL     OW31159   1.186   1.705   6.444  0.4016  0.1295  0.0164
 6567SOL    HW131160   1.123   1.721   6.514  1.3671 -1.0315  1.1409
 6567SOL    HW231161   1.136   1.746   6.373 -0.6732 -0.7183  0.2786
 6568SOL     OW31162   1.921   0.002   4.540 -0.4314 -0.4215 -0.6557
 6568SOL    HW131163   2.007   4.690   4.561  1.0832  2.3209 -2.0877
 6568SOL    HW231164   1.876   4.646   4.512 -1.4724 -1.0375  2.8087
 6569SOL     OW31165   1.054   3.046   5.013 -0.0155  0.4572  0.2502
 6569SOL    HW131166   1.023   3.018   5.099  0.8695 -2.7542 -0.4347
 6569SOL    HW231167   0.991   3.115   4.995 -0.4702 -0.4178 -1.5006
 6570SOL     OW31168   3.138   0.077  12.337  0.1086 -0.1086  0.7185
 6570SOL    HW131169   3.066   0.035  12.384  1.1892  0.3348  2.7876
 6570SOL    HW231170   3.146   0.168  12.367 -4.8772  0.2910  0.9397
 6571SOL     OW31171   1.395   3.415   7.482 -0.1335  0.0221  0.1044
 6571SOL    HW131172   1.428   3.368   7.558 -1.4048 -2.4495 -0.8896
 6571SOL    HW231173   1.336   3.475   7.528 -1.1308 -2.2407  1.7612
 6572SOL     OW31174   3.719   0.756  13.408 -0.9820 -0.0187  0.6421
 6572SOL    HW131175   3.740   0.838  13.453  0.6368  0.3068 -0.6975
 6572SOL    HW231176   3.686   0.694  13.474 -2.2582  0.9037  0.8703
 6573SOL     OW31177   3.339   4.173  16.301  0.5004  0.5733 -0.5290
 6573SOL    HW131178   3.362   4.265  16.289 -0.7778  1.3859  3.2488
 6573SOL    HW231179   3.425   4.137  16.324  0.7124  0.1251 -2.0109
 6574SOL     OW31180   2.871   2.557   0.746  0.0298  0.0066 -0.2747
 6574SOL    HW131181   2.965   2.573   0.757  0.0759 -0.4365 -0.0202
 6574SOL    HW231182   2.837   2.583   0.831 -1.3096 -0.7918 -0.5630
 6575SOL     OW31183   0.894   0.042   7.108  0.0967 -0.6437  0.3741
 6575SOL    HW131184   0.933   0.043   7.196  2.0499 -1.2101 -0.4982
 6575SOL    HW231185   0.970   0.018   7.056 -0.8254 -2.2747 -0.1984
 6576SOL     OW31186   0.006   0.749   3.345 -0.3146  0.2690 -0.0080
 6576SOL    HW131187   0.040   0.688   3.280 -1.0366 -2.2260  1.9626
 6576SOL    HW231188   4.676   0.812   3.298 -0.2430 -0.6486 -1.3022
 6577SOL     OW31189   0.239   1.285   8.975  0.1552  0.1482 -0.1044
 6577SOL    HW131190   0.257   1.212   9.035 -0.7815  0.7098  0.8497
 6577SOL    HW231191   0.276   1.357   9.026 -1.0897  0.0145  0.9796
 6578SOL     OW31192   3.754   3.739   4.859  0.0040  0.2758 -0.6562
 6578SOL    HW131193   3.791   3.739   4.770  0.6644  2.1381 -0.3953
 6578SOL    HW231194   3.732   3.646   4.856  0.3906  0.1972 -1.0719
 6579SOL     OW31195   0.853   0.680   3.156 -0.4381  0.7790  0.3298
 6579SOL    HW131196   0.903   0.637   3.087 -0.9711 -0.9885  1.0336
 6579SOL    HW231197   0.895   0.643   3.234 -3.1748  1.1226  1.9723
 6580SOL     OW31198   0.134   4.109   0.524 -0.0971 -0.0040 -0.2860
 6580SOL    HW131199   0.214   4.056   0.525  0.6094  1.0665 -0.6570
 6580SOL    HW231200   0.163   4.191   0.563  0.5255  0.7050 -2.2459
 6581SOL     OW31201   3.124   2.673   9.098  0.0956  0.5576 -0.1488
 6581SOL    HW131202   3.099   2.765   9.096  1.1977  0.8210 -1.4279
 6581SOL    HW231203   3.137   2.650   9.190  0.4435  1.7701  0.0985
 6582SOL     OW31204   1.330   4.342   9.173 -0.2808  0.2945 -0.4434
 6582SOL    HW131205   1.243   4.312   9.145  0.3521 -2.2179  0.3299
 6582SOL    HW231206   1.348   4.281   9.244  0.0846  1.7312  0.7041
 6583SOL     OW31207   4.310   3.272   0.269  0.5013  0.0607  0.4420
 6583SOL    HW131208   4.404   3.277   0.284  0.6879 -2.3283  0.0300
 6583SOL    HW231209   4.304   3.178   0.284  1.8493  0.4148  3.1519
 6584SOL     OW31210   0.667   2.530  15.776  0.3731  0.2452 -0.5150
 6584SOL    HW131211   0.585   2.487  15.799  0.1213  0.6610 -0.6337
 6584SOL    HW231212   0.730   2.493  15.838  1.4648  1.3627 -0.9563
 6585SOL     OW31213   4.570   3.367  10.258  0.1534 -0.4456  0.2408
 6585SOL    HW131214   4.626   3.331  10.327  1.8769  0.1396 -0.8503
 6585SOL    HW231215   4.639   3.415  10.212 -0.2310 -1.0476 -0.9522
 6586SOL     OW31216   0.088   3.238   6.489 -0.7825 -0.1781  0.7569
 6586SOL    HW131217   0.126   3.243   6.401 -0.5283 -0.0042  0.8803
 6586SOL    HW231218   0.172   3.224   6.532  0.0006  0.9220 -0.3964
 6587SOL     OW31219   4.557   3.827   5.930 -0.6740  0.1961  0.4948
 6587SOL    HW131220   4.477   3.878   5.919  0.9518  2.7286  0.3523
 6587SOL    HW231221   4.570   3.788   5.843  0.7446  1.2787  0.2254
 6588SOL     OW31222   1.433   2.622   0.774 -0.2391 -0.3681 -0.3771
 6588SOL    HW131223   1.341   2.619   0.746  0.3624  0.9452 -2.5405
 6588SOL    HW231224   1.434   2.635   0.868 -2.1223 -0.0228 -0.4076
 6589SOL     OW31225   2.726   4.139   1.604 -0.0011 -0.5023  0.2017
 6589SOL    HW131226   2.649   4.086   1.582 -1.0783  1.2373 -0.2390
 6589SOL    HW231227   2.790   4.069   1.616  0.2323 -0.1791  0.8809
 6590SOL     OW31228   0.184   3.247   6.195  0.1123  0.6449 -0.4750
 6590SOL    HW131229   0.135   3.250   6.112 -1.1225  1.9930  0.3045
 6590SOL    HW231230   0.266   3.294   6.182 -0.2864  1.6273  0.6264
 6591SOL     OW31231   4.335   4.551   3.697 -0.0061 -0.4047  0.0600
 6591SOL    HW131232   4.414   4.544   3.751 -0.5373 -0.0238  0.8819
 6591SOL    HW231233   4.293   4.623   3.743  2.0646  2.4282 -2.4257
 6592SOL     OW31234   4.222   3.047   8.468  0.1046 -0.0233 -0.2131
 6592SOL    HW131235   4.277   3.124   8.483 -1.1776  1.2971 -2.2776
 6592SOL    HW231236   4.154   3.071   8.531  0.2000  0.5841 -0.3383
 6593SOL     OW31237   3.908   0.483  15.103 -0.1734  0.2026 -0.0733
 6593SOL    HW131238   3.899   0.388  15.104 -2.4072  0.4977  3.6137
 6593SOL    HW231239   3.872   0.495  15.015  0.8097 -0.9749 -0.6347
 6594SOL     OW31240   2.662   1.334   5.570  0.0538  0.2415 -0.0470
 6594SOL    HW131241   2.753   1.362   5.566  0.0273  0.2121 -0.9854
 6594SOL    HW231242   2.642   1.361   5.480 -3.0040 -1.3402  0.1555
 6595SOL     OW31243   4.467   4.577   1.210  0.0424 -0.5229  0.0258
 6595SOL    HW131244   4.541   4.540   1.162 -0.0369  0.4153 -0.8442
 6595SOL    HW231245   4.498   4.624   1.288 -0.0300 -0.3004 -0.0796
 6596SOL     OW31246   3.866   1.024   2.228 -0.5902  0.1590 -0.4144
 6596SOL    HW131247   3.835   1.082   2.298  0.0509  0.2091 -0.1749
 6596SOL    HW231248   3.848   1.086   2.157 -0.0003 -0.1235 -0.8036
 6597SOL     OW31249   4.115   3.876   7.057 -0.6569  0.1912 -0.3473
 6597SOL    HW131250   4.096   3.969   7.066 -0.4826  0.4395 -2.6741
 6597SOL    HW231251   4.112   3.837   7.145  4.3945  0.7033  0.0313
 6598SOL     OW31252   1.398   3.418   7.784 -0.2479 -0.3129  0.2724
 6598SOL    HW131253   1.384   3.375   7.868 -0.5173  1.0305  0.9242
 6598SOL    HW231254   1.394   3.512   7.801  0.7941 -0.2073 -0.1021
 6599SOL     OW31255   2.312   0.240  16.643 -1.0201  0.2860  0.9187
 6599SOL    HW131256   2.362   0.304  16.693  1.9017 -1.7702  0.6430
 6599SOL    HW231257   2.229   0.242  16.690 -2.0456 -0.7299 -0.8286
 6600SOL     OW31258   0.137   0.978   6.083 -0.1742  0.2419 -0.1370
 6600SOL    HW131259   0.192   1.053   6.108  0.2942 -0.8208  1.9652
 6600SOL    HW231260   0.188   0.943   6.010  0.6524  2.0856 -0.4427
 6601SOL     OW31261   4.440   0.061   7.388 -0.1279 -0.1117  0.5571
 6601SOL    HW131262   4.393   0.020   7.316  0.6357 -0.3389  0.1863
 6601SOL    HW231263   4.405   0.149   7.382 -0.1108  0.0370  2.5104
 6602SOL     OW31264   2.219   2.144  11.092  0.7265 -0.4256 -0.1491
 6602SOL    HW131265   2.242   2.167  11.183  1.2476 -1.7180  0.0425
 6602SOL    HW231266   2.155   2.215  11.085  0.5159 -0.8239 -2.2291
 6603SOL     OW31267   1.189   0.136   8.488 -0.2797 -0.9423  0.5157
 6603SOL    HW131268   1.279   0.109   8.467 -0.2401 -1.5682  1.4663
 6603SOL    HW231269   1.171   0.207   8.427  0.7629  0.7204  2.1590
 6604SOL     OW31270   2.145   3.353  16.028 -0.1298 -0.7351  0.5789
 6604SOL    HW131271   2.176   3.313  15.946 -2.3531 -2.1413  0.4361
 6604SOL    HW231272   2.123   3.273  16.076 -0.2441 -1.4835 -0.6861
 6605SOL     OW31273   3.428   4.041   4.221  0.0618  0.0683  0.5886
 6605SOL    HW131274   3.501   4.006   4.170 -2.2225 -3.0368 -0.5890
 6605SOL    HW231275   3.479   4.100   4.276 -1.2561  1.8400 -0.0852
 6606SOL     OW31276   0.125   1.070   3.694  0.1522  0.0246 -0.1424
 6606SOL    HW131277   0.173   1.014   3.633 -1.5614 -1.6082 -0.0190
 6606SOL    HW231278   0.125   1.017   3.773  1.2682  0.5453  0.1970
 6607SOL     OW31279   3.203   2.787   3.421  0.4343 -0.0784 -0.0572
 6607SOL    HW131280   3.130   2.731   3.447  1.0749  0.1600  2.2194
 6607SOL    HW231281   3.267   2.767   3.489 -1.2686 -0.2644  1.4848
 6608SOL     OW31282   3.046   2.627  13.196 -0.1199  0.2347  0.4865
 6608SOL    HW131283   2.975   2.575  13.158 -2.3136  4.8568 -1.8292
 6608SOL    HW231284   3.118   2.618  13.134 -2.2733  0.8430 -2.1223
 6609SOL     OW31285   3.137   3.289  13.426 -0.5681  0.1917 -0.2661
 6609SOL    HW131286   3.105   3.374  13.396 -0.4050  0.5913  0.6797
 6609SOL    HW231287   3.099   3.286  13.514 -0.9867  3.4593 -0.3367
 6610SOL     OW31288   1.779   3.182  10.136  0.5868 -0.6024  0.0695
 6610SOL    HW131289   1.827   3.261  10.160 -0.0816 -0.8251  2.1575
 6610SOL    HW231290   1.793   3.135  10.218  0.0521  0.0891  0.5552
 6611SOL     OW31291   0.748   4.456   2.300  0.1678  0.1271 -0.0913
 6611SOL    HW131292   0.749   4.372   2.255 -2.2198 -0.2600  0.5909
 6611SOL    HW231293   0.784   4.515   2.234 -1.2537 -3.0254 -3.6902
 6612SOL     OW31294   0.449   1.539   3.130 -0.1227 -0.0634  0.3461
 6612SOL    HW131295   0.362   1.520   3.095  0.3820  0.0590 -0.9559
 6612SOL    HW231296   0.498   1.550   3.049 -2.0386  1.9942 -0.5205
 6613SOL     OW31297   3.899   2.554   6.080  0.6855 -0.2283 -0.1462
 6613SOL    HW131298   3.909   2.533   6.173 -0.2179 -0.7078 -0.1572
 6613SOL    HW231299   3.827   2.618   6.080 -0.4343 -1.5124 -1.9539
 6614SOL     OW31300   1.302   3.332  16.477  0.1011  0.3603 -0.0792
 6614SOL    HW131301   1.209   3.337  16.458 -0.1690 -4.7513 -0.1056
 6614SOL    HW231302   1.321   3.335  16.383  1.8521 -2.7904  0.1952
 6615SOL     OW31303   0.439   2.029   3.576  0.6298 -0.1777  0.5184
 6615SOL    HW131304   0.415   1.940   3.552 -2.6948  0.7856  0.2896
 6615SOL    HW231305   0.518   2.015   3.629  1.2784 -0.9397 -0.6465
 6616SOL     OW31306   1.887   2.131  11.525  0.5372  0.2237 -0.2842
 6616SOL    HW131307   1.964   2.085  11.494  1.1284  1.3704 -0.5333
 6616SOL    HW231308   1.924   2.182  11.597 -1.1809 -0.2450  0.9232
 6617SOL     OW31309   0.293   4.283   1.914  0.0196  0.7208  0.2501
 6617SOL    HW131310   0.332   4.220   1.974 -1.0156 -1.2631 -1.1588
 6617SOL    HW231311   0.226   4.315   1.975  1.1712  3.2751  0.1677
 6618SOL     OW31312   1.137   2.429   4.695 -0.0143 -0.0587 -0.4708
 6618SOL    HW131313   1.226   2.394   4.701  0.2046  0.3255 -1.5340
 6618SOL    HW231314   1.074   2.375   4.743  0.7702 -2.3329 -2.0296
 6619SOL     OW31315   2.038   0.017   0.621  0.2341  0.1225 -0.0588
 6619SOL    HW131316   2.046   0.110   0.644  1.3242 -0.2594  1.0962
 6619SOL    HW231317   2.042   4.698   0.707 -2.7607  3.8893  1.9912
 6620SOL     OW31318   4.085   0.027   4.387  0.1161  0.1596 -0.1817
 6620SOL    HW131319   4.062   0.119   4.384  1.9876  0.6040 -1.1615
 6620SOL    HW231320   4.000   4.707   4.383 -0.0885  0.6521 -1.1441
 6621SOL     OW31321   2.764   3.025  12.516 -0.2006 -0.5234  0.3321
 6621SOL    HW131322   2.735   3.060  12.431 -1.5229 -1.1831  0.5141
 6621SOL    HW231323   2.753   3.103  12.570 -1.0127  0.3357 -1.0590
 6622SOL     OW31324   0.443   0.532   8.851  0.2939  0.6497 -0.0003
 6622SOL    HW131325   0.523   0.512   8.801  0.3331 -1.1394  0.7626
 6622SOL    HW231326   0.473   0.601   8.910  1.7862  0.5884 -0.6672
 6623SOL     OW31327   3.181   2.153  15.369 -0.1738 -0.1204 -0.2265
 6623SOL    HW131328   3.153   2.079  15.315  1.8529  0.4834 -2.1169
 6623SOL    HW231329   3.270   2.177  15.343  0.3954 -0.2967  1.5289
 6624SOL     OW31330   0.757   4.486  14.401 -0.4620 -0.2121 -0.5117
 6624SOL    HW131331   0.741   4.552  14.469 -0.4162 -1.8552  1.1054
 6624SOL    HW231332   0.851   4.478  14.384  0.3603  1.4202  3.2073
 6625SOL     OW31333   4.235   3.013   8.837 -0.4419 -0.1605  0.0081
 6625SOL    HW131334   4.299   2.981   8.774 -0.0983 -0.1070  0.3324
 6625SOL    HW231335   4.154   3.023   8.787 -0.7616  0.5424  0.6655
 6626SOL     OW31336   3.250   3.111   4.022 -0.0572 -0.0563  0.0112
 6626SOL    HW131337   3.193   3.085   4.094 -1.0367 -1.2367 -1.1909
 6626SOL    HW231338   3.197   3.092   3.944  0.3957  0.3301 -0.3930
 6627SOL     OW31339   4.297   1.372  13.369 -0.1092  0.9532  0.5545
 6627SOL    HW131340   4.262   1.376  13.458 -1.6694  0.1111 -0.0159
 6627SOL    HW231341   4.390   1.390  13.378 -0.5545  2.3055  2.4322
 6628SOL     OW31342   0.999   4.433   2.788 -0.1760 -0.0252  0.5761
 6628SOL    HW131343   0.983   4.344   2.821  0.4622  0.1711  1.4283
 6628SOL    HW231344   1.094   4.436   2.801  0.1748  0.5387 -2.2811
 6629SOL     OW31345   3.450   4.137   8.314 -0.0539  0.1303 -0.5912
 6629SOL    HW131346   3.427   4.132   8.221  0.0441  0.8751 -0.6610
 6629SOL    HW231347   3.369   4.096   8.345 -0.3347  0.7897 -0.4461
 6630SOL     OW31348   3.661   1.955  13.304  0.0164  0.0933  0.3876
 6630SOL    HW131349   3.621   1.919  13.383  1.1998  0.3115  1.0923
 6630SOL    HW231350   3.647   2.048  13.320  3.1062  0.6136  0.0983
 6631SOL     OW31351   1.592   3.210   3.553  0.3000 -0.1226  0.2806
 6631SOL    HW131352   1.666   3.165   3.513 -1.1779 -1.8074 -0.5541
 6631SOL    HW231353   1.629   3.241   3.635 -1.9090 -1.2348  1.7065
 6632SOL     OW31354   4.200   4.058  15.221 -0.2309  0.3480  0.5788
 6632SOL    HW131355   4.280   4.040  15.173  1.6937  0.1467  3.8955
 6632SOL    HW231356   4.154   3.982  15.184  0.6672  0.1739 -0.1840
 6633SOL     OW31357   4.489   3.359   6.206 -0.2957 -0.2755  0.2011
 6633SOL    HW131358   4.458   3.343   6.295 -2.1278 -0.1688 -0.4234
 6633SOL    HW231359   4.555   3.428   6.217 -3.0225  2.5052 -0.9965
 6634SOL     OW31360   0.899   1.713   7.593  0.9793  0.0600  0.1344
 6634SOL    HW131361   0.873   1.774   7.663  2.1052  0.9578 -0.2307
 6634SOL    HW231362   0.826   1.651   7.602  1.0680  0.2205  2.0045
 6635SOL     OW31363   4.148   1.188   1.186 -0.0407  0.6066 -0.0108
 6635SOL    HW131364   4.117   1.266   1.141 -1.5364  0.3242  0.5355
 6635SOL    HW231365   4.176   1.223   1.271  1.9301 -2.5343  0.6213
 6636SOL     OW31366   3.769   4.058  15.934 -0.1295  0.1985  0.2329
 6636SOL    HW131367   3.831   4.111  15.985  1.3930 -1.4639  0.1055
 6636SOL    HW231368   3.723   4.010  16.003  0.5439 -0.0764  0.4962
 6637SOL     OW31369   4.561   3.747   4.611  0.1237 -0.4894 -0.2020
 6637SOL    HW131370   4.611   3.720   4.533  1.8087  0.9190  0.3790
 6637SOL    HW231371   4.526   3.824   4.567  1.2039  0.2518  0.2306
 6638SOL     OW31372   3.686   2.882   3.950 -0.3335  0.3011  0.0843
 6638SOL    HW131373   3.695   2.938   3.873 -0.2100 -0.8445 -0.7482
 6638SOL    HW231374   3.627   2.933   4.005 -0.3970 -0.9667  1.1826
 6639SOL     OW31375   0.636   2.640   6.329  0.1559 -0.0354  0.4656
 6639SOL    HW131376   0.707   2.646   6.393  0.6008 -0.8309  0.0341
 6639SOL    HW231377   0.661   2.715   6.274 -0.2751 -0.9403 -0.9561
 6640SOL     OW31378   1.795   3.348  16.521  0.2375 -0.0660 -0.1181
 6640SOL    HW131379   1.712   3.310  16.548  0.4670  0.2939  1.1072
 6640SOL    HW231380   1.825   3.370  16.609 -1.1946 -0.2244  0.3934
 6641SOL     OW31381   0.325   4.453   5.491  0.1350 -0.3376 -0.3729
 6641SOL    HW131382   0.252   4.447   5.552 -0.0902 -0.8782 -0.6978
 6641SOL    HW231383   0.324   4.379   5.430  0.3067  0.3841 -1.2447
 6642SOL     OW31384   1.552   4.137   7.744 -0.1242  0.4898 -0.4743
 6642SOL    HW131385   1.583   4.147   7.834  0.5880 -2.5485 -0.3492
 6642SOL    HW231386   1.628   4.092   7.707  1.1114  2.1698  0.0451
 6643SOL     OW31387   1.453   0.504   8.093 -0.7975 -0.0403  0.0899
 6643SOL    HW131388   1.418   0.432   8.040 -0.7802 -1.8664  2.5706
 6643SOL    HW231389   1.489   0.560   8.024 -1.4663  4.2670  3.2559
 6644SOL     OW31390   0.146   3.569   5.067 -0.4485  0.3513  0.4173
 6644SOL    HW131391   0.235   3.588   5.037  0.0628 -1.1587  0.9785
 6644SOL    HW231392   0.121   3.654   5.103  2.2730  0.8806  1.0428
 6645SOL     OW31393   0.405   0.250   0.515 -0.0107 -0.2709 -0.3902
 6645SOL    HW131394   0.433   0.161   0.532 -1.2441 -0.4446  0.7410
 6645SOL    HW231395   0.371   0.242   0.425 -1.6220 -1.3131  0.3113
 6646SOL     OW31396   3.958   0.406   7.370 -0.2923  0.2399 -0.2881
 6646SOL    HW131397   3.951   0.321   7.326 -0.1348  0.9261 -1.6379
 6646SOL    HW231398   3.960   0.460   7.291  0.7888 -1.1075 -1.1730
 6647SOL     OW31399   3.836   3.719   1.043 -0.1291  0.9147  0.1294
 6647SOL    HW131400   3.867   3.628   1.037 -1.2081  0.4406  1.6205
 6647SOL    HW231401   3.799   3.739   0.958 -1.6864 -0.0719  0.5829
 6648SOL     OW31402   2.854   2.381  11.378  0.2820 -0.3166 -0.7853
 6648SOL    HW131403   2.929   2.322  11.379 -0.0333 -0.5588  4.3609
 6648SOL    HW231404   2.883   2.451  11.320  0.4049 -0.0081 -0.3476
 6649SOL     OW31405   2.723   1.540   4.428 -0.4443  0.1035 -0.4279
 6649SOL    HW131406   2.693   1.458   4.389  0.6211  0.1507 -1.3779
 6649SOL    HW231407   2.818   1.528   4.433 -0.0562  2.8845 -0.9769
 6650SOL     OW31408   2.884   4.459   4.026  0.0943 -0.1653 -0.3901
 6650SOL    HW131409   2.801   4.417   4.049  0.4064 -0.7284 -0.2711
 6650SOL    HW231410   2.932   4.400   3.968  3.5740  1.4347  0.8586
 6651SOL     OW31411   4.289   1.557   3.566  0.5504 -0.0046  0.3571
 6651SOL    HW131412   4.205   1.565   3.521  1.3630 -1.5354 -1.4485
 6651SOL    HW231413   4.288   1.643   3.606  0.7957 -0.1782  0.7345
 6652SOL     OW31414   2.793   1.703   4.087  0.4563 -0.0646 -0.1549
 6652SOL    HW131415   2.767   1.754   4.011 -2.2879  1.5273  1.8559
 6652SOL    HW231416   2.887   1.724   4.092 -0.3508  3.7446 -0.6902
 6653SOL     OW31417   0.938   1.179   2.127 -0.5286 -0.2862  0.2470
 6653SOL    HW131418   0.969   1.234   2.199  0.3042 -2.8218  1.8177
 6653SOL    HW231419   0.968   1.089   2.143  1.2757  0.2382 -0.1338
 6654SOL     OW31420   0.939   2.474   7.371  0.1434  0.0672  0.3020
 6654SOL    HW131421   0.894   2.390   7.384 -2.1762  1.3320  0.3154
 6654SOL    HW231422   1.030   2.449   7.353  0.7107  0.0941  3.2328
 6655SOL     OW31423   4.532   4.302   5.364 -0.0033 -0.2716  0.8300
 6655SOL    HW131424   4.518   4.307   5.270  0.4161  4.1697  0.9725
 6655SOL    HW231425   4.611   4.250   5.379 -0.3270 -1.8523 -3.0870
 6656SOL     OW31426   1.349   2.955   5.989  0.6891  0.4239 -0.6945
 6656SOL    HW131427   1.318   3.036   6.030  1.3262  0.6931 -0.7450
 6656SOL    HW231428   1.430   2.981   5.947  1.2237 -0.2001 -0.0555
 6657SOL     OW31429   2.114   3.986  10.516  0.1471  0.4211  0.1281
 6657SOL    HW131430   2.188   3.968  10.458 -0.3227  0.1378 -0.3803
 6657SOL    HW231431   2.154   4.056  10.568 -0.1073  0.0213  0.8632
 6658SOL     OW31432   4.615   2.204  11.300 -0.2540  0.1088  0.2009
 6658SOL    HW131433   4.554   2.278  11.304  0.9085  1.0190  0.7857
 6658SOL    HW231434   4.596   2.172  11.212 -3.5981 -0.4510  1.1003
 6659SOL     OW31435   1.095   3.989   8.098 -0.2546  0.0533 -0.3493
 6659SOL    HW131436   1.023   4.051   8.114 -1.0262 -0.9300  0.0068
 6659SOL    HW231437   1.153   4.043   8.045 -2.0617 -1.0627 -3.4491
 6660SOL     OW31438   0.160   0.513   6.194 -0.0283 -0.3603  0.3210
 6660SOL    HW131439   0.140   0.510   6.288 -0.4376  0.2402  0.2541
 6660SOL    HW231440   0.075   0.532   6.155  0.3445  1.4133  0.3560
 6661SOL     OW31441   2.948   4.316   9.837  0.8508 -0.3669 -0.3286
 6661SOL    HW131442   2.977   4.346   9.923  2.0558  0.8143 -1.1445
 6661SOL    HW231443   3.007   4.368   9.783  0.8786  0.6364  0.6750
 6662SOL     OW31444   4.536   4.603  17.586  0.3813 -0.8790  0.5967
 6662SOL    HW131445   4.612   4.634  17.636  0.7423 -1.1445  0.2106
 6662SOL    HW231446   4.553   4.659  17.510 -2.5046  1.2300  1.5213
 6663SOL     OW31447   0.616   2.543  14.385  0.4971 -0.2789  0.4513
 6663SOL    HW131448   0.576   2.630  14.394  0.8652 -0.0715  0.0714
 6663SOL    HW231449   0.565   2.505  14.457 -2.6840 -1.0448 -2.2248
 6664SOL     OW31450   3.313   2.080   7.955  0.3806  0.1134  0.3806
 6664SOL    HW131451   3.315   2.029   8.036 -0.5589 -1.0467 -0.3199
 6664SOL    HW231452   3.334   2.011   7.893 -0.9900 -0.1458  0.1983
 6665SOL     OW31453   2.763   1.238  11.924 -0.5385 -0.4986 -0.4233
 6665SOL    HW131454   2.837   1.296  11.936  0.5570 -1.8844 -0.4861
 6665SOL    HW231455   2.768   1.175  11.996 -2.2531 -0.9735 -0.7113
 6666SOL     OW31456   2.582   2.777  11.250 -0.3957  0.3523 -0.2542
 6666SOL    HW131457   2.544   2.754  11.166  0.4279 -0.1254 -0.4915
 6666SOL    HW231458   2.676   2.782  11.237 -0.4768  1.2966 -0.5018
 6667SOL     OW31459   2.894   4.280   7.040  0.0279 -0.0139 -0.9132
 6667SOL    HW131460   2.816   4.223   7.041 -0.4226  0.6405  1.7960
 6667SOL    HW231461   2.861   4.369   7.051 -0.2331 -0.1463 -0.5990
 6668SOL     OW31462   3.852   3.986  17.519  0.1077  0.0719  0.8902
 6668SOL    HW131463   3.839   3.963  17.611  0.9950 -4.0093 -0.0246
 6668SOL    HW231464   3.919   4.055  17.519  1.7923 -1.5673  1.1587
 6669SOL     OW31465   2.772   4.439   4.552  0.3839 -0.1683  0.2051
 6669SOL    HW131466   2.803   4.527   4.531 -3.4488  1.2463  0.6274
 6669SOL    HW231467   2.825   4.396   4.484  2.0247 -1.1193  2.0684
 6670SOL     OW31468   0.148   1.952  10.556  0.2907 -0.1742  0.4357
 6670SOL    HW131469   0.200   1.949  10.475 -0.3548  0.3651 -0.0073
 6670SOL    HW231470   0.133   2.047  10.557 -2.4545 -0.6139  0.5852
 6671SOL     OW31471   0.286   0.781   5.539  0.0809 -0.2309 -0.5250
 6671SOL    HW131472   0.380   0.796   5.541 -0.3468  2.0720  2.8292
 6671SOL    HW231473   0.289   0.703   5.595  1.6099 -0.9346 -1.6240
 6672SOL     OW31474   2.123   1.624  15.012  0.0522  0.6128  0.4530
 6672SOL    HW131475   2.204   1.591  14.975 -1.2839 -0.6019 -1.4183
 6672SOL    HW231476   2.138   1.717  14.992 -0.2256  0.9646  1.8923
 6673SOL     OW31477   3.694   3.001   5.904 -0.0369  0.1484 -0.0174
 6673SOL    HW131478   3.714   3.030   5.993 -0.7728 -1.6159  0.7171
 6673SOL    HW231479   3.759   2.931   5.902  0.7828  0.8562  2.0695
 6674SOL     OW31480   1.427   0.739   8.396  0.8794 -0.0251 -0.5594
 6674SOL    HW131481   1.474   0.817   8.366 -0.8857  0.7328 -1.3351
 6674SOL    HW231482   1.441   0.737   8.491 -0.4033 -0.3085 -0.3865
 6675SOL     OW31483   1.306   0.609   6.623  0.6089  0.0065  0.2785
 6675SOL    HW131484   1.322   0.572   6.710 -0.9797 -0.4546  0.3888
 6675SOL    HW231485   1.275   0.698   6.640  1.9459  0.1737  1.8755
 6676SOL     OW31486   3.127   2.645   5.863 -0.4241 -0.1436  0.8720
 6676SOL    HW131487   3.140   2.739   5.856  2.6310 -0.6654 -0.6555
 6676SOL    HW231488   3.193   2.611   5.802  1.2564 -1.3596  3.3163
 6677SOL     OW31489   0.918   3.206   2.351 -0.5175  0.0531 -0.6341
 6677SOL    HW131490   0.950   3.128   2.307 -0.1886 -1.5971  2.5773
 6677SOL    HW231491   0.950   3.276   2.294 -0.2661  0.6996  0.2910
 6678SOL     OW31492   4.023   2.087   6.920 -0.4036  0.3229 -0.4776
 6678SOL    HW131493   4.015   2.117   7.011  1.8646  0.4880 -0.3464
 6678SOL    HW231494   3.961   2.142   6.872 -0.8971 -1.4557 -1.9095
 6679SOL     OW31495   2.074   3.072   0.215  0.4851  0.1916  0.1944
 6679SOL    HW131496   2.068   3.074   0.310  0.4625 -2.8703  0.2814
 6679SOL    HW231497   2.166   3.061   0.189  0.2720  0.9869 -0.9103
 6680SOL     OW31498   1.235   3.414   3.455  0.2284  0.5915 -0.6539
 6680SOL    HW131499   1.306   3.477   3.462 -0.9720  1.8314  0.2670
 6680SOL    HW231500   1.253   3.404   3.361 -1.6618  0.4149 -1.0007
 6681SOL     OW31501   4.427   3.012   1.266 -0.2673 -0.1649 -0.2863
 6681SOL    HW131502   4.392   3.068   1.336  1.2395  1.1407 -0.6019
 6681SOL    HW231503   4.518   3.038   1.255 -0.7483  1.1044 -1.2553
 6682SOL     OW31504   2.542   3.940   5.323  0.0815  0.0531  0.0075
 6682SOL    HW131505   2.567   3.962   5.233  1.6003  0.8956  0.6416
 6682SOL    HW231506   2.488   4.014   5.350 -1.6308 -1.6218  1.1902
 6683SOL     OW31507   3.875   0.986   8.639 -0.7430 -0.6193 -1.0602
 6683SOL    HW131508   3.921   1.034   8.570  0.5207  1.3536  1.1543
 6683SOL    HW231509   3.866   1.061   8.698 -0.3138 -1.8725  0.5611
 6684SOL     OW31510   3.044   2.471   9.587  0.2700 -0.5435  0.2492
 6684SOL    HW131511   3.126   2.508   9.620 -0.3876  2.2805 -1.2678
 6684SOL    HW231512   3.009   2.442   9.671  0.0947  1.2617  0.7942
 6685SOL     OW31513   0.029   2.729   7.074  0.1643  0.4384 -0.2151
 6685SOL    HW131514   4.682   2.686   7.123  0.5201  1.0001  0.7852
 6685SOL    HW231515   4.705   2.763   6.998  1.6971  2.7532 -0.1355
 6686SOL     OW31516   1.447   3.139   5.541  0.2320  0.4843 -0.8092
 6686SOL    HW131517   1.529   3.163   5.583  0.7572 -0.2453 -1.4277
 6686SOL    HW231518   1.409   3.222   5.512 -0.9922  0.0653 -0.4110
 6687SOL     OW31519   1.763   1.343  14.653  0.3467 -1.1719  0.1301
 6687SOL    HW131520   1.685   1.372  14.605  0.9900  0.4065  0.0377
 6687SOL    HW231521   1.822   1.341  14.578 -0.7505 -2.3244 -0.7171
 6688SOL     OW31522   1.297   1.920   7.731  0.5984  0.3008 -0.2021
 6688SOL    HW131523   1.376   1.874   7.760 -0.6074 -1.2770  0.5804
 6688SOL    HW231524   1.266   1.852   7.672  1.1929 -0.6673  0.6046
 6689SOL     OW31525   1.606   0.640  10.779 -0.4553  0.4696  0.1592
 6689SOL    HW131526   1.678   0.607  10.726 -0.2682  0.4948  0.3944
 6689SOL    HW231527   1.539   0.682  10.725  0.1069 -0.1104 -0.9922
 6690SOL     OW31528   4.269   4.678   8.338 -0.4973  0.2183  0.4113
 6690SOL    HW131529   4.262   4.662   8.433  0.2220 -0.8772  0.2756
 6690SOL    HW231530   4.182   4.710   8.313 -0.8946 -0.5829  0.7284
 6691SOL     OW31531   3.214   1.762   8.905  0.5959 -0.0228  0.3310
 6691SOL    HW131532   3.165   1.684   8.881  1.0889  0.1520 -1.2410
 6691SOL    HW231533   3.228   1.762   9.000 -2.2382  0.6237  0.7421
 6692SOL     OW31534   3.993   0.076  16.707 -0.2019 -0.3222  0.1051
 6692SOL    HW131535   3.958   0.028  16.782 -2.0626  0.9814  0.0568
 6692SOL    HW231536   3.956   0.159  16.737  0.8707  0.4264 -0.6227
 6693SOL     OW31537   4.385   4.076   1.731 -0.1950 -0.6797  0.0672
 6693SOL    HW131538   4.424   4.102   1.648  1.7766  3.2670  2.2029
 6693SOL    HW231539   4.456   4.093   1.794  0.5178 -0.5163 -0.7821
 6694SOL     OW31540   2.041   3.796   6.738 -0.5258  0.6545 -0.0707
 6694SOL    HW131541   1.997   3.711   6.735 -0.1124  0.5579 -4.0075
 6694SOL    HW231542   2.017   3.835   6.822  1.8410 -2.3661  2.0175
 6695SOL     OW31543   4.159   3.575   1.314 -0.0187 -0.2376  0.3365
 6695SOL    HW131544   4.253   3.590   1.326  0.2380 -0.5438 -1.2604
 6695SOL    HW231545   4.149   3.602   1.223  0.0152  1.3029  0.7802
 6696SOL     OW31546   2.471   1.944  16.043 -0.1352 -0.3671 -0.6084
 6696SOL    HW131547   2.417   2.004  15.991 -2.2699 -1.0026  0.8563
 6696SOL    HW231548   2.561   1.964  16.018 -0.4729  1.0291 -0.7030
 6697SOL     OW31549   1.917   4.160   1.354  0.5276 -0.2860  0.5029
 6697SOL    HW131550   1.839   4.143   1.301 -0.7816  0.9618  2.0101
 6697SOL    HW231551   1.883   4.144   1.442  0.2108 -0.8882  0.2727
 6698SOL     OW31552   3.648   3.332   3.530 -0.2988 -0.3164  0.8244
 6698SOL    HW131553   3.714   3.347   3.462 -0.6093  0.2545  0.6453
 6698SOL    HW231554   3.662   3.412   3.579  0.4120  1.5165 -2.3488
 6699SOL     OW31555   2.350   4.488   2.334  0.2515 -0.0426  0.1683
 6699SOL    HW131556   2.308   4.428   2.272 -1.8660  0.7423  0.8250
 6699SOL    HW231557   2.343   4.435   2.414 -0.1595  0.4304  0.4466
 6700SOL     OW31558   0.795   1.041  15.805  0.6164 -0.4629  0.0178
 6700SOL    HW131559   0.820   0.973  15.742 -0.9450 -0.5078 -0.5483
 6700SOL    HW231560   0.730   0.992  15.855 -0.0093  0.6554  0.3014
 6701SOL     OW31561   0.025   4.650  17.331  0.3309 -0.9116  0.1420
 6701SOL    HW131562   4.668   4.696  17.308  1.2252  0.9962  0.8786
 6701SOL    HW231563   0.053   4.623  17.243  3.4460 -0.7852  1.1215
 6702SOL     OW31564   1.290   3.962   7.753 -0.6319  0.3570  0.6068
 6702SOL    HW131565   1.319   4.001   7.836 -1.8609  0.5017  0.9727
 6702SOL    HW231566   1.365   3.910   7.724 -0.5072  0.3668  0.9131
 6703SOL     OW31567   0.025   0.686   7.223  1.0115 -0.0814  0.2721
 6703SOL    HW131568   0.085   0.757   7.200  0.1350  0.3273 -0.8024
 6703SOL    HW231569   4.665   0.731   7.235  0.2579 -0.8149 -2.1219
 6704SOL     OW31570   1.023   3.813  14.926  0.6790  0.2881 -0.3827
 6704SOL    HW131571   0.987   3.826  15.014 -0.0789  1.2935 -0.8388
 6704SOL    HW231572   1.094   3.751  14.942  1.2446  1.3959  1.3845
 6705SOL     OW31573   2.576   1.115  10.557  0.2911 -0.0740  0.0020
 6705SOL    HW131574   2.671   1.126  10.557  0.3978 -1.0404  0.1211
 6705SOL    HW231575   2.567   1.205  10.526 -0.2820 -0.5938 -1.3289
 6706SOL     OW31576   2.860   4.629   8.395 -0.4522 -0.4122 -0.4911
 6706SOL    HW131577   2.851   4.626   8.300  1.7121 -0.6498 -0.6974
 6706SOL    HW231578   2.807   4.552   8.413  0.0450 -0.3541  1.1742
 6707SOL     OW31579   2.394   2.233  15.277 -0.4629  0.2293  0.0439
 6707SOL    HW131580   2.354   2.312  15.240  0.1423  1.0278  1.0934
 6707SOL    HW231581   2.361   2.155  15.233  1.2081  0.8036 -2.2151
 6708SOL     OW31582   3.149   2.733   5.344 -0.1026 -0.2599  0.6916
 6708SOL    HW131583   3.116   2.814   5.382 -1.1341  0.0314 -0.7853
 6708SOL    HW231584   3.135   2.665   5.410  0.5152  0.9658  2.0752
 6709SOL     OW31585   0.399   0.805   8.459 -0.1243 -0.4605  0.3243
 6709SOL    HW131586   0.475   0.747   8.448  0.7743  0.9136 -0.6686
 6709SOL    HW231587   0.412   0.816   8.554 -0.1329  3.1343 -0.0935
 6710SOL     OW31588   1.024   0.934   2.220  0.2167  0.9022 -0.3875
 6710SOL    HW131589   0.956   0.909   2.282  0.1010 -0.8020 -1.1816
 6710SOL    HW231590   1.036   0.843   2.190  0.0195  1.4190 -2.0588
 6711SOL     OW31591   3.885   3.535   5.185 -0.1033 -0.7970  0.3094
 6711SOL    HW131592   3.917   3.518   5.097 -0.3555  0.7642 -0.0818
 6711SOL    HW231593   3.950   3.475   5.220  0.6282 -0.0097  0.2820
 6712SOL     OW31594   1.648   1.197   8.239 -0.3268 -0.2033 -0.4568
 6712SOL    HW131595   1.600   1.186   8.156 -1.1600 -1.3994  0.1842
 6712SOL    HW231596   1.609   1.278   8.271  0.8598 -0.0007  0.4918
 6713SOL     OW31597   3.239   0.726   4.699 -0.0633 -0.7176  0.0593
 6713SOL    HW131598   3.250   0.696   4.789  3.0344  3.2377  0.9714
 6713SOL    HW231599   3.149   0.759   4.703 -0.4526 -1.8862  1.1128
 6714SOL     OW31600   3.180   3.757   2.727 -0.1277 -0.4189 -0.0122
 6714SOL    HW131601   3.147   3.679   2.682  0.0823 -0.1201 -0.6924
 6714SOL    HW231602   3.233   3.800   2.660  1.4840 -0.6987  1.0979
 6715SOL     OW31603   4.535   2.336   5.146 -0.1922  0.0711  0.6252
 6715SOL    HW131604   4.558   2.254   5.102 -1.1900  0.6358 -0.9292
 6715SOL    HW231605   4.622   2.371   5.163  0.0561 -0.9623  1.5082
 6716SOL     OW31606   1.631   0.431  16.446  0.5163 -0.1914  0.0849
 6716SOL    HW131607   1.575   0.502  16.478  0.4159 -1.1812  2.1119
 6716SOL    HW231608   1.646   0.477  16.363 -2.3974  0.5322 -0.0601
 6717SOL     OW31609   3.425   1.151  16.884  0.2753 -0.1104 -0.5491
 6717SOL    HW131610   3.344   1.161  16.835  0.2055  1.9509 -0.0518
 6717SOL    HW231611   3.386   1.129  16.969 -1.1714 -0.6147 -1.3546
 6718SOL     OW31612   1.733   0.566   8.982 -0.5936 -0.1415 -0.5919
 6718SOL    HW131613   1.714   0.597   9.071  0.8995 -0.2794 -0.2261
 6718SOL    HW231614   1.772   0.479   8.992  1.0257  0.7793  1.2382
 6719SOL     OW31615   4.286   4.263   7.925  0.0692 -0.1521  0.1092
 6719SOL    HW131616   4.269   4.328   7.993 -0.8743  1.1649 -1.3921
 6719SOL    HW231617   4.338   4.204   7.979 -0.9099 -2.3072 -1.3098
 6720SOL     OW31618   1.165   4.206   5.527  0.4118 -0.3506 -0.1056
 6720SOL    HW131619   1.210   4.259   5.461  0.0095 -0.5955 -0.5810
 6720SOL    HW231620   1.072   4.217   5.508  0.5975 -2.7580 -2.4014
 6721SOL     OW31621   1.627   3.033   5.815 -0.1614 -0.2166 -0.2381
 6721SOL    HW131622   1.641   3.109   5.758  0.8438 -0.9181 -0.9176
 6721SOL    HW231623   1.615   2.958   5.757  0.0725  1.2997 -2.2782
 6722SOL     OW31624   1.084   0.470   0.255 -0.6473  0.1798 -0.3981
 6722SOL    HW131625   1.125   0.537   0.309  0.3005  0.5466 -1.5626
 6722SOL    HW231626   1.009   0.521   0.225  0.0887  1.7705  0.5130
 6723SOL     OW31627   2.629   3.611   3.719 -0.0405 -0.3310 -0.0291
 6723SOL    HW131628   2.595   3.543   3.776 -0.2642  0.0627  0.3004
 6723SOL    HW231629   2.572   3.606   3.642 -0.7171 -2.6208  0.6335
 6724SOL     OW31630   4.615   4.446   0.204  0.5251 -0.3691 -0.3049
 6724SOL    HW131631   4.672   4.504   0.154  2.5345 -2.5124 -0.5225
 6724SOL    HW231632   4.659   4.365   0.176  1.0383 -0.2345  0.1072
 6725SOL     OW31633   3.185   2.367  12.058 -0.4721 -0.9888 -0.5716
 6725SOL    HW131634   3.217   2.392  11.971 -1.8177  0.3413 -0.6928
 6725SOL    HW231635   3.093   2.388  12.042 -0.2192  0.1815 -0.4767
 6726SOL     OW31636   0.973   2.094  11.425  0.1747 -0.4475  0.6696
 6726SOL    HW131637   1.069   2.091  11.431  0.0567  1.4379  3.2506
 6726SOL    HW231638   0.952   2.002  11.443 -3.8364  0.4028  0.3400
 6727SOL     OW31639   1.604   4.063   9.836  0.4508  0.0792  0.2982
 6727SOL    HW131640   1.634   4.091   9.923 -3.3527  2.0751  0.9613
 6727SOL    HW231641   1.561   4.142   9.804 -1.0185 -0.8536 -0.0232
 6728SOL     OW31642   4.155   3.549  17.040  0.1211  0.6288  0.2050
 6728SOL    HW131643   4.158   3.508  16.953  2.0370  1.0038  0.0795
 6728SOL    HW231644   4.150   3.466  17.087  0.0425  0.3309 -0.3195
 6729SOL     OW31645   3.712   0.744   3.411  0.1898 -0.3529 -0.2673
 6729SOL    HW131646   3.697   0.674   3.348  1.7988 -0.2289 -0.7983
 6729SOL    HW231647   3.652   0.731   3.484  0.2013 -2.1874 -0.5726
 6730SOL     OW31648   3.705   3.196   4.917  0.1751  0.1519  0.0523
 6730SOL    HW131649   3.791   3.231   4.939  0.6137 -0.3958 -0.7841
 6730SOL    HW231650   3.692   3.115   4.967  1.1559  0.7560  1.2907
 6731SOL     OW31651   0.778   4.533   7.393 -0.6340  0.0987  0.0819
 6731SOL    HW131652   0.688   4.545   7.424 -0.5406  1.2344 -0.0805
 6731SOL    HW231653   0.761   4.523   7.299  0.2813 -1.2832  0.0706
 6732SOL     OW31654   0.775   3.262  10.340  0.1225  0.4380  0.1491
 6732SOL    HW131655   0.772   3.222  10.253  1.5784  0.4770  0.0815
 6732SOL    HW231656   0.718   3.339  10.333 -0.1017  0.2837  0.2446
 6733SOL     OW31657   0.327   3.484  10.580  0.5694 -0.4913 -0.1694
 6733SOL    HW131658   0.293   3.551  10.521  0.6366 -1.1990 -1.0064
 6733SOL    HW231659   0.274   3.493  10.660  1.5932  1.9375  0.2360
 6734SOL     OW31660   3.825   4.641   8.908  0.4982  0.9726 -0.9038
 6734SOL    HW131661   3.810   4.560   8.860 -1.0291  0.7921 -0.1254
 6734SOL    HW231662   3.846   4.608   8.995 -2.5565  0.6886 -0.2737
 6735SOL     OW31663   3.263   3.207   1.808 -0.3258 -0.3009 -0.2838
 6735SOL    HW131664   3.246   3.254   1.726  0.2044 -0.4824 -0.5011
 6735SOL    HW231665   3.211   3.130   1.786 -0.3963 -0.4503  0.4359
 6736SOL     OW31666   2.150   0.184   5.830 -0.1263  0.0835 -0.6562
 6736SOL    HW131667   2.210   0.232   5.887  0.1073 -0.4305 -0.4763
 6736SOL    HW231668   2.107   0.256   5.784 -4.3972 -2.1725 -0.1740
 6737SOL     OW31669   0.714   1.209   9.120 -0.0168  0.5400 -0.1243
 6737SOL    HW131670   0.780   1.148   9.153 -0.4185  0.4183  0.4773
 6737SOL    HW231671   0.777   1.278   9.104  0.9317 -0.7057 -1.7281
 6738SOL     OW31672   3.569   0.881   3.040 -0.1110  0.6899  0.0274
 6738SOL    HW131673   3.545   0.885   3.133 -0.0594  0.1727  0.0649
 6738SOL    HW231674   3.649   0.933   3.029  1.1346 -1.3006 -0.4322
 6739SOL     OW31675   1.055   3.676  13.889  0.3979  0.1353 -0.5817
 6739SOL    HW131676   1.091   3.747  13.943  0.1395  0.2529 -0.5670
 6739SOL    HW231677   1.133   3.644  13.843  0.9057  1.0487 -0.3688
 6740SOL     OW31678   3.910   0.247   5.261  1.0660  0.7186  0.8641
 6740SOL    HW131679   3.971   0.317   5.284  1.2713  0.9798 -0.4371
 6740SOL    HW231680   3.980   0.186   5.239  0.6008  0.3207  0.4809
 6741SOL     OW31681   0.535   1.187   1.909  0.6320 -0.3554  0.0617
 6741SOL    HW131682   0.450   1.150   1.886 -0.6745  1.7262  1.5157
 6741SOL    HW231683   0.545   1.160   2.001 -0.7151  1.0734  0.6477
 6742SOL     OW31684   4.534   0.634   8.866 -0.0190  0.0249 -0.1866
 6742SOL    HW131685   4.603   0.697   8.886 -0.5472  0.6179 -0.2104
 6742SOL    HW231686   4.471   0.637   8.937  1.7272 -0.6378  1.3726
 6743SOL     OW31687   1.932   1.561   4.001  0.0915 -1.0891  0.3824
 6743SOL    HW131688   1.927   1.600   4.089 -0.3447 -0.1410 -0.0584
 6743SOL    HW231689   1.846   1.581   3.964  0.4758  0.4452  0.3123
 6744SOL     OW31690   4.603   1.733   4.688 -0.5397  0.2150  0.2653
 6744SOL    HW131691   4.664   1.707   4.618  0.1288  3.0946 -0.2224
 6744SOL    HW231692   4.556   1.800   4.638  2.0241  1.1502 -0.8841
 6745SOL     OW31693   2.010   3.994  13.351 -0.5650  0.0519 -0.0371
 6745SOL    HW131694   2.029   4.000  13.445  1.8102 -4.0223 -0.2414
 6745SOL    HW231695   2.082   4.046  13.316  0.9463 -1.1148  1.3144
 6746SOL     OW31696   3.723   3.443   6.676  0.2389 -0.1583  0.7420
 6746SOL    HW131697   3.778   3.399   6.741  1.6347 -0.4471 -0.6302
 6746SOL    HW231698   3.792   3.505   6.652  0.3923 -0.5140  0.2600
 6747SOL     OW31699   1.488   4.704  16.566  0.2197 -0.5218  0.1595
 6747SOL    HW131700   1.549   4.700  16.493  1.7566 -2.8919  1.5934
 6747SOL    HW231701   1.497   0.072  16.590 -1.5863 -0.3586  0.2233
 6748SOL     OW31702   2.572   2.442   7.451 -0.5305  0.3737  0.2085
 6748SOL    HW131703   2.570   2.411   7.541  1.4379 -1.4240 -0.3602
 6748SOL    HW231704   2.509   2.513   7.438 -1.6399 -1.0149 -1.9928
 6749SOL     OW31705   3.382   1.553   3.278 -0.1614 -0.0074 -0.4201
 6749SOL    HW131706   3.336   1.473   3.301  1.2176 -0.4962  0.6688
 6749SOL    HW231707   3.453   1.525   3.220 -0.4467 -0.5247 -0.5182
 6750SOL     OW31708   3.422   4.604   5.966  0.0193  0.5460 -0.5920
 6750SOL    HW131709   3.460   4.681   6.009 -1.2746  0.2097  1.1376
 6750SOL    HW231710   3.496   4.574   5.913 -0.0115 -0.2905 -0.1532
 6751SOL     OW31711   0.740   1.342   6.826  0.0423  0.3992 -0.3881
 6751SOL    HW131712   0.830   1.372   6.812 -0.0142  1.0612  0.6346
 6751SOL    HW231713   0.750   1.255   6.788 -1.2374  0.1603 -0.1960
 6752SOL     OW31714   2.084   4.052   8.133  0.1036  0.7181  0.0680
 6752SOL    HW131715   2.088   4.004   8.050  4.6471  1.1767  0.0696
 6752SOL    HW231716   2.150   4.120   8.122 -0.4613  1.3238  0.4198
 6753SOL     OW31717   4.292   1.877   9.605  0.0128  0.2761 -0.7287
 6753SOL    HW131718   4.212   1.929   9.613 -0.1562  0.3785 -3.1498
 6753SOL    HW231719   4.332   1.946   9.551  0.2271  0.1085 -0.7821
 6754SOL     OW31720   4.515   4.264  12.651 -0.1738  0.4143  0.3114
 6754SOL    HW131721   4.503   4.196  12.717  1.9922  0.1539  0.4565
 6754SOL    HW231722   4.441   4.232  12.599  0.4200  3.1868 -2.2028
 6755SOL     OW31723   3.837   0.309  17.379  0.4028 -0.2378  0.6324
 6755SOL    HW131724   3.788   0.392  17.376  0.0957 -0.4116  0.8590
 6755SOL    HW231725   3.779   0.251  17.427 -0.3245 -0.1214 -0.1028
 6756SOL     OW31726   1.981   3.297  10.573  0.1817 -0.8086  0.2287
 6756SOL    HW131727   1.970   3.205  10.549  0.1631 -0.2986 -1.7281
 6756SOL    HW231728   1.915   3.300  10.642 -1.2889 -1.6797 -1.1118
 6757SOL     OW31729   0.355   0.289   4.020 -0.0737 -0.6358  0.0037
 6757SOL    HW131730   0.298   0.344   3.965  1.8792  0.2304 -1.1624
 6757SOL    HW231731   0.338   0.334   4.103 -2.6497 -0.9126 -0.3898
 6758SOL     OW31732   3.921   4.113   7.252 -0.1854 -0.3625  0.2112
 6758SOL    HW131733   3.892   4.193   7.297 -0.7811  0.4536 -1.6310
 6758SOL    HW231734   3.993   4.135   7.193  1.4032 -0.7007  2.0273
 6759SOL     OW31735   3.587   0.034   6.642 -0.0698  0.0200 -0.1946
 6759SOL    HW131736   3.564   0.070   6.727 -2.9816  0.9822 -1.3845
 6759SOL    HW231737   3.678   0.065   6.649  0.5481 -1.2554 -2.3161
 6760SOL     OW31738   0.664   3.514   3.555  0.6070  0.3679  0.4686
 6760SOL    HW131739   0.600   3.561   3.501 -1.6079 -2.8453  0.3202
 6760SOL    HW231740   0.673   3.434   3.505  2.8834 -1.7735  4.2856
 6761SOL     OW31741   4.032   3.422  13.081 -0.4613  0.0388 -0.3131
 6761SOL    HW131742   3.942   3.407  13.050 -0.8454 -0.9489  1.3139
 6761SOL    HW231743   4.072   3.344  13.043 -0.0059 -0.0504  0.3627
 6762SOL     OW31744   0.223   2.360   4.601 -0.5967 -0.3913 -0.2278
 6762SOL    HW131745   0.295   2.336   4.543  0.6200  0.0712  1.0944
 6762SOL    HW231746   0.271   2.404   4.672  0.6789  0.1456 -1.4216
 6763SOL     OW31747   1.889   1.282  13.457  0.7218  0.7088  0.1100
 6763SOL    HW131748   1.934   1.362  13.429  1.1699  0.2562 -0.4525
 6763SOL    HW231749   1.946   1.258  13.529 -0.4168 -1.6590  0.2281
 6764SOL     OW31750   0.186   3.104   7.503 -0.4939 -0.4781 -0.2566
 6764SOL    HW131751   0.121   3.139   7.444  1.4095  0.6171 -1.6938
 6764SOL    HW231752   0.234   3.048   7.441  0.5427  0.5223 -0.3557
 6765SOL     OW31753   0.803   4.249   5.591 -0.7363  0.3677  0.2563
 6765SOL    HW131754   0.819   4.259   5.498 -0.9755 -1.6531 -0.0118
 6765SOL    HW231755   0.844   4.329   5.624 -0.2400  0.5814 -0.9153
 6766SOL     OW31756   3.156   0.327   6.959  0.3852 -0.3298  0.1351
 6766SOL    HW131757   3.145   0.240   6.921  1.2710 -0.4365  0.1348
 6766SOL    HW231758   3.084   0.321   7.021  0.1138  0.2984 -0.1161
 6767SOL     OW31759   2.706   2.529   2.921  0.1820 -0.2421  0.0243
 6767SOL    HW131760   2.666   2.450   2.885  0.1457  0.0983 -0.6839
 6767SOL    HW231761   2.766   2.548   2.849  1.2987  2.0526  1.5504
 6768SOL     OW31762   2.148   3.292  12.474  0.4138 -0.3285  0.0182
 6768SOL    HW131763   2.232   3.319  12.513  0.7938  0.0245 -1.0340
 6768SOL    HW231764   2.103   3.375  12.460 -0.1175 -0.5738  0.3126
 6769SOL     OW31765   4.300   1.796  17.658  0.4190 -0.3688  0.2694
 6769SOL    HW131766   4.384   1.840  17.642 -0.9504  1.7899 -1.0672
 6769SOL    HW231767   4.318   1.744   0.039 -0.0629 -0.6537  0.1894
 6770SOL     OW31768   3.003   4.448   3.280 -0.3604  0.0610  0.2865
 6770SOL    HW131769   3.076   4.394   3.250  0.4898  0.6305  1.3248
 6770SOL    HW231770   2.966   4.466   3.194 -1.6359 -1.5741  0.5050
 6771SOL     OW31771   4.587   0.585   2.200  0.0944 -0.1804  0.0627
 6771SOL    HW131772   4.596   0.567   2.106  1.5638  2.2314 -0.2704
 6771SOL    HW231773   4.513   0.646   2.203 -0.1672 -0.5578  1.1097
 6772SOL     OW31774   0.443   3.455   4.988 -0.3525  0.5903  0.1154
 6772SOL    HW131775   0.378   3.385   4.989  1.3548 -0.9892  0.4093
 6772SOL    HW231776   0.396   3.521   4.937 -3.0813 -1.1727  0.3364
 6773SOL     OW31777   4.705   3.508  15.663 -0.2241 -0.1185 -0.3707
 6773SOL    HW131778   0.066   3.544  15.639  1.7640 -4.5074  0.0312
 6773SOL    HW231779   4.650   3.542  15.593  0.7336 -1.5467 -1.7940
 6774SOL     OW31780   4.212   3.806   7.664 -0.0101 -0.0012  0.1889
 6774SOL    HW131781   4.208   3.753   7.585 -0.5402 -1.5339  1.2479
 6774SOL    HW231782   4.295   3.850   7.645  0.3323 -0.5646  0.4078
 6775SOL     OW31783   2.183   4.392   7.843 -0.4122 -0.1212  0.5609
 6775SOL    HW131784   2.225   4.380   7.929  1.3319  2.7329  0.1145
 6775SOL    HW231785   2.230   4.472   7.818  3.2533 -3.1436 -2.3053
 6776SOL     OW31786   3.587   3.464   6.128 -0.2939 -0.4887 -0.7618
 6776SOL    HW131787   3.617   3.511   6.206  0.4384 -1.5959 -0.3615
 6776SOL    HW231788   3.501   3.432   6.156 -0.5987 -1.9133 -3.3328
 6777SOL     OW31789   2.133   0.285   8.780  0.2314 -0.4655  0.2768
 6777SOL    HW131790   2.228   0.273   8.783  0.2676  0.4673  3.6077
 6777SOL    HW231791   2.106   0.194   8.792 -0.1105 -0.4806 -0.6420
 6778SOL     OW31792   2.412   1.464   8.437  0.0784  0.3647  0.1208
 6778SOL    HW131793   2.402   1.369   8.442  1.8777  0.1813  0.2053
 6778SOL    HW231794   2.327   1.498   8.466 -0.3515 -0.6926  0.1410
 6779SOL     OW31795   3.376   3.211   6.761 -0.0935 -0.4993  0.0293
 6779SOL    HW131796   3.436   3.187   6.831 -0.7251 -0.4017  0.6080
 6779SOL    HW231797   3.291   3.177   6.788 -0.4510 -0.2850 -0.8291
 6780SOL     OW31798   1.546   3.055   9.199 -0.0457  0.4775  0.1997
 6780SOL    HW131799   1.564   3.051   9.293  0.8241  0.2442  0.0262
 6780SOL    HW231800   1.631   3.024   9.167 -2.0005 -3.8527 -0.8549
 6781SOL     OW31801   3.015   2.679   6.294 -0.3052  0.3562 -0.5167
 6781SOL    HW131802   2.970   2.761   6.314 -0.6861  0.1712 -0.6115
 6781SOL    HW231803   2.993   2.626   6.371  1.2220  1.8845  0.9598
 6782SOL     OW31804   3.954   2.086  17.619 -0.3057  0.2266 -0.7745
 6782SOL    HW131805   3.934   2.166  17.668 -0.3135 -0.7048  0.7427
 6782SOL    HW231806   3.992   2.128  17.542 -0.6051 -0.5267 -1.3411
 6783SOL     OW31807   3.879   4.334   7.418 -0.4720 -0.4383  0.4054
 6783SOL    HW131808   3.956   4.369   7.372 -0.5097  1.0006  1.4504
 6783SOL    HW231809   3.873   4.392   7.493 -1.1462 -1.0091  0.7874
 6784SOL     OW31810   0.512   2.518  15.359  0.5394  0.1521 -0.1710
 6784SOL    HW131811   0.481   2.557  15.278 -0.0954  2.0270  0.9726
 6784SOL    HW231812   0.605   2.524  15.340  0.3888  1.7893 -0.3778
 6785SOL     OW31813   0.693   4.289   1.199  0.0989  0.1692 -0.0718
 6785SOL    HW131814   0.653   4.263   1.283 -2.6381 -1.0041 -1.7199
 6785SOL    HW231815   0.771   4.336   1.229 -1.7354  2.4594  1.1191
 6786SOL     OW31816   3.090   2.443   6.086 -0.0117  0.0235 -0.4155
 6786SOL    HW131817   3.045   2.519   6.122 -1.7717 -0.7690 -0.9758
 6786SOL    HW231818   3.181   2.470   6.097 -0.1249 -0.0949  0.8713
 6787SOL     OW31819   1.686   4.333   3.098 -0.4307  0.6235 -0.5277
 6787SOL    HW131820   1.727   4.347   3.183 -0.5258  0.2232 -0.4123
 6787SOL    HW231821   1.718   4.247   3.069 -3.8602 -1.2031  1.0664
 6788SOL     OW31822   1.847   4.526  11.128 -0.0856  0.3522  0.1641
 6788SOL    HW131823   1.935   4.521  11.092 -1.0368 -0.8740 -1.9680
 6788SOL    HW231824   1.811   4.605  11.087 -0.4767  0.8001  1.3851
 6789SOL     OW31825   3.001   1.849   3.403 -0.2561 -0.5049 -0.8275
 6789SOL    HW131826   3.062   1.894   3.461 -1.2861  0.1288 -0.2342
 6789SOL    HW231827   3.059   1.801   3.344  1.0631  0.2384 -0.1449
 6790SOL     OW31828   3.114   3.957   2.383  0.1677 -0.1951  0.2207
 6790SOL    HW131829   3.052   3.885   2.368 -0.8190  0.6065  0.5027
 6790SOL    HW231830   3.110   4.003   2.299 -0.5672 -2.5991 -1.0759
 6791SOL     OW31831   0.619   0.456  14.883 -0.1865  0.5432 -0.4976
 6791SOL    HW131832   0.652   0.544  14.865  0.9900 -0.4737 -3.2809
 6791SOL    HW231833   0.618   0.465  14.979  1.8050  1.9398 -0.6150
 6792SOL     OW31834   2.485   0.505   2.616  0.0216 -0.2906  0.2950
 6792SOL    HW131835   2.505   0.490   2.524  2.3930 -0.7663  0.8965
 6792SOL    HW231836   2.548   0.452   2.665 -1.2136 -0.8296  1.3063
 6793SOL     OW31837   0.126   3.593   4.566 -0.3451  0.1719  0.2172
 6793SOL    HW131838   0.164   3.618   4.482 -0.7793 -1.1651 -0.3762
 6793SOL    HW231839   0.125   3.673   4.617  1.1985 -0.4762  1.2688
 6794SOL     OW31840   2.417   2.722   4.010  0.1732  0.0563 -0.2539
 6794SOL    HW131841   2.362   2.801   4.004 -0.8657 -0.5192  1.7247
 6794SOL    HW231842   2.504   2.761   4.003 -0.6996  2.0127 -0.0834
 6795SOL     OW31843   0.751   0.962  13.198  0.3338  0.4137 -0.1532
 6795SOL    HW131844   0.717   0.874  13.211 -2.8428  1.6157 -0.0459
 6795SOL    HW231845   0.692   0.983  13.125  0.7262 -0.1794 -0.6313
 6796SOL     OW31846   1.782   2.251  11.256 -0.3594 -0.5635 -0.1004
 6796SOL    HW131847   1.824   2.181  11.306 -0.1082  0.2523  0.8205
 6796SOL    HW231848   1.743   2.297  11.330  1.7176 -1.7708  1.7469
 6797SOL     OW31849   2.035   1.206  13.667  0.3667  0.1123  0.2899
 6797SOL    HW131850   2.105   1.142  13.679 -0.1399 -0.8786 -1.9581
 6797SOL    HW231851   1.973   1.180  13.734  1.7206  0.3690  1.6318
 6798SOL     OW31852   1.043   1.542  13.381  0.6960 -0.0156 -0.7200
 6798SOL    HW131853   1.116   1.500  13.334  0.5598  0.8459 -1.6941
 6798SOL    HW231854   1.050   1.507  13.470 -1.2242 -0.3768 -0.7066
 6799SOL     OW31855   1.743   2.970   3.761  0.5815 -0.3800 -0.4318
 6799SOL    HW131856   1.650   2.963   3.742 -0.2279 -1.1487  3.8950
 6799SOL    HW231857   1.739   3.009   3.848 -1.3257 -0.8349 -0.3331
 6800SOL     OW31858   4.464   3.615  10.998 -0.3062 -0.2865  0.2733
 6800SOL    HW131859   4.513   3.697  10.998 -1.5460  0.4634  0.0485
 6800SOL    HW231860   4.397   3.640  10.934 -0.7876  0.5165  1.0897
 6801SOL     OW31861   3.051   3.041  12.889  0.8306 -0.1853  0.3908
 6801SOL    HW131862   2.995   3.117  12.872 -1.5904 -1.9263  0.4772
 6801SOL    HW231863   3.121   3.075  12.945  0.6355 -2.1182  1.8097
 6802SOL     OW31864   0.159   2.250   2.869 -0.1852 -0.8007 -0.4257
 6802SOL    HW131865   0.224   2.214   2.809  1.4067  0.0748  0.7582
 6802SOL    HW231866   0.092   2.183   2.874 -0.9016 -0.1409 -1.2036
 6803SOL     OW31867   1.199   4.365  10.281 -0.4697  0.6329 -0.0280
 6803SOL    HW131868   1.112   4.342  10.249 -0.2877  0.3972 -0.3540
 6803SOL    HW231869   1.195   4.334  10.372 -1.5589 -1.4498 -0.7750
 6804SOL     OW31870   0.796   2.140   6.644 -0.2282 -0.8351 -0.2978
 6804SOL    HW131871   0.887   2.169   6.637 -1.0316  1.4439 -1.3273
 6804SOL    HW231872   0.774   2.134   6.551  1.8147  0.8884 -0.9091
 6805SOL     OW31873   1.290   0.033   6.360 -0.2040  0.6080  0.0364
 6805SOL    HW131874   1.348   0.108   6.344  1.1064 -0.5459 -0.6288
 6805SOL    HW231875   1.228   0.077   6.418  0.6575  1.2909  0.4435
 6806SOL     OW31876   4.414   0.098   9.316  0.3135 -0.7793  0.2217
 6806SOL    HW131877   4.361   0.175   9.334  0.6428 -0.8848  1.6611
 6806SOL    HW231878   4.497   0.130   9.351  0.3283  1.3173 -1.7455
 6807SOL     OW31879   3.252   4.639  16.735 -0.3390 -0.4073  0.5587
 6807SOL    HW131880   3.266   4.563  16.679 -1.6127  0.2304 -0.6274
 6807SOL    HW231881   3.159   4.655  16.722 -0.2670 -1.1853 -0.9636
 6808SOL     OW31882   0.745   2.865   6.491  0.1194  0.9787  0.3994
 6808SOL    HW131883   0.657   2.894   6.465  0.7658  1.7942 -0.8354
 6808SOL    HW231884   0.784   2.952   6.503 -1.3040  1.5698  0.8034
 6809SOL     OW31885   0.752   3.570  10.358 -0.2126 -0.1028 -0.0129
 6809SOL    HW131886   0.695   3.569  10.435  0.2129 -2.9306  0.2919
 6809SOL    HW231887   0.800   3.651  10.372 -2.6983  1.5424 -1.0143
 6810SOL     OW31888   2.031   2.005   2.664  0.2974  0.2814  0.1559
 6810SOL    HW131889   1.965   1.960   2.611 -0.2361 -0.4673  1.4649
 6810SOL    HW231890   2.023   2.092   2.625 -0.4297 -0.0818 -0.5192
 6811SOL     OW31891   3.096   0.363   8.148  0.4023 -0.1445 -0.7788
 6811SOL    HW131892   3.106   0.369   8.053 -2.1990 -2.1226 -1.1915
 6811SOL    HW231893   3.069   0.273   8.166 -0.0334 -0.6938 -4.3631
 6812SOL     OW31894   0.914   0.722   6.763 -0.8051 -0.6687  0.4806
 6812SOL    HW131895   0.898   0.694   6.853 -1.7112 -1.7088  0.0099
 6812SOL    HW231896   0.920   0.641   6.712 -1.2931  0.6146 -1.6321
 6813SOL     OW31897   0.421   2.804   1.321  0.0165 -0.0540 -0.2166
 6813SOL    HW131898   0.376   2.839   1.243 -2.3977 -1.6275  0.4553
 6813SOL    HW231899   0.511   2.810   1.289  0.2329  0.4640  0.4928
 6814SOL     OW31900   1.331   3.768   3.910  1.0304  0.1662  0.2386
 6814SOL    HW131901   1.388   3.691   3.913 -2.0112 -2.1066  1.4083
 6814SOL    HW231902   1.281   3.740   3.833 -0.3729  0.4155  1.0478
 6815SOL     OW31903   0.397   3.019   2.674  1.3553 -0.6042 -0.0618
 6815SOL    HW131904   0.459   2.955   2.708  0.3352  0.0509  3.0094
 6815SOL    HW231905   0.378   3.069   2.753  0.9224 -1.1624  0.1835
 6816SOL     OW31906   2.324   4.323   3.854 -0.0049  0.3651  0.7796
 6816SOL    HW131907   2.383   4.385   3.812 -1.4103  0.1200 -1.5222
 6816SOL    HW231908   2.264   4.292   3.787 -0.2950 -2.0681  2.1407
 6817SOL     OW31909   0.278   2.169   8.485 -0.0615 -0.1387 -0.2098
 6817SOL    HW131910   0.255   2.183   8.393  1.7592  1.2384 -0.4571
 6817SOL    HW231911   0.276   2.262   8.507 -0.2267 -0.3622  0.6866
 6818SOL     OW31912   4.024   4.164   3.093  0.1830 -0.2066  0.0739
 6818SOL    HW131913   3.980   4.153   3.009 -1.9450  0.1899  1.1411
 6818SOL    HW231914   3.967   4.225   3.140  1.9504  1.3167  0.2640
 6819SOL     OW31915   2.080   1.612   2.195 -0.8452  0.0391  0.3193
 6819SOL    HW131916   2.050   1.611   2.104  0.0916  0.4389  0.0050
 6819SOL    HW231917   2.065   1.706   2.208  0.0053  0.2503 -0.2210
 6820SOL     OW31918   2.764   1.989  16.002 -0.4613 -0.7267 -0.2936
 6820SOL    HW131919   2.789   2.067  16.051  3.1638 -1.3534 -1.1188
 6820SOL    HW231920   2.822   1.932  16.053  1.8229  1.1596 -0.7897
 6821SOL     OW31921   0.140   0.366   9.908  0.2550  0.3997 -0.2917
 6821SOL    HW131922   0.061   0.420   9.904 -0.2466 -0.2582  0.6698
 6821SOL    HW231923   0.135   0.307   9.833  1.5483  0.5964 -0.5196
 6822SOL     OW31924   0.833   0.924   8.414 -0.4355 -0.4969  0.3365
 6822SOL    HW131925   0.808   0.844   8.368 -1.3451  0.9944 -1.7814
 6822SOL    HW231926   0.762   0.984   8.389 -1.9711 -0.9163  3.5704
 6823SOL     OW31927   2.121   2.106  14.780  0.1137  0.2235  0.2583
 6823SOL    HW131928   2.102   2.195  14.750 -0.3845  0.3814  1.0311
 6823SOL    HW231929   2.103   2.060  14.698 -1.3225  1.3000 -0.0309
 6824SOL     OW31930   1.820   1.384   8.987 -0.1594 -0.6456 -0.2552
 6824SOL    HW131931   1.834   1.403   9.080  1.0765  1.2593 -0.8412
 6824SOL    HW231932   1.912   1.379   8.960  0.0141 -1.2430  0.4396
 6825SOL     OW31933   3.850   2.052   1.919 -0.4364 -0.4242  0.4112
 6825SOL    HW131934   3.890   2.093   1.843 -0.3032  1.6834  1.6001
 6825SOL    HW231935   3.851   1.960   1.894 -1.3545 -0.4119  0.3385
 6826SOL     OW31936   2.148   1.284   8.662 -0.1119 -0.3341 -0.0008
 6826SOL    HW131937   2.085   1.355   8.678  1.3362  1.2082 -1.1041
 6826SOL    HW231938   2.202   1.304   8.738 -2.1780 -1.3556  1.7078
 6827SOL     OW31939   3.379   2.859  11.890 -0.2041  0.2373  0.1946
 6827SOL    HW131940   3.470   2.881  11.909 -0.0954 -0.2302  0.2148
 6827SOL    HW231941   3.365   2.804  11.968  2.1144  0.2117  0.5835
 6828SOL     OW31942   3.801   1.221   1.271  0.1452  0.1476 -0.4805
 6828SOL    HW131943   3.866   1.244   1.204 -1.0553 -1.5405 -2.2114
 6828SOL    HW231944   3.723   1.270   1.247 -0.4017 -0.4405  0.0933
 6829SOL     OW31945   2.156   1.475   7.859  0.2314 -0.4809  0.5226
 6829SOL    HW131946   2.151   1.399   7.801  0.8942 -0.1488  0.0323
 6829SOL    HW231947   2.201   1.440   7.937  0.6944  0.2436  0.5805
 6830SOL     OW31948   4.303   1.891   3.447 -0.0179  0.0870 -0.2211
 6830SOL    HW131949   4.269   1.878   3.359 -0.2365 -1.1104  0.0466
 6830SOL    HW231950   4.234   1.947   3.482 -0.4897 -1.3909  1.2280
 6831SOL     OW31951   2.490   0.983  15.649  0.7541 -0.0383  0.0060
 6831SOL    HW131952   2.552   0.953  15.582 -0.9399 -0.7263 -1.2565
 6831SOL    HW231953   2.541   1.049  15.695 -1.2989  0.4453  1.6006
 6832SOL     OW31954   0.644   2.645   5.476  0.4317 -0.4994 -0.3257
 6832SOL    HW131955   0.566   2.651   5.530  0.1272 -0.6311 -0.7446
 6832SOL    HW231956   0.621   2.707   5.406  1.8070  1.6338  1.1488
 6833SOL     OW31957   4.351   2.888   1.573  1.1369 -0.0946  0.0200
 6833SOL    HW131958   4.306   2.839   1.504 -0.7901 -0.8226  1.8356
 6833SOL    HW231959   4.432   2.909   1.526  1.4487 -0.4483  0.4073
 6834SOL     OW31960   4.723   2.482  17.299  0.2590 -0.2940  0.2999
 6834SOL    HW131961   4.658   2.521  17.241 -1.1923 -0.6311  1.7219
 6834SOL    HW231962   4.673   2.461  17.378  0.9610 -1.9234  0.3189
 6835SOL     OW31963   4.228   4.133   0.943 -0.0745  0.6675 -0.0082
 6835SOL    HW131964   4.205   4.154   0.852 -1.1744 -0.1943  0.0788
 6835SOL    HW231965   4.321   4.153   0.945  0.0998 -0.1405 -0.2046
 6836SOL     OW31966   3.407   4.152   8.659 -0.0290 -0.0865  0.0104
 6836SOL    HW131967   3.486   4.175   8.707  0.9190 -1.5543 -0.8260
 6836SOL    HW231968   3.439   4.078   8.607  2.5890  1.7163 -0.9108
 6837SOL     OW31969   3.370   4.634   7.431  0.1375 -0.8986 -0.0342
 6837SOL    HW131970   3.440   4.689   7.395 -2.3164  0.8394 -2.1446
 6837SOL    HW231971   3.338   4.702   7.491  1.6093  1.2774 -1.7014
 6838SOL     OW31972   4.579   3.177  14.310 -0.4201  0.3359 -0.0515
 6838SOL    HW131973   4.488   3.158  14.286 -0.0734 -1.1157 -0.1937
 6838SOL    HW231974   4.607   3.232  14.236  3.2056 -0.6090  0.6298
 6839SOL     OW31975   1.559   2.097   2.190  0.2063 -0.3018 -0.1428
 6839SOL    HW131976   1.477   2.065   2.150 -0.4317  2.5219 -1.0939
 6839SOL    HW231977   1.558   2.184   2.150  1.8194 -0.1481  0.1787
 6840SOL     OW31978   1.210   2.789   5.826  0.2200 -0.2656  0.2117
 6840SOL    HW131979   1.232   2.840   5.747  1.6707 -0.8523  0.2412
 6840SOL    HW231980   1.250   2.846   5.892  2.1798 -0.0718 -1.1434
 6841SOL     OW31981   3.096   0.674   6.424 -0.2640  0.2824  0.3031
 6841SOL    HW131982   3.090   0.716   6.510  0.1587  1.6718 -0.3430
 6841SOL    HW231983   3.078   0.582   6.441  2.4822 -0.9504 -3.5724
 6842SOL     OW31984   4.405   4.047   3.473 -0.3036  0.5225  0.4938
 6842SOL    HW131985   4.497   4.063   3.495 -0.0363  1.0021 -0.9429
 6842SOL    HW231986   4.364   4.111   3.532  0.5295  2.7662 -1.3470
 6843SOL     OW31987   1.977   1.071   9.127  0.8529  0.3242 -0.3667
 6843SOL    HW131988   1.901   1.055   9.072  2.6736 -0.2631 -2.6947
 6843SOL    HW231989   1.970   0.992   9.180  2.6811 -0.0563 -0.6864
 6844SOL     OW31990   2.343   1.973   5.994  0.3513  0.8647 -0.0191
 6844SOL    HW131991   2.433   2.001   5.978  1.7223 -3.8890 -0.6144
 6844SOL    HW231992   2.332   1.988   6.088 -0.7085 -1.1287  0.1731
 6845SOL     OW31993   0.516   1.103   6.254 -0.0366  0.1584 -0.4828
 6845SOL    HW131994   0.537   1.196   6.258  2.4937 -0.4477  0.0162
 6845SOL    HW231995   0.582   1.061   6.200  1.6595 -0.6182  2.1792
 6846SOL     OW31996   4.014   1.022   5.896  0.6235  0.6273 -0.2670
 6846SOL    HW131997   4.055   1.108   5.896  1.7042  0.1226  0.8606
 6846SOL    HW231998   4.075   0.964   5.943 -0.5275  1.8578  2.7267
 6847SOL     OW31999   2.671   4.638   4.141 -0.0260 -0.4143  0.1617
 6847SOL    HW132000   2.758   4.597   4.134  0.2655  0.3492 -0.7395
 6847SOL    HW232001   2.663   4.671   4.051  0.1028  2.4387  1.1863
 6848SOL     OW32002   1.369   3.722   3.124 -0.1333  0.2376  0.1881
 6848SOL    HW132003   1.356   3.670   3.203  3.5539 -1.0066 -0.0356
 6848SOL    HW232004   1.378   3.810   3.161 -3.9565  0.6808  0.0565
 6849SOL     OW32005   1.447   1.938  10.080  0.8548 -0.0742  0.2192
 6849SOL    HW132006   1.510   1.875  10.045  1.7358  1.2276 -0.5561
 6849SOL    HW232007   1.425   1.972   9.993 -1.1205  1.3300  1.2520
 6850SOL     OW32008   1.869   3.105   3.546  0.0673 -0.0986  0.2507
 6850SOL    HW132009   1.844   3.065   3.629  1.5793 -1.7125 -0.0504
 6850SOL    HW232010   1.918   3.031   3.510  1.2910 -0.1261  1.9670
 6851SOL     OW32011   0.253   2.189  12.344 -0.1825 -0.8141 -0.1257
 6851SOL    HW132012   0.210   2.252  12.401 -0.1670 -0.9095 -0.0082
 6851SOL    HW232013   0.279   2.254  12.278  1.3792  0.2721  1.5648
 6852SOL     OW32014   1.780   3.115   3.139 -0.0303  0.1041 -0.2196
 6852SOL    HW132015   1.787   3.103   3.045 -2.2067  2.1588 -0.6270
 6852SOL    HW232016   1.715   3.050   3.167 -0.9382  1.0332 -0.1590
 6853SOL     OW32017   1.212   2.059   6.633 -0.1971 -0.3036 -0.1960
 6853SOL    HW132018   1.279   2.063   6.565 -0.4774 -0.9249 -0.5037
 6853SOL    HW232019   1.148   2.117   6.592 -0.8691 -0.6831  0.3167
 6854SOL     OW32020   1.927   2.940   2.103 -0.7444 -0.1910 -0.3113
 6854SOL    HW132021   1.965   2.852   2.101 -0.1703  0.0853 -1.6652
 6854SOL    HW232022   1.838   2.924   2.134 -0.9077 -1.1605 -1.2897
 6855SOL     OW32023   3.795   2.916   8.009 -0.3355 -0.2196 -0.4374
 6855SOL    HW132024   3.885   2.924   8.043 -0.0371 -2.5695 -0.7038
 6855SOL    HW232025   3.742   2.890   8.084 -1.6961 -0.9743 -1.6623
 6856SOL     OW32026   0.352   4.255  16.067  0.4475 -0.1585  0.1782
 6856SOL    HW132027   0.273   4.262  16.120  0.2450  0.9584 -0.2648
 6856SOL    HW232028   0.398   4.192  16.122  2.0345  0.0451 -0.9156
 6857SOL     OW32029   1.983   1.595   1.933 -0.2842  0.3239  0.0660
 6857SOL    HW132030   1.936   1.672   1.902 -0.5466  0.8763  1.8684
 6857SOL    HW232031   2.075   1.621   1.921  0.3953 -1.7380  0.7138
 6858SOL     OW32032   4.115   3.480   7.694 -0.2518 -0.2694  0.4319
 6858SOL    HW132033   4.125   3.534   7.773 -0.3737  1.8868 -1.0224
 6858SOL    HW232034   4.096   3.539   7.621  0.5736  1.7385  1.8079
 6859SOL     OW32035   2.032   4.311  10.509 -0.5491  0.3302  0.3517
 6859SOL    HW132036   2.064   4.398  10.490  0.7745 -0.6712 -1.9544
 6859SOL    HW232037   2.075   4.302  10.594 -0.0159 -0.7787 -0.0293
 6860SOL     OW32038   1.574   3.920  16.978 -0.8448  0.3123  0.2195
 6860SOL    HW132039   1.635   3.964  16.918 -0.5049 -0.7898 -0.2455
 6860SOL    HW232040   1.599   3.975  17.052  2.1143 -0.9369  0.1495
 6861SOL     OW32041   3.415   3.968   5.791  0.4436  0.0381  0.4784
 6861SOL    HW132042   3.489   4.027   5.774 -1.0946  2.0176  0.6437
 6861SOL    HW232043   3.421   3.953   5.885 -2.9456 -2.9358  0.2327
 6862SOL     OW32044   2.901   0.389   4.690  0.1344 -0.5299 -0.0339
 6862SOL    HW132045   2.813   0.367   4.659 -1.3626  1.5914  2.7075
 6862SOL    HW232046   2.945   0.404   4.607 -0.3758  0.3108 -0.1556
 6863SOL     OW32047   3.590   0.639   4.612 -0.1492  0.1257 -0.4375
 6863SOL    HW132048   3.668   0.681   4.575 -1.7637  3.6020  0.0476
 6863SOL    HW232049   3.573   0.686   4.693 -0.2939 -0.4972 -0.1068
 6864SOL     OW32050   4.594   3.458   1.658  0.5293 -0.0704  0.1790
 6864SOL    HW132051   4.678   3.502   1.670  0.5406  0.4027 -1.5970
 6864SOL    HW232052   4.607   3.391   1.724  4.4349 -0.5827 -1.1104
 6865SOL     OW32053   2.465   2.389   6.419  0.3443 -1.1576  0.6624
 6865SOL    HW132054   2.459   2.415   6.328 -0.8010 -0.9840  0.7756
 6865SOL    HW232055   2.416   2.307   6.412 -0.1817 -0.7311 -0.5383
 6866SOL     OW32056   0.398   3.181   5.623 -0.2620 -0.2407  0.1800
 6866SOL    HW132057   0.402   3.103   5.567 -1.6157 -1.8609  2.3407
 6866SOL    HW232058   0.308   3.211   5.609 -1.2332 -2.1278  2.3921
 6867SOL     OW32059   2.756   3.550  14.144 -0.1047  0.3529  0.1991
 6867SOL    HW132060   2.754   3.521  14.053 -1.4321  0.0811  0.3021
 6867SOL    HW232061   2.676   3.509  14.178  0.5670  0.0302  1.3572
 6868SOL     OW32062   1.062   3.481   4.861  0.4318  0.2117  0.1623
 6868SOL    HW132063   0.980   3.519   4.892  1.1858  0.3154  2.0353
 6868SOL    HW232064   1.131   3.527   4.909  0.0409  0.1987  0.7263
 6869SOL     OW32065   3.203   4.028   5.240  0.1496  0.4662 -0.7293
 6869SOL    HW132066   3.182   3.935   5.250 -0.1969  0.6646  0.3675
 6869SOL    HW232067   3.240   4.026   5.152 -0.1797 -1.0274 -0.8317
 6870SOL     OW32068   0.539   0.352  12.505  0.1329  0.6035  0.4381
 6870SOL    HW132069   0.443   0.357  12.509  0.0748  0.9962 -1.8188
 6870SOL    HW232070   0.548   0.281  12.569  2.5088  0.8312  0.3548
 6871SOL     OW32071   0.776   1.813   5.047 -0.0555 -1.0800 -0.3443
 6871SOL    HW132072   0.833   1.832   5.122  1.4076 -0.1469 -1.6789
 6871SOL    HW232073   0.689   1.831   5.082  1.1654  0.9735  1.6459
 6872SOL     OW32074   2.883   2.996   3.390  0.0325  0.2162  0.4958
 6872SOL    HW132075   2.831   2.999   3.310 -2.0786 -2.2058  1.7646
 6872SOL    HW232076   2.816   2.963   3.450  0.0813  0.5136  0.7160
 6873SOL     OW32077   0.212   3.319   8.394 -0.7398 -0.4571  0.7475
 6873SOL    HW132078   0.181   3.392   8.340  1.7949 -0.8452 -1.2347
 6873SOL    HW232079   0.302   3.351   8.400 -0.9203 -0.0011  0.9469
 6874SOL     OW32080   2.601   3.927  12.705 -0.0170  0.2062 -0.1393
 6874SOL    HW132081   2.655   3.860  12.747  1.3180 -1.0313 -3.7995
 6874SOL    HW232082   2.517   3.884  12.724 -0.8971  0.9568 -2.3184
 6875SOL     OW32083   2.592   0.921   2.535 -0.1704  0.0775 -0.0361
 6875SOL    HW132084   2.669   0.972   2.513 -1.5126  0.8846 -2.9338
 6875SOL    HW232085   2.563   0.978   2.606  2.2644 -0.2703  1.2263
 6876SOL     OW32086   0.478   4.146  12.180 -0.5819 -0.0740 -0.0185
 6876SOL    HW132087   0.557   4.116  12.224 -1.4660 -1.7143  0.4731
 6876SOL    HW232088   0.430   4.171  12.260 -2.3975  1.7761 -1.6660
 6877SOL     OW32089   3.021   2.900   8.097 -0.3044 -0.1476  0.0351
 6877SOL    HW132090   3.081   2.973   8.088  0.8503 -1.2085 -0.9530
 6877SOL    HW232091   2.970   2.895   8.016  0.1907  0.3659 -0.3009
 6878SOL     OW32092   3.166   1.060  11.845  0.2324  0.3923 -0.4246
 6878SOL    HW132093   3.203   0.973  11.828 -2.2378 -0.2697 -2.3985
 6878SOL    HW232094   3.076   1.049  11.817 -0.5173  0.3093  1.9824
 6879SOL     OW32095   4.297   1.724   7.485 -0.8104 -0.5054 -0.4271
 6879SOL    HW132096   4.335   1.801   7.442 -1.9299  0.5554  0.4536
 6879SOL    HW232097   4.227   1.689   7.431 -0.6953  0.4406 -1.1982
 6880SOL     OW32098   3.518   0.520   8.420 -0.3911  0.1496 -0.3280
 6880SOL    HW132099   3.468   0.596   8.452 -0.8597 -0.1297 -0.3862
 6880SOL    HW232100   3.450   0.487   8.361 -0.2686 -0.1534 -0.2983
 6881SOL     OW32101   0.435   3.339  11.618 -0.2462 -0.0160 -0.2280
 6881SOL    HW132102   0.447   3.323  11.524 -1.1988 -2.5634  0.0817
 6881SOL    HW232103   0.351   3.303  11.644 -0.1930 -2.2789 -3.1438
 6882SOL     OW32104   1.425   3.967  11.503 -0.3035 -0.0015 -0.1033
 6882SOL    HW132105   1.408   3.912  11.579 -0.1506 -0.4692 -0.4089
 6882SOL    HW232106   1.410   4.053  11.543 -1.7644 -1.2663  2.0582
 6883SOL     OW32107   4.171   0.593   7.978 -0.4137  0.6103 -0.1560
 6883SOL    HW132108   4.197   0.502   7.986 -0.7752  0.4863 -0.3814
 6883SOL    HW232109   4.155   0.607   8.071  2.7858 -0.8782  0.5927
 6884SOL     OW32110   4.618   3.267  15.094 -0.0399  0.1133 -0.1549
 6884SOL    HW132111   4.658   3.318  15.165 -0.2243  0.5209 -0.3462
 6884SOL    HW232112   4.529   3.266  15.130  0.1206 -4.7477  0.1772
 6885SOL     OW32113   1.034   3.198   0.207  0.5000 -0.4331 -0.1532
 6885SOL    HW132114   1.084   3.273   0.176  0.3384 -0.6400 -0.9063
 6885SOL    HW232115   1.075   3.124   0.162 -0.2383 -0.1038 -1.3763
 6886SOL     OW32116   0.781   4.465   0.954 -0.1236 -0.5569 -0.3061
 6886SOL    HW132117   0.865   4.468   0.907  0.6459  0.5936  1.1276
 6886SOL    HW232118   0.797   4.501   1.041 -0.2654 -4.6613  1.4291
 6887SOL     OW32119   3.512   2.159   1.844  0.5364 -0.4207 -0.7028
 6887SOL    HW132120   3.569   2.205   1.783 -0.6096 -0.5121 -1.8327
 6887SOL    HW232121   3.447   2.229   1.849 -1.7778 -2.5672 -0.3577
 6888SOL     OW32122   1.763   3.104   2.861  0.1848  0.1434  0.3770
 6888SOL    HW132123   1.685   3.154   2.840 -0.0381 -1.0056 -1.5994
 6888SOL    HW232124   1.813   3.119   2.780 -1.0556 -0.6430 -0.5372
 6889SOL     OW32125   1.172   3.005   2.511 -0.3598  0.2828 -0.2526
 6889SOL    HW132126   1.262   3.036   2.516 -0.7416  1.0857  1.5345
 6889SOL    HW232127   1.152   3.012   2.418  2.8130  0.1505 -0.9145
 6890SOL     OW32128   1.224   2.793   3.935  0.4413  0.7494  0.5156
 6890SOL    HW132129   1.180   2.804   3.850 -1.2437  1.9709  1.5417
 6890SOL    HW232130   1.288   2.724   3.917 -0.5509 -0.3782  1.3484
 6891SOL     OW32131   4.036   1.958  11.073 -0.0663  0.1682 -0.8376
 6891SOL    HW132132   4.057   2.049  11.091  1.6283  0.0929 -2.5177
 6891SOL    HW232133   4.092   1.903  11.128 -0.2479  1.0762  0.2612
 6892SOL     OW32134   3.470   4.152   0.451  1.0750  0.5956  0.0240
 6892SOL    HW132135   3.530   4.225   0.469  0.6122  1.4079 -1.7483
 6892SOL    HW232136   3.437   4.142   0.540  0.2082 -0.1678 -0.3881
 6893SOL     OW32137   3.293   1.688   9.155 -0.6513 -0.7654 -0.0836
 6893SOL    HW132138   3.297   1.604   9.201  0.9875 -0.7748 -0.2477
 6893SOL    HW232139   3.385   1.715   9.157 -1.2269  1.2210 -1.1885
 6894SOL     OW32140   1.014   1.656   2.113  0.3610  0.3590 -0.2249
 6894SOL    HW132141   1.005   1.571   2.070  3.0976 -1.3249  2.5744
 6894SOL    HW232142   1.032   1.704   2.032 -1.7512  0.7436 -0.4766
 6895SOL     OW32143   0.626   2.655   4.157  0.5814 -0.6905  0.6605
 6895SOL    HW132144   0.548   2.671   4.104 -0.2273  0.7908  2.2916
 6895SOL    HW232145   0.597   2.620   4.241 -0.4906 -0.4494  0.3955
 6896SOL     OW32146   0.557   0.910   4.984  0.1433 -0.0069  0.0613
 6896SOL    HW132147   0.594   0.840   5.037 -0.3954 -0.2769  0.0820
 6896SOL    HW232148   0.485   0.869   4.937 -0.5787 -0.2757  1.4065
 6897SOL     OW32149   0.821   2.744  16.892 -0.6358  0.1446 -0.4258
 6897SOL    HW132150   0.877   2.787  16.828  0.4955 -0.6536  0.0259
 6897SOL    HW232151   0.781   2.693  16.822  2.0156 -0.3033 -1.6097
 6898SOL     OW32152   0.774   3.721   6.785  0.2535  0.3081 -0.2114
 6898SOL    HW132153   0.867   3.709   6.766  0.4139  0.7701  0.2990
 6898SOL    HW232154   0.787   3.736   6.878 -2.7889  2.8668 -0.1941
 6899SOL     OW32155   1.560   2.204   8.692  0.4756  0.4408 -0.0489
 6899SOL    HW132156   1.515   2.151   8.626  0.4479  0.2873  0.0919
 6899SOL    HW232157   1.515   2.158   8.763  2.5868 -2.0093 -0.2947
 6900SOL     OW32158   0.350   1.314   3.740  0.5615  0.2431  0.6086
 6900SOL    HW132159   0.420   1.309   3.805 -0.0575  0.1222  1.2657
 6900SOL    HW232160   0.345   1.226   3.703 -0.7554  0.0230  1.3042
 6901SOL     OW32161   1.589   3.823   6.598  0.1912  0.1175  0.6825
 6901SOL    HW132162   1.532   3.893   6.567  1.1803  0.1840 -1.0197
 6901SOL    HW232163   1.539   3.794   6.674 -0.8103 -1.2201 -0.4633
 6902SOL     OW32164   3.467   3.236   7.121  0.0172  0.4694  0.0442
 6902SOL    HW132165   3.397   3.181   7.157 -0.3404  2.0211  1.6768
 6902SOL    HW232166   3.432   3.316   7.159 -2.2040 -0.1064 -0.8216
 6903SOL     OW32167   4.491   2.535   4.348  0.1166  0.0639  0.1535
 6903SOL    HW132168   4.398   2.512   4.354 -0.4624  2.2673 -0.4643
 6903SOL    HW232169   4.511   2.536   4.254 -0.4055  2.6366  0.0666
 6904SOL     OW32170   0.683   2.575  17.356  0.8248  0.4770 -0.0193
 6904SOL    HW132171   0.731   2.493  17.363  1.5332  1.0028  1.1697
 6904SOL    HW232172   0.594   2.548  17.333  1.7534 -2.0948 -0.6111
 6905SOL     OW32173   3.707   2.661   1.909  0.0938  0.1268  0.1640
 6905SOL    HW132174   3.793   2.702   1.921 -0.1659  0.6346  0.2677
 6905SOL    HW232175   3.678   2.700   1.826  1.6785  1.3348  0.1748
 6906SOL     OW32176   2.020   2.512  17.468 -0.2149 -0.0824  0.0925
 6906SOL    HW132177   1.984   2.569  17.535  0.3251 -1.4806  1.5698
 6906SOL    HW232178   1.964   2.434  17.463 -1.5930  1.1907 -5.2010
 6907SOL     OW32179   1.181   3.807  14.112 -0.4716 -0.5872 -0.1601
 6907SOL    HW132180   1.192   3.812  14.207 -0.8635 -0.9688 -0.0951
 6907SOL    HW232181   1.264   3.765  14.088 -0.7378 -0.6378 -0.9866
 6908SOL     OW32182   1.586   2.153   6.948 -0.0583  0.5213  0.8587
 6908SOL    HW132183   1.556   2.123   7.034 -0.2584 -0.0474  0.5966
 6908SOL    HW232184   1.646   2.223   6.972  0.4043  0.9958 -1.6469
 6909SOL     OW32185   2.643   4.140   2.322  0.0842 -0.1591 -0.0183
 6909SOL    HW132186   2.698   4.107   2.393 -0.0539  0.3594  0.3277
 6909SOL    HW232187   2.626   4.059   2.273 -0.5419 -0.2578  0.3678
 6910SOL     OW32188   3.273   4.610   5.723 -0.4806  0.0769 -0.5281
 6910SOL    HW132189   3.321   4.626   5.804 -0.0269 -0.3484 -0.7145
 6910SOL    HW232190   3.347   4.567   5.680 -1.0569 -0.2668 -1.1824
 6911SOL     OW32191   0.428   0.382   7.316  0.3513 -0.0949  0.5902
 6911SOL    HW132192   0.411   0.476   7.319 -1.2552 -0.3600 -0.2023
 6911SOL    HW232193   0.337   0.354   7.331 -0.4314  2.8735  1.3550
 6912SOL     OW32194   2.697   0.775  16.120 -0.4895 -0.0058  0.0550
 6912SOL    HW132195   2.788   0.797  16.144 -1.0753  1.0876  1.3226
 6912SOL    HW232196   2.681   0.695  16.170 -2.5167  1.2547  1.4059
 6913SOL     OW32197   4.419   1.058   2.411 -0.2386  0.2798  0.9573
 6913SOL    HW132198   4.386   1.024   2.494  0.8338 -0.8118  0.9419
 6913SOL    HW232199   4.364   1.134   2.394  1.9480  1.7999  0.6794
 6914SOL     OW32200   0.798   3.974  16.104  0.1061 -0.0886 -0.0575
 6914SOL    HW132201   0.771   4.022  16.026  0.2180 -0.6137 -0.4209
 6914SOL    HW232202   0.754   3.892  16.082  0.4407 -0.1223 -0.5929
 6915SOL     OW32203   0.699   4.034  12.275 -0.0358 -0.1098 -0.2670
 6915SOL    HW132204   0.728   3.972  12.208  1.5457  0.5077 -0.1699
 6915SOL    HW232205   0.708   3.976  12.351 -0.6225  1.2043  0.8127
 6916SOL     OW32206   3.166   0.940   2.273  0.4793 -0.5040  0.4685
 6916SOL    HW132207   3.187   0.870   2.334  0.0123  0.1814  1.4148
 6916SOL    HW232208   3.105   0.891   2.217  1.2813  0.5607 -1.3318
 6917SOL     OW32209   3.055   0.911   3.403 -0.0958 -0.3273  0.1732
 6917SOL    HW132210   3.050   1.005   3.389 -0.2230 -0.6634 -1.9976
 6917SOL    HW232211   3.118   0.891   3.333  0.5818 -1.1242  0.9927
 6918SOL     OW32212   2.131   0.486  11.243  0.1104 -0.5429 -0.0072
 6918SOL    HW132213   2.202   0.522  11.188 -0.4032  1.7875  0.8613
 6918SOL    HW232214   2.079   0.563  11.264  0.1846 -0.9304  1.5375
 6919SOL     OW32215   0.141   0.381   5.192 -0.3192 -0.3229 -0.3045
 6919SOL    HW132216   0.218   0.343   5.233  0.4405  1.7162  0.1857
 6919SOL    HW232217   0.116   0.451   5.252 -2.3303  0.2482 -1.8031
 6920SOL     OW32218   3.801   4.655  13.160  0.0787 -0.6579  0.0095
 6920SOL    HW132219   3.796   4.583  13.097 -2.1591 -0.1149 -0.4672
 6920SOL    HW232220   3.708   4.677  13.167 -0.2348 -2.0727  0.3168
 6921SOL     OW32221   3.094   1.206   9.030 -0.0100 -0.0243 -0.5210
 6921SOL    HW132222   3.003   1.202   9.058  0.5174 -0.4306  1.1509
 6921SOL    HW232223   3.090   1.282   8.972 -1.8392  1.2349  1.2439
 6922SOL     OW32224   1.802   3.161   8.941  0.2897  0.2990 -0.0515
 6922SOL    HW132225   1.762   3.116   9.016  0.4204 -1.1132 -0.8371
 6922SOL    HW232226   1.732   3.215   8.907 -1.3893 -0.7975  1.6610
 6923SOL     OW32227   2.046   2.633  16.689 -0.3416  0.4192  0.3229
 6923SOL    HW132228   2.105   2.559  16.708  2.2801  1.7462 -2.7108
 6923SOL    HW232229   2.100   2.683  16.628  1.1975  0.0070  1.3330
 6924SOL     OW32230   2.500   4.698   8.303 -0.4466  0.2157 -0.2513
 6924SOL    HW132231   2.432   0.042   8.298 -0.9229 -0.3669 -1.5735
 6924SOL    HW232232   2.579   0.029   8.304 -1.8018  2.1770 -2.7840
 6925SOL     OW32233   1.890   1.067  16.757  0.3087  0.1717  0.2111
 6925SOL    HW132234   1.834   0.996  16.727 -0.2995 -0.0870  1.9501
 6925SOL    HW232235   1.833   1.144  16.754 -0.6757 -0.5980 -0.7423
 6926SOL     OW32236   4.641   1.656  16.902  0.5010  0.5473 -0.0677
 6926SOL    HW132237   4.574   1.602  16.945  0.3947  1.4269  0.8608
 6926SOL    HW232238   4.698   1.681  16.974  2.3968 -1.3184 -0.9299
 6927SOL     OW32239   4.246   1.240  16.964 -0.3133 -0.3405 -0.1550
 6927SOL    HW132240   4.316   1.260  17.027  0.2027  1.0974 -1.2031
 6927SOL    HW232241   4.292   1.266  16.884  0.8742 -2.7424 -0.2425
 6928SOL     OW32242   2.287   3.885   6.676  0.6607 -1.3635  0.5424
 6928SOL    HW132243   2.211   3.846   6.719  1.0493 -2.8958 -0.1676
 6928SOL    HW232244   2.350   3.889   6.748  0.6809 -3.0323  0.6320
 6929SOL     OW32245   3.031   3.640   7.893  0.3180 -0.0693 -0.0717
 6929SOL    HW132246   3.097   3.704   7.920 -0.6516  1.9178 -2.3753
 6929SOL    HW232247   3.008   3.669   7.804  0.4761 -0.5408 -0.2651
 6930SOL     OW32248   3.051   3.491  15.967 -0.2518 -0.6828 -0.0561
 6930SOL    HW132249   3.063   3.503  15.873 -0.0672  1.9706  0.3048
 6930SOL    HW232250   3.116   3.428  16.000  0.3977 -1.6327 -3.1985
 6931SOL     OW32251   1.863   3.826   1.195 -0.4511 -0.0400  0.5060
 6931SOL    HW132252   1.846   3.850   1.104  3.0902  0.8534  0.1053
 6931SOL    HW232253   1.806   3.874   1.255 -1.2938  1.8468 -1.8102
 6932SOL     OW32254   2.997   3.002   7.632  0.3167 -0.1009 -0.2834
 6932SOL    HW132255   3.010   3.007   7.537  2.0339  0.8649  0.0134
 6932SOL    HW232256   2.911   3.044   7.629  0.0244 -0.6016  1.1916
 6933SOL     OW32257   2.108   1.375  16.278 -0.3018  0.2224 -0.0389
 6933SOL    HW132258   2.081   1.465  16.295  1.3200  0.7660 -0.2899
 6933SOL    HW232259   2.031   1.321  16.297  0.1292 -0.2541  0.3494
 6934SOL     OW32260   3.707   3.986   4.495  0.0828 -0.2904 -0.3229
 6934SOL    HW132261   3.749   4.058   4.448 -0.0741  0.8561  1.3083
 6934SOL    HW232262   3.686   3.939   4.414  2.9843 -0.3286 -1.0632
 6935SOL     OW32263   3.452   1.507  17.435  0.3626 -0.0834  0.5244
 6935SOL    HW132264   3.462   1.459  17.518 -0.4080  0.3721  0.8725
 6935SOL    HW232265   3.462   1.596  17.467 -1.2935  1.2994 -2.8553
 6936SOL     OW32266   0.942   3.139   5.463 -0.2985 -0.3645 -0.1425
 6936SOL    HW132267   0.935   3.234   5.472 -0.5675 -0.5264  1.4030
 6936SOL    HW232268   0.934   3.121   5.557  0.8513  0.7397  0.1580
 6937SOL     OW32269   2.151   1.953   3.196  0.2551  0.5827 -0.6620
 6937SOL    HW132270   2.190   2.033   3.231 -0.3649  0.1511  1.0393
 6937SOL    HW232271   2.164   1.968   3.102 -1.1891  1.3468 -0.7354
 6938SOL     OW32272   2.971   0.945   8.886 -0.2738 -0.3377 -0.2367
 6938SOL    HW132273   2.911   0.880   8.850 -2.4372  1.7029 -0.3345
 6938SOL    HW232274   2.921   0.975   8.962  0.6493  0.0597  0.2191
 6939SOL     OW32275   2.821   1.281   6.318 -0.6080  0.6792 -0.0430
 6939SOL    HW132276   2.828   1.303   6.411 -0.4631  1.1976 -0.1739
 6939SOL    HW232277   2.885   1.345   6.286 -0.3231  0.7174  0.6079
 6940SOL     OW32278   2.380   1.910   1.766 -0.6676 -0.0058  0.3818
 6940SOL    HW132279   2.476   1.905   1.762 -0.6386 -0.7109  2.4777
 6940SOL    HW232280   2.353   1.845   1.701  2.4613 -1.2032  0.2851
 6941SOL     OW32281   1.615   0.065   1.643 -0.4790  0.1475 -0.5062
 6941SOL    HW132282   1.544   0.005   1.619  0.5566 -0.4888 -2.0086
 6941SOL    HW232283   1.624   0.112   1.561  2.0157  0.7983  0.1426
 6942SOL     OW32284   2.826   4.386   5.510  0.4648  0.0026 -0.0861
 6942SOL    HW132285   2.776   4.385   5.592 -0.3099 -0.5794 -0.5648
 6942SOL    HW232286   2.902   4.427   5.551  1.5727 -0.8284 -1.3168
 6943SOL     OW32287   1.156   2.231  16.665 -0.1260 -0.2977  0.2158
 6943SOL    HW132288   1.121   2.267  16.746 -0.8564 -1.5320  0.4489
 6943SOL    HW232289   1.168   2.308  16.609  1.1983 -1.6016 -1.3063
 6944SOL     OW32290   4.615   1.739   7.925 -0.5534 -0.7066  0.4250
 6944SOL    HW132291   4.632   1.711   7.835 -2.4870 -0.3663 -0.0568
 6944SOL    HW232292   4.618   1.654   7.968  2.0558  0.0909  1.8037
 6945SOL     OW32293   2.111   0.487   5.164 -0.1279  0.2031  0.0177
 6945SOL    HW132294   2.069   0.463   5.081  0.2534  0.7246 -0.3231
 6945SOL    HW232295   2.190   0.529   5.132 -0.3112  0.3496 -0.2456
 6946SOL     OW32296   0.698   1.063   2.426 -0.2501 -0.6595  0.0199
 6946SOL    HW132297   0.662   1.064   2.337 -1.4268 -0.3891  0.4908
 6946SOL    HW232298   0.667   1.148   2.456  0.9344  0.5090 -2.0835
 6947SOL     OW32299   4.656   1.405   2.884  0.1630 -0.1978  0.1466
 6947SOL    HW132300   0.002   1.343   2.906  1.4209  1.2083  0.2112
 6947SOL    HW232301   4.632   1.438   2.971  0.1977  2.4370 -0.8235
 6948SOL     OW32302   3.884   2.974   6.635 -0.0150 -0.4379 -0.1990
 6948SOL    HW132303   3.937   3.048   6.665 -0.4094 -0.0502 -0.4473
 6948SOL    HW232304   3.800   2.986   6.679  0.5511  1.0560  0.4825
 6949SOL     OW32305   1.125   2.017   2.472 -0.3585  0.0869 -0.6142
 6949SOL    HW132306   1.070   1.956   2.521  1.4655 -1.4965 -0.5550
 6949SOL    HW232307   1.203   1.962   2.472 -0.1349  0.4196  0.3496
 6950SOL     OW32308   3.555   2.727  13.220  0.0143  0.4391  0.3802
 6950SOL    HW132309   3.543   2.677  13.300 -0.9528 -1.2788 -0.8263
 6950SOL    HW232310   3.503   2.804  13.244  1.9213  1.8342 -0.0217
 6951SOL     OW32311   1.460   1.789   8.035 -0.3433 -0.4630  0.6198
 6951SOL    HW132312   1.407   1.720   8.076  0.1076 -0.3268  1.4438
 6951SOL    HW232313   1.474   1.755   7.947  3.0203 -2.0883  1.7394
 6952SOL     OW32314   4.310   4.432   1.971  0.0174 -0.3213  0.0673
 6952SOL    HW132315   4.378   4.462   1.910 -0.5146 -1.0511 -0.8772
 6952SOL    HW232316   4.278   4.350   1.935 -0.3265 -1.4955  3.0672
 6953SOL     OW32317   1.931   0.100   6.121 -0.4773  0.4791 -0.3319
 6953SOL    HW132318   2.018   0.061   6.128 -0.3803  0.5135 -1.3629
 6953SOL    HW232319   1.871   0.028   6.107  0.5466 -0.2931 -0.7374
 6954SOL     OW32320   0.419   4.079   7.608 -0.3602 -0.5968  0.4465
 6954SOL    HW132321   0.479   4.052   7.678  0.7464  0.7588  0.0256
 6954SOL    HW232322   0.468   4.039   7.536  0.9565 -0.6690  1.3818
 6955SOL     OW32323   2.588   0.005   8.012  0.4622  0.2438 -0.3337
 6955SOL    HW132324   2.666   0.062   8.019 -0.1570  1.2417 -1.4013
 6955SOL    HW232325   2.567   4.719   8.104  0.3089 -2.1033 -0.6154
 6956SOL     OW32326   2.222   1.828   8.098  0.4514  0.0313  0.0919
 6956SOL    HW132327   2.280   1.869   8.163  0.8232  2.1820 -1.6026
 6956SOL    HW232328   2.199   1.899   8.039  2.0483 -0.0162 -0.5944
 6957SOL     OW32329   3.268   2.752   0.278  0.0000 -0.0422  0.2044
 6957SOL    HW132330   3.324   2.821   0.313 -1.9709  0.2933  2.7076
 6957SOL    HW232331   3.190   2.798   0.247 -1.4477 -0.9266  2.5863
 6958SOL     OW32332   3.383   3.972   6.866 -0.7276 -0.2644 -0.2619
 6958SOL    HW132333   3.295   3.944   6.889 -0.5207 -1.2320 -0.6909
 6958SOL    HW232334   3.382   4.061   6.903 -0.4946  1.3466 -4.1356
 6959SOL     OW32335   1.984   4.066   9.936  0.7435  0.1867  0.5176
 6959SOL    HW132336   2.059   4.043   9.990  1.2732  2.4134  0.7400
 6959SOL    HW232337   1.986   3.999   9.867  2.6642  2.1392 -1.3158
 6960SOL     OW32338   4.284   1.132   6.154 -0.2062  0.1462  0.3006
 6960SOL    HW132339   4.346   1.195   6.190  2.6521 -1.2693 -2.0745
 6960SOL    HW232340   4.330   1.102   6.075 -0.9309  0.6409 -0.3159
 6961SOL     OW32341   4.562   2.182  14.183  0.3102  0.0645 -0.1242
 6961SOL    HW132342   4.466   2.185  14.180  0.3130 -2.0004 -1.9181
 6961SOL    HW232343   4.581   2.268  14.147  0.6999 -0.3609 -0.9333
 6962SOL     OW32344   3.716   4.701   2.755  0.3331 -0.0898 -0.5128
 6962SOL    HW132345   3.696   0.031   2.678  1.3011 -0.1443 -0.8036
 6962SOL    HW232346   3.812   4.697   2.750  0.3803  1.7796 -1.3863
 6963SOL     OW32347   4.494   3.738  14.762  0.3092 -0.4156  0.0315
 6963SOL    HW132348   4.447   3.683  14.700  1.4531 -1.1099 -0.2323
 6963SOL    HW232349   4.534   3.670  14.818  1.1567  0.9444  1.0839
 6964SOL     OW32350   1.111   4.024   2.118 -0.4583  0.2207  0.1889
 6964SOL    HW132351   1.171   4.011   2.044  0.1366  1.7238  0.3996
 6964SOL    HW232352   1.040   4.066   2.070 -0.4494  0.8466  0.7349
 6965SOL     OW32353   3.548   1.679   3.500 -0.3719 -0.2727 -0.4468
 6965SOL    HW132354   3.469   1.648   3.455 -0.0895  1.8723 -2.4094
 6965SOL    HW232355   3.616   1.667   3.433  1.6435 -0.9896  1.7387
 6966SOL     OW32356   3.932   2.891   0.599  0.5090 -0.5802 -0.0445
 6966SOL    HW132357   4.009   2.835   0.611  0.6762 -0.3825 -0.1911
 6966SOL    HW232358   3.874   2.845   0.660  0.1397 -1.5096 -1.0888
 6967SOL     OW32359   3.870   0.659   5.908  0.1341 -0.2687 -0.5606
 6967SOL    HW132360   3.878   0.687   5.817  2.8935 -0.5139 -0.3956
 6967SOL    HW232361   3.836   0.570   5.901 -1.1944  0.2373 -0.4485
 6968SOL     OW32362   1.663   1.578  12.090 -0.0247  0.5369  0.0001
 6968SOL    HW132363   1.570   1.568  12.111  0.1218  2.0112  1.3202
 6968SOL    HW232364   1.698   1.587  12.179  1.4760  1.0243 -0.6457
 6969SOL     OW32365   4.259   2.121   6.820 -0.3308 -0.6286  0.1322
 6969SOL    HW132366   4.224   2.184   6.758  1.0411  0.0366  0.0333
 6969SOL    HW232367   4.176   2.081   6.848  0.6517 -1.8295  1.3443
 6970SOL     OW32368   1.299   1.336   6.561  0.2207 -0.0267  0.1761
 6970SOL    HW132369   1.226   1.279   6.582 -0.2755  0.3768 -0.4524
 6970SOL    HW232370   1.330   1.377   6.642  0.3161 -1.5378  0.8964
 6971SOL     OW32371   1.669   0.359   5.330 -0.0137  0.6604 -0.2356
 6971SOL    HW132372   1.716   0.301   5.270  1.7214 -0.0969  1.8821
 6971SOL    HW232373   1.581   0.339   5.299  1.2877 -2.7733 -1.7079
 6972SOL     OW32374   3.727   0.554  17.351  0.1435  0.0313 -0.4432
 6972SOL    HW132375   3.817   0.588  17.350 -0.1262  0.7830  1.1233
 6972SOL    HW232376   3.677   0.634  17.366 -0.0192 -0.0807 -0.3962
 6973SOL     OW32377   0.878   3.721   8.650  0.6776 -0.4347 -0.3595
 6973SOL    HW132378   0.929   3.670   8.587 -0.0373  0.2660 -1.5147
 6973SOL    HW232379   0.924   3.804   8.665 -0.5462  0.1947 -0.0687
 6974SOL     OW32380   3.386   4.039   6.078  0.8615 -0.5009  0.2028
 6974SOL    HW132381   3.469   4.088   6.077  0.6169  0.0057  3.6078
 6974SOL    HW232382   3.409   3.973   6.143  0.3600 -0.7450  0.1283
 6975SOL     OW32383   0.253   1.442  14.621 -0.1149 -0.1030  0.1219
 6975SOL    HW132384   0.228   1.520  14.571  1.0858 -1.4831 -2.6058
 6975SOL    HW232385   0.346   1.455  14.604 -0.1960  0.2087 -0.0883
 6976SOL     OW32386   0.610   1.903   3.105 -0.4448  0.0254  0.2894
 6976SOL    HW132387   0.692   1.883   3.060 -0.7912  1.4076 -0.9477
 6976SOL    HW232388   0.594   1.980   3.051  1.7315 -0.0582 -0.4933
 6977SOL     OW32389   4.687   0.762   4.378  0.1948 -0.6648  0.2149
 6977SOL    HW132390   0.013   0.839   4.407 -0.4845 -0.7110  1.5149
 6977SOL    HW232391   4.705   0.770   4.285  0.3477  0.9440  0.3827
 6978SOL     OW32392   3.620   1.382  12.536 -0.1144 -0.2457  0.2110
 6978SOL    HW132393   3.646   1.367  12.627 -1.1979  1.3049  0.7742
 6978SOL    HW232394   3.569   1.463  12.539  0.3709  0.0796 -0.4009
 6979SOL     OW32395   4.441   2.067   5.911  0.6504 -0.3042  0.1770
 6979SOL    HW132396   4.352   2.098   5.896  0.5663 -0.4396  0.3950
 6979SOL    HW232397   4.493   2.097   5.837  0.7389 -0.2668  0.2545
 6980SOL     OW32398   0.130   3.783   0.202  0.2489 -0.3795 -0.0190
 6980SOL    HW132399   0.038   3.795   0.227  0.5850  1.3300  0.4149
 6980SOL    HW232400   0.167   3.773   0.289  1.7742 -1.2143 -0.7715
 6981SOL     OW32401   2.179   2.759   2.933  0.0035 -0.5705 -0.1779
 6981SOL    HW132402   2.153   2.822   2.866 -1.1594 -0.0284  0.7690
 6981SOL    HW232403   2.136   2.802   3.008 -0.1754 -0.8554 -0.1146
 6982SOL     OW32404   3.615   2.561   4.521 -0.1746  0.4577  0.7024
 6982SOL    HW132405   3.686   2.524   4.470  0.8479 -0.0905  2.5417
 6982SOL    HW232406   3.599   2.647   4.481  0.5233 -0.0680 -0.7123
 6983SOL     OW32407   3.464   2.108   3.552  0.2810  0.2586 -0.0133
 6983SOL    HW132408   3.488   2.200   3.557  3.2324 -0.5122 -0.1357
 6983SOL    HW232409   3.495   2.091   3.463 -0.3427  3.1867 -0.7833
 6984SOL     OW32410   0.528   4.138   5.178  0.5236  0.5669  0.4666
 6984SOL    HW132411   0.544   4.139   5.084  1.2639 -1.8733  0.5492
 6984SOL    HW232412   0.582   4.063   5.205 -2.3332 -2.1307 -1.3721
 6985SOL     OW32413   0.832   1.097   6.718 -0.3108  0.2395  0.5790
 6985SOL    HW132414   0.740   1.080   6.739 -1.1230  1.0359 -2.3283
 6985SOL    HW232415   0.874   1.062   6.796  0.4275 -3.6013 -1.5870
 6986SOL     OW32416   2.200   1.493   3.523 -0.0189 -0.0509  0.1038
 6986SOL    HW132417   2.188   1.406   3.561 -0.7664  1.1947  2.7535
 6986SOL    HW232418   2.171   1.554   3.591 -0.8940  0.2668 -0.5578
 6987SOL     OW32419   3.228   1.581  10.781  0.1039 -0.3645  0.2288
 6987SOL    HW132420   3.298   1.555  10.721 -1.1839 -1.4768 -0.7908
 6987SOL    HW232421   3.159   1.525  10.746 -0.0536 -0.2963  0.4281
 6988SOL     OW32422   0.343   3.526   8.067 -0.1945  0.1592 -0.3579
 6988SOL    HW132423   0.415   3.574   8.025 -0.2540 -0.6611 -1.3953
 6988SOL    HW232424   0.389   3.442   8.073 -1.3110 -0.3643  0.7764
 6989SOL     OW32425   0.387   3.657   5.648  0.4889 -0.2826  0.7380
 6989SOL    HW132426   0.351   3.608   5.574 -0.0156 -1.8450  2.0174
 6989SOL    HW232427   0.461   3.707   5.613  2.3797 -2.6460  1.3757
 6990SOL     OW32428   1.568   4.336   5.155  0.6522  0.1833  0.1601
 6990SOL    HW132429   1.609   4.273   5.095 -0.5931 -1.1783  0.7482
 6990SOL    HW232430   1.648   4.362   5.200  0.3233 -0.2630  0.9879
 6991SOL     OW32431   0.089   2.384  15.201 -0.0754 -0.1114  0.3044
 6991SOL    HW132432   0.033   2.319  15.244  0.0418 -1.6000 -1.7794
 6991SOL    HW232433   0.161   2.369  15.261  0.4068  1.7740  0.2026
 6992SOL     OW32434   2.318   3.448   7.508  0.1660  0.2366 -0.1171
 6992SOL    HW132435   2.238   3.475   7.463 -0.9005 -0.1819  1.5366
 6992SOL    HW232436   2.383   3.456   7.439 -0.0002 -2.6524 -0.6321
 6993SOL     OW32437   0.644   3.194   8.463 -0.2506  0.2747 -0.2338
 6993SOL    HW132438   0.657   3.228   8.551  4.0212 -2.3303  0.0798
 6993SOL    HW232439   0.698   3.257   8.415  0.2317 -0.0468 -0.1037
 6994SOL     OW32440   4.522   3.360   8.396  0.1290  0.5328 -0.0368
 6994SOL    HW132441   4.507   3.454   8.383  0.7197  0.3209 -2.2911
 6994SOL    HW232442   4.469   3.326   8.323  0.0073 -1.4038  0.9824
 6995SOL     OW32443   0.702   3.516  17.490  0.5130  0.2702  0.2669
 6995SOL    HW132444   0.616   3.492  17.525 -0.0834  2.8562  0.5591
 6995SOL    HW232445   0.760   3.491  17.561  1.3703  1.4136 -0.0299
 6996SOL     OW32446   1.946   0.939  17.641 -0.1907 -0.5587  0.3390
 6996SOL    HW132447   2.003   0.954   0.020  0.2920  1.6585 -0.4673
 6996SOL    HW232448   1.859   0.942  17.680  0.5362  1.4493  1.8110
 6997SOL     OW32449   4.172   4.013   7.911  0.5013  0.2578  0.1193
 6997SOL    HW132450   4.264   3.997   7.932  0.3127 -0.8487  0.1256
 6997SOL    HW232451   4.177   4.105   7.885 -0.8696 -0.0625 -1.3582
 6998SOL     OW32452   0.712   4.535   8.202  0.4481  0.0346  0.0750
 6998SOL    HW132453   0.649   4.517   8.271  0.1942 -1.7064 -0.6338
 6998SOL    HW232454   0.788   4.560   8.256 -1.0869  0.5010  2.0237
 6999SOL     OW32455   3.037   0.801   9.912  0.5237  0.1433 -0.0122
 6999SOL    HW132456   3.117   0.806   9.861  0.1299  2.5556 -0.3619
 6999SOL    HW232457   3.009   0.712   9.888  0.0509  0.2975 -0.0443
 7000SOL     OW32458   0.783   0.042   0.084 -0.6230 -0.2668  0.3497
 7000SOL    HW132459   0.730   0.111   0.042  0.3651 -1.2978 -2.5940
 7000SOL    HW232460   0.857   0.093   0.117 -1.0035 -1.1739  2.6106
 7001SOL     OW32461   1.599   0.253   8.952  0.3668  0.3314  0.2366
 7001SOL    HW132462   1.504   0.258   8.948  0.1995 -3.4795 -0.5234
 7001SOL    HW232463   1.631   0.238   8.863 -2.3237  0.9160 -0.8222
 7002SOL     OW32464   1.897   2.405   9.196 -0.0681  0.0027 -0.0943
 7002SOL    HW132465   1.827   2.355   9.237 -2.9607  1.7711 -2.7922
 7002SOL    HW232466   1.943   2.443   9.271 -0.1510  0.8532 -0.4645
 7003SOL     OW32467   2.446   0.342   6.295  0.6422 -0.0324  0.1750
 7003SOL    HW132468   2.437   0.317   6.203  0.3616 -1.8456  0.6954
 7003SOL    HW232469   2.362   0.322   6.337  1.1442 -2.1635  0.1425
 7004SOL     OW32470   2.817   0.781   4.970  0.0961 -0.8917 -0.3571
 7004SOL    HW132471   2.753   0.711   4.983 -1.2940  0.5191  0.4168
 7004SOL    HW232472   2.840   0.800   5.061  1.9567  0.7081 -1.1711
 7005SOL     OW32473   1.093   2.977   2.798  0.6531 -0.5117 -0.1543
 7005SOL    HW132474   1.117   2.978   2.706  1.4676  0.4292  0.0684
 7005SOL    HW232475   1.019   3.039   2.798 -0.1822 -1.5011  0.5702
 7006SOL     OW32476   4.191   0.509   0.823 -0.0066 -0.2569 -0.4173
 7006SOL    HW132477   4.152   0.583   0.869 -0.5473 -1.3256  0.8252
 7006SOL    HW232478   4.231   0.551   0.746 -1.1867  0.3539 -0.6843
 7007SOL     OW32479   4.123   2.100   5.532  0.7763  0.3407 -0.5466
 7007SOL    HW132480   4.063   2.035   5.496 -1.4598  1.2555  1.4922
 7007SOL    HW232481   4.076   2.178   5.503 -0.7113 -0.6196 -0.7278
 7008SOL     OW32482   2.869   3.639   6.988 -0.8248 -0.1153  0.3084
 7008SOL    HW132483   2.951   3.598   7.017  0.0570  1.6577  0.2814
 7008SOL    HW232484   2.827   3.570   6.937 -1.1494  0.4578 -0.1979
 7009SOL     OW32485   2.633   1.034   4.901 -0.1289 -0.2911  0.2117
 7009SOL    HW132486   2.583   1.056   4.980 -2.9476 -0.2013 -1.6087
 7009SOL    HW232487   2.721   1.018   4.934 -0.3159 -1.7037  0.0668
 7010SOL     OW32488   1.283   3.546  12.336 -0.4526  0.3014  0.1766
 7010SOL    HW132489   1.288   3.536  12.241  1.9804 -0.2370  0.3658
 7010SOL    HW232490   1.356   3.605  12.356  0.8426 -1.7596  1.4943
 7011SOL     OW32491   4.551   1.258  12.605  0.3432 -0.1155 -0.1406
 7011SOL    HW132492   4.512   1.231  12.523  1.7190  2.0106 -1.5102
 7011SOL    HW232493   4.631   1.206  12.599  1.6589  1.7561  0.9799
 7012SOL     OW32494   0.238   2.810   4.402 -0.4965  0.1033 -0.0984
 7012SOL    HW132495   0.155   2.778   4.438 -0.5369 -0.4665 -0.6982
 7012SOL    HW232496   0.288   2.729   4.393  0.5330  0.8191 -0.7599
 7013SOL     OW32497   4.389   0.756   8.680  0.0197 -0.3238  0.6566
 7013SOL    HW132498   4.436   0.717   8.754  1.0103  1.5372  1.0278
 7013SOL    HW232499   4.307   0.796   8.709  0.3608  0.1915  0.9115
 7014SOL     OW32500   2.888   0.548   3.801 -0.2947  0.3280 -0.1096
 7014SOL    HW132501   2.900   0.643   3.806 -2.0323  0.5977 -0.8176
 7014SOL    HW232502   2.859   0.525   3.890  2.1272  0.1865  0.6390
 7015SOL     OW32503   0.006   4.062   3.834  0.2087  0.5124  0.2751
 7015SOL    HW132504   0.100   4.045   3.837 -0.4760 -3.5078 -1.6804
 7015SOL    HW232505   4.698   4.020   3.913  0.4833  0.4216  0.3365
 7016SOL     OW32506   2.005   2.356   4.116  0.0130  0.2936 -0.5554
 7016SOL    HW132507   2.054   2.353   4.034 -1.2058  1.2481 -1.3061
 7016SOL    HW232508   1.916   2.360   4.081 -0.9270 -0.1965  1.7437
 7017SOL     OW32509   1.531   1.465   6.380  0.3941  0.2091  0.2603
 7017SOL    HW132510   1.512   1.381   6.421 -0.4432  0.3251  0.1019
 7017SOL    HW232511   1.518   1.525   6.454 -0.5274 -0.0118  0.2730
 7018SOL     OW32512   0.507   3.161   3.079 -0.2796 -0.0940 -0.4945
 7018SOL    HW132513   0.569   3.105   3.032 -0.3012 -1.1049  0.6671
 7018SOL    HW232514   0.543   3.246   3.057  0.0489 -0.3342 -0.8881
 7019SOL     OW32515   1.791   1.025   0.739 -0.3926  0.0913  0.4798
 7019SOL    HW132516   1.821   1.114   0.723  0.5199  0.1820  2.7346
 7019SOL    HW232517   1.697   1.041   0.735 -0.6209 -1.0745  1.1315
 7020SOL     OW32518   4.035   0.075   8.319  0.4340 -0.3946 -0.1602
 7020SOL    HW132519   4.011   0.015   8.390 -0.9647  1.1890  0.7001
 7020SOL    HW232520   4.006   0.159   8.355 -1.5144 -0.1474 -2.3179
 7021SOL     OW32521   1.740   3.639   3.773 -0.1418 -0.4185  0.2902
 7021SOL    HW132522   1.828   3.671   3.753 -0.5196  0.5664  0.2105
 7021SOL    HW232523   1.731   3.685   3.857 -2.0336  3.1045 -1.8943
 7022SOL     OW32524   3.075   0.992   2.726 -0.0554  0.2441 -0.0939
 7022SOL    HW132525   3.132   0.924   2.759 -0.7264  1.1169  2.8500
 7022SOL    HW232526   3.130   1.028   2.656  1.4131 -0.3748  0.7646
 7023SOL     OW32527   4.519   3.630  17.599  0.5966 -0.3794  0.0817
 7023SOL    HW132528   4.498   3.566  17.667 -1.2273 -2.4243 -2.4181
 7023SOL    HW232529   4.443   3.688  17.606  1.5024  0.8874 -0.4950
 7024SOL     OW32530   0.305   2.306  15.731 -0.1245  0.3253 -0.1065
 7024SOL    HW132531   0.298   2.386  15.679 -3.2776  0.9726  1.3414
 7024SOL    HW232532   0.394   2.280  15.704 -0.6606 -2.1352  0.4835
 7025SOL     OW32533   3.338   1.938   7.221  0.3595  0.0911  0.0819
 7025SOL    HW132534   3.431   1.919   7.210  0.6671  0.6336  1.7514
 7025SOL    HW232535   3.338   2.030   7.247  0.1325 -0.2272  1.1977
 7026SOL     OW32536   1.772   2.112   1.604  0.0018  0.6263  0.5706
 7026SOL    HW132537   1.849   2.120   1.661  0.2964  0.1415  0.2350
 7026SOL    HW232538   1.773   2.180   1.537  2.9828 -0.4953 -0.5024
 7027SOL     OW32539   2.714   3.967   2.519 -0.1650 -0.1581 -0.3914
 7027SOL    HW132540   2.683   3.912   2.591 -1.0033 -2.4788 -2.5256
 7027SOL    HW232541   2.694   3.912   2.444  0.4040  0.3497 -0.9161
 7028SOL     OW32542   3.035   1.188   8.099  0.1614 -0.3507  0.0602
 7028SOL    HW132543   3.061   1.099   8.074 -0.1525 -0.7777  1.2512
 7028SOL    HW232544   3.098   1.203   8.169  0.1610 -0.5588  0.1054
 7029SOL     OW32545   0.843   1.851   8.324 -0.4794 -0.3987  0.1407
 7029SOL    HW132546   0.864   1.822   8.412  1.2335  1.7920  0.4476
 7029SOL    HW232547   0.754   1.823   8.303 -0.2579 -0.3572 -0.8997
 7030SOL     OW32548   1.832   4.423   8.107 -0.0210  0.1577  0.8350
 7030SOL    HW132549   1.883   4.403   8.185  0.3843  0.2957  0.6070
 7030SOL    HW232550   1.821   4.518   8.118 -1.8378 -0.2706  2.7191
 7031SOL     OW32551   3.464   0.448   3.587  0.9419 -0.7678  0.5569
 7031SOL    HW132552   3.473   0.543   3.588  2.2065 -0.8956  1.0352
 7031SOL    HW232553   3.465   0.434   3.681  1.4356 -1.8296  0.3898
 7032SOL     OW32554   0.709   4.048   6.179 -0.4908 -0.3257 -0.7816
 7032SOL    HW132555   0.671   4.071   6.264 -1.8508 -2.7422 -0.7275
 7032SOL    HW232556   0.676   4.111   6.116  0.0729  0.9548  0.2095
 7033SOL     OW32557   3.684   1.701   9.124  0.3501  0.2145 -0.1525
 7033SOL    HW132558   3.684   1.796   9.140 -1.4351  0.2825 -0.6142
 7033SOL    HW232559   3.694   1.670   9.214 -0.6977 -1.9659 -0.7892
 7034SOL     OW32560   3.537   4.543   5.691  0.0756 -0.0734  0.0842
 7034SOL    HW132561   3.607   4.562   5.628  1.0685 -1.5124  0.7531
 7034SOL    HW232562   3.535   4.447   5.696 -0.9235 -0.0935 -0.6022
 7035SOL     OW32563   2.432   0.029  17.637  0.1468 -0.0063  0.1074
 7035SOL    HW132564   2.425   4.671  17.588  0.5692 -0.3503  0.6168
 7035SOL    HW232565   2.339   0.052  17.643  0.1512  0.1538 -0.4346
 7036SOL     OW32566   3.277   4.256  13.112 -0.4772  0.3055 -0.3155
 7036SOL    HW132567   3.299   4.333  13.060 -1.3615 -0.1858 -1.4277
 7036SOL    HW232568   3.184   4.240  13.097 -0.9146 -0.5775  3.1593
 7037SOL     OW32569   4.388   1.001   6.993  0.2550 -0.5522  0.5666
 7037SOL    HW132570   4.394   0.906   6.997  1.1355 -0.6855 -3.6866
 7037SOL    HW232571   4.362   1.031   6.905  1.5971 -0.1149  0.3123
 7038SOL     OW32572   0.754   4.536   2.677 -0.0657 -0.2278 -0.4977
 7038SOL    HW132573   0.693   4.477   2.722 -0.6068 -0.9714 -2.2219
 7038SOL    HW232574   0.832   4.495   2.715 -0.2572 -0.3379 -0.2232
 7039SOL     OW32575   2.748   4.011   6.297  0.3357 -0.5652 -0.4609
 7039SOL    HW132576   2.723   4.092   6.253  1.0497  0.3498  0.8075
 7039SOL    HW232577   2.681   3.957   6.255  1.2896 -1.1744 -1.1873
 7040SOL     OW32578   1.331   2.761  17.463 -0.1964  0.0414  0.2296
 7040SOL    HW132579   1.267   2.696  17.491 -0.8584  0.6381  0.1119
 7040SOL    HW232580   1.414   2.716  17.474 -1.3332 -1.7576  1.5233
 7041SOL     OW32581   2.498   1.898  12.539 -0.2752  0.0928  0.6063
 7041SOL    HW132582   2.421   1.909  12.484  1.0673  1.2988 -1.0320
 7041SOL    HW232583   2.567   1.934  12.483  0.2792  1.3118  2.0706
 7042SOL     OW32584   4.038   4.038   4.829  0.4999  0.1375  0.2537
 7042SOL    HW132585   4.036   3.952   4.871 -0.7094  0.7775  1.4890
 7042SOL    HW232586   3.951   4.060   4.795 -0.3032 -2.1959  0.8133
 7043SOL     OW32587   1.700   3.377  15.063  0.3701 -0.1557 -0.4710
 7043SOL    HW132588   1.646   3.352  15.139 -0.1464  2.3875 -0.0021
 7043SOL    HW232589   1.674   3.299  15.014  1.2714 -1.1550  0.6453
 7044SOL     OW32590   0.689   3.970   8.551  0.0424  0.6832  0.2940
 7044SOL    HW132591   0.595   3.989   8.540 -0.2748 -0.3822  1.2096
 7044SOL    HW232592   0.693   3.893   8.494 -0.6550 -0.0403  1.2155
 7045SOL     OW32593   1.091   4.100   0.704 -0.6144  1.0696 -0.1048
 7045SOL    HW132594   1.038   4.093   0.625  0.8342  0.0875 -0.9790
 7045SOL    HW232595   1.027   4.053   0.757 -1.6544  0.6132 -1.7610
 7046SOL     OW32596   0.275   2.768   9.189 -0.3143 -0.5188 -0.5269
 7046SOL    HW132597   0.190   2.809   9.203  0.2075  0.3217  0.1604
 7046SOL    HW232598   0.277   2.706   9.263 -0.3976 -0.0228 -0.1120
 7047SOL     OW32599   1.277   1.892  15.978 -0.5147  0.1107  0.0560
 7047SOL    HW132600   1.286   1.875  15.884  0.0352  1.6388 -0.1757
 7047SOL    HW232601   1.363   1.928  16.000 -0.5094  1.4293 -2.0353
 7048SOL     OW32602   0.891   0.486   7.909  0.5283  0.3964  0.0480
 7048SOL    HW132603   0.802   0.507   7.882  0.3775 -1.4632 -0.9645
 7048SOL    HW232604   0.944   0.564   7.891 -1.3401  1.1877 -1.9961
 7049SOL     OW32605   4.066   2.067   8.768  0.0103  0.2290 -0.4756
 7049SOL    HW132606   4.014   2.110   8.700 -2.2925  0.0315  1.1908
 7049SOL    HW232607   4.007   2.077   8.842  0.5538  2.4499 -0.3334
 7050SOL     OW32608   2.998   3.913  17.324  0.0448  0.1416  0.4840
 7050SOL    HW132609   3.073   3.889  17.377  0.5261 -2.7129 -1.4858
 7050SOL    HW232610   3.002   4.008  17.331 -0.5909  0.3984 -2.6780
 7051SOL     OW32611   0.936   3.391   2.593 -0.2725 -0.0767 -0.1625
 7051SOL    HW132612   0.872   3.449   2.552 -0.3485 -0.3466 -0.4195
 7051SOL    HW232613   0.964   3.352   2.510 -2.7450 -0.5224 -0.7891
 7052SOL     OW32614   3.697   4.620  10.465 -0.5078 -0.3201  0.3247
 7052SOL    HW132615   3.629   4.670  10.420  1.6484  1.0724 -1.3837
 7052SOL    HW232616   3.661   4.534  10.445 -1.4781 -0.2971  1.9192
 7053SOL     OW32617   0.487   1.661  17.637 -0.1302 -0.0253 -0.3515
 7053SOL    HW132618   0.504   1.568  17.652  0.9682  0.0857 -0.9294
 7053SOL    HW232619   0.498   1.696   0.028 -2.4568  0.1642 -0.1228
 7054SOL     OW32620   3.945   2.521   7.809  0.4031  0.0962  0.2902
 7054SOL    HW132621   4.022   2.576   7.828  1.4124 -0.6642 -1.6603
 7054SOL    HW232622   3.894   2.583   7.757 -0.0664 -0.6260 -0.0941
 7055SOL     OW32623   1.796   2.103   3.202  0.9806 -0.2778 -0.0583
 7055SOL    HW132624   1.807   2.106   3.297 -0.7869 -1.4651  0.1731
 7055SOL    HW232625   1.884   2.102   3.165  0.5730 -0.8928 -1.0148
 7056SOL     OW32626   0.143   3.319  12.717 -0.1478 -0.2114 -0.5074
 7056SOL    HW132627   0.144   3.407  12.755 -0.3293  0.4375 -2.0265
 7056SOL    HW232628   0.197   3.271  12.780  0.3483  0.4832 -0.3995
 7057SOL     OW32629   4.471   0.903   7.552  0.2304  0.8670  0.3692
 7057SOL    HW132630   4.494   0.864   7.637  1.1770 -2.2686 -1.3393
 7057SOL    HW232631   4.487   0.827   7.496  0.9078  0.3224  1.2916
 7058SOL     OW32632   0.200   3.051   8.105 -0.1614 -0.0821  0.2704
 7058SOL    HW132633   0.267   2.992   8.138 -0.3211  1.3036  3.0487
 7058SOL    HW232634   0.214   3.134   8.152  0.0389 -0.1299  0.2947
 7059SOL     OW32635   1.236   3.971   7.385 -0.1658 -0.1975 -0.2461
 7059SOL    HW132636   1.220   4.065   7.374 -0.0173 -0.2404 -0.8429
 7059SOL    HW232637   1.332   3.967   7.374  0.0611  2.9368  0.5208
 7060SOL     OW32638   2.735   3.462  12.274  0.4914  0.0668  0.3436
 7060SOL    HW132639   2.815   3.505  12.242 -0.5640  1.5691 -0.2784
 7060SOL    HW232640   2.667   3.519  12.239 -0.0554 -0.2621  0.8723
 7061SOL     OW32641   3.061   3.841   3.907  0.4429  0.4545  0.1822
 7061SOL    HW132642   3.006   3.770   3.941 -0.9642  0.3716 -2.2038
 7061SOL    HW232643   3.000   3.883   3.846  0.1892  0.6557  0.5771
 7062SOL     OW32644   0.678   0.920   6.394 -0.6461 -0.3732  0.0762
 7062SOL    HW132645   0.647   0.882   6.312  0.4582 -0.4822 -0.2808
 7062SOL    HW232646   0.599   0.970   6.416  0.5715  1.4114  0.3285
 7063SOL     OW32647   3.934   0.337   7.825 -0.0596  0.0849  0.0760
 7063SOL    HW132648   3.986   0.348   7.904  3.0597  0.1381 -2.0099
 7063SOL    HW232649   3.857   0.391   7.845 -0.1218  0.6272 -1.6648
 7064SOL     OW32650   2.603   3.117   8.384  0.2542 -0.1446 -0.2845
 7064SOL    HW132651   2.648   3.133   8.301  1.8381 -0.7198  0.4766
 7064SOL    HW232652   2.671   3.078   8.439 -1.3445  0.6039  2.2409
 7065SOL     OW32653   4.191   0.844   4.823  0.4440  0.1644  0.4233
 7065SOL    HW132654   4.114   0.791   4.802  2.0116 -0.7724 -2.8659
 7065SOL    HW232655   4.164   0.888   4.904 -2.5499 -1.7639  0.4711
 7066SOL     OW32656   4.250   0.979   9.147 -0.7582  0.4307  0.0144
 7066SOL    HW132657   4.296   1.039   9.206  0.9101 -0.1364 -0.6897
 7066SOL    HW232658   4.211   0.915   9.208  0.3985  1.2199  1.5792
 7067SOL     OW32659   3.943   4.486  16.677 -0.1175  0.3326  0.0859
 7067SOL    HW132660   3.912   4.568  16.638  1.4669  0.2332 -1.3940
 7067SOL    HW232661   3.867   4.459  16.729 -0.1926 -2.6041 -1.5539
 7068SOL     OW32662   4.344   0.818   0.392 -0.1360  0.2459 -0.5692
 7068SOL    HW132663   4.254   0.843   0.371 -0.1040  1.6162  0.8966
 7068SOL    HW232664   4.373   0.787   0.307  2.1575 -0.3781  0.4290
 7069SOL     OW32665   0.677   0.396   9.212 -0.3805 -0.5654  0.0595
 7069SOL    HW132666   0.729   0.316   9.210  0.2000 -0.2152  0.7936
 7069SOL    HW232667   0.670   0.415   9.306 -1.6657 -1.3062  0.1124
 7070SOL     OW32668   2.275   1.853   2.634  0.7203  0.0026 -0.1945
 7070SOL    HW132669   2.247   1.786   2.696  0.0145  2.3256  1.9700
 7070SOL    HW232670   2.196   1.906   2.635  0.3092 -0.5339 -3.4765
 7071SOL     OW32671   3.464   1.951  11.305 -0.0566 -0.0191 -0.0729
 7071SOL    HW132672   3.510   1.872  11.278  0.5427  0.4174 -0.3245
 7071SOL    HW232673   3.433   1.971  11.217 -2.7026  0.1635  0.8882
 7072SOL     OW32674   4.005   3.146   0.565 -0.1076  0.4670 -0.2408
 7072SOL    HW132675   3.980   3.053   0.557  1.6264  0.1690 -2.4819
 7072SOL    HW232676   3.923   3.192   0.582 -0.1366  0.3581 -0.0893
 7073SOL     OW32677   0.365   0.474   8.013  0.2068 -0.5191  0.1109
 7073SOL    HW132678   0.370   0.451   7.920 -2.5026 -3.5026  0.7033
 7073SOL    HW232679   0.382   0.394   8.063  2.7972 -0.0999 -0.0795
 7074SOL     OW32680   4.684   1.075   6.332  0.4568  0.3159  0.0486
 7074SOL    HW132681   4.721   1.160   6.310 -0.3154  0.5141 -0.4739
 7074SOL    HW232682   0.036   1.048   6.383  0.9607 -2.7675 -2.3609
 7075SOL     OW32683   0.622   3.677   4.692 -0.0572 -1.1796 -0.6864
 7075SOL    HW132684   0.560   3.693   4.622  1.1536 -0.4064 -1.5804
 7075SOL    HW232685   0.637   3.586   4.664  1.0904 -0.8608 -1.0909
 7076SOL     OW32686   2.500   4.605  10.487 -0.0153 -0.2051 -0.5509
 7076SOL    HW132687   2.515   4.688  10.442 -1.3554  0.0249 -0.5486
 7076SOL    HW232688   2.487   4.640  10.575 -0.8584 -0.2994 -0.6461
 7077SOL     OW32689   4.455   1.686  11.790 -0.2912 -0.1119 -0.1309
 7077SOL    HW132690   4.411   1.726  11.866 -0.3288 -0.2967 -0.0569
 7077SOL    HW232691   4.541   1.726  11.804  0.6960 -2.2618 -0.0867
 7078SOL     OW32692   2.341   1.388   9.294 -0.3752 -0.0006  0.3837
 7078SOL    HW132693   2.252   1.360   9.319  0.9823 -2.1495  2.8534
 7078SOL    HW232694   2.365   1.329   9.223  1.2349 -0.7887  1.5842
 7079SOL     OW32695   1.179   4.507   6.326 -0.4836  0.2844 -0.2977
 7079SOL    HW132696   1.209   4.501   6.235  0.7352 -0.1253  0.1372
 7079SOL    HW232697   1.198   4.598   6.350  1.2360  0.2224 -1.4494
 7080SOL     OW32698   0.053   2.708   3.964  0.4277 -0.3094 -0.1310
 7080SOL    HW132699   0.115   2.752   4.022 -0.1583  1.2113 -0.6524
 7080SOL    HW232700   0.113   2.699   3.889  4.1149  1.2008  2.6415
 7081SOL     OW32701   1.826   3.133   9.850 -0.6493 -0.2153 -0.1221
 7081SOL    HW132702   1.878   3.056   9.872 -1.1836 -0.0103  1.7978
 7081SOL    HW232703   1.855   3.194   9.918  0.5754  0.5178 -1.2991
 7082SOL     OW32704   0.651   4.635   1.749  0.2527  0.5856  0.3276
 7082SOL    HW132705   0.603   4.718   1.746 -2.9073 -1.0919  3.4654
 7082SOL    HW232706   0.622   4.602   1.664 -0.4245 -1.2810  1.2940
 7083SOL     OW32707   3.624   0.284   9.122  0.1723  0.0067  0.3965
 7083SOL    HW132708   3.630   0.378   9.142 -0.7248  0.9064 -3.5570
 7083SOL    HW232709   3.565   0.289   9.046 -0.1585  0.2456  0.6702
 7084SOL     OW32710   3.252   4.289   2.424 -0.4953  0.1515  0.1523
 7084SOL    HW132711   3.316   4.224   2.454  0.4549  0.8571 -0.3326
 7084SOL    HW232712   3.190   4.229   2.383  2.1418 -1.7638 -1.0932
 7085SOL     OW32713   2.777   1.402   7.007 -0.1915  0.2243  0.0939
 7085SOL    HW132714   2.741   1.447   7.083 -4.2210  2.2208 -3.0040
 7085SOL    HW232715   2.856   1.361   7.042 -0.7291 -0.8300  0.0902
 7086SOL     OW32716   1.634   4.642  16.868 -0.4264 -0.1871 -0.6404
 7086SOL    HW132717   1.569   4.713  16.865  0.3715  0.5891  0.3095
 7086SOL    HW232718   1.714   4.684  16.901 -0.1710 -0.4895 -0.8776
 7087SOL     OW32719   3.179   4.134   4.864  0.4115  0.0045  0.2604
 7087SOL    HW132720   3.212   4.199   4.926  2.5106 -0.2807 -0.5654
 7087SOL    HW232721   3.208   4.050   4.901 -0.3579 -0.6598 -0.6396
 7088SOL     OW32722   4.691   0.287   1.950 -0.3088  0.2921  0.2890
 7088SOL    HW132723   4.717   0.320   2.036 -0.7570  0.2704  0.4368
 7088SOL    HW232724   4.596   0.274   1.954 -0.6982  4.0493  2.8847
 7089SOL     OW32725   0.560   4.488   5.701 -0.0690 -0.0106 -0.1669
 7089SOL    HW132726   0.632   4.528   5.652 -0.7892  1.7205  0.1861
 7089SOL    HW232727   0.492   4.520   5.642  0.6421  1.1100 -0.3694
 7090SOL     OW32728   0.402   1.409  13.438  0.0550 -0.0541 -0.3711
 7090SOL    HW132729   0.481   1.373  13.396  0.3694  1.4674 -1.0916
 7090SOL    HW232730   0.419   1.501  13.455  0.7432 -0.0948 -0.8398
 7091SOL     OW32731   1.892   2.751   3.700 -0.2596 -0.3062  0.6359
 7091SOL    HW132732   1.842   2.825   3.736  0.0593  1.3450 -2.3045
 7091SOL    HW232733   1.829   2.681   3.712 -0.3590  0.0092  1.9555
 7092SOL     OW32734   1.257   2.253   2.459  0.0442  0.0293  0.3316
 7092SOL    HW132735   1.346   2.259   2.494  1.1421  1.2806 -2.6206
 7092SOL    HW232736   1.226   2.167   2.486  1.1133  0.2528  2.3214
 7093SOL     OW32737   2.633   3.867   4.229  0.0746  0.1477  0.1594
 7093SOL    HW132738   2.598   3.956   4.234  2.9156  1.3923 -2.1993
 7093SOL    HW232739   2.727   3.883   4.218  0.1232  0.6191  1.2930
 7094SOL     OW32740   0.176   0.816   6.746  0.3258  0.2131  0.3176
 7094SOL    HW132741   0.208   0.852   6.664  0.1285  0.4949  0.3653
 7094SOL    HW232742   0.138   0.891   6.792  1.1643 -0.8097  2.6960
 7095SOL     OW32743   3.989   0.950   5.565  0.0192 -0.1058  0.2427
 7095SOL    HW132744   4.031   0.923   5.484 -0.0941 -1.1177  0.5286
 7095SOL    HW232745   4.064   0.958   5.624  0.3874  0.4591 -0.2999
 7096SOL     OW32746   3.452   3.701  10.471 -0.1285  0.1685  0.0735
 7096SOL    HW132747   3.373   3.754  10.458 -0.3192 -0.9961 -3.3823
 7096SOL    HW232748   3.458   3.659  10.386  1.1303  0.7298 -0.1225
 7097SOL     OW32749   4.117   2.246  12.394  0.0146  0.1652  0.1775
 7097SOL    HW132750   4.070   2.212  12.318 -1.5241  3.2085 -0.2597
 7097SOL    HW232751   4.059   2.226  12.468  0.1643  1.2168  0.5932
 7098SOL     OW32752   1.293   1.578   8.106 -0.4161  0.0564  0.0826
 7098SOL    HW132753   1.246   1.496   8.124 -0.7645  0.3250  0.3995
 7098SOL    HW232754   1.235   1.647   8.137  0.4632 -0.2470  2.3858
 7099SOL     OW32755   4.079   1.832  15.152  0.5050  0.4284 -0.3993
 7099SOL    HW132756   4.022   1.792  15.086 -1.0480 -0.6826  1.6052
 7099SOL    HW232757   4.149   1.771  15.177 -0.8706 -0.8457  0.3415
 7100SOL     OW32758   0.981   0.429   2.652  0.3651  0.2773 -0.2116
 7100SOL    HW132759   0.954   0.453   2.740 -0.5107 -0.0485 -0.3965
 7100SOL    HW232760   1.022   0.344   2.667 -1.4639  0.3269  4.9683
 7101SOL     OW32761   3.489   2.730   8.094 -0.7162 -0.3038 -0.4737
 7101SOL    HW132762   3.460   2.713   8.004 -0.5724  0.2226 -0.6254
 7101SOL    HW232763   3.465   2.822   8.110 -0.5870 -0.9460  3.4364
 7102SOL     OW32764   3.039   3.535  15.680 -0.1717  0.6069 -0.3938
 7102SOL    HW132765   3.078   3.507  15.597 -0.5655  0.0276 -0.3862
 7102SOL    HW232766   2.958   3.566  15.641 -1.6809 -1.6350  0.9471
 7103SOL     OW32767   2.914   2.809   1.861  0.3752  0.0746  0.2035
 7103SOL    HW132768   2.874   2.738   1.811  0.4386  1.1730 -1.4104
 7103SOL    HW232769   2.837   2.863   1.879  2.6604  2.2705  3.4785
 7104SOL     OW32770   4.309   0.071   5.306  0.0939  0.1883  0.5132
 7104SOL    HW132771   4.391   0.063   5.257  0.6681  1.6857  1.2351
 7104SOL    HW232772   4.347   0.051   5.392  0.3459  2.3930  0.9110
 7105SOL     OW32773   0.785   2.013   3.316  0.2774  0.0157 -0.1358
 7105SOL    HW132774   0.865   2.065   3.321 -0.5847  1.2770  0.5113
 7105SOL    HW232775   0.794   1.968   3.232  1.2483  0.2968 -0.1870
 7106SOL     OW32776   2.587   2.842   8.709 -0.0774  0.4491 -0.3066
 7106SOL    HW132777   2.498   2.811   8.691  0.0415  0.8052 -1.4774
 7106SOL    HW232778   2.570   2.920   8.761  1.3705 -0.0392  0.8939
 7107SOL     OW32779   0.662   0.192   4.842  0.0987  0.4265 -0.5304
 7107SOL    HW132780   0.715   0.272   4.851  0.1950  0.0177  2.5485
 7107SOL    HW232781   0.697   0.145   4.918  1.6847  3.5198  0.6362
 7108SOL     OW32782   3.805   2.287   7.243 -0.1376 -0.3385 -0.5326
 7108SOL    HW132783   3.783   2.364   7.295  2.6936 -0.7888  1.3048
 7108SOL    HW232784   3.786   2.312   7.152 -2.5895 -1.1088 -0.2495
 7109SOL     OW32785   3.716   2.778   8.265  0.4924 -0.0437 -0.5556
 7109SOL    HW132786   3.754   2.690   8.273 -0.8903 -0.5201  0.7165
 7109SOL    HW232787   3.627   2.758   8.238  0.6355 -1.8342  0.2947
 7110SOL     OW32788   0.184   0.485   0.616 -0.2834 -0.1989 -0.1263
 7110SOL    HW132789   0.136   0.466   0.697 -0.7892  0.9595 -0.1560
 7110SOL    HW232790   0.247   0.413   0.606 -1.0479 -0.9003  0.1337
 7111SOL     OW32791   0.607   1.978  10.993  0.0633  0.1746  0.3512
 7111SOL    HW132792   0.681   1.961  11.051  1.2129 -2.9685 -2.0702
 7111SOL    HW232793   0.657   1.984  10.911 -0.6610  0.6837 -0.0545
 7112SOL     OW32794   0.727   3.137   2.152 -0.1201 -0.0969 -0.3395
 7112SOL    HW132795   0.750   3.191   2.228 -1.7982 -1.9997  1.5160
 7112SOL    HW232796   0.791   3.066   2.156 -1.0444 -0.8039  2.5259
 7113SOL     OW32797   3.911   0.474   3.842 -0.1472 -0.0394 -0.7490
 7113SOL    HW132798   3.844   0.459   3.775 -1.3380  1.3181  0.1285
 7113SOL    HW232799   3.983   0.419   3.814 -0.8441 -0.6202 -1.3992
 7114SOL     OW32800   3.386   2.324   3.825  0.7869  0.0510  0.1045
 7114SOL    HW132801   3.461   2.267   3.807 -0.1130 -0.5494 -1.8153
 7114SOL    HW232802   3.343   2.264   3.886 -0.6478  1.4847  0.4810
 7115SOL     OW32803   3.748   0.796  11.285  0.1650  0.3893 -0.0921
 7115SOL    HW132804   3.801   0.721  11.257  0.3917 -0.6004  2.8958
 7115SOL    HW232805   3.716   0.810  11.196  2.0665 -0.5949 -0.9424
 7116SOL     OW32806   3.483   3.656   4.667  0.2880 -0.0514  0.0084
 7116SOL    HW132807   3.479   3.563   4.642  0.9251 -0.3413  1.0042
 7116SOL    HW232808   3.453   3.655   4.757 -0.8131  0.1116 -0.3508
 7117SOL     OW32809   0.658   2.221   6.317 -0.0468 -0.2893  0.0614
 7117SOL    HW132810   0.577   2.210   6.268  0.5998  1.3935 -1.3785
 7117SOL    HW232811   0.675   2.140   6.366  0.8233 -0.5884 -0.7385
 7118SOL     OW32812   3.322   4.633   8.641 -0.0181  0.4314 -0.2592
 7118SOL    HW132813   3.376   4.631   8.561  0.3207  1.3030 -0.0515
 7118SOL    HW232814   3.234   4.649   8.608 -0.8466 -1.7550  0.9696
 7119SOL     OW32815   4.532   1.752   9.633  0.6155  0.1166  0.1509
 7119SOL    HW132816   4.458   1.789   9.585 -0.5842 -1.8966  0.4467
 7119SOL    HW232817   4.514   1.778   9.724 -0.2978  0.7167 -0.2092
 7120SOL     OW32818   1.527   1.711   4.279  0.3004  0.2317  0.0035
 7120SOL    HW132819   1.477   1.681   4.204  1.5848  1.0249 -1.1854
 7120SOL    HW232820   1.508   1.805   4.272 -1.6291 -0.0643  1.2825
 7121SOL     OW32821   4.612   4.637   7.000  0.1839  0.1118 -0.7646
 7121SOL    HW132822   4.704   4.610   7.000  0.8881  2.5289  2.7751
 7121SOL    HW232823   4.622   4.712   7.059 -1.5093  0.6678 -1.2027
 7122SOL     OW32824   1.298   2.140   3.119  0.4310  1.0634 -0.6170
 7122SOL    HW132825   1.361   2.150   3.048 -0.3192 -0.4132 -1.4791
 7122SOL    HW232826   1.228   2.192   3.079 -0.2592 -0.7355 -1.7114
 7123SOL     OW32827   2.990   4.161   6.140  0.3565 -0.0281  0.2015
 7123SOL    HW132828   2.996   4.108   6.219 -0.1567 -0.3029  0.0581
 7123SOL    HW232829   3.082   4.185   6.128  1.0300 -2.9665 -0.4417
 7124SOL     OW32830   3.935   2.439   0.864  0.3298  0.4042  0.1224
 7124SOL    HW132831   3.870   2.508   0.877  1.1038  1.2861 -0.7397
 7124SOL    HW232832   3.893   2.367   0.912  1.3034 -0.9416 -1.0525
 7125SOL     OW32833   2.044   3.974  14.046 -0.1571 -0.5518  0.4835
 7125SOL    HW132834   2.100   4.050  14.058 -0.5394 -0.2018  0.0388
 7125SOL    HW232835   2.092   3.900  14.084  1.7128  0.1023 -0.6107
 7126SOL     OW32836   1.469   2.471  14.643 -0.0218 -0.3044  0.9812
 7126SOL    HW132837   1.544   2.525  14.619 -1.0308 -0.5042 -2.6860
 7126SOL    HW232838   1.473   2.459  14.738 -1.0442  1.1266  1.1852
 7127SOL     OW32839   0.034   2.469   6.644 -0.1751 -0.0872  0.6882
 7127SOL    HW132840   0.101   2.495   6.708  2.2030 -0.6582 -1.5909
 7127SOL    HW232841   0.064   2.387   6.607 -0.3641  0.3848 -0.5050
 7128SOL     OW32842   0.040   1.475   7.210  0.0048 -0.6759  0.1203
 7128SOL    HW132843   0.131   1.500   7.194  0.4477 -2.3010  0.1012
 7128SOL    HW232844   0.056   1.407   7.276 -0.8140  2.0919  3.1619
 7129SOL     OW32845   2.044   0.927   3.347  0.6408  0.0059  0.1051
 7129SOL    HW132846   2.073   1.012   3.316  0.3368  0.6759  1.6580
 7129SOL    HW232847   2.117   0.898   3.402  0.9027  0.8068  0.1675
 7130SOL     OW32848   1.511   3.207   8.789  0.0205 -0.4542  0.2011
 7130SOL    HW132849   1.437   3.154   8.819  0.7958 -1.9290 -0.4830
 7130SOL    HW232850   1.466   3.291   8.791  0.1840 -0.3020 -2.8013
 7131SOL     OW32851   3.375   2.881   1.770 -0.6006  0.5733  0.1008
 7131SOL    HW132852   3.335   2.797   1.751  0.3696  0.2812 -0.6202
 7131SOL    HW232853   3.313   2.943   1.732 -1.1705 -1.1451 -1.7066
 7132SOL     OW32854   2.994   1.860   6.528 -0.4627  0.0372 -0.2082
 7132SOL    HW132855   3.006   1.766   6.532  1.1348  0.2476  0.2322
 7132SOL    HW232856   2.944   1.873   6.448  0.4089  0.8508 -0.6224
 7133SOL     OW32857   1.016   3.647   3.851 -0.3219 -0.4554  0.2796
 7133SOL    HW132858   1.028   3.652   3.756 -2.2280 -1.6747 -0.0343
 7133SOL    HW232859   1.076   3.574   3.866 -0.8545 -0.2874  3.1456
 7134SOL     OW32860   3.298   1.836   9.476 -0.6032 -0.4607  0.2375
 7134SOL    HW132861   3.378   1.878   9.443 -0.5601 -0.9591 -0.2754
 7134SOL    HW232862   3.286   1.764   9.415  3.3378 -0.5488 -0.4021
 7135SOL     OW32863   1.655   0.024   4.462  0.0593  1.1240  0.1340
 7135SOL    HW132864   1.616   0.072   4.389  0.2225  1.7140  0.4361
 7135SOL    HW232865   1.731   0.076   4.486  0.1385  1.4373 -0.8305
 7136SOL     OW32866   3.135   0.513  12.653 -0.0162  0.2545  0.2308
 7136SOL    HW132867   3.214   0.561  12.677  0.5877 -0.1140 -1.0437
 7136SOL    HW232868   3.135   0.442  12.717  1.7289  0.5591  0.5734
 7137SOL     OW32869   1.854   3.134   9.544  0.2626 -0.6136  0.5624
 7137SOL    HW132870   1.792   3.204   9.523 -1.0024 -2.5472 -2.1471
 7137SOL    HW232871   1.864   3.142   9.639 -2.2465  3.3094  0.4895
 7138SOL     OW32872   4.086   2.674   3.388 -0.3885  0.4461 -0.0420
 7138SOL    HW132873   4.098   2.755   3.339 -3.2155 -0.6824 -2.5641
 7138SOL    HW232874   4.051   2.615   3.321 -0.7336 -0.6606  1.1256
 7139SOL     OW32875   3.406   1.470   9.278  0.6710 -0.2924  0.0446
 7139SOL    HW132876   3.360   1.387   9.288 -2.0616  1.2864  0.3811
 7139SOL    HW232877   3.471   1.457   9.348  0.3037  0.2183  0.4841
 7140SOL     OW32878   2.471   4.576   5.163  0.3473 -0.2502 -0.3352
 7140SOL    HW132879   2.440   4.489   5.186  1.0360 -0.3703  0.1448
 7140SOL    HW232880   2.485   4.611   5.251  0.6254  0.0991 -0.5147
 7141SOL     OW32881   4.703   2.189   3.811  0.0930  0.7549 -0.3212
 7141SOL    HW132882   0.042   2.142   3.756  0.5749 -0.5870  1.3789
 7141SOL    HW232883   4.721   2.150   3.897  0.4787  1.1400 -0.2302
 7142SOL     OW32884   2.453   2.400   5.415 -0.9266  0.1227 -0.6068
 7142SOL    HW132885   2.452   2.305   5.426  2.0302 -0.0239 -1.5171
 7142SOL    HW232886   2.395   2.417   5.489 -0.0320  0.7211 -0.0371
 7143SOL     OW32887   2.967   2.439   2.999 -0.3838 -0.8102  0.4044
 7143SOL    HW132888   3.044   2.383   2.996  0.2863  0.0825  0.8495
 7143SOL    HW232889   2.892   2.398   2.956 -0.8797  1.4922 -0.9646
 7144SOL     OW32890   3.967   2.810   3.989 -0.3222 -0.1264  0.3334
 7144SOL    HW132891   3.875   2.801   3.964  0.2053  0.0965 -1.6893
 7144SOL    HW232892   3.971   2.905   3.983 -1.2148 -0.0382  1.0764
 7145SOL     OW32893   3.129   2.553   6.834 -0.8088  0.2621 -0.1747
 7145SOL    HW132894   3.064   2.596   6.779 -0.0852 -0.9501 -1.9657
 7145SOL    HW232895   3.096   2.463   6.836 -0.2712  0.0984  1.4759
 7146SOL     OW32896   2.500   0.474   6.024 -0.3956  0.0954  0.8212
 7146SOL    HW132897   2.556   0.400   6.048  1.3286  0.3026 -2.6588
 7146SOL    HW232898   2.569   0.538   6.007 -0.4819 -0.1920 -0.6004
 7147SOL     OW32899   2.080   0.639  13.410  0.2231 -0.4898  0.0465
 7147SOL    HW132900   2.141   0.709  13.388  0.0349 -0.1017  0.7651
 7147SOL    HW232901   2.107   0.572  13.347  2.2159  2.1955 -1.9335
 7148SOL     OW32902   4.468   4.690  13.729  0.2987 -0.1731 -0.2720
 7148SOL    HW132903   4.460   0.010  13.645  0.6387 -0.4299 -0.4380
 7148SOL    HW232904   4.505   0.042  13.774  0.3317  1.0756 -2.3899
 7149SOL     OW32905   2.569   2.401  11.441  0.2277  0.5633 -0.0226
 7149SOL    HW132906   2.544   2.322  11.393  1.5142 -0.1905  0.5512
 7149SOL    HW232907   2.664   2.399  11.433  0.1958 -1.6013  0.2081
 7150SOL     OW32908   0.905   3.656   1.956 -0.1515 -0.1276  0.1674
 7150SOL    HW132909   0.882   3.581   1.901 -1.6634 -0.7289  1.6430
 7150SOL    HW232910   0.941   3.723   1.897 -0.7169  0.0789  0.0593
 7151SOL     OW32911   2.206   2.472  17.648  0.3139  0.0979  0.0018
 7151SOL    HW132912   2.152   2.470  17.569 -1.1679  0.7529  0.9781
 7151SOL    HW232913   2.134   2.488   0.013 -0.0462  0.3592 -0.4795
 7152SOL     OW32914   3.148   3.530  15.394 -0.0265 -0.2404 -0.5457
 7152SOL    HW132915   3.230   3.579  15.407 -0.4723  0.1380  0.9076
 7152SOL    HW232916   3.096   3.585  15.336  0.6191  0.9161 -0.0551
 7153SOL     OW32917   3.755   4.191  15.385  0.3579  0.1549  0.0840
 7153SOL    HW132918   3.716   4.240  15.457  0.6679  1.4179 -0.6130
 7153SOL    HW232919   3.710   4.108  15.399 -1.1647  0.6073 -2.1601
 7154SOL     OW32920   4.372   0.048  13.486  0.1596 -0.2706  0.0728
 7154SOL    HW132921   4.330   4.693  13.453 -0.5955 -0.8077  2.2935
 7154SOL    HW232922   4.358   0.103  13.409  0.1201  1.4215  1.2874
 7155SOL     OW32923   1.904   2.693   5.861 -0.5453  0.1450  0.0980
 7155SOL    HW132924   1.871   2.669   5.774 -0.9181  1.4352 -0.1234
 7155SOL    HW232925   1.823   2.685   5.912  1.2938  0.7407  3.1186
 7156SOL     OW32926   4.137   1.388   3.317  0.7144 -0.2692 -0.2873
 7156SOL    HW132927   4.045   1.361   3.326  0.7239  0.5742  2.3490
 7156SOL    HW232928   4.147   1.412   3.225  1.6620  0.5857  0.0438
 7157SOL     OW32929   2.938   0.895   9.269 -0.4756  0.9140  0.5923
 7157SOL    HW132930   2.877   0.843   9.218  0.5747  0.1930  0.0616
 7157SOL    HW232931   2.875   0.961   9.299 -0.3716  0.7307  1.2266
 7158SOL     OW32932   4.664   0.417   2.791  0.3733 -0.1859  0.1796
 7158SOL    HW132933   4.604   0.491   2.785  0.5743 -0.1035 -0.7233
 7158SOL    HW232934   4.610   0.363   2.849  0.5481  0.1006  0.6141
 7159SOL     OW32935   0.138   4.361   6.355 -0.2025  0.0941 -0.2210
 7159SOL    HW132936   0.179   4.302   6.292  1.1183  0.6931  0.0686
 7159SOL    HW232937   0.192   4.337   6.430  0.4112  0.0408 -0.6807
 7160SOL     OW32938   1.740   0.698  12.447  0.1049  0.0741  0.8854
 7160SOL    HW132939   1.695   0.676  12.366  1.4029  1.0739 -0.1090
 7160SOL    HW232940   1.700   0.631  12.503 -1.7505  0.1159 -0.3928
 7161SOL     OW32941   3.075   4.170  11.492 -0.3860  0.0604  0.0694
 7161SOL    HW132942   3.061   4.223  11.570  1.4316  0.9626 -0.2250
 7161SOL    HW232943   3.133   4.102  11.525 -2.7992 -1.4842  1.1117
 7162SOL     OW32944   0.789   2.803  17.429  0.3391 -0.4093 -0.2416
 7162SOL    HW132945   0.759   2.723  17.387  2.1717 -0.4635 -1.4640
 7162SOL    HW232946   0.731   2.799  17.505  3.1185  0.4890  1.8954
 7163SOL     OW32947   4.557   4.327   5.074  0.4282 -0.1207  0.1830
 7163SOL    HW132948   4.545   4.253   5.015  0.6619 -0.0634  0.0646
 7163SOL    HW232949   4.535   4.397   5.013 -0.8031  0.7331  1.6094
 7164SOL     OW32950   3.871   3.280  13.574 -0.4722  0.3924  0.3125
 7164SOL    HW132951   3.890   3.303  13.483  0.8271  0.0251  0.5042
 7164SOL    HW232952   3.948   3.228  13.596 -0.4732  1.5238  2.9844
 7165SOL     OW32953   0.342   4.429   5.857 -0.2759 -0.3458  0.4394
 7165SOL    HW132954   0.339   4.509   5.909  1.2345  0.6319 -0.9897
 7165SOL    HW232955   0.421   4.439   5.804 -1.4272  0.5741 -1.1057
 7166SOL     OW32956   4.383   2.761   2.334 -0.1484  0.8385 -0.3260
 7166SOL    HW132957   4.414   2.741   2.422  2.0358 -0.2785 -1.3538
 7166SOL    HW232958   4.339   2.680   2.311  0.5751  1.2651 -3.2441
 7167SOL     OW32959   3.274   4.471  16.533 -0.0723  0.2053  0.0593
 7167SOL    HW132960   3.201   4.431  16.486  1.0347  1.1361 -2.4011
 7167SOL    HW232961   3.336   4.468  16.460 -2.3752 -0.5758 -1.8630
 7168SOL     OW32962   4.688   0.986   9.170  0.3263 -0.1269 -0.1733
 7168SOL    HW132963   4.714   1.055   9.231  0.1779  2.1469 -2.7165
 7168SOL    HW232964   4.653   0.939   9.246  1.7660  0.0900  0.6111
 7169SOL     OW32965   0.559   1.040   8.405 -0.4839  0.2012  0.6336
 7169SOL    HW132966   0.495   1.068   8.339  0.0437  0.0099  0.0391
 7169SOL    HW232967   0.521   0.956   8.428  0.0317  0.6663  3.1656
 7170SOL     OW32968   0.591   2.316   6.722 -0.0816 -0.4279  0.1129
 7170SOL    HW132969   0.623   2.362   6.800 -0.1994 -1.6289  0.8745
 7170SOL    HW232970   0.664   2.265   6.687 -0.7514 -1.2894 -0.0184
 7171SOL     OW32971   0.994   1.046   8.611 -0.5992  0.1244 -0.5189
 7171SOL    HW132972   0.923   1.090   8.657 -1.6014 -1.2346 -0.7687
 7171SOL    HW232973   0.951   0.989   8.547 -2.1265  0.0331  0.5761
 7172SOL     OW32974   2.383   0.072  11.764 -0.1091  0.1315 -0.0877
 7172SOL    HW132975   2.346   0.146  11.718 -0.5608 -0.3617 -0.5182
 7172SOL    HW232976   2.316   0.059  11.831 -0.3781 -2.2682 -0.8241
 7173SOL     OW32977   4.034   1.542   4.245 -0.1798 -0.0143  0.5541
 7173SOL    HW132978   4.004   1.455   4.219 -0.9469  0.9656 -1.8687
 7173SOL    HW232979   3.973   1.583   4.184  1.4046  1.6993  0.1057
 7174SOL     OW32980   0.076   2.456   5.187 -0.2078  0.2798  0.2094
 7174SOL    HW132981   0.093   2.465   5.093  0.9184 -0.3840  0.3451
 7174SOL    HW232982   0.073   2.546   5.218  2.6980  0.0938  1.0417
 7175SOL     OW32983   4.183   2.302   6.383  0.6961  0.1759 -0.0237
 7175SOL    HW132984   4.135   2.355   6.318 -0.1003 -2.5041 -1.6121
 7175SOL    HW232985   4.227   2.248   6.318 -0.9583  0.6441 -1.5382
 7176SOL     OW32986   0.247   1.398   1.951  0.0509  0.4906  0.0331
 7176SOL    HW132987   0.244   1.332   1.883  0.4555 -0.2890  0.7737
 7176SOL    HW232988   0.158   1.390   1.986  0.1805 -1.3688 -0.0687
 7177SOL     OW32989   1.679   4.653   3.743  0.8007  0.1855 -0.2788
 7177SOL    HW132990   1.672   0.022   3.764  0.2599  0.1185 -0.1673
 7177SOL    HW232991   1.589   4.648   3.709 -0.2217  0.5575  2.3810
 7178SOL     OW32992   4.176   1.119   3.315 -0.3091  0.1136 -0.5259
 7178SOL    HW132993   4.213   1.102   3.402  0.2497  1.3585 -0.5191
 7178SOL    HW232994   4.141   1.208   3.320 -2.3565 -0.5706 -2.7693
 7179SOL     OW32995   1.878   1.259  14.409 -0.1105  0.2046 -0.8443
 7179SOL    HW132996   1.819   1.184  14.414  1.8066 -1.2097  0.9522
 7179SOL    HW232997   1.850   1.296  14.326 -1.8360 -0.3444 -0.5047
 7180SOL     OW32998   0.029   4.182   0.260  0.5443 -0.0618 -0.0142
 7180SOL    HW132999   0.062   4.181   0.350  0.5864 -0.8960 -0.0345
 7180SOL    HW233000   0.086   4.134   0.199  1.2917  0.9975 -0.1423
 7181SOL     OW33001   4.593   1.181   3.786  0.3441 -0.5233  0.0301
 7181SOL    HW133002   4.680   1.207   3.817  0.2449  0.9035 -0.8545
 7181SOL    HW233003   4.615   1.151   3.698  0.9639  2.9187 -0.9967
 7182SOL     OW33004   2.594   1.243  10.935 -0.4534 -0.0199 -0.0520
 7182SOL    HW133005   2.551   1.274  11.015  1.0837 -0.2953  0.8987
 7182SOL    HW233006   2.642   1.165  10.965 -0.5948 -0.3959 -0.8100
 7183SOL     OW33007   3.995   3.627   5.634 -0.4920 -0.4863  0.5427
 7183SOL    HW133008   3.931   3.645   5.564  0.7779 -1.0412 -0.7642
 7183SOL    HW233009   3.944   3.632   5.715 -2.2830  0.4024 -0.6212
 7184SOL     OW33010   3.677   2.323   2.250 -0.1154  0.0735  0.4276
 7184SOL    HW133011   3.633   2.373   2.181  2.2071  0.2427 -0.9377
 7184SOL    HW233012   3.769   2.351   2.247  0.2133 -1.0465  0.1673
 7185SOL     OW33013   1.442   3.505   3.281 -0.0246  0.1418 -0.1388
 7185SOL    HW133014   1.498   3.452   3.225 -2.7590 -2.3612 -0.5114
 7185SOL    HW233015   1.501   3.546   3.345 -1.7760  2.5652 -0.1126
 7186SOL     OW33016   2.893   4.097   7.303  0.1848 -0.1300 -0.7758
 7186SOL    HW133017   2.889   4.160   7.374 -1.2727 -1.3411  0.1999
 7186SOL    HW233018   2.981   4.111   7.269  0.5304 -0.7582 -0.1382
 7187SOL     OW33019   2.902   1.687   6.062  0.6612  0.1976  0.2999
 7187SOL    HW133020   2.895   1.691   5.967 -0.8712 -0.1998  0.3909
 7187SOL    HW233021   2.812   1.711   6.085  0.7901  0.6317  0.3393
 7188SOL     OW33022   3.438   0.317   6.245 -0.1227  0.3795 -0.6994
 7188SOL    HW133023   3.482   0.342   6.326 -0.3613 -0.2929 -0.3644
 7188SOL    HW233024   3.445   0.392   6.185 -1.2003 -1.7733 -3.5483
 7189SOL     OW33025   3.198   0.328   3.306 -0.7838  0.6188 -0.2720
 7189SOL    HW133026   3.111   0.295   3.284 -0.7347  1.4665 -1.7457
 7189SOL    HW233027   3.203   0.304   3.398  0.7136 -1.0776 -0.8113
 7190SOL     OW33028   2.610   1.795   3.652  0.3020  0.6647  0.4937
 7190SOL    HW133029   2.640   1.707   3.670  1.9270  1.3577  1.1308
 7190SOL    HW233030   2.644   1.817   3.565  0.6745  3.6594  1.3696
 7191SOL     OW33031   2.658   0.792   3.783  0.1114 -0.3644 -0.3680
 7191SOL    HW133032   2.672   0.717   3.726  1.0688 -1.9148  1.8842
 7191SOL    HW233033   2.632   0.854   3.716 -0.6433  0.2567  0.4931
 7192SOL     OW33034   3.394   3.203  13.324  0.3098 -0.2752 -0.8390
 7192SOL    HW133035   3.419   3.238  13.409 -2.5385 -0.5691  0.1470
 7192SOL    HW233036   3.300   3.209  13.343  0.6270  1.4738  0.1925
 7193SOL     OW33037   2.882   4.712  16.996 -0.0357  0.1056 -1.3634
 7193SOL    HW133038   2.876   4.619  17.017 -1.4718  0.1647 -1.4953
 7193SOL    HW233039   2.889   0.025  17.084  1.8553 -1.4198 -0.9075
 7194SOL     OW33040   0.618   0.155   3.155 -0.2181  1.2129 -0.3966
 7194SOL    HW133041   0.549   0.207   3.113 -0.1881  0.4501 -1.3780
 7194SOL    HW233042   0.609   0.182   3.246 -0.8004  0.4481 -0.2260
 7195SOL     OW33043   2.176   2.046   1.884 -0.2648 -0.2427  0.8942
 7195SOL    HW133044   2.182   2.136   1.917 -0.1516  0.2655 -0.5284
 7195SOL    HW233045   2.267   2.016   1.879 -0.1441  0.2991 -0.1506
 7196SOL     OW33046   4.243   0.504  10.016 -0.2065  0.1937 -0.4282
 7196SOL    HW133047   4.271   0.417  10.047  1.2539  1.3175  1.4424
 7196SOL    HW233048   4.214   0.479   9.928 -1.1076  1.1874 -0.4089
 7197SOL     OW33049   1.756   0.254  13.011 -0.0536 -0.3898 -0.4626
 7197SOL    HW133050   1.697   0.237  13.084 -0.1768  1.2709 -0.1603
 7197SOL    HW233051   1.833   0.290  13.056 -1.0414 -0.7833  1.5224
 7198SOL     OW33052   0.821   2.733  14.975 -0.4555 -0.5364  0.1323
 7198SOL    HW133053   0.819   2.720  14.880  0.0358 -1.3790  0.2292
 7198SOL    HW233054   0.915   2.738  14.991 -0.7705 -0.2393  1.8821
 7199SOL     OW33055   1.661   4.526   1.059 -0.0903  0.1084 -0.2479
 7199SOL    HW133056   1.602   4.453   1.040 -1.8089  1.4957 -0.2209
 7199SOL    HW233057   1.608   4.604   1.044  0.2520  0.1643 -1.1560
 7200SOL     OW33058   4.059   4.709   8.059 -0.1434 -0.2133  0.1111
 7200SOL    HW133059   4.087   0.069   8.096 -0.9748  0.8757 -1.7592
 7200SOL    HW233060   4.004   4.691   8.135 -0.0077 -1.2481 -0.0251
 7201SOL     OW33061   3.795   0.738   6.584 -0.8059 -0.0531 -0.0789
 7201SOL    HW133062   3.711   0.696   6.566 -0.7759 -0.2575  0.2584
 7201SOL    HW233063   3.773   0.794   6.659  1.4412  0.0779  0.4833
 7202SOL     OW33064   1.296   0.050  13.233 -0.0735  0.0894  0.3521
 7202SOL    HW133065   1.301   0.000  13.315  0.1581 -0.3466  0.0695
 7202SOL    HW233066   1.267   4.704  13.175 -3.9501  0.8888  1.2999
 7203SOL     OW33067   2.389   0.717   5.693  0.3438 -0.1363  0.1262
 7203SOL    HW133068   2.340   0.657   5.638  0.0394  0.4301 -0.2256
 7203SOL    HW233069   2.323   0.734   5.760 -0.0753 -0.1052 -0.2969
 7204SOL     OW33070   0.088   2.684   1.991 -0.0380  0.3218 -0.0270
 7204SOL    HW133071   0.183   2.682   1.981  0.1917  0.6344  1.9913
 7204SOL    HW233072   0.061   2.617   1.929 -1.5368  0.5266  0.3839
 7205SOL     OW33073   0.954   1.856   2.642 -0.0229 -0.4838  0.4048
 7205SOL    HW133074   0.914   1.790   2.585 -0.3719  0.4014 -0.3821
 7205SOL    HW233075   1.037   1.809   2.653 -0.7628 -2.2861 -1.7526
 7206SOL     OW33076   2.640   3.918   8.683 -0.1468  0.3702  0.1530
 7206SOL    HW133077   2.594   3.834   8.683  2.6956 -1.1436 -2.3776
 7206SOL    HW233078   2.613   3.949   8.597 -2.5563 -0.9592  0.4213
 7207SOL     OW33079   4.655   1.919   0.281 -0.4286 -0.2295 -0.3582
 7207SOL    HW133080   4.714   1.844   0.276  0.6326  0.6591 -0.9359
 7207SOL    HW233081   4.705   1.985   0.235  0.1816 -1.4260 -1.3892
 7208SOL     OW33082   3.856   1.201   8.769  0.1837 -0.3981  0.0940
 7208SOL    HW133083   3.883   1.261   8.700  1.2439 -0.8172  0.1433
 7208SOL    HW233084   3.775   1.237   8.805  0.5931  0.3224  0.2849
 7209SOL     OW33085   4.230   0.510  10.303 -0.0766 -0.2863 -0.2069
 7209SOL    HW133086   4.256   0.506  10.211  0.1272 -1.9799 -0.0841
 7209SOL    HW233087   4.212   0.604  10.307 -0.8398 -0.4211 -0.4847
 7210SOL     OW33088   0.121   1.878   9.233  0.3793  0.6998  0.1288
 7210SOL    HW133089   0.049   1.864   9.172  0.8098 -0.7594 -0.0309
 7210SOL    HW233090   0.106   1.800   9.287 -0.7706  1.7957  1.3995
 7211SOL     OW33091   1.490   2.325   2.603  0.3078  0.3416 -0.0370
 7211SOL    HW133092   1.423   2.393   2.616  1.4007  1.7844 -2.0747
 7211SOL    HW233093   1.535   2.378   2.537  0.0602 -0.4421 -0.8329
 7212SOL     OW33094   4.176   4.447   3.032 -0.2074 -0.4380  0.0427
 7212SOL    HW133095   4.226   4.369   3.008  0.1688 -0.4698  0.9372
 7212SOL    HW233096   4.159   4.425   3.124  0.3128 -1.7448 -0.1660
 7213SOL     OW33097   2.040   1.469  10.363 -0.5358 -0.0718  0.6585
 7213SOL    HW133098   1.981   1.518  10.419 -1.0825  0.2009 -0.1695
 7213SOL    HW233099   2.117   1.454  10.419 -0.7470 -0.6728  0.7864
 7214SOL     OW33100   3.196   3.909   7.272  0.2358  1.0323  0.0595
 7214SOL    HW133101   3.206   3.957   7.354  2.5926 -1.5604  1.2927
 7214SOL    HW233102   3.150   3.967   7.211  1.5187  1.1760 -0.7850
 7215SOL     OW33103   4.540   1.224  17.045 -0.0618 -0.3408 -0.2984
 7215SOL    HW133104   4.548   1.152  17.108 -0.4664  0.3938  0.5950
 7215SOL    HW233105   4.555   1.297  17.104  1.1015  1.0149 -2.2771
 7216SOL     OW33106   2.781   0.754   9.121  0.3767  0.0267  0.0818
 7216SOL    HW133107   2.783   0.760   9.026 -0.2598  0.3534  0.0919
 7216SOL    HW233108   2.689   0.733   9.137  0.0658  0.3040 -1.3883
 7217SOL     OW33109   4.485   1.563   6.726  0.6377  0.0732 -0.0409
 7217SOL    HW133110   4.480   1.641   6.781  0.7626  0.2720 -0.3077
 7217SOL    HW233111   4.503   1.600   6.639 -0.4223 -0.1575 -0.3607
 7218SOL     OW33112   4.301   2.610   6.784 -0.1186 -0.2251 -0.2284
 7218SOL    HW133113   4.380   2.589   6.733 -0.9066  0.9716 -1.9222
 7218SOL    HW233114   4.233   2.581   6.724 -0.3164  2.2580 -1.1866
 7219SOL     OW33115   0.298   1.039   1.896  0.6235 -0.1149  0.1619
 7219SOL    HW133116   0.252   1.116   1.862  1.6245 -0.2161 -1.4518
 7219SOL    HW233117   0.289   0.984   1.818 -0.4394  0.8886 -0.4277
 7220SOL     OW33118   3.318   4.454   0.033 -0.5651 -0.1748 -0.3406
 7220SOL    HW133119   3.350   4.458   0.123 -1.1859  2.3986 -0.2354
 7220SOL    HW233120   3.390   4.397   0.005  0.2598  0.9393 -0.4899
 7221SOL     OW33121   1.598   2.281   3.084  0.0479  0.1107  0.6336
 7221SOL    HW133122   1.677   2.232   3.108  0.5076  0.7525  0.4107
 7221SOL    HW233123   1.552   2.276   3.168  0.8079  1.9710  1.1703
 7222SOL     OW33124   3.343   1.360   8.568 -0.2451  0.5223  0.2493
 7222SOL    HW133125   3.283   1.294   8.603  1.0733 -0.8237 -0.0214
 7222SOL    HW233126   3.387   1.308   8.500 -0.5829 -1.6926  1.7045
 7223SOL     OW33127   3.979   1.405  16.947  0.2053  0.6769  0.6438
 7223SOL    HW133128   4.045   1.360  16.998  1.3957  2.5283  0.7220
 7223SOL    HW233129   3.946   1.454  17.022  0.0317  0.5185  0.6708
 7224SOL     OW33130   2.666   4.242  15.947 -0.1537 -0.4011 -0.3060
 7224SOL    HW133131   2.610   4.309  15.987  1.7733 -0.0963  1.8512
 7224SOL    HW233132   2.748   4.259  15.992 -0.7837 -1.4790  1.2510
 7225SOL     OW33133   1.108   0.322   7.823 -0.1074 -0.7893 -0.1671
 7225SOL    HW133134   1.043   0.387   7.849  0.7660  0.4285 -1.0122
 7225SOL    HW233135   1.073   0.290   7.740  1.1218  0.0303 -1.0018
 7226SOL     OW33136   2.552   3.321   1.664 -0.2482  0.1718 -0.2152
 7226SOL    HW133137   2.522   3.331   1.574 -0.4667 -0.6056 -0.2278
 7226SOL    HW233138   2.556   3.225   1.672  1.3427  0.3149  0.9050
 7227SOL     OW33139   3.343   2.514   4.229  0.4077 -0.5394 -0.1652
 7227SOL    HW133140   3.301   2.429   4.214 -2.3901  0.5185  1.8120
 7227SOL    HW233141   3.370   2.537   4.140 -1.8256  4.0639  0.3299
 7228SOL     OW33142   0.463   0.863   8.704  0.0167  0.0297  0.2041
 7228SOL    HW133143   0.489   0.954   8.691  1.4697 -0.1284  1.8879
 7228SOL    HW233144   0.470   0.872   8.800  2.9549 -1.6869  0.1634
 7229SOL     OW33145   1.764   0.084   1.139  0.0170  0.0068  0.0663
 7229SOL    HW133146   1.684   0.067   1.089 -0.8809  1.2316  1.0951
 7229SOL    HW233147   1.747   0.174   1.166  0.3912  0.6708 -1.9429
 7230SOL     OW33148   0.588   2.330   3.994  0.2242  0.3570  0.1302
 7230SOL    HW133149   0.574   2.356   3.903 -1.7150  0.4539  0.4445
 7230SOL    HW233150   0.495   2.312   4.010  0.2461 -0.9186 -1.1516
 7231SOL     OW33151   4.203   2.393   4.739 -0.0799 -0.0754 -0.2814
 7231SOL    HW133152   4.157   2.458   4.792 -0.0477  0.4816 -0.9369
 7231SOL    HW233153   4.292   2.409   4.770  0.3864  1.0689 -2.2328
 7232SOL     OW33154   3.870   2.577   7.392 -0.2019 -0.5209  0.2326
 7232SOL    HW133155   3.958   2.613   7.380 -0.3732  0.4013  1.7427
 7232SOL    HW233156   3.841   2.629   7.467 -1.0720 -0.0031 -0.4600
 7233SOL     OW33157   3.162   1.348   7.174  0.0953  0.0771  0.4282
 7233SOL    HW133158   3.176   1.328   7.266  1.7123  1.2692  0.4387
 7233SOL    HW233159   3.225   1.287   7.135  0.6385  1.2504 -0.5103
 7234SOL     OW33160   0.420   1.217   7.455 -0.4604 -0.0487  0.4990
 7234SOL    HW133161   0.514   1.200   7.458 -0.2874  1.0326  1.2965
 7234SOL    HW233162   0.399   1.278   7.526 -0.2204  0.9655 -0.2903
 7235SOL     OW33163   0.315   4.577   0.734  0.0814 -0.4915  0.5440
 7235SOL    HW133164   0.279   4.653   0.781 -0.4615 -2.1803  2.8725
 7235SOL    HW233165   0.381   4.620   0.680  0.3807 -0.2045  1.1366
 7236SOL     OW33166   4.439   2.454   1.485 -0.3287  0.6293 -0.4351
 7236SOL    HW133167   4.414   2.537   1.526  0.5644  0.1264  1.1533
 7236SOL    HW233168   4.474   2.488   1.403 -0.3805 -2.1477 -1.6258
 7237SOL     OW33169   4.330   0.339   4.277  0.3364  0.0482 -0.4136
 7237SOL    HW133170   4.364   0.402   4.340  2.5390 -0.1484 -1.4108
 7237SOL    HW233171   4.327   0.259   4.329  0.7242  0.0739 -0.3484
 7238SOL     OW33172   3.371   3.214  17.403 -0.0920  0.5663 -0.0048
 7238SOL    HW133173   3.453   3.262  17.392  0.7593 -0.7970  0.3293
 7238SOL    HW233174   3.334   3.259  17.478  2.5684  1.0049  1.0393
 7239SOL     OW33175   3.952   3.434   1.845 -0.1556 -0.1325  0.4880
 7239SOL    HW133176   3.860   3.410   1.852 -0.2267  0.1770  0.6401
 7239SOL    HW233177   3.950   3.443   1.749  0.7424  0.6638  0.5376
 7240SOL     OW33178   0.522   2.564  10.093 -0.3048  0.4309 -0.7122
 7240SOL    HW133179   0.490   2.533  10.178  0.7534  0.4713 -0.3037
 7240SOL    HW233180   0.461   2.512  10.040 -1.6361 -0.0723  1.3357
 7241SOL     OW33181   1.047   0.423   1.827 -0.1846 -1.3773 -0.2270
 7241SOL    HW133182   1.140   0.429   1.848 -0.3533 -2.0733  0.7515
 7241SOL    HW233183   1.039   0.481   1.752 -1.1591 -0.3015  0.7095
 7242SOL     OW33184   0.435   4.095   2.370 -0.0158  0.6949  0.2440
 7242SOL    HW133185   0.368   4.069   2.432 -0.1917 -0.3899 -0.3910
 7242SOL    HW233186   0.464   4.185   2.388  0.3512  0.6181  0.0507
 7243SOL     OW33187   3.698   3.758   6.902 -0.1797 -0.2176 -0.3138
 7243SOL    HW133188   3.785   3.788   6.876  0.7254 -1.1092  1.7157
 7243SOL    HW233189   3.717   3.768   6.995 -1.4015 -1.2173  0.0465
 7244SOL     OW33190   3.854   0.626   5.331 -0.0935  0.1016  0.5902
 7244SOL    HW133191   3.948   0.640   5.325  0.0108 -0.9324 -0.0702
 7244SOL    HW233192   3.842   0.613   5.425  1.2888 -0.1263  0.7235
 7245SOL     OW33193   2.770   1.862   0.156 -0.0954  0.4243  0.1127
 7245SOL    HW133194   2.683   1.864   0.196  0.9223  0.7283  2.3305
 7245SOL    HW233195   2.748   1.905   0.073  1.1445 -0.2359 -0.5500
 7246SOL     OW33196   0.892   2.544   8.540 -0.1275  0.3404 -0.1144
 7246SOL    HW133197   0.980   2.570   8.568  0.4799  1.8027 -3.3667
 7246SOL    HW233198   0.848   2.533   8.625  0.5145  1.2833  0.3437
 7247SOL     OW33199   2.948   0.266   5.892 -0.0745  0.0041 -0.5094
 7247SOL    HW133200   2.954   0.360   5.874  1.3436 -0.5457 -2.8793
 7247SOL    HW233201   2.954   0.234   5.802 -0.3966  1.3985 -1.0379
 7248SOL     OW33202   3.716   0.859   4.103 -0.3224  0.1075 -0.3160
 7248SOL    HW133203   3.755   0.772   4.098 -0.3006 -0.0066  1.7997
 7248SOL    HW233204   3.783   0.900   4.158 -0.1522 -1.9611  1.0377
 7249SOL     OW33205   3.167   2.049  13.034  0.5237 -0.0735  0.1957
 7249SOL    HW133206   3.075   2.024  13.024  0.4645 -0.6751  2.4146
 7249SOL    HW233207   3.168   2.082  13.124 -3.9721 -0.1440  0.2784
 7250SOL     OW33208   2.689   4.596  10.903 -0.1486  0.6247 -0.3765
 7250SOL    HW133209   2.783   4.610  10.901 -0.3898  2.1119 -1.5263
 7250SOL    HW233210   2.658   4.612  10.992  1.3255 -3.2773  0.7960
 7251SOL     OW33211   2.198   2.136  13.944  0.1357  0.0815 -0.2555
 7251SOL    HW133212   2.219   2.216  13.992 -0.6270  0.1818 -0.0877
 7251SOL    HW233213   2.123   2.102  13.992  0.8418  1.8124  2.1013
 7252SOL     OW33214   2.537   2.811   7.884 -0.4309 -0.0179 -0.1002
 7252SOL    HW133215   2.454   2.778   7.918 -1.7798  1.1534 -2.3289
 7252SOL    HW233216   2.542   2.893   7.932  2.0841  0.5399 -1.3209
 7253SOL     OW33217   4.724   1.457   6.791  0.0219  0.2633  0.7680
 7253SOL    HW133218   0.048   1.539   6.790 -0.7348  0.7225  1.6805
 7253SOL    HW233219   4.635   1.479   6.761  0.4623 -1.6743 -1.9140
 7254SOL     OW33220   3.773   4.633   0.506 -0.1814  0.3465 -0.0679
 7254SOL    HW133221   3.701   4.694   0.491  0.3158  0.6013 -1.3877
 7254SOL    HW233222   3.759   4.614   0.599 -1.8478 -0.2027 -0.4323
 7255SOL     OW33223   3.465   0.930   9.120  0.8324 -0.0153  0.3311
 7255SOL    HW133224   3.376   0.908   9.146  0.8316  0.1911  0.4959
 7255SOL    HW233225   3.501   0.951   9.206  0.0638 -1.6992  1.0709
 7256SOL     OW33226   1.778   2.734   6.755  0.5053  0.5356 -0.2057
 7256SOL    HW133227   1.809   2.825   6.749  1.0010  0.5156  1.9251
 7256SOL    HW233228   1.804   2.688   6.675 -0.9427  3.5941 -2.4105
 7257SOL     OW33229   4.099   3.623  11.115 -0.1527  0.4360 -0.1602
 7257SOL    HW133230   4.086   3.593  11.026 -1.1606  1.7093 -0.4473
 7257SOL    HW233231   4.049   3.705  11.112  2.2964  1.9908  1.7255
 7258SOL     OW33232   1.244   4.663   4.742  0.4041  0.4320  0.4700
 7258SOL    HW133233   1.338   4.649   4.755  0.2995 -0.0138  0.7769
 7258SOL    HW233234   1.248   4.716   4.663 -0.0425  0.2981  0.3532
 7259SOL     OW33235   1.889   2.064   7.206 -0.1521  0.0496  0.2106
 7259SOL    HW133236   1.813   2.121   7.199 -0.6835 -0.6118  0.6362
 7259SOL    HW233237   1.957   2.131   7.214  0.3561 -0.2298 -1.6687
 7260SOL     OW33238   2.587   3.860  16.654  0.2724 -0.0004  0.1282
 7260SOL    HW133239   2.505   3.861  16.605 -0.3565 -2.8466  1.1517
 7260SOL    HW233240   2.590   3.773  16.693 -3.5606 -0.0158  0.4085
 7261SOL     OW33241   1.267   1.840   3.244  0.0770  0.3927 -0.1625
 7261SOL    HW133242   1.325   1.888   3.185  1.3577 -1.0362 -0.0710
 7261SOL    HW233243   1.326   1.813   3.314 -1.8181 -0.1313  1.2365
 7262SOL     OW33244   0.691   3.336  17.187 -0.0938 -0.1845  0.0497
 7262SOL    HW133245   0.667   3.429  17.191 -0.9143 -0.3067 -2.0243
 7262SOL    HW233246   0.755   3.344  17.117  0.1269 -0.8974  0.1681
 7263SOL     OW33247   0.751   1.412  17.484  0.3267 -0.3854 -0.1363
 7263SOL    HW133248   0.675   1.359  17.508  1.4747 -2.3517 -0.8520
 7263SOL    HW233249   0.824   1.352  17.468  0.9835  0.6471 -1.0469
 7264SOL     OW33250   0.881   0.570   3.812 -0.2528 -0.1619  0.3488
 7264SOL    HW133251   0.792   0.582   3.844 -0.1163  2.2154 -0.1783
 7264SOL    HW233252   0.909   0.493   3.862 -2.7833 -1.4486 -0.2622
 7265SOL     OW33253   2.035   1.049  15.753 -0.1276 -0.1044 -0.6140
 7265SOL    HW133254   2.024   1.047  15.848  0.9433 -0.1313 -0.4883
 7265SOL    HW233255   2.050   0.955  15.739  0.1533 -0.2547  0.7176
 7266SOL     OW33256   4.144   0.519   2.971  0.6758 -0.0259  0.0705
 7266SOL    HW133257   4.106   0.606   2.955  4.8196  1.9785  1.1369
 7266SOL    HW233258   4.126   0.479   2.886 -0.7763  1.4715 -0.3267
 7267SOL     OW33259   1.701   1.945  14.449 -0.7931 -0.5001 -0.1183
 7267SOL    HW133260   1.624   1.946  14.506 -1.2380 -0.5395 -0.7227
 7267SOL    HW233261   1.774   1.969  14.507  0.1407  1.1099 -1.9165
 7268SOL     OW33262   2.694   1.436  14.082 -0.3061  0.3800  0.5659
 7268SOL    HW133263   2.706   1.344  14.058 -0.8551  1.2604 -3.1014
 7268SOL    HW233264   2.768   1.488  14.050 -0.9295  1.1647  0.3801
 7269SOL     OW33265   3.536   1.450   9.507  0.2683  0.2287 -0.0544
 7269SOL    HW133266   3.481   1.485   9.577  1.3293 -1.3296  1.5706
 7269SOL    HW233267   3.576   1.531   9.476 -2.1813  0.5930 -2.2426
 7270SOL     OW33268   1.224   0.652   8.204 -0.1267 -0.2054 -0.8297
 7270SOL    HW133269   1.264   0.645   8.117 -0.7810  2.5457 -1.3481
 7270SOL    HW233270   1.301   0.682   8.252  0.4230 -3.7527  0.5250
 7271SOL     OW33271   0.937   2.241   8.734  0.0424 -0.3637  0.4194
 7271SOL    HW133272   0.972   2.262   8.821  0.6990  1.3811 -0.2607
 7271SOL    HW233273   0.860   2.298   8.736  0.6575  0.5145 -0.4351
 7272SOL     OW33274   0.810   1.849  13.509 -0.2886 -0.3926  0.4532
 7272SOL    HW133275   0.833   1.792  13.436  3.6075  1.4540  0.2316
 7272SOL    HW233276   0.736   1.904  13.481  0.6097 -0.2698 -1.6620
 7273SOL     OW33277   2.495   2.675   3.672 -0.3061 -0.0509  0.1044
 7273SOL    HW133278   2.421   2.721   3.712 -0.3017 -1.3884  1.6474
 7273SOL    HW233279   2.536   2.636   3.749 -0.0159 -0.3957 -0.2259
 7274SOL     OW33280   0.507   1.691   3.749 -0.4588 -0.0783 -0.3129
 7274SOL    HW133281   0.449   1.640   3.692 -1.8426  0.0584  0.9573
 7274SOL    HW233282   0.444   1.755   3.783 -0.2110 -0.0371  0.0742
 7275SOL     OW33283   0.308   2.040   6.961  0.3227  0.6523  0.5493
 7275SOL    HW133284   0.347   2.035   6.874 -0.2930 -1.9672  0.4373
 7275SOL    HW233285   0.237   2.102   6.945 -0.2639 -0.7800 -2.3475
 7276SOL     OW33286   3.957   3.813   3.643 -0.5610  0.1341  0.8137
 7276SOL    HW133287   3.972   3.843   3.553 -1.7968 -0.0969  0.5283
 7276SOL    HW233288   4.012   3.874   3.692 -0.4746  1.0707 -0.4315
 7277SOL     OW33289   1.440   3.717  12.492 -0.3731 -0.5940 -0.3066
 7277SOL    HW133290   1.400   3.775  12.557  1.6402  2.7870 -2.1180
 7277SOL    HW233291   1.527   3.705  12.529 -0.8097  0.8266  1.1685
 7278SOL     OW33292   3.156   1.553   9.478 -0.0434 -0.4903  0.1418
 7278SOL    HW133293   3.104   1.504   9.542  0.3221  2.3998  2.6556
 7278SOL    HW233294   3.243   1.552   9.518  0.0079 -2.1808 -0.0164
 7279SOL     OW33295   0.564   2.224  15.714 -0.1087 -0.2497 -0.6382
 7279SOL    HW133296   0.639   2.257  15.764  0.8331 -1.6844 -1.1142
 7279SOL    HW233297   0.609   2.218  15.630 -1.4208  3.5463 -1.6269
 7280SOL     OW33298   1.378   1.538   5.763 -0.2272  0.2809 -0.1762
 7280SOL    HW133299   1.341   1.450   5.756  0.8061 -0.1914  0.3195
 7280SOL    HW233300   1.457   1.521   5.814 -0.2576  1.0830  0.1414
 7281SOL     OW33301   2.591   3.508   3.020 -0.4398 -0.5793  0.2908
 7281SOL    HW133302   2.630   3.525   2.934  0.3605 -1.0560  0.5648
 7281SOL    HW233303   2.558   3.596   3.041 -2.3414 -1.4302  0.8170
 7282SOL     OW33304   3.588   0.559  14.959 -0.1350  0.3805 -0.0300
 7282SOL    HW133305   3.507   0.610  14.968 -0.7835 -0.5577 -0.4704
 7282SOL    HW233306   3.570   0.490  15.023 -1.2946 -0.2546 -1.0300
 7283SOL     OW33307   0.356   3.043   6.959  0.2317  0.1257 -0.2433
 7283SOL    HW133308   0.450   3.064   6.962  0.2073  0.1217  0.8712
 7283SOL    HW233309   0.326   3.127   6.924  1.3991 -0.4739 -2.6633
 7284SOL     OW33310   2.626   4.604   0.749  0.0754  0.1386  0.4126
 7284SOL    HW133311   2.587   4.639   0.830  2.2240  0.2062  1.4207
 7284SOL    HW233312   2.657   4.524   0.791  3.0578  0.5233 -1.0522
 7285SOL     OW33313   1.038   2.522   6.679  0.0183 -0.1307 -0.5574
 7285SOL    HW133314   1.068   2.485   6.762  1.4858 -1.7624 -1.8261
 7285SOL    HW233315   0.957   2.570   6.696 -0.8618 -0.8364 -2.6972
 7286SOL     OW33316   0.774   3.134  10.111  0.2133  0.0095  0.4232
 7286SOL    HW133317   0.856   3.177  10.088 -0.4117  1.7687  1.4164
 7286SOL    HW233318   0.780   3.053  10.061 -1.6975 -1.2934  2.3086
 7287SOL     OW33319   4.379   3.171   4.086  0.7076 -0.8675 -0.9903
 7287SOL    HW133320   4.440   3.213   4.025  0.0800  0.6431 -0.5657
 7287SOL    HW233321   4.434   3.168   4.165 -0.2652 -1.6271 -0.3414
 7288SOL     OW33322   2.262   4.053  11.187  0.4956 -0.0829 -0.1024
 7288SOL    HW133323   2.339   4.033  11.240  1.2974  3.6144  0.1062
 7288SOL    HW233324   2.190   3.998  11.218 -1.0231  1.9317 -0.0773
 7289SOL     OW33325   2.699   2.897   4.703 -0.1032 -0.2187  0.5320
 7289SOL    HW133326   2.760   2.837   4.661 -0.9879 -1.9237  1.6999
 7289SOL    HW233327   2.621   2.889   4.649  0.9374  1.8290 -1.3175
 7290SOL     OW33328   3.854   1.818   6.230 -0.0084 -0.1149  0.3674
 7290SOL    HW133329   3.849   1.862   6.315 -2.1615 -0.9362  0.6717
 7290SOL    HW233330   3.881   1.886   6.169  0.3432  0.2518  0.9324
 7291SOL     OW33331   0.428   1.789   3.273  0.1761 -0.4969  0.3014
 7291SOL    HW133332   0.491   1.828   3.212  0.2275 -0.4963  0.3546
 7291SOL    HW233333   0.404   1.718   3.214 -0.9618  0.7953 -0.8077
 7292SOL     OW33334   0.571   3.385   1.739 -0.2756  0.2403 -0.0993
 7292SOL    HW133335   0.556   3.334   1.660  1.2833  1.1000 -0.9255
 7292SOL    HW233336   0.637   3.341   1.792 -0.9824 -1.2256 -0.4426
 7293SOL     OW33337   2.560   0.298   3.556  0.2761  0.0853  0.0034
 7293SOL    HW133338   2.512   0.215   3.565  1.2862 -0.6182 -0.9454
 7293SOL    HW233339   2.611   0.305   3.636 -1.3403  1.0624  0.9323
 7294SOL     OW33340   0.266   0.209  15.857  0.5643 -0.0412  0.5549
 7294SOL    HW133341   0.181   0.245  15.831 -1.2567 -2.2611  3.3041
 7294SOL    HW233342   0.305   0.200  15.770  0.3759  2.5244  0.2169
 7295SOL     OW33343   3.013   2.194  16.441  0.2127 -0.1271  0.3513
 7295SOL    HW133344   3.063   2.126  16.396  1.3733  0.4300  0.8113
 7295SOL    HW233345   2.953   2.136  16.489  0.8632  0.2985  1.6627
 7296SOL     OW33346   3.449   1.218   4.875  0.5812  0.0533  0.1500
 7296SOL    HW133347   3.532   1.244   4.917  1.0674 -2.2011  0.6396
 7296SOL    HW233348   3.411   1.157   4.939 -0.0351  0.5485  0.2516
 7297SOL     OW33349   2.292   4.203   4.608  0.3076  0.3272 -0.6937
 7297SOL    HW133350   2.319   4.294   4.622 -1.7288  0.5867  1.5845
 7297SOL    HW233351   2.376   4.158   4.605 -1.5464 -3.2392 -0.3651
 7298SOL     OW33352   0.194   4.558   3.538 -0.0324 -0.2107 -0.2128
 7298SOL    HW133353   0.104   4.561   3.571 -0.2361 -0.6576 -0.7473
 7298SOL    HW233354   0.210   4.650   3.560 -1.5503 -0.0457  0.2172
 7299SOL     OW33355   0.210   0.312   6.640 -0.2067  0.0790  0.2409
 7299SOL    HW133356   0.278   0.379   6.635  1.3465 -1.5604 -0.6868
 7299SOL    HW233357   0.151   0.335   6.568 -1.7366  0.0937  1.4844
 7300SOL     OW33358   3.674   1.882   2.791 -0.3979  0.2722 -0.1785
 7300SOL    HW133359   3.680   1.970   2.829  1.9818 -0.2343  0.5748
 7300SOL    HW233360   3.582   1.868   2.815 -0.6441  3.2091  0.6022
 7301SOL     OW33361   1.871   1.401   9.250 -0.0622 -0.3892  0.1814
 7301SOL    HW133362   1.802   1.435   9.306 -1.4157  0.3042 -1.9254
 7301SOL    HW233363   1.894   1.326   9.305  1.3737 -2.4002 -3.1551
 7302SOL     OW33364   4.685   2.540   2.237  0.3172 -0.1960  0.1857
 7302SOL    HW133365   4.710   2.577   2.152  0.8376 -1.0588 -0.0413
 7302SOL    HW233366   4.590   2.544   2.229  0.2692  1.5417  1.6939
 7303SOL     OW33367   3.288   4.065   1.664 -0.5485  0.2102 -0.1509
 7303SOL    HW133368   3.281   4.101   1.752  0.6751 -1.3806  0.5683
 7303SOL    HW233369   3.206   4.102   1.630 -2.8025 -2.0018  2.9646
 7304SOL     OW33370   3.463   3.851   0.633 -0.3126 -0.4877 -0.2292
 7304SOL    HW133371   3.419   3.936   0.632 -0.2559 -0.4940 -2.4124
 7304SOL    HW233372   3.501   3.858   0.546 -1.1175 -0.6323 -0.5867
 7305SOL     OW33373   3.940   4.691   3.414  0.0376 -0.1045 -0.2890
 7305SOL    HW133374   4.029   4.710   3.444 -0.1152 -2.2150  1.4818
 7305SOL    HW233375   3.918   4.632   3.486 -1.4369  2.0304  1.0314
 7306SOL     OW33376   0.596   0.775   3.251 -0.4279 -0.5669 -0.4331
 7306SOL    HW133377   0.616   0.749   3.340  1.3299 -1.5956 -1.1322
 7306SOL    HW233378   0.673   0.747   3.201 -1.9690 -3.0701 -1.3894
 7307SOL     OW33379   1.372   0.543  11.145 -0.1107 -0.2571  0.2557
 7307SOL    HW133380   1.328   0.625  11.120 -0.4059 -0.6504 -0.5256
 7307SOL    HW233381   1.331   0.525  11.229  1.8925  0.6663  1.4265
 7308SOL     OW33382   2.507   1.603   1.481 -0.4289  0.1035 -0.1029
 7308SOL    HW133383   2.525   1.519   1.439  1.2283  0.4483 -0.0857
 7308SOL    HW233384   2.585   1.621   1.533  1.3329  0.1851 -2.7660
 7309SOL     OW33385   1.975   2.303   3.817  0.1632  0.7147 -0.1063
 7309SOL    HW133386   2.056   2.253   3.810 -0.0520  0.4438 -0.6824
 7309SOL    HW233387   1.968   2.345   3.731 -0.1114 -1.2781 -1.0692
 7310SOL     OW33388   4.099   2.217  10.452 -0.0593  0.1440 -0.0746
 7310SOL    HW133389   4.010   2.186  10.434 -0.7335  1.4815  0.9475
 7310SOL    HW233390   4.133   2.140  10.407 -0.1233  0.1866 -0.1952
 7311SOL     OW33391   3.662   2.740   6.108  0.0162  0.2757 -0.1332
 7311SOL    HW133392   3.717   2.763   6.033  0.2745  0.6327  0.1654
 7311SOL    HW233393   3.676   2.814   6.166  2.3186  1.8226 -2.6721
 7312SOL     OW33394   2.144   1.949  17.454  0.0219 -0.2398 -0.0104
 7312SOL    HW133395   2.091   2.029  17.453  0.7668  0.2720  1.2374
 7312SOL    HW233396   2.200   1.968  17.378  0.5644  1.8446  0.8959
 7313SOL     OW33397   3.612   2.070   7.181 -0.3867 -0.5766  0.0005
 7313SOL    HW133398   3.657   2.145   7.222 -0.0383 -0.3325 -0.8275
 7313SOL    HW233399   3.680   2.003   7.176  0.8487  0.7072 -0.5978
 7314SOL     OW33400   0.301   2.794   6.844 -0.1081 -0.1217  0.1715
 7314SOL    HW133401   0.246   2.846   6.786 -0.6639 -0.9207 -0.0204
 7314SOL    HW233402   0.346   2.859   6.897  0.2085 -1.3327  1.3870
 7315SOL     OW33403   2.732   4.249   2.724 -0.2721 -0.8049  0.0546
 7315SOL    HW133404   2.748   4.257   2.818  2.1963 -1.0748 -0.3450
 7315SOL    HW233405   2.777   4.166   2.709  2.0408  0.7765 -1.8050
 7316SOL     OW33406   2.270   2.667   9.654 -0.1948  0.8217 -0.3593
 7316SOL    HW133407   2.317   2.620   9.585 -1.6485 -0.0082 -0.7823
 7316SOL    HW233408   2.277   2.605   9.727  0.6641  1.1615 -0.1520
 7317SOL     OW33409   0.521   0.886   5.778  0.0827  0.5517  0.1803
 7317SOL    HW133410   0.596   0.842   5.817  0.5731  0.4968 -0.8107
 7317SOL    HW233411   0.561   0.929   5.702  0.6323 -0.6455 -0.2279
 7318SOL     OW33412   0.943   1.370   3.060 -0.3149 -0.0311 -1.0679
 7318SOL    HW133413   0.932   1.415   3.144  0.6250  0.5300 -1.2362
 7318SOL    HW233414   0.872   1.307   3.073  0.6819 -1.2127 -1.4280
 7319SOL     OW33415   0.062   0.446   6.432  0.3128 -0.6722 -0.0743
 7319SOL    HW133416   0.022   0.510   6.492  2.2646  1.0342 -0.6102
 7319SOL    HW233417   4.708   0.419   6.383 -0.7352  0.1461  1.1055
 7320SOL     OW33418   3.289   0.619   4.948 -0.1289 -0.0999 -0.4298
 7320SOL    HW133419   3.324   0.547   5.001 -0.7342 -0.0898 -0.0219
 7320SOL    HW233420   3.311   0.681   5.017  1.2900  1.1484 -2.0023
 7321SOL     OW33421   0.564   0.694   6.221 -0.3421  0.3114  0.3164
 7321SOL    HW133422   0.607   0.627   6.169 -1.7021 -2.3461  2.6376
 7321SOL    HW233423   0.500   0.723   6.155  0.1558  0.4314 -0.1122
 7322SOL     OW33424   0.527   2.605   6.594  0.1889 -0.3937  0.4382
 7322SOL    HW133425   0.486   2.526   6.629 -3.5530  1.3041 -0.2105
 7322SOL    HW233426   0.551   2.581   6.505 -0.1557 -2.8629  1.0134
 7323SOL     OW33427   4.609   3.484   8.696 -0.4237  0.3569  0.6906
 7323SOL    HW133428   4.662   3.415   8.656  0.3787  1.1792  0.3113
 7323SOL    HW233429   4.628   3.477   8.789 -0.3946  0.7074  0.7113
 7324SOL     OW33430   2.935   0.724   4.440  0.1593 -0.1970 -0.1773
 7324SOL    HW133431   3.006   0.729   4.377  1.3383  0.2487  1.1823
 7324SOL    HW233432   2.964   0.771   4.518  0.0596 -2.4071  1.2019
 7325SOL     OW33433   3.650   3.060   3.448 -0.3255 -0.1252  0.6644
 7325SOL    HW133434   3.740   3.031   3.436  0.4895  1.4685  2.9506
 7325SOL    HW233435   3.641   3.044   3.542  0.2041  0.3538  0.7967
 7326SOL     OW33436   2.069   2.374   4.730 -0.4753 -0.1365  0.8912
 7326SOL    HW133437   2.109   2.339   4.809  1.5800 -0.2337 -0.1902
 7326SOL    HW233438   2.114   2.319   4.666  1.8264  3.5072 -0.6537
 7327SOL     OW33439   0.308   4.017  12.004  0.0824 -0.3914  0.2871
 7327SOL    HW133440   0.332   4.080  11.936  3.1765 -0.9679  0.8353
 7327SOL    HW233441   0.365   4.037  12.079  0.4302 -1.7059  0.3725
 7328SOL     OW33442   2.089   4.608   4.720 -0.0966  0.4706  0.3955
 7328SOL    HW133443   2.131   4.532   4.679 -0.1299  0.0099  1.2305
 7328SOL    HW233444   2.090   4.573   4.809  0.9810  1.2815  0.6998
 7329SOL     OW33445   4.243   1.426   9.024  0.2370 -0.0061 -0.4402
 7329SOL    HW133446   4.187   1.501   9.044 -0.5614 -0.6565 -0.2020
 7329SOL    HW233447   4.210   1.362   9.088 -0.7436  0.8625 -0.0635
 7330SOL     OW33448   1.056   4.462   5.116  0.3472 -0.2012  0.1997
 7330SOL    HW133449   1.086   4.460   5.024 -1.5648  1.1415 -0.4539
 7330SOL    HW233450   1.139   4.455   5.164  1.5701 -4.2396 -2.4819
 7331SOL     OW33451   0.064   3.920   2.000 -0.1675 -0.0980 -0.5463
 7331SOL    HW133452   0.124   3.994   2.008  2.7256 -2.1951 -2.6429
 7331SOL    HW233453   0.097   3.884   1.917 -0.6849 -1.0651 -0.3347
 7332SOL     OW33454   4.374   2.635   7.756 -0.4794  0.4896  0.2285
 7332SOL    HW133455   4.431   2.611   7.830 -1.1484  1.1303  0.9512
 7332SOL    HW233456   4.413   2.718   7.727  0.2376  0.1427  0.2057
 7333SOL     OW33457   4.464   3.336   5.373 -0.3320  0.8083  0.4083
 7333SOL    HW133458   4.434   3.281   5.300  0.5033  0.8392  0.0379
 7333SOL    HW233459   4.420   3.304   5.450 -0.5825 -0.5667 -0.3174
 7334SOL     OW33460   4.250   1.922   7.098  0.0766 -1.0723  0.3339
 7334SOL    HW133461   4.221   1.948   7.011  1.1934 -3.1051 -0.6466
 7334SOL    HW233462   4.344   1.941   7.098 -0.5964  2.1377  0.9161
 7335SOL     OW33463   1.537   1.647   6.571  0.0565 -0.2110 -0.8812
 7335SOL    HW133464   1.442   1.642   6.559 -0.2958 -0.7836  1.9760
 7335SOL    HW233465   1.547   1.658   6.666 -0.2505  1.2663 -1.0189
 7336SOL     OW33466   1.667   2.998   7.931 -0.0240  0.0379  0.1916
 7336SOL    HW133467   1.752   3.024   7.966  0.7064 -1.1143 -0.7250
 7336SOL    HW233468   1.639   2.933   7.996  1.5057 -0.1593  0.6443
 7337SOL     OW33469   0.875   3.458   7.227  0.7952 -0.0565 -0.2172
 7337SOL    HW133470   0.903   3.377   7.271  0.9779 -0.1799 -0.5615
 7337SOL    HW233471   0.864   3.424   7.138 -1.2908 -0.4677  0.2077
 7338SOL     OW33472   3.804   4.338   1.615  0.6384 -0.4699 -0.2045
 7338SOL    HW133473   3.773   4.423   1.586  0.3025 -0.0367  1.4518
 7338SOL    HW233474   3.772   4.286   1.542  0.7014 -1.1016  0.2134
 7339SOL     OW33475   4.525   4.014  16.400 -0.6649  0.0325 -0.9563
 7339SOL    HW133476   4.564   4.074  16.337 -0.9284 -1.4570 -2.5085
 7339SOL    HW233477   4.460   3.962  16.354 -1.5110  0.2744 -0.0385
 7340SOL     OW33478   0.621   2.216   9.601 -0.2489 -0.2969  0.3556
 7340SOL    HW133479   0.690   2.151   9.590  2.7497  2.9706  0.0104
 7340SOL    HW233480   0.663   2.283   9.548 -0.1604  0.0319  0.8359
 7341SOL     OW33481   0.036   1.857  13.883 -0.2695 -0.2121 -0.0083
 7341SOL    HW133482   0.016   1.923  13.817 -1.3076 -1.2198 -0.6910
 7341SOL    HW233483   4.698   1.876  13.953  0.2584  0.0029  0.4004
 7342SOL     OW33484   0.386   1.092  13.419 -0.4167 -0.2872 -0.7052
 7342SOL    HW133485   0.462   1.096  13.477 -1.0279  1.5894 -0.0094
 7342SOL    HW233486   0.362   1.185  13.420  1.5981  0.1968  0.8848
 7343SOL     OW33487   1.098   2.419  16.861  0.0521  0.2302  0.0238
 7343SOL    HW133488   1.120   2.396  16.952 -0.0352 -0.0376 -0.0238
 7343SOL    HW233489   1.108   2.514  16.861 -2.7167  0.4991  0.0616
 7344SOL     OW33490   4.540   4.612   1.863 -0.2092  0.1154 -0.2426
 7344SOL    HW133491   4.622   4.633   1.820 -0.9197  2.0442 -0.6557
 7344SOL    HW233492   4.558   4.663   1.942 -1.3795 -0.0060  0.1000
 7345SOL     OW33493   0.797   2.223   4.636 -0.5307 -0.4626 -0.7338
 7345SOL    HW133494   0.769   2.297   4.690  0.7821 -0.6164  0.1494
 7345SOL    HW233495   0.723   2.164   4.648 -1.3627  0.7024 -0.1338
 7346SOL     OW33496   0.116   0.307   8.153 -0.0573 -0.3171 -0.0567
 7346SOL    HW133497   0.076   0.334   8.071 -0.5438  2.7927  1.1963
 7346SOL    HW233498   0.128   0.213   8.140  1.3076 -0.0751 -0.5562
 7347SOL     OW33499   0.376   1.117   7.810 -0.4267 -0.7189 -0.1378
 7347SOL    HW133500   0.366   1.032   7.768 -1.1166  0.8131 -3.0246
 7347SOL    HW233501   0.414   1.096   7.896  2.9993  2.3395 -0.9490
 7348SOL     OW33502   2.248   3.239   1.064  0.2348 -0.0539 -0.2800
 7348SOL    HW133503   2.324   3.280   1.105  1.3176 -2.0145 -0.3418
 7348SOL    HW233504   2.272   3.147   1.077 -1.0701 -0.2204  1.0085
 7349SOL     OW33505   2.284   2.349   5.968  0.3812 -0.1170 -0.0403
 7349SOL    HW133506   2.204   2.343   5.916  0.5943  2.1532 -0.6637
 7349SOL    HW233507   2.303   2.443   5.973  1.6098 -0.3530 -0.0584
 7350SOL     OW33508   2.772   3.271  13.710 -0.3106 -0.2362 -0.0818
 7350SOL    HW133509   2.742   3.347  13.760 -1.1154 -0.3164 -0.4414
 7350SOL    HW233510   2.694   3.238  13.666  0.4793 -0.3936 -1.3878
 7351SOL     OW33511   0.722   4.211   0.947 -0.2006 -0.0466 -0.1145
 7351SOL    HW133512   0.738   4.301   0.917 -2.9982 -0.1461 -1.8725
 7351SOL    HW233513   0.714   4.229   1.041 -0.7306  1.6782 -0.4881
 7352SOL     OW33514   1.572   0.391   8.432  0.4745  0.1696 -0.0482
 7352SOL    HW133515   1.560   0.407   8.525  1.3728 -0.3833  0.1599
 7352SOL    HW233516   1.481   0.402   8.403  0.7535  0.0567 -0.9736
 7353SOL     OW33517   0.664   3.440   4.554 -0.0634  0.0771 -0.3333
 7353SOL    HW133518   0.692   3.447   4.462 -1.0865  0.7902 -0.5933
 7353SOL    HW233519   0.636   3.349   4.550  2.2897 -0.6632  0.1491
 7354SOL     OW33520   0.648   0.253   0.256  0.2209 -0.3389  0.0837
 7354SOL    HW133521   0.625   0.245   0.349 -2.0384 -1.2994 -0.5557
 7354SOL    HW233522   0.742   0.267   0.269  0.1580 -0.5718  0.8064
 7355SOL     OW33523   4.366   4.102  10.797  0.1302  0.0766 -0.2510
 7355SOL    HW133524   4.443   4.143  10.757  0.5991 -0.9191 -0.3698
 7355SOL    HW233525   4.378   4.013  10.765  0.5249 -0.0638  0.2942
 7356SOL     OW33526   4.589   3.930   5.171 -0.7517  0.0600 -0.2322
 7356SOL    HW133527   4.534   3.864   5.130  3.2546 -2.0894 -2.1961
 7356SOL    HW233528   4.671   3.880   5.174 -0.8008  0.0821  1.6215
 7357SOL     OW33529   3.989   1.367  12.771  0.0579  0.0674  0.4729
 7357SOL    HW133530   3.970   1.428  12.699  0.0487  0.4171  0.7734
 7357SOL    HW233531   4.085   1.364  12.779  0.0591  0.0773  0.4624
 7358SOL     OW33532   2.560   2.992   8.094  0.2764 -0.2542 -0.6402
 7358SOL    HW133533   2.632   3.055   8.103 -1.8670  1.7272  2.3779
 7358SOL    HW233534   2.544   2.961   8.183 -0.4830  0.3469 -0.5732
 7359SOL     OW33535   3.802   3.304   5.844  0.6039  0.0260 -0.1646
 7359SOL    HW133536   3.819   3.306   5.938  2.3673  2.2904 -0.5367
 7359SOL    HW233537   3.710   3.327   5.836  0.7214  1.0104  1.3445
 7360SOL     OW33538   3.886   1.952   3.642  0.2191  0.2015  0.7443
 7360SOL    HW133539   3.842   1.912   3.567  0.5861  1.5310 -0.1817
 7360SOL    HW233540   3.856   2.042   3.629 -1.6555 -0.2559  1.9022
 7361SOL     OW33541   4.031   1.311   6.885 -0.1027  0.1377  0.3285
 7361SOL    HW133542   4.126   1.309   6.869 -0.5471 -0.0177 -2.1986
 7361SOL    HW233543   4.012   1.350   6.800 -2.1901 -1.5617  0.0107
 7362SOL     OW33544   3.479   2.890   1.355  0.2234 -0.1865 -0.2404
 7362SOL    HW133545   3.513   2.949   1.288  2.4953  0.4964  1.5309
 7362SOL    HW233546   3.433   2.949   1.415  1.8928 -1.3281  2.1441
 7363SOL     OW33547   1.942   4.148   5.236  0.5243  0.1924  0.8332
 7363SOL    HW133548   1.992   4.156   5.155 -0.3186  0.2259  0.3140
 7363SOL    HW233549   1.982   4.085   5.296  0.6741  1.1533  1.7478
 7364SOL     OW33550   2.176   0.446   8.168 -0.5880  0.4075 -0.1075
 7364SOL    HW133551   2.086   0.478   8.155 -0.0447  1.5370 -1.1224
 7364SOL    HW233552   2.222   0.468   8.087 -1.4539  1.9832 -0.1801
 7365SOL     OW33553   0.415   4.587   8.903  0.0288 -0.0642 -0.3447
 7365SOL    HW133554   0.441   4.671   8.866 -0.8831  0.3883  0.0306
 7365SOL    HW233555   0.324   4.597   8.875 -0.0385  0.0795 -0.0761
 7366SOL     OW33556   1.320   0.921   5.239 -0.1099  0.7212  0.0056
 7366SOL    HW133557   1.384   0.977   5.283  1.2837  1.2527 -2.7044
 7366SOL    HW233558   1.374   0.864   5.183 -1.4913  0.5996 -1.2102
 7367SOL     OW33559   2.790   4.481   7.873 -0.4068 -0.2504  0.0240
 7367SOL    HW133560   2.768   4.555   7.817  1.9118  1.5068  1.4530
 7367SOL    HW233561   2.697   4.467   7.892 -0.6841  0.7957 -0.5288
 7368SOL     OW33562   0.554   0.118   8.846  0.0096  0.2058  0.6035
 7368SOL    HW133563   0.643   0.149   8.861  0.5214  0.7839 -3.5504
 7368SOL    HW233564   0.547   0.139   8.753  1.4823 -0.1593  0.4131
 7369SOL     OW33565   1.228   0.405   8.773 -0.5603 -0.0836  0.3763
 7369SOL    HW133566   1.194   0.382   8.860  0.3134 -3.9394 -0.2830
 7369SOL    HW233567   1.241   0.499   8.782  2.6206 -0.5441  0.6672
 7370SOL     OW33568   3.235   0.089   3.873 -0.1310  0.3643  0.1804
 7370SOL    HW133569   3.261   0.124   3.958  1.4186  0.8788 -0.5113
 7370SOL    HW233570   3.211   0.163   3.817  0.5238  1.5837  1.4961
 7371SOL     OW33571   4.315   4.024   5.103  0.0489 -0.3072  0.0432
 7371SOL    HW133572   4.393   4.005   5.155  0.2414  2.0252  0.6177
 7371SOL    HW233573   4.360   4.081   5.040  2.5850 -2.0904  0.2371
 7372SOL     OW33574   4.196   2.288   1.966  0.1510  0.2680 -0.1093
 7372SOL    HW133575   4.129   2.277   1.899 -0.2164 -0.7335  0.4188
 7372SOL    HW233576   4.161   2.352   2.028 -1.2622  0.4828 -1.1395
 7373SOL     OW33577   1.780   3.364   3.736 -0.1325  0.0052  0.2395
 7373SOL    HW133578   1.845   3.384   3.669 -1.8653  2.0928 -0.8036
 7373SOL    HW233579   1.761   3.456   3.756  0.8752  0.2199  0.1826
 7374SOL     OW33580   4.223   0.923   8.332 -0.7723 -0.1553 -0.0415
 7374SOL    HW133581   4.203   0.833   8.356  1.4045 -0.4334  0.7467
 7374SOL    HW233582   4.319   0.915   8.327 -0.9094 -0.8731 -1.4841
 7375SOL     OW33583   2.039   2.199  11.801  0.3618  0.3584 -0.5186
 7375SOL    HW133584   1.999   2.126  11.849  1.7290  1.1107  1.7629
 7375SOL    HW233585   1.992   2.276  11.833 -0.2273 -0.2479  0.0711
 7376SOL     OW33586   2.652   2.007   3.012  0.4639  0.4318  0.8452
 7376SOL    HW133587   2.639   2.052   3.096 -1.4235  1.4846 -0.0223
 7376SOL    HW233588   2.725   1.950   3.037  0.7005  0.2083 -0.3545
 7377SOL     OW33589   1.719   2.401   6.411  0.1913 -0.1163 -0.0607
 7377SOL    HW133590   1.713   2.319   6.363  0.1181 -0.8104  1.1273
 7377SOL    HW233591   1.667   2.378   6.488  0.0883 -0.1902 -0.1529
 7378SOL     OW33592   1.640   1.885   2.881 -0.3487 -0.1173  0.0613
 7378SOL    HW133593   1.621   1.950   2.813  0.5046  0.9680  0.8674
 7378SOL    HW233594   1.598   1.804   2.853  3.0579 -0.9834 -2.5052
 7379SOL     OW33595   2.564   4.208   4.624  0.2842  0.2311  0.2346
 7379SOL    HW133596   2.644   4.239   4.667  0.0240 -0.6112  1.3078
 7379SOL    HW233597   2.570   4.233   4.531  0.5312 -1.3888 -0.1848
 7380SOL     OW33598   2.720   0.436   8.524  0.0439  0.0863 -0.3718
 7380SOL    HW133599   2.674   0.380   8.586  0.0009 -2.0380 -2.3400
 7380SOL    HW233600   2.647   0.462   8.468 -0.9320 -0.5209  0.6257
 7381SOL     OW33601   3.780   1.622   8.393 -0.2344 -0.1882  0.0698
 7381SOL    HW133602   3.727   1.695   8.362 -0.6265 -0.0614  1.0549
 7381SOL    HW233603   3.837   1.610   8.317  1.1124  1.5088  0.8093
 7382SOL     OW33604   1.961   2.709   0.469 -0.4276  0.4400  0.5166
 7382SOL    HW133605   1.871   2.731   0.445 -0.8556  0.3845  2.0409
 7382SOL    HW233606   1.958   2.670   0.557 -1.7327 -2.8600 -1.0217
 7383SOL     OW33607   0.145   0.342   1.333  0.1982 -0.3606  0.1048
 7383SOL    HW133608   0.088   0.288   1.277 -1.8111 -0.7680  2.5369
 7383SOL    HW233609   0.216   0.278   1.340 -0.1416 -0.7676 -0.1452
 7384SOL     OW33610   0.259   2.319   3.989  0.0096 -0.0613 -0.0939
 7384SOL    HW133611   0.172   2.346   4.018 -0.2704 -1.4133  0.3169
 7384SOL    HW233612   0.257   2.274   3.905  1.0064  1.9792 -1.2335
 7385SOL     OW33613   3.874   2.881   5.510 -0.1162  0.2838 -0.5091
 7385SOL    HW133614   3.869   2.963   5.559  0.9317  1.1689 -1.8843
 7385SOL    HW233615   3.921   2.821   5.569 -1.1587  0.5935  0.6529
 7386SOL     OW33616   3.306   3.366   3.498 -0.2984  0.0607  0.2810
 7386SOL    HW133617   3.293   3.282   3.542  0.4017 -0.0447  0.2929
 7386SOL    HW233618   3.233   3.375   3.438  0.0360  0.5075 -0.0540
 7387SOL     OW33619   0.602   4.614   7.891 -0.2955 -0.4475  0.5003
 7387SOL    HW133620   0.584   4.608   7.797  0.2130 -0.9067  0.4333
 7387SOL    HW233621   0.676   4.676   7.895 -1.1998  0.6069  0.9184
 7388SOL     OW33622   0.775   3.568  16.552 -0.3960 -0.3804  0.2077
 7388SOL    HW133623   0.735   3.496  16.504  0.2750 -1.0452  0.6371
 7388SOL    HW233624   0.823   3.611  16.481  0.9017  0.5441  1.6429
 7389SOL     OW33625   4.492   3.080  14.572  0.4976  0.1420 -0.2180
 7389SOL    HW133626   4.435   3.023  14.522 -0.7421 -0.5915  2.0507
 7389SOL    HW233627   4.569   3.024  14.564  1.2838  0.9606  1.5009
 7390SOL     OW33628   1.605   3.240  16.211 -0.0662 -0.7860 -0.2672
 7390SOL    HW133629   1.643   3.154  16.193  2.9686  0.5544 -0.2775
 7390SOL    HW233630   1.614   3.235  16.306 -0.8751  0.6120 -0.1085
 7391SOL     OW33631   3.933   3.319   2.707 -0.2853 -0.1805  0.0169
 7391SOL    HW133632   3.881   3.378   2.652  0.5338 -0.5266 -1.1184
 7391SOL    HW233633   3.950   3.251   2.642  1.7533 -0.1034  0.4710
 7392SOL     OW33634   0.193   4.197  17.047 -0.4418 -0.7164  0.3212
 7392SOL    HW133635   0.166   4.218  16.957 -0.6909  0.2962  0.6365
 7392SOL    HW233636   0.145   4.117  17.067 -0.2876 -0.3898  1.9868
 7393SOL     OW33637   3.271   2.173   2.154 -0.5104 -0.4384 -0.4741
 7393SOL    HW133638   3.320   2.166   2.072 -1.5437  0.9826 -1.2033
 7393SOL    HW233639   3.193   2.211   2.114  0.0391 -0.2401 -1.3656
 7394SOL     OW33640   0.022   4.103   5.356  0.2539 -0.3519  0.0277
 7394SOL    HW133641   0.012   4.010   5.335  0.1430  0.0434 -1.6993
 7394SOL    HW233642   0.019   4.090   5.451 -0.7177  0.6233  0.1341
 7395SOL     OW33643   4.392   3.400   4.405 -0.4920 -0.2105 -0.2219
 7395SOL    HW133644   4.463   3.349   4.364 -0.4329 -0.5002  0.2425
 7395SOL    HW233645   4.415   3.380   4.496  1.6097 -0.4022 -0.7942
 7396SOL     OW33646   0.211   3.254   0.236 -0.2749 -0.0143  0.8757
 7396SOL    HW133647   0.160   3.300   0.170 -0.4996  2.4660  2.8024
 7396SOL    HW233648   0.227   3.323   0.300  0.6898  1.0065 -0.4799
 7397SOL     OW33649   3.966   2.969   4.689 -0.0249 -0.0566 -0.6412
 7397SOL    HW133650   3.968   2.874   4.704  1.0505  0.0241 -0.2372
 7397SOL    HW233651   3.886   2.974   4.636  0.0410 -0.3815 -0.7770
 7398SOL     OW33652   0.616   4.639   7.162 -0.5663 -0.0721  0.0061
 7398SOL    HW133653   0.705   4.635   7.127 -0.9246 -0.6190 -0.8362
 7398SOL    HW233654   0.602   0.010   7.165  3.6973  0.6089 -2.7221
 7399SOL     OW33655   2.701   0.959   1.095 -0.3087 -0.6065 -0.0346
 7399SOL    HW133656   2.736   0.875   1.065 -1.0848 -0.5452 -1.1145
 7399SOL    HW233657   2.716   1.019   1.023 -0.5550 -0.1633  0.2855
 7400SOL     OW33658   4.653   4.490  16.683 -0.8694  0.5235  0.3622
 7400SOL    HW133659   4.643   4.395  16.674  1.7543  0.1702  1.1495
 7400SOL    HW233660   4.692   4.505  16.596 -1.5559  1.6468  0.2554
 7401SOL     OW33661   0.571   1.718   8.257 -0.4418  0.1257  0.2914
 7401SOL    HW133662   0.504   1.658   8.291  0.9735 -0.8027  1.4049
 7401SOL    HW233663   0.530   1.756   8.179  0.4251  0.6315  0.0827
 7402SOL     OW33664   2.807   3.670   1.425  0.3566 -0.0656  0.2028
 7402SOL    HW133665   2.815   3.704   1.336  1.9566 -3.2648 -0.8753
 7402SOL    HW233666   2.898   3.680   1.454  0.8581  1.1996 -1.7658
 7403SOL     OW33667   4.539   4.094   4.298 -0.7874 -0.3372  0.0118
 7403SOL    HW133668   4.633   4.105   4.282 -1.2525  2.2176 -0.9214
 7403SOL    HW233669   4.498   4.068   4.215  0.2689 -1.5280 -0.1420
 7404SOL     OW33670   0.076   3.177  11.266  0.0022  0.3999 -0.0830
 7404SOL    HW133671   0.163   3.213  11.247 -0.3164  0.3900 -1.5258
 7404SOL    HW233672   0.021   3.233  11.212 -0.8313 -0.3545 -0.0280
 7405SOL     OW33673   1.159   4.329   3.965 -0.2238 -0.8578 -0.6162
 7405SOL    HW133674   1.081   4.383   3.952  0.2580  0.0654  0.3146
 7405SOL    HW233675   1.140   4.268   3.894  1.2858 -0.5611 -1.2950
 7406SOL     OW33676   2.994   1.076   4.735 -0.1504  0.3153 -0.0643
 7406SOL    HW133677   3.081   1.072   4.696 -0.8908 -2.6918 -1.4009
 7406SOL    HW233678   2.966   1.155   4.691 -0.2156 -0.3901 -1.2808
 7407SOL     OW33679   3.114   4.565  10.741 -0.2395 -0.2780  0.1825
 7407SOL    HW133680   3.110   4.622  10.664 -0.9301  0.3661  0.6874
 7407SOL    HW233681   3.067   4.618  10.806 -3.9155 -0.2180 -2.5012
 7408SOL     OW33682   2.406   1.507  15.003 -0.1535  0.4049  0.5871
 7408SOL    HW133683   2.343   1.439  14.979  0.3576 -0.1499  0.8051
 7408SOL    HW233684   2.482   1.457  15.034 -0.9116 -0.2030  1.5084
 7409SOL     OW33685   1.279   4.340   4.553 -0.2396  0.1846 -0.5575
 7409SOL    HW133686   1.341   4.402   4.516  1.5418 -0.7322  0.9336
 7409SOL    HW233687   1.319   4.305   4.632  1.4128  1.7387 -0.7036
 7410SOL     OW33688   1.697   3.885   0.292 -0.2147 -0.0119 -0.1137
 7410SOL    HW133689   1.760   3.852   0.356 -0.7118 -1.0955 -0.1845
 7410SOL    HW233690   1.696   3.821   0.222  0.6832  0.8699 -0.9312
 7411SOL     OW33691   1.141   2.556  17.502  0.0896  0.1497  0.2735
 7411SOL    HW133692   1.078   2.494  17.465 -0.9552  2.3621 -1.6475
 7411SOL    HW233693   1.198   2.488  17.539 -0.7290 -0.7246 -0.0433
 7412SOL     OW33694   2.824   0.242   5.518 -0.8766  0.1166 -0.2171
 7412SOL    HW133695   2.824   0.147   5.532  0.5423  0.2699  0.8986
 7412SOL    HW233696   2.845   0.244   5.425  1.5636 -0.5002  0.3101
 7413SOL     OW33697   1.977   3.553   3.106 -0.0514  0.0578 -0.0945
 7413SOL    HW133698   2.037   3.600   3.163  0.7050  0.1698 -0.9820
 7413SOL    HW233699   1.981   3.605   3.025  1.2410  3.1579  1.9703
 7414SOL     OW33700   1.772   4.259   6.192 -0.2066  0.1907  0.5735
 7414SOL    HW133701   1.799   4.341   6.232  0.4745  0.5076 -0.5339
 7414SOL    HW233702   1.765   4.288   6.101  2.8352  1.4302  0.7436
 7415SOL     OW33703   0.577   2.116   7.447  0.5126  0.1004 -0.6226
 7415SOL    HW133704   0.510   2.183   7.456  1.1358  0.6349  0.0464
 7415SOL    HW233705   0.576   2.058   7.522  1.6755 -0.4976 -1.0581
 7416SOL     OW33706   3.137   4.589   5.333 -0.1955 -0.3998 -0.4391
 7416SOL    HW133707   3.103   4.577   5.245 -1.6828  1.1779 -0.0981
 7416SOL    HW233708   3.089   4.530   5.391 -0.5238  0.3956  0.1113
 7417SOL     OW33709   1.574   1.338   7.066 -0.1181  0.3094  0.1358
 7417SOL    HW133710   1.632   1.409   7.093 -0.0925  1.1840 -2.1539
 7417SOL    HW233711   1.585   1.353   6.972 -3.8003 -0.4121 -0.4164
 7418SOL     OW33712   2.778   4.061   8.214  0.1420 -0.1469  0.6184
 7418SOL    HW133713   2.770   3.977   8.260 -0.0064  0.6158  1.9732
 7418SOL    HW233714   2.858   4.096   8.251 -0.3771  0.7350  0.9038
 7419SOL     OW33715   2.070   1.000   5.643  0.1318 -0.4131 -0.0371
 7419SOL    HW133716   2.140   0.971   5.701  0.8068 -1.0300 -1.1548
 7419SOL    HW233717   2.090   1.094   5.648 -0.1374 -0.3307 -0.5423
 7420SOL     OW33718   4.524   1.900   1.875  0.0950 -0.3517 -0.1000
 7420SOL    HW133719   4.496   1.811   1.894 -1.5860 -0.1063 -1.3352
 7420SOL    HW233720   4.619   1.907   1.881  0.1613 -0.8304 -0.5977
 7421SOL     OW33721   1.536   1.158   3.930  0.1553  0.0314 -0.0026
 7421SOL    HW133722   1.509   1.217   4.000 -1.0326  1.2571 -1.5126
 7421SOL    HW233723   1.476   1.184   3.861  0.5389 -1.2771 -0.8427
 7422SOL     OW33724   0.493   1.482   6.847 -0.2483  0.2786  0.3140
 7422SOL    HW133725   0.514   1.564   6.892  0.4860 -1.1103  2.5131
 7422SOL    HW233726   0.582   1.446   6.847  0.3235  1.6764  1.6901
 7423SOL     OW33727   3.377   2.841   6.712  0.5457  0.4394  0.7369
 7423SOL    HW133728   3.332   2.894   6.777 -1.3868 -1.3695  0.8842
 7423SOL    HW233729   3.303   2.807   6.661  0.0082 -0.3417  2.0477
 7424SOL     OW33730   4.572   1.311  16.027 -0.2452  0.1950  0.0401
 7424SOL    HW133731   4.629   1.295  15.952 -1.0978 -1.2285 -0.2919
 7424SOL    HW233732   4.585   1.405  16.044 -0.0561 -0.0426  1.2200
 7425SOL     OW33733   1.054   1.602   9.288 -0.0554  0.2416  0.0991
 7425SOL    HW133734   0.994   1.601   9.213  2.1597  0.5332 -1.6737
 7425SOL    HW233735   1.067   1.508   9.302  0.0193  0.7146  3.1215
 7426SOL     OW33736   0.124   1.655  14.067 -0.2701  0.1848  0.0474
 7426SOL    HW133737   0.042   1.623  14.031 -0.6544  2.7417 -1.3264
 7426SOL    HW233738   0.121   1.744  14.032  1.7703 -0.6769 -2.3191
 7427SOL     OW33739   3.975   2.453   3.173 -0.1640 -1.0949  0.1058
 7427SOL    HW133740   4.029   2.376   3.186 -0.4097 -1.3218 -0.2214
 7427SOL    HW233741   3.949   2.433   3.083 -0.3110 -1.6762  0.2806
 7428SOL     OW33742   2.851   1.170  15.057 -0.2879  0.2371  0.6134
 7428SOL    HW133743   2.804   1.237  15.008  1.1719  0.0525 -1.0700
 7428SOL    HW233744   2.782   1.105  15.072 -1.8171  1.5953 -0.5258
 7429SOL     OW33745   0.829   3.023  10.463  0.7547 -0.0231 -0.0582
 7429SOL    HW133746   0.778   3.103  10.446 -0.3813 -0.9318 -0.9989
 7429SOL    HW233747   0.916   3.040  10.428  0.4762 -0.4084 -0.9273
 7430SOL     OW33748   2.992   2.997   6.188  0.0751  0.3701 -0.2368
 7430SOL    HW133749   2.905   2.980   6.224  0.5090 -1.5966 -0.1370
 7430SOL    HW233750   2.999   3.093   6.189 -0.0409  0.3724  1.1492
 7431SOL     OW33751   3.892   1.811   6.804 -0.8181 -0.0628 -0.2358
 7431SOL    HW133752   3.984   1.801   6.828 -1.5224  1.5228  3.0253
 7431SOL    HW233753   3.863   1.719   6.805 -1.4618  0.1436  0.0693
 7432SOL     OW33754   1.479   2.965   3.706  0.4718 -0.6412  0.0558
 7432SOL    HW133755   1.490   3.026   3.633  2.5932  0.8168  1.5626
 7432SOL    HW233756   1.417   2.903   3.669 -1.7227  2.5604 -1.6159
 7433SOL     OW33757   3.749   3.016   1.770  0.0303 -0.1444 -0.1073
 7433SOL    HW133758   3.838   2.996   1.796 -0.2757 -0.0285  1.0288
 7433SOL    HW233759   3.711   2.934   1.739  0.1480 -0.8088  1.5370
 7434SOL     OW33760   3.609   4.416   9.429 -0.4312  0.0170 -0.0567
 7434SOL    HW133761   3.631   4.330   9.466 -2.5388 -1.4329 -2.0830
 7434SOL    HW233762   3.675   4.472   9.468 -1.1653 -0.2734  1.6135
 7435SOL     OW33763   1.768   1.607   8.338 -0.0854  0.2625 -0.3615
 7435SOL    HW133764   1.749   1.701   8.334 -0.9031  0.1089 -0.1081
 7435SOL    HW233765   1.861   1.603   8.363  0.6714  2.5495 -2.7888
 7436SOL     OW33766   0.512   4.124   3.865 -0.1154 -0.0037 -0.0661
 7436SOL    HW133767   0.592   4.072   3.864 -2.0522 -3.0425  1.4472
 7436SOL    HW233768   0.524   4.182   3.789  0.0533 -0.4557 -0.3864
 7437SOL     OW33769   1.854   2.198   7.535  0.0678  0.1179  0.3057
 7437SOL    HW133770   1.896   2.127   7.583 -0.5792 -1.1542 -1.0133
 7437SOL    HW233771   1.876   2.277   7.585  0.3769  0.0468  0.2790
 7438SOL     OW33772   4.143   0.927   6.757  0.2976  0.7673 -0.0031
 7438SOL    HW133773   4.197   0.920   6.678  1.2345  2.2452  0.5085
 7438SOL    HW233774   4.079   0.859   6.734 -0.9197  2.3612 -1.3553
 7439SOL     OW33775   0.803   0.436   7.256 -0.2289  0.0987 -0.0390
 7439SOL    HW133776   0.818   0.413   7.165  0.8994 -1.2217  0.4799
 7439SOL    HW233777   0.748   0.362   7.277 -0.6492 -0.1348 -1.9562
 7440SOL     OW33778   3.229   2.003   6.501 -0.0871  0.0524  0.0987
 7440SOL    HW133779   3.160   1.949   6.540 -0.9676 -0.2350 -1.8506
 7440SOL    HW233780   3.184   2.072   6.454 -2.6393 -1.7955 -0.1797
 7441SOL     OW33781   0.130   2.915   3.511 -0.2169 -0.3009  0.2011
 7441SOL    HW133782   0.220   2.948   3.520 -0.1864 -0.8409  1.9540
 7441SOL    HW233783   0.098   2.951   3.429  0.7337 -2.5935 -1.1771
 7442SOL     OW33784   0.437   2.894  12.759  0.9159  0.5383 -0.6978
 7442SOL    HW133785   0.503   2.833  12.726  1.4554  0.6691  0.1394
 7442SOL    HW233786   0.457   2.880  12.852 -2.2633  0.1749 -0.0763
 7443SOL     OW33787   3.577   1.764   6.797 -0.4525  0.3225  0.7496
 7443SOL    HW133788   3.506   1.800   6.851 -1.4813  0.3934 -0.6413
 7443SOL    HW233789   3.542   1.678   6.773 -0.2893  0.0285  1.5852
 7444SOL     OW33790   3.389   4.090  15.978 -0.0571 -0.1614  0.2887
 7444SOL    HW133791   3.317   4.152  15.969 -1.4787 -1.8691 -0.0699
 7444SOL    HW233792   3.445   4.108  15.902  0.7453 -1.5978  0.5329
 7445SOL     OW33793   3.266   2.749   0.897  0.0070  0.1126 -0.5037
 7445SOL    HW133794   3.196   2.720   0.956  0.2060  1.1891  0.2617
 7445SOL    HW233795   3.305   2.665   0.872 -1.0597 -0.5114 -0.0977
 7446SOL     OW33796   0.922   0.149   6.365 -0.5153  0.0350 -0.4876
 7446SOL    HW133797   1.011   0.175   6.389 -0.2770 -2.6512  1.5442
 7446SOL    HW233798   0.888   0.145   6.455  1.0888 -1.0084  0.0703
 7447SOL     OW33799   0.356   4.232   4.067  0.0397  0.0251  0.4243
 7447SOL    HW133800   0.409   4.166   4.021 -2.3761 -2.8340  1.7481
 7447SOL    HW233801   0.415   4.301   4.096  2.1501 -2.2676  1.6402
 7448SOL     OW33802   3.861   1.332   3.324  0.1333  0.5965 -0.1188
 7448SOL    HW133803   3.812   1.303   3.248  1.5727  1.7777 -1.4899
 7448SOL    HW233804   3.825   1.270   3.388 -3.1301  1.9656 -0.6174
 7449SOL     OW33805   4.565   0.326   6.296 -0.1322  0.0965 -0.1605
 7449SOL    HW133806   4.496   0.359   6.238 -1.3658  0.7568  1.6991
 7449SOL    HW233807   4.518   0.326   6.379 -0.3116 -0.2908 -0.2605
 7450SOL     OW33808   4.012   1.767   4.857 -0.1186  0.1408 -0.6856
 7450SOL    HW133809   3.963   1.818   4.921  0.6232 -0.7669  0.6267
 7450SOL    HW233810   4.009   1.676   4.885  1.6159  0.9862  2.2279
 7451SOL     OW33811   3.891   0.884   8.894 -0.4556  0.4971 -0.2270
 7451SOL    HW133812   3.812   0.830   8.894  0.7344 -1.2474 -2.0442
 7451SOL    HW233813   3.881   0.920   8.806  0.2852 -0.1683 -0.5783
 7452SOL     OW33814   3.961   0.998  10.651  0.0808 -0.1187 -0.2356
 7452SOL    HW133815   4.002   1.075  10.689  1.0109  0.9100 -3.3213
 7452SOL    HW233816   3.954   1.031  10.562 -1.2885 -1.1951 -0.5384
 7453SOL     OW33817   0.565   1.054   6.722 -0.1701  0.9605  0.3818
 7453SOL    HW133818   0.511   1.012   6.655 -0.1498  1.6334 -0.0538
 7453SOL    HW233819   0.501   1.111   6.765  1.1503  2.5454  0.2420
 7454SOL     OW33820   0.962   3.697   0.044  0.1083  0.0933  0.0108
 7454SOL    HW133821   0.989   3.781   0.007  0.7823 -0.7111 -1.3479
 7454SOL    HW233822   0.998   3.629  17.683  0.4227 -1.0101  1.5078
 7455SOL     OW33823   3.073   1.337   7.884  0.0075 -0.0146  0.1806
 7455SOL    HW133824   3.163   1.350   7.915 -0.0373 -1.0191  0.7311
 7455SOL    HW233825   3.041   1.304   7.969  1.4141  0.5518  0.9288
 7456SOL     OW33826   4.010   4.625   6.664  0.4431 -0.7172  0.4927
 7456SOL    HW133827   4.003   4.530   6.677 -3.2773 -0.3156  1.2004
 7456SOL    HW233828   4.008   4.621   6.568 -1.3699  1.2478  0.4506
 7457SOL     OW33829   4.688   4.365  17.606  0.1130  0.0428 -0.3605
 7457SOL    HW133830   4.600   4.342  17.636  0.5926 -0.5341  0.5998
 7457SOL    HW233831   4.655   4.440  17.556  0.6986  0.3972 -0.2114
 7458SOL     OW33832   0.113   0.470   9.591  0.5659  0.2412 -0.1189
 7458SOL    HW133833   0.132   0.421   9.671 -0.8891 -1.4497 -0.8187
 7458SOL    HW233834   0.053   0.410   9.546  0.3763 -0.4121  0.9967
 7459SOL     OW33835   4.686   2.699   5.362 -0.1469 -0.2048 -0.6548
 7459SOL    HW133836   0.054   2.719   5.344  0.3955 -0.2732  2.1691
 7459SOL    HW233837   4.694   2.731   5.451 -0.7292  0.1838 -0.7393
 7460SOL     OW33838   1.306   4.600  13.444 -0.2817  0.1886  0.0326
 7460SOL    HW133839   1.364   4.549  13.502 -1.4678 -2.7030 -1.3194
 7460SOL    HW233840   1.256   4.523  13.416 -0.3495 -0.2330  1.2666
 7461SOL     OW33841   4.342   3.529   6.554 -0.5266  0.1661  0.4136
 7461SOL    HW133842   4.258   3.507   6.516  0.3278  0.1971 -1.5043
 7461SOL    HW233843   4.339   3.465   6.626 -0.4065 -2.2766 -1.7536
 7462SOL     OW33844   2.053   3.009   3.099 -0.5729  0.0014 -0.4916
 7462SOL    HW133845   1.969   3.054   3.098 -1.0344 -0.8678 -0.4697
 7462SOL    HW233846   2.121   3.074   3.083 -0.5115 -0.0571 -0.4686
 7463SOL     OW33847   0.093   0.374   3.743  0.1842  0.1334  0.4065
 7463SOL    HW133848   0.122   0.284   3.733  0.4061  0.4770 -1.9994
 7463SOL    HW233849   0.075   0.397   3.652 -0.6278  0.3066  0.6086
 7464SOL     OW33850   1.564   2.061   5.833 -0.2491  0.2941  0.1537
 7464SOL    HW133851   1.543   2.111   5.911 -2.8583  0.0872 -0.4303
 7464SOL    HW233852   1.653   2.091   5.811 -0.4157  1.5690  1.2565
 7465SOL     OW33853   1.690   0.375  11.230 -0.0132  0.1504  0.0366
 7465SOL    HW133854   1.748   0.309  11.192 -0.2332  0.6928 -1.2360
 7465SOL    HW233855   1.690   0.448  11.168 -0.2907  1.9165  2.1117
 7466SOL     OW33856   4.065   0.055   7.050 -0.4599  0.4177  0.2292
 7466SOL    HW133857   4.005   0.119   7.089  0.1422  1.6655 -0.8926
 7466SOL    HW233858   4.011   4.700   7.039 -1.1792  0.5337  2.7177
 7467SOL     OW33859   3.764   2.189  15.102 -0.0399 -0.2117 -0.0521
 7467SOL    HW133860   3.717   2.230  15.029 -1.7937 -1.7614  0.2270
 7467SOL    HW233861   3.829   2.253  15.132 -0.7882  0.0126  1.1040
 7468SOL     OW33862   2.644   4.524   0.272  0.1309  0.1711  0.3580
 7468SOL    HW133863   2.620   4.550   0.361 -2.1273  1.9972 -0.7952
 7468SOL    HW233864   2.736   4.549   0.273 -0.0017  0.6445  0.9889
 7469SOL     OW33865   2.070   2.432   0.216 -0.5108 -0.2288 -0.3417
 7469SOL    HW133866   2.091   2.523   0.238  0.9609 -0.2874 -1.5254
 7469SOL    HW233867   2.067   2.388   0.301 -1.0467 -0.5526 -0.5271
 7470SOL     OW33868   2.973   4.002   7.642  0.0363 -0.0287  0.0745
 7470SOL    HW133869   2.947   4.088   7.608  0.5906 -0.8624 -2.4218
 7470SOL    HW233870   2.924   3.992   7.723  1.5894  0.0451  1.0200
 7471SOL     OW33871   1.885   0.862   7.668  0.1145 -0.0052  0.1692
 7471SOL    HW133872   1.819   0.860   7.599 -1.4410  0.0703  1.6825
 7471SOL    HW233873   1.963   0.862   7.612  0.7073  1.5209  1.0019
 7472SOL     OW33874   0.177   0.657   4.954 -0.1170 -0.0689 -0.1598
 7472SOL    HW133875   0.085   0.652   4.980  0.0531 -3.2209 -0.1480
 7472SOL    HW233876   0.218   0.614   5.029 -0.7865 -1.2503 -0.4606
 7473SOL     OW33877   3.275   4.513  10.050 -0.5829 -0.5645  0.2129
 7473SOL    HW133878   3.273   4.505   9.955  1.7307 -1.3481  0.2194
 7473SOL    HW233879   3.299   4.604  10.069 -1.6397 -0.5333  1.3976
 7474SOL     OW33880   2.722   0.164   1.168 -0.1289 -0.4019  0.2288
 7474SOL    HW133881   2.633   0.163   1.204 -1.0241  4.3472 -1.8833
 7474SOL    HW233882   2.719   0.089   1.109 -1.1254  0.8336 -1.2974
 7475SOL     OW33883   3.061   0.351   4.076 -0.6794 -0.0939 -0.2548
 7475SOL    HW133884   2.991   0.292   4.104 -0.9116 -0.1652 -0.9853
 7475SOL    HW233885   3.130   0.312   4.129 -0.2287  0.0262 -0.7516
 7476SOL     OW33886   1.426   4.373   8.453 -0.0381 -0.0810  0.0367
 7476SOL    HW133887   1.482   4.438   8.409  0.5412  0.2752  1.2830
 7476SOL    HW233888   1.419   4.411   8.541  1.4552 -0.7296  0.4280
 7477SOL     OW33889   2.379   0.338  17.381  0.1572  0.2875 -0.5771
 7477SOL    HW133890   2.333   0.373  17.306  0.2522  1.6751  0.0190
 7477SOL    HW233891   2.318   0.372  17.446  0.2260 -0.1115 -0.2937
 7478SOL     OW33892   4.667   1.020   8.536  0.5682  0.0980  0.1394
 7478SOL    HW133893   4.652   1.056   8.623 -0.7345  0.6254 -0.3000
 7478SOL    HW233894   0.005   0.948   8.539 -0.8193 -1.1208 -0.6019
 7479SOL     OW33895   3.019   1.377   3.616  0.0755  0.4093  0.4922
 7479SOL    HW133896   3.079   1.449   3.598  1.4319 -1.2054 -1.4473
 7479SOL    HW233897   2.977   1.412   3.695  1.2599 -0.1987  1.4023
 7480SOL     OW33898   3.319   0.173   3.095 -0.5324  0.1996 -0.3953
 7480SOL    HW133899   3.384   0.237   3.065 -0.4977 -0.3461 -1.4735
 7480SOL    HW233900   3.275   0.219   3.167  0.9638 -0.7168  1.1014
 7481SOL     OW33901   2.019   3.111   9.295  1.1256  0.6278  0.1412
 7481SOL    HW133902   2.098   3.067   9.326  1.0272  0.4044  0.0821
 7481SOL    HW233903   1.968   3.115   9.376 -0.4437  2.5959 -0.9354
 7482SOL     OW33904   3.956   0.929   4.208 -0.7648 -0.7658  0.2630
 7482SOL    HW133905   4.041   0.907   4.170  0.8640  1.0354  2.8841
 7482SOL    HW233906   3.941   1.016   4.170 -0.8606 -0.3910  1.1681
 7483SOL     OW33907   0.620   3.087  11.746  0.6440  0.2006  0.1372
 7483SOL    HW133908   0.704   3.051  11.776  1.4467  1.3840 -0.7029
 7483SOL    HW233909   0.608   3.163  11.803 -0.5421 -1.4270  2.0652
 7484SOL     OW33910   3.281   1.615  15.777 -0.2277  0.1459 -0.4561
 7484SOL    HW133911   3.358   1.659  15.741 -0.6130  1.1601 -0.0402
 7484SOL    HW233912   3.305   1.525  15.759 -2.3522 -0.2371 -1.3367
 7485SOL     OW33913   3.887   4.708  15.589 -0.2259  0.2137 -0.1871
 7485SOL    HW133914   3.978   4.718  15.616  0.2286 -2.3076 -0.7792
 7485SOL    HW233915   3.863   0.069  15.551 -2.3815 -0.0438  0.5912
 7486SOL     OW33916   1.041   0.592   6.097  0.4556  0.1311 -0.1457
 7486SOL    HW133917   1.046   0.496   6.091 -0.5945  0.0612  0.1980
 7486SOL    HW233918   0.983   0.597   6.172  0.4123  2.3785 -0.3259
 7487SOL     OW33919   1.440   1.960   8.256 -0.0263  0.2080  0.7731
 7487SOL    HW133920   1.392   1.894   8.304  0.1900 -0.6113 -0.1391
 7487SOL    HW233921   1.413   1.922   8.173 -1.7962 -0.2594  1.5827
 7488SOL     OW33922   1.187   3.168   5.772 -0.5378 -0.6669  0.2778
 7488SOL    HW133923   1.235   3.179   5.854  0.0139 -0.1342 -0.1158
 7488SOL    HW233924   1.167   3.254   5.735  1.6426 -0.9816 -1.6477
 7489SOL     OW33925   3.789   3.744  10.242  0.1907 -0.5589  0.2292
 7489SOL    HW133926   3.760   3.661  10.206  1.2389 -0.5413 -0.6632
 7489SOL    HW233927   3.707   3.782  10.271 -0.7209 -2.1510 -0.2776
 7490SOL     OW33928   1.250   1.232   3.419 -0.2351 -0.0122  0.1193
 7490SOL    HW133929   1.177   1.294   3.410 -2.6814 -2.7962  0.9052
 7490SOL    HW233930   1.238   1.174   3.343  2.0921 -1.1573  0.6289
 7491SOL     OW33931   1.070   1.868   4.560 -0.0972 -0.0178 -0.4497
 7491SOL    HW133932   1.066   1.964   4.562 -1.1305 -0.1104  1.6861
 7491SOL    HW233933   1.111   1.855   4.474 -1.2547  0.3608 -1.0549
 7492SOL     OW33934   4.698   4.705   3.123  0.3083  0.0943 -0.2682
 7492SOL    HW133935   4.658   4.618   3.124  0.3801 -0.0081 -4.6992
 7492SOL    HW233936   4.623   0.037   3.144 -0.0929 -0.4121 -0.3653
 7493SOL     OW33937   2.079   0.414   4.434 -0.5464 -0.5887 -0.2231
 7493SOL    HW133938   2.106   0.431   4.344 -0.0682 -0.8785 -0.1325
 7493SOL    HW233939   2.060   0.321   4.424  1.2359 -0.7820 -1.7759
 7494SOL     OW33940   1.006   3.839  16.965 -0.2474 -0.0028 -0.0955
 7494SOL    HW133941   0.998   3.776  16.893  0.6863 -2.0316  1.5829
 7494SOL    HW233942   0.920   3.863  17.000 -0.6590 -2.2843  0.4294
 7495SOL     OW33943   0.669   1.710   6.512  0.4451 -0.2982  0.0709
 7495SOL    HW133944   0.608   1.757   6.570  1.4545  0.8071  0.2311
 7495SOL    HW233945   0.599   1.666   6.465 -1.3056  0.4850  1.9301
 7496SOL     OW33946   1.301   4.185   7.596  0.0385 -0.1945  0.1568
 7496SOL    HW133947   1.396   4.181   7.589 -0.1192 -1.5114 -1.1344
 7496SOL    HW233948   1.286   4.102   7.641 -2.2734  0.1624  0.0647
 7497SOL     OW33949   1.512   4.640   7.935  0.1720 -0.2052 -0.2425
 7497SOL    HW133950   1.552   4.595   8.010  1.1747 -0.3474 -0.8526
 7497SOL    HW233951   1.436   4.680   7.976  0.4365 -0.1745  0.2234
 7498SOL     OW33952   3.852   1.074  13.434 -0.3952 -1.0348  0.1503
 7498SOL    HW133953   3.787   1.143  13.424 -0.4099 -0.5988  3.0508
 7498SOL    HW233954   3.882   1.070  13.343  0.6352  0.9099  0.4050
 7499SOL     OW33955   1.679   4.474   7.170 -0.4955  0.1301 -0.9662
 7499SOL    HW133956   1.689   4.568   7.188 -1.0733 -0.3447  1.8313
 7499SOL    HW233957   1.768   4.455   7.141 -0.1184 -0.5323  0.6368
 7500SOL     OW33958   2.964   4.068  10.486  0.0035  0.2303  0.4092
 7500SOL    HW133959   2.997   4.114  10.563  3.5455  1.0035 -1.5943
 7500SOL    HW233960   2.872   4.096  10.485 -1.1312 -3.4675  2.4426
 7501SOL     OW33961   3.142   2.352  16.650 -0.0128 -0.0524 -0.2122
 7501SOL    HW133962   3.090   2.317  16.578 -1.1055 -2.2623  1.6677
 7501SOL    HW233963   3.140   2.277  16.709 -3.7422 -0.3530 -0.7306
 7502SOL     OW33964   1.397   1.872   9.143  0.4492  0.5208 -0.2025
 7502SOL    HW133965   1.373   1.808   9.210  0.0827  0.1106 -0.7308
 7502SOL    HW233966   1.406   1.956   9.188  2.9483  0.5036 -0.6998
 7503SOL     OW33967   0.615   4.164   3.093 -0.1841 -0.0280 -0.3523
 7503SOL    HW133968   0.689   4.104   3.108 -0.0604 -0.0032 -0.8632
 7503SOL    HW233969   0.541   4.105   3.106  1.4721 -2.2888 -1.1824
 7504SOL     OW33970   1.956   3.175   6.274 -0.4950 -0.8281  0.3220
 7504SOL    HW133971   2.036   3.132   6.306  0.2866 -0.2736 -0.8481
 7504SOL    HW233972   1.898   3.110   6.314 -2.0927 -0.2127 -1.0262
 7505SOL     OW33973   1.782   2.648  11.923  0.0503  0.0715 -0.1818
 7505SOL    HW133974   1.736   2.669  11.842 -1.7703  0.2406  0.8942
 7505SOL    HW233975   1.810   2.730  11.963 -2.1106 -0.0767  1.6317
 7506SOL     OW33976   4.310   3.833   4.901 -0.1960  0.2055  0.0066
 7506SOL    HW133977   4.302   3.919   4.942 -2.6189 -1.2334  2.5358
 7506SOL    HW233978   4.333   3.772   4.970 -1.3174  0.0997  0.2939
 7507SOL     OW33979   3.879   0.535  11.209 -0.0967  0.9978 -0.3344
 7507SOL    HW133980   3.902   0.524  11.301 -1.4326 -1.1972 -0.2809
 7507SOL    HW233981   3.947   0.482  11.167  0.4918  2.3717 -1.1461
 7508SOL     OW33982   1.858   2.998   6.738  0.1094 -0.0455  0.1915
 7508SOL    HW133983   1.867   3.071   6.677  2.4811 -2.2001 -2.0374
 7508SOL    HW233984   1.813   3.037   6.813 -0.5166  0.5488 -0.4955
 7509SOL     OW33985   2.722   2.280   8.704 -0.2697  0.1302  0.0379
 7509SOL    HW133986   2.781   2.206   8.708  0.6488  0.9181  1.1428
 7509SOL    HW233987   2.718   2.288   8.609 -1.4238 -3.5402 -0.2016
 7510SOL     OW33988   4.555   2.673   4.668 -0.9099  0.3943 -0.0816
 7510SOL    HW133989   4.522   2.647   4.754  1.4756 -0.7470  0.4597
 7510SOL    HW233990   4.571   2.592   4.621  0.0567 -0.3834  1.6261
 7511SOL     OW33991   1.693   2.856   7.103 -0.3539  0.2544 -0.8146
 7511SOL    HW133992   1.749   2.904   7.165 -0.4690  0.7467 -1.0899
 7511SOL    HW233993   1.644   2.792   7.155  0.2172 -0.3993 -1.0839
 7512SOL     OW33994   0.818   3.597   4.892  0.0143 -0.4673 -0.5602
 7512SOL    HW133995   0.807   3.692   4.905  2.1621 -0.0172 -2.0616
 7512SOL    HW233996   0.731   3.579   4.856 -0.1501  2.9920 -1.9666
 7513SOL     OW33997   3.659   2.751   5.431  0.0777 -0.3788  0.1552
 7513SOL    HW133998   3.676   2.751   5.336 -1.5204  0.5068 -0.1347
 7513SOL    HW233999   3.729   2.809   5.460 -1.2075  1.8735 -1.2323
 7514SOL     OW34000   0.632   2.068   5.712 -0.0898 -0.5314 -0.2072
 7514SOL    HW134001   0.638   2.144   5.655 -1.7554  1.4630  2.2546
 7514SOL    HW234002   0.548   2.031   5.683 -0.0113 -1.5283  0.8187
 7515SOL     OW34003   4.137   1.722  16.555  0.0397 -0.3923 -0.5131
 7515SOL    HW134004   4.088   1.665  16.614 -0.4224  0.2414 -0.2755
 7515SOL    HW234005   4.206   1.658  16.542  1.0357  0.5706  0.0189
 7516SOL     OW34006   3.652   1.381  15.460  0.4228  0.4080  0.4979
 7516SOL    HW134007   3.687   1.292  15.462  1.2266  0.7148 -0.1199
 7516SOL    HW234008   3.596   1.383  15.382  1.8682 -2.5465 -0.5767
 7517SOL     OW34009   3.405   4.326  12.833  0.3353 -0.1809  0.2357
 7517SOL    HW134010   3.432   4.417  12.844  1.0580 -0.5078  1.1770
 7517SOL    HW234011   3.386   4.338  12.740  1.1235  0.9932  0.2340
 7518SOL     OW34012   3.382   1.021   5.459 -0.0291 -0.4255  0.3984
 7518SOL    HW134013   3.289   1.022   5.437  0.7726  0.6533 -3.0498
 7518SOL    HW234014   3.414   1.110   5.470 -0.6731 -0.1441 -0.0183
 7519SOL     OW34015   1.672   3.380   4.859  0.0263 -0.5393 -0.1899
 7519SOL    HW134016   1.632   3.442   4.797  1.8168  0.3122 -0.4894
 7519SOL    HW234017   1.678   3.312   4.792 -2.9521 -2.5269  1.6027
 7520SOL     OW34018   1.352   3.340   1.475  0.1046  0.2525  0.3142
 7520SOL    HW134019   1.310   3.420   1.445 -2.9205 -1.3825  0.2307
 7520SOL    HW234020   1.416   3.362   1.543 -1.1237  0.7424  1.2908
 7521SOL     OW34021   3.225   0.613   7.698 -0.1092 -0.6376  0.2176
 7521SOL    HW134022   3.221   0.547   7.629 -1.6610 -0.6499  0.3135
 7521SOL    HW234023   3.306   0.587   7.741 -0.3877  0.3215  1.3350
 7522SOL     OW34024   4.208   3.894   6.449 -0.2110 -0.1332  0.5921
 7522SOL    HW134025   4.137   3.943   6.407 -1.3246 -1.8586  0.4700
 7522SOL    HW234026   4.233   3.826   6.386  0.3684 -0.0742  0.7620
 7523SOL     OW34027   1.219   1.897   8.910  0.3089  0.1686  0.0515
 7523SOL    HW134028   1.284   1.959   8.878  0.6118 -0.8366 -1.2880
 7523SOL    HW234029   1.263   1.852   8.983  0.1050 -2.0647 -1.1938
 7524SOL     OW34030   0.303   2.818   0.261 -0.3530  0.5604  0.7418
 7524SOL    HW134031   0.217   2.822   0.219 -0.4552  1.3386  1.0350
 7524SOL    HW234032   0.345   2.897   0.228  0.0490 -0.5633 -1.4154
 7525SOL     OW34033   1.693   3.545  11.853 -1.1434 -0.0964  0.0069
 7525SOL    HW134034   1.703   3.546  11.948 -2.1405  1.9294  0.0862
 7525SOL    HW234035   1.666   3.634  11.831 -3.4930 -1.2766 -1.8218
 7526SOL     OW34036   1.742   0.739   7.037 -0.2361 -0.7071 -0.0545
 7526SOL    HW134037   1.799   0.797   7.089  0.6090 -1.8564  0.2982
 7526SOL    HW234038   1.659   0.787   7.038  0.3991  0.3971 -0.4909
 7527SOL     OW34039   2.753   2.034   2.095  0.1551  0.3755 -0.2780
 7527SOL    HW134040   2.690   2.099   2.124 -1.1677 -1.1567  0.2645
 7527SOL    HW234041   2.811   2.049   2.170  1.3429 -0.7657 -0.9528
 7528SOL     OW34042   0.153   4.594   7.316 -0.0436 -0.3348  0.5668
 7528SOL    HW134043   0.229   4.595   7.258 -0.3739 -2.4563  0.0820
 7528SOL    HW234044   0.106   4.674   7.293  0.6135  0.0037  0.3995
 7529SOL     OW34045   1.996   3.340  14.890  0.7415 -0.3820 -0.3685
 7529SOL    HW134046   2.038   3.285  14.957 -2.8578 -0.7560  1.5726
 7529SOL    HW234047   1.974   3.281  14.819 -0.0959 -1.1542  0.5359
 7530SOL     OW34048   3.419   4.231  14.418  0.7631 -0.1041 -0.2314
 7530SOL    HW134049   3.505   4.214  14.458  0.3186 -1.1142  0.2952
 7530SOL    HW234050   3.457   4.285  14.348  2.3174 -0.9580 -0.0527
 7531SOL     OW34051   0.375   1.267   7.191  0.0039  0.2771 -0.1456
 7531SOL    HW134052   0.370   1.361   7.205  0.1359  0.0624  1.3512
 7531SOL    HW234053   0.414   1.239   7.274 -1.8721  0.4379  0.7973
 7532SOL     OW34054   0.371   3.545   0.669 -0.4171  0.4100 -0.0460
 7532SOL    HW134055   0.316   3.467   0.679 -0.3970  0.7266  2.5237
 7532SOL    HW234056   0.432   3.508   0.605 -0.3570 -0.3745  0.4586
 7533SOL     OW34057   2.646   0.138  11.192 -0.1091 -0.4697  0.4947
 7533SOL    HW134058   2.641   0.043  11.204 -2.4546 -0.3463  0.5879
 7533SOL    HW234059   2.651   0.165  11.284  1.6900 -1.1748  0.6019
 7534SOL     OW34060   2.656   1.070   8.257 -0.3157  0.0266  0.1495
 7534SOL    HW134061   2.706   1.150   8.274 -0.3388  0.3287 -1.2282
 7534SOL    HW234062   2.667   1.017   8.337 -1.9109 -0.6289 -0.0716
 7535SOL     OW34063   1.544   0.951   8.306  0.1950 -0.8221 -0.7403
 7535SOL    HW134064   1.610   1.020   8.298 -0.1072 -0.4300  0.1418
 7535SOL    HW234065   1.581   0.885   8.248  0.1497 -0.3362 -1.3313
 7536SOL     OW34066   4.609   4.720   2.098  0.3847 -0.5124  0.0413
 7536SOL    HW134067   4.631   0.082   2.062  1.3788 -0.7428  0.1110
 7536SOL    HW234068   4.679   0.001   2.163  1.0805 -0.9776 -0.6753
 7537SOL     OW34069   2.022   3.893   6.986 -0.2064 -0.6019  0.1637
 7537SOL    HW134070   2.034   3.982   6.955 -1.6265 -0.8193 -1.0096
 7537SOL    HW234071   2.109   3.881   7.026 -0.0106 -1.4527 -0.5007
 7538SOL     OW34072   4.064   2.401   4.127 -0.6876  0.7524 -0.1004
 7538SOL    HW134073   4.141   2.429   4.078  0.5777 -2.0902  0.2410
 7538SOL    HW234074   4.069   2.456   4.205  0.8841  0.0290  0.3173
 7539SOL     OW34075   4.410   4.557   9.295 -0.4636 -0.2035  0.0293
 7539SOL    HW134076   4.498   4.557   9.258 -0.6968  0.0337 -0.5141
 7539SOL    HW234077   4.391   4.651   9.291 -0.2822 -0.1446  0.5780
 7540SOL     OW34078   2.111   2.566   3.556  0.0817  0.0058 -0.0252
 7540SOL    HW134079   2.195   2.533   3.588 -0.7439 -1.5677  0.5444
 7540SOL    HW234080   2.045   2.498   3.574 -1.0599  1.1794  0.2514
 7541SOL     OW34081   0.394   4.086   5.940 -0.1480  0.6591 -0.1439
 7541SOL    HW134082   0.396   4.151   6.010  0.1538 -1.0980  1.4901
 7541SOL    HW234083   0.489   4.078   5.931  0.0690  0.9268  2.0174
 7542SOL     OW34084   0.231   2.129  16.290 -0.0979  0.1695  0.0173
 7542SOL    HW134085   0.255   2.059  16.352  0.0624  0.8432  0.7208
 7542SOL    HW234086   0.167   2.177  16.342 -0.5398 -0.5420  0.1448
 7543SOL     OW34087   2.030   2.236   0.849  0.7935 -0.1949 -0.4293
 7543SOL    HW134088   1.943   2.238   0.809  0.3068 -0.3758  0.6247
 7543SOL    HW234089   2.061   2.171   0.786 -1.0344  1.4315 -2.9801
 7544SOL     OW34090   0.618   3.432  10.560 -0.3385 -0.0392  0.2164
 7544SOL    HW134091   0.524   3.431  10.579 -0.1454 -0.4427  1.1249
 7544SOL    HW234092   0.655   3.379  10.630  1.4051  2.4578  1.1487
 7545SOL     OW34093   3.541   4.008   5.388 -0.5294 -0.1125 -0.2598
 7545SOL    HW134094   3.599   4.030   5.316 -0.8694 -0.1537 -0.5490
 7545SOL    HW234095   3.486   3.941   5.346 -1.9026  2.2737 -2.2668
 7546SOL     OW34096   0.103   3.458  13.919 -0.0153  0.0794  0.1570
 7546SOL    HW134097   0.190   3.468  13.881  1.6428 -2.3779  3.2528
 7546SOL    HW234098   0.078   3.538  13.965  0.0488  0.0496  0.2451
 7547SOL     OW34099   3.220   3.006   6.860  0.8594 -0.8134 -0.0481
 7547SOL    HW134100   3.170   2.930   6.891 -0.6974  0.6888  1.0993
 7547SOL    HW234101   3.226   3.046   6.947  0.5186 -0.9150  0.0249
 7548SOL     OW34102   1.373   3.472  17.350 -0.8507 -0.3156  0.1815
 7548SOL    HW134103   1.300   3.510  17.299 -0.0301 -3.2161 -3.1015
 7548SOL    HW234104   1.339   3.385  17.369  0.2149 -0.7364  0.1516
 7549SOL     OW34105   4.497   4.542   1.591 -0.6265 -0.4866  0.3333
 7549SOL    HW134106   4.553   4.607   1.548 -1.0500 -1.7418 -2.1696
 7549SOL    HW234107   4.508   4.569   1.682  1.3032 -0.1368 -0.0091
 7550SOL     OW34108   0.281   4.548   4.651  0.0679  0.6327 -0.0959
 7550SOL    HW134109   0.188   4.558   4.631  0.1640 -0.2889 -1.0254
 7550SOL    HW234110   0.290   4.639   4.678  3.4213 -0.0233  0.9689
 7551SOL     OW34111   1.382   0.544   6.869 -0.0567  0.1514 -0.4201
 7551SOL    HW134112   1.477   0.541   6.877 -0.0622 -0.3026 -0.5171
 7551SOL    HW234113   1.353   0.605   6.936  1.1408  1.4406 -1.0759
 7552SOL     OW34114   1.215   3.004   1.797  0.0330 -0.7344  0.1338
 7552SOL    HW134115   1.286   3.007   1.860 -1.6419 -0.0742  2.0003
 7552SOL    HW234116   1.147   2.975   1.858 -0.8839  1.9261  0.3907
 7553SOL     OW34117   3.809   1.889   2.528 -0.0933 -0.0841 -0.2068
 7553SOL    HW134118   3.773   1.901   2.616 -2.7505  1.1595 -1.4812
 7553SOL    HW234119   3.852   1.803   2.529 -1.9829 -1.0453 -1.0348
 7554SOL     OW34120   4.174   3.134   1.214 -0.5298  0.3531 -0.1081
 7554SOL    HW134121   4.224   3.202   1.168 -0.4468  1.2601  1.3426
 7554SOL    HW234122   4.237   3.063   1.217  0.9777  1.6257 -1.2933
 7555SOL     OW34123   4.699   1.214  11.939  0.1845  0.0271 -0.5009
 7555SOL    HW134124   0.034   1.138  11.933  0.2547  0.0960 -0.7117
 7555SOL    HW234125   0.040   1.283  11.926  1.0499 -0.4846  1.1386
 7556SOL     OW34126   4.532   2.299   8.541 -0.0344 -0.3276  0.3200
 7556SOL    HW134127   4.448   2.344   8.533 -0.1864 -0.7447 -0.4056
 7556SOL    HW234128   4.576   2.284   8.458 -1.2505 -0.2868 -0.3290
 7557SOL     OW34129   3.897   3.138   5.149  0.5549  0.0759 -0.0848
 7557SOL    HW134130   3.858   3.149   5.235  1.4959 -1.9980  0.6295
 7557SOL    HW234131   3.904   3.042   5.155 -0.7554 -0.1504 -2.0761
 7558SOL     OW34132   2.334   3.468   4.373  0.1177 -0.3304 -0.8934
 7558SOL    HW134133   2.247   3.432   4.355  0.1662 -1.6372  1.4720
 7558SOL    HW234134   2.352   3.524   4.297  1.6921 -0.4719 -0.6193
 7559SOL     OW34135   1.238   2.348   5.091  0.0647 -0.2737  0.0703
 7559SOL    HW134136   1.273   2.315   5.174 -1.1389 -0.5357  0.4691
 7559SOL    HW234137   1.144   2.349   5.108 -0.4389 -0.0124 -2.7729
 7560SOL     OW34138   1.718   4.489   7.550 -0.2145  0.0492 -0.2503
 7560SOL    HW134139   1.770   4.495   7.630  1.0992 -1.1029 -1.0007
 7560SOL    HW234140   1.637   4.527   7.582  0.2768 -0.6553  1.8460
 7561SOL     OW34141   0.004   0.279  11.114 -0.5511  0.0946  0.8385
 7561SOL    HW134142   4.695   0.198  11.074 -0.2003 -0.5702  1.9144
 7561SOL    HW234143   0.014   0.332  11.035 -0.4813  0.5932  1.1875
 7562SOL     OW34144   2.327   3.829   8.746 -0.3265 -0.0417  0.2185
 7562SOL    HW134145   2.232   3.820   8.744 -0.0422 -3.1327  0.3696
 7562SOL    HW234146   2.355   3.818   8.837 -1.9740  3.3690  1.1082
 7563SOL     OW34147   4.523   3.613   5.302  0.2946 -0.5410  0.3110
 7563SOL    HW134148   4.466   3.619   5.225  0.5100 -0.8297  0.1305
 7563SOL    HW234149   4.525   3.520   5.324  0.5101 -0.5354  0.3113
 7564SOL     OW34150   1.437   3.728  12.047 -0.1313  0.0181  0.2478
 7564SOL    HW134151   1.368   3.662  12.049  0.1322 -0.2974 -1.2247
 7564SOL    HW234152   1.517   3.681  12.070  0.8128  1.4296 -0.1526
 7565SOL     OW34153   1.013   1.920   9.335 -1.0065 -0.1641 -0.1841
 7565SOL    HW134154   0.974   1.907   9.422 -0.4686 -0.4014  0.0193
 7565SOL    HW234155   1.000   1.829   9.306 -1.0892 -0.2484  0.1124
 7566SOL     OW34156   1.664   0.578   3.396  0.2318 -0.0991 -0.1989
 7566SOL    HW134157   1.749   0.581   3.353  0.2774  2.2010  0.0512
 7566SOL    HW234158   1.597   0.590   3.329  0.4580  0.8170 -0.2597
 7567SOL     OW34159   0.320   0.230  17.510  0.0077 -0.5483  0.2278
 7567SOL    HW134160   0.396   0.230  17.568 -0.5636  1.7729  0.9464
 7567SOL    HW234161   0.308   0.324  17.521 -1.0478 -0.5345 -1.0295
 7568SOL     OW34162   4.335   3.051  11.331 -0.4553  0.3366 -0.0829
 7568SOL    HW134163   4.345   2.968  11.378  0.2775  0.5732  0.1749
 7568SOL    HW234164   4.281   3.046  11.252 -1.1804 -0.0172  0.4301
 7569SOL     OW34165   3.972   1.382   5.293 -0.8586 -0.2450 -0.1598
 7569SOL    HW134166   3.954   1.373   5.199  1.1902 -3.8945 -0.1729
 7569SOL    HW234167   3.896   1.339   5.333 -0.7706  0.3946  0.6999
 7570SOL     OW34168   4.201   4.594   1.201  0.3650  0.2386  0.1073
 7570SOL    HW134169   4.295   4.577   1.202 -0.0749 -2.2998 -1.3650
 7570SOL    HW234170   4.201   4.689   1.186  0.2502  0.1646 -0.3485
 7571SOL     OW34171   3.855   3.405   7.534 -0.2504  0.2366  0.0907
 7571SOL    HW134172   3.913   3.480   7.527  0.0408  0.0699  0.6733
 7571SOL    HW234173   3.817   3.407   7.447  0.2457 -0.0337 -0.1347
 7572SOL     OW34174   0.836   4.622  17.560  0.3314  0.5265  1.0388
 7572SOL    HW134175   0.829   4.679  17.636  0.1889 -0.0141  1.4295
 7572SOL    HW234176   0.868   4.672  17.484  0.5280 -2.4111 -0.8220
 7573SOL     OW34177   3.226   1.385   4.043  0.1590  0.0739  0.2162
 7573SOL    HW134178   3.143   1.406   4.086 -0.1501  0.3455 -0.5070
 7573SOL    HW234179   3.237   1.302   4.089  1.7773 -1.1914 -2.4557
 7574SOL     OW34180   3.529   3.684  13.440  0.1681  0.2625 -0.0399
 7574SOL    HW134181   3.542   3.728  13.524 -1.9099  2.2688 -0.7729
 7574SOL    HW234182   3.565   3.756  13.387  0.2112  0.8032  0.7217
 7575SOL     OW34183   3.913   2.919   2.964  0.8265 -0.0217 -0.2087
 7575SOL    HW134184   3.980   2.851   2.956 -0.3026 -1.1371 -0.3206
 7575SOL    HW234185   3.972   2.994   2.966 -1.8440  2.1510 -2.9271
 7576SOL     OW34186   4.489   2.382   8.267 -0.4454 -0.2003 -0.3848
 7576SOL    HW134187   4.532   2.435   8.335 -1.6089  0.3847 -0.1016
 7576SOL    HW234188   4.543   2.303   8.266  1.0783  0.7909  2.1079
 7577SOL     OW34189   3.601   3.282   7.382  0.6599  0.6828  0.0593
 7577SOL    HW134190   3.653   3.341   7.329 -3.0318  1.0097 -3.2065
 7577SOL    HW234191   3.528   3.253   7.328  0.9099 -0.0890  0.1326
 7578SOL     OW34192   1.554   3.774  16.494 -0.0045  0.0142  0.1235
 7578SOL    HW134193   1.489   3.835  16.460 -0.1836 -0.2358  0.0153
 7578SOL    HW234194   1.633   3.809  16.453 -0.3402  0.6348  0.0200
 7579SOL     OW34195   1.247   2.937   9.631 -0.1482 -0.7902 -0.1922
 7579SOL    HW134196   1.162   2.973   9.659  1.5185  0.1567  3.7466
 7579SOL    HW234197   1.227   2.892   9.550 -0.1466 -1.0910 -0.0262
 7580SOL     OW34198   3.274   0.456   5.955  0.2329 -0.1835 -0.4460
 7580SOL    HW134199   3.296   0.379   5.902  3.2225 -1.0575  2.0479
 7580SOL    HW234200   3.357   0.484   5.993 -0.5256 -1.9920  2.5790
 7581SOL     OW34201   0.263   0.383   2.390 -0.5989 -0.5420  0.4364
 7581SOL    HW134202   0.287   0.298   2.427  1.6911 -0.4105 -0.7061
 7581SOL    HW234203   0.181   0.402   2.435 -1.3817 -0.8322 -0.8561
 7582SOL     OW34204   2.482   1.053   3.255 -0.6956  0.4855 -0.6623
 7582SOL    HW134205   2.497   1.133   3.204 -2.3150  1.4923  0.4434
 7582SOL    HW234206   2.569   1.013   3.264 -0.9268  0.1007 -0.1440
 7583SOL     OW34207   3.523   0.544   6.087  0.2630  0.1937  0.2403
 7583SOL    HW134208   3.522   0.630   6.044  0.1786 -0.0407 -0.2337
 7583SOL    HW234209   3.615   0.528   6.106  0.1226 -0.1763  0.6059
 7584SOL     OW34210   0.577   3.912   8.788  0.2669  0.5769  0.0424
 7584SOL    HW134211   0.613   3.944   8.705 -0.7251  1.4289 -0.0591
 7584SOL    HW234212   0.630   3.953   8.856  0.3827  1.4848 -0.6038
 7585SOL     OW34213   4.243   0.406   9.344 -0.0227 -0.0111  0.0185
 7585SOL    HW134214   4.200   0.432   9.426 -1.8975 -1.9331 -0.3783
 7585SOL    HW234215   4.334   0.423   9.369  0.2847 -0.5539 -0.7377
 7586SOL     OW34216   1.636   0.150   4.873 -0.5479 -0.0299  0.2648
 7586SOL    HW134217   1.715   0.099   4.891  2.6177  4.1037 -1.6402
 7586SOL    HW234218   1.573   0.092   4.831 -0.7199  0.4484 -0.1370
 7587SOL     OW34219   1.157   2.128   7.986 -0.6267  0.3305  0.3743
 7587SOL    HW134220   1.159   2.070   8.062  0.4705 -0.4164 -0.2242
 7587SOL    HW234221   1.172   2.207   8.038  3.2626 -0.0886 -0.1176
 7588SOL     OW34222   4.579   2.055   2.247 -0.2723 -0.6534 -0.2060
 7588SOL    HW134223   4.517   2.118   2.208 -0.6510 -0.5564  0.5609
 7588SOL    HW234224   4.550   1.968   2.222 -1.5973 -0.0896 -0.6390
 7589SOL     OW34225   3.645   3.067   3.743  0.1238  0.5117 -0.2753
 7589SOL    HW134226   3.731   3.110   3.747 -1.2379  3.1309  0.1515
 7589SOL    HW234227   3.592   3.122   3.799 -0.1279 -0.1422  0.1297
 7590SOL     OW34228   3.961   1.975   9.007 -0.4725  0.4276 -0.1560
 7590SOL    HW134229   4.033   1.978   9.070 -0.7360  0.0356  0.1646
 7590SOL    HW234230   3.886   1.980   9.067 -1.6162  0.5377 -1.6013
 7591SOL     OW34231   1.774   1.817   7.348  0.0555 -0.3510 -0.1659
 7591SOL    HW134232   1.825   1.738   7.333  2.4639  1.5663 -1.9887
 7591SOL    HW234233   1.801   1.880   7.282  0.0838 -0.8177 -0.5969
 7592SOL     OW34234   1.033   0.058   2.927  0.1225  0.2070  0.0941
 7592SOL    HW134235   1.000   0.126   2.986 -1.1903  1.1377 -1.7213
 7592SOL    HW234236   0.968   4.713   2.938 -0.6382  0.8293 -0.4976
 7593SOL     OW34237   1.700   1.523  16.446  0.1724 -0.1934  0.5212
 7593SOL    HW134238   1.784   1.564  16.465 -0.0856 -0.4812  2.2889
 7593SOL    HW234239   1.644   1.601  16.450 -0.1026 -0.3812  0.3757
 7594SOL     OW34240   3.363   2.992   7.566  0.2415  0.6216  0.4580
 7594SOL    HW134241   3.304   2.918   7.580  3.4354 -1.8259  0.7879
 7594SOL    HW234242   3.369   2.996   7.471 -1.6875 -1.7030  0.2238
 7595SOL     OW34243   1.997   4.669  17.251 -0.4316 -0.0212 -0.7485
 7595SOL    HW134244   1.961   4.601  17.193 -0.4078  0.2407 -1.0749
 7595SOL    HW234245   2.091   4.664  17.236 -0.0572 -2.3246  2.5147
 7596SOL     OW34246   3.727   0.335   8.124  0.5831 -0.2539  0.1387
 7596SOL    HW134247   3.723   0.411   8.066  1.6974 -0.7840 -0.6050
 7596SOL    HW234248   3.742   0.378   8.209 -1.6715 -1.7186  1.2897
 7597SOL     OW34249   2.257   2.815   7.072  0.0849 -0.7929 -0.3287
 7597SOL    HW134250   2.187   2.849   7.017 -0.2551 -2.3373 -0.8464
 7597SOL    HW234251   2.253   2.720   7.082 -0.9619 -0.7988 -0.8256
 7598SOL     OW34252   4.428   1.353   6.284  0.1522  0.2712  0.4992
 7598SOL    HW134253   4.367   1.413   6.326 -2.3795 -0.7455 -1.6664
 7598SOL    HW234254   4.497   1.417   6.265  0.5184 -0.0287  0.8387
 7599SOL     OW34255   3.885   3.557   4.237  0.4469  0.0255  0.2031
 7599SOL    HW134256   3.864   3.581   4.147 -1.3746 -0.4044  0.5170
 7599SOL    HW234257   3.803   3.581   4.279 -0.5672 -0.4473 -1.4835
 7600SOL     OW34258   2.266   3.094  13.851 -0.1998  0.4615  0.2660
 7600SOL    HW134259   2.317   3.035  13.796  0.4658  0.6988  0.6308
 7600SOL    HW234260   2.232   3.035  13.919  2.8050 -0.4388  1.0045
 7601SOL     OW34261   2.853   3.873   5.971 -0.4057 -0.3040 -0.4985
 7601SOL    HW134262   2.848   3.924   5.890  1.6144 -1.3637 -1.2671
 7601SOL    HW234263   2.932   3.909   6.011 -1.4050  0.3158  0.9399
 7602SOL     OW34264   0.819   1.491   8.681 -0.3930  0.4464 -0.3699
 7602SOL    HW134265   0.810   1.551   8.755 -0.1327 -1.9243  1.5901
 7602SOL    HW234266   0.912   1.469   8.678 -0.1508  0.9960  2.4009
 7603SOL     OW34267   2.090   1.900   3.459 -0.0045  0.5415  0.1819
 7603SOL    HW134268   2.181   1.909   3.490 -0.0477 -0.4546  0.5731
 7603SOL    HW234269   2.111   1.907   3.366  0.2952 -0.6338  0.1597
 7604SOL     OW34270   3.342   1.623   5.134  0.0667 -0.5397  0.0142
 7604SOL    HW134271   3.339   1.698   5.074  1.1781  2.7578  4.1010
 7604SOL    HW234272   3.430   1.637   5.169 -0.1300  2.5897 -0.6941
 7605SOL     OW34273   4.249   0.189  16.712  0.5924  0.2076 -0.3068
 7605SOL    HW134274   4.181   0.122  16.707  0.8995 -0.2696  2.0147
 7605SOL    HW234275   4.208   0.242  16.643 -0.2199 -2.0505 -1.5434
 7606SOL     OW34276   3.108   1.299   2.484 -0.7447 -0.2822 -0.2164
 7606SOL    HW134277   3.153   1.215   2.494  2.1511  1.4511  0.9334
 7606SOL    HW234278   3.177   1.364   2.493 -0.2080 -0.7364 -1.0358
 7607SOL     OW34279   3.817   1.730  13.327 -0.2062 -0.0543  0.7356
 7607SOL    HW134280   3.782   1.713  13.239  0.3491  1.3093  0.2470
 7607SOL    HW234281   3.766   1.808  13.348  0.9203  0.4701  1.4591
 7608SOL     OW34282   3.581   1.396  13.151  0.2065  0.5520 -0.2018
 7608SOL    HW134283   3.577   1.424  13.242  2.4959  3.1312 -0.8991
 7608SOL    HW234284   3.609   1.478  13.109  1.6191  0.4941  0.6275
 7609SOL     OW34285   0.308   4.365   3.048 -0.3031 -0.4136 -0.0648
 7609SOL    HW134286   0.273   4.286   3.088  0.4859 -0.9444 -0.4167
 7609SOL    HW234287   0.272   4.360   2.959 -0.3439 -0.3801 -0.0497
 7610SOL     OW34288   0.002   0.074   7.184  0.1278  0.5067  0.1446
 7610SOL    HW134289   4.663   0.144   7.202 -1.4259 -0.3977 -1.6804
 7610SOL    HW234290   0.069   0.128   7.143  1.1911 -0.5277  0.5038
 7611SOL     OW34291   2.866   0.164   4.115 -0.2515 -0.1130 -0.0982
 7611SOL    HW134292   2.807   0.226   4.073 -0.0600 -1.2523 -2.0720
 7611SOL    HW234293   2.870   0.087   4.059  0.7733 -0.6384  0.6852
 7612SOL     OW34294   0.288   2.511  15.553 -0.3253 -0.5771 -0.0119
 7612SOL    HW134295   0.344   2.490  15.478 -1.2056 -2.7116 -0.0606
 7612SOL    HW234296   0.346   2.572  15.599 -0.1155 -0.6612 -0.1624
 7613SOL     OW34297   3.356   4.437   5.354 -0.3366 -0.1342 -0.0160
 7613SOL    HW134298   3.308   4.520   5.355 -0.6656 -0.3232 -0.0234
 7613SOL    HW234299   3.312   4.384   5.287 -2.6398  0.6142  0.9151
 7614SOL     OW34300   0.223   1.551   8.581  0.4172  0.1817  0.4498
 7614SOL    HW134301   0.156   1.486   8.599 -0.3091  0.4713 -1.1740
 7614SOL    HW234302   0.202   1.616   8.648  0.8964  0.8244 -0.0183
 7615SOL     OW34303   1.660   2.908   7.607  0.0135  0.3419  0.5143
 7615SOL    HW134304   1.734   2.960   7.640 -0.8768  1.3850  0.8542
 7615SOL    HW234305   1.604   2.896   7.683 -0.8869  1.5981  0.0522
 7616SOL     OW34306   1.863   1.275   4.947 -0.3171  0.6630  0.4956
 7616SOL    HW134307   1.826   1.187   4.944 -2.3232  1.5590 -1.2654
 7616SOL    HW234308   1.816   1.326   5.013 -0.7816  0.0572  0.6312
 7617SOL     OW34309   2.184   3.509  10.501 -0.0687 -0.9454 -0.2354
 7617SOL    HW134310   2.272   3.473  10.514  0.4051  1.3390  2.7622
 7617SOL    HW234311   2.130   3.445  10.546 -0.0161 -0.7567  0.0912
 7618SOL     OW34312   3.269   3.469  11.263  0.1916 -0.2831 -0.1314
 7618SOL    HW134313   3.209   3.394  11.258  1.1714 -1.0764 -0.0228
 7618SOL    HW234314   3.245   3.520  11.185 -0.1150  1.5557  1.1742
 7619SOL     OW34315   2.916   0.402   1.165 -0.0039  0.8458 -0.0178
 7619SOL    HW134316   2.962   0.350   1.099  1.3623  1.6004  0.3406
 7619SOL    HW234317   2.861   0.333   1.202  2.1703  0.9798  3.4478
 7620SOL     OW34318   3.175   1.983   8.735 -0.4016  0.1542  0.4836
 7620SOL    HW134319   3.231   2.051   8.772 -0.9748  0.8303  0.1081
 7620SOL    HW234320   3.205   1.905   8.781  1.3171  0.3574 -0.2796
 7621SOL     OW34321   1.479   2.256   3.321  0.0192 -0.3383 -0.5355
 7621SOL    HW134322   1.431   2.174   3.318  0.0353 -0.4030  1.1499
 7621SOL    HW234323   1.507   2.257   3.413 -0.5313  2.0989 -0.3829
 7622SOL     OW34324   2.277   3.867   8.396  0.0844 -0.1919 -0.6868
 7622SOL    HW134325   2.306   3.877   8.305  1.7872 -0.3581 -0.1735
 7622SOL    HW234326   2.354   3.887   8.450  0.5231  1.5057 -1.9603
 7623SOL     OW34327   0.282   1.404   2.381  0.0466  0.0758 -0.3638
 7623SOL    HW134328   0.343   1.433   2.313  0.8168 -0.8444 -0.0670
 7623SOL    HW234329   0.220   1.476   2.394 -1.4646 -1.2077 -0.5194
 7624SOL     OW34330   3.124   4.622   3.464  0.1177  0.5258 -0.9830
 7624SOL    HW134331   3.080   4.579   3.391  1.7437 -3.2248  0.2329
 7624SOL    HW234332   3.043   4.650   3.507 -0.0511  1.1171 -1.6837
 7625SOL     OW34333   3.097   4.137   2.176  0.2478 -0.1631  0.5222
 7625SOL    HW134334   3.026   4.121   2.113  1.0552 -0.6512 -0.2616
 7625SOL    HW234335   3.172   4.163   2.122 -1.3441  3.1990 -0.0918
 7626SOL     OW34336   1.510   3.737  14.443  0.1016 -0.4511  0.4506
 7626SOL    HW134337   1.488   3.830  14.434 -1.6468 -0.8289  0.7351
 7626SOL    HW234338   1.570   3.732  14.369 -1.4920 -1.6556 -0.7864
 7627SOL     OW34339   1.139   3.142   3.435 -0.3792 -0.4523 -0.0786
 7627SOL    HW134340   1.166   3.173   3.522 -1.6757 -0.0985  0.2106
 7627SOL    HW234341   1.224   3.135   3.392  0.0773  1.2291  0.5149
 7628SOL     OW34342   1.113   2.954   0.106 -0.4030 -0.4086  0.1658
 7628SOL    HW134343   1.035   2.900   0.094 -0.2440 -0.5475 -0.2214
 7628SOL    HW234344   1.131   2.985   0.018 -1.4246  0.2143  0.1683
 7629SOL     OW34345   4.375   1.942   8.706  0.5152 -0.0639 -0.4675
 7629SOL    HW134346   4.349   1.987   8.786 -1.0757 -0.3528 -0.8086
 7629SOL    HW234347   4.454   1.987   8.676  0.5254 -0.3251 -0.8320
 7630SOL     OW34348   3.006   3.501   1.781 -0.2651  0.0877 -0.5388
 7630SOL    HW134349   2.920   3.498   1.823  0.4988 -0.0600  1.0245
 7630SOL    HW234350   2.990   3.493   1.687 -1.2481  1.6202 -0.5012
 7631SOL     OW34351   4.620   2.387   2.563  0.9179 -0.2236 -0.6824
 7631SOL    HW134352   4.708   2.415   2.585 -0.3356  1.5143  2.0960
 7631SOL    HW234353   4.638   2.306   2.515 -1.4291 -0.1996 -1.6433
 7632SOL     OW34354   0.462   2.240  17.346  0.6809  0.1150  0.3781
 7632SOL    HW134355   0.466   2.261  17.439 -0.1026  1.2317  0.1623
 7632SOL    HW234356   0.532   2.175  17.341  0.4127 -0.0678 -1.0837
 7633SOL     OW34357   1.805   2.500   4.030  0.2632  0.1629 -0.1807
 7633SOL    HW134358   1.790   2.474   3.940  4.4882  0.6469 -1.0236
 7633SOL    HW234359   1.758   2.582   4.047  0.7496  0.4906 -0.4245
 7634SOL     OW34360   2.128   4.588   9.521 -0.0144 -0.0178  0.4522
 7634SOL    HW134361   2.205   4.603   9.466 -0.6475 -3.3052 -1.3430
 7634SOL    HW234362   2.069   4.632   9.459 -0.1139 -1.2473 -0.3400
 7635SOL     OW34363   3.391   0.495   1.773 -0.2995 -0.1153  0.8205
 7635SOL    HW134364   3.447   0.424   1.742 -2.4690 -0.6200 -2.0396
 7635SOL    HW234365   3.324   0.454   1.828 -0.3128 -0.9242  0.1979
 7636SOL     OW34366   2.596   1.946  16.712  0.0103  0.1077  0.0644
 7636SOL    HW134367   2.681   1.929  16.752  1.7550  4.0108 -1.9368
 7636SOL    HW234368   2.539   1.870  16.720 -0.6770  0.7390  1.1908
 7637SOL     OW34369   1.247   1.277   5.798  0.8126  0.4351 -0.1433
 7637SOL    HW134370   1.194   1.295   5.720  0.2396  2.5927  0.7476
 7637SOL    HW234371   1.179   1.289   5.864  1.0816 -0.5140  0.3085
 7638SOL     OW34372   3.439   4.241   1.521  0.5689 -0.2092  0.1304
 7638SOL    HW134373   3.352   4.258   1.486  1.1731  0.7438 -0.8880
 7638SOL    HW234374   3.412   4.179   1.589 -1.9371  0.1327 -0.5694
 7639SOL     OW34375   2.370   1.268  14.547  0.0417 -0.2778  0.6743
 7639SOL    HW134376   2.301   1.218  14.504 -1.1555  0.5282  1.6494
 7639SOL    HW234377   2.438   1.288  14.483  1.1356 -0.8728  1.6525
 7640SOL     OW34378   3.098   4.022   1.427 -0.0614 -0.1858  0.6465
 7640SOL    HW134379   3.046   4.053   1.353  0.4625  1.8802  1.1578
 7640SOL    HW234380   3.183   4.058   1.404  0.0481 -0.7860  0.1109
 7641SOL     OW34381   2.263   4.458  10.804 -0.5436 -0.1829  0.2619
 7641SOL    HW134382   2.351   4.423  10.800 -1.0442 -1.3505 -0.5240
 7641SOL    HW234383   2.245   4.422  10.891  0.2265  0.0849  0.5303
 7642SOL     OW34384   4.504   2.232   2.796 -0.1311 -0.4745 -0.5327
 7642SOL    HW134385   4.416   2.261   2.771 -1.5362 -2.6774  1.8803
 7642SOL    HW234386   4.547   2.263   2.716  0.8485  0.6817  0.4401
 7643SOL     OW34387   2.470   4.426   5.714 -0.3329 -0.0819 -1.1521
 7643SOL    HW134388   2.500   4.464   5.631  1.6114  1.7496  0.3948
 7643SOL    HW234389   2.545   4.388   5.759  0.0202  1.1900 -0.6405
 7644SOL     OW34390   0.875   0.845  15.641  0.2716  0.3447 -0.3392
 7644SOL    HW134391   0.912   0.758  15.626  1.4207  0.8593 -0.4885
 7644SOL    HW234392   0.863   0.886  15.556 -0.1747  0.5609 -0.1729
 7645SOL     OW34393   3.349   4.344  12.173  0.8092 -0.2818 -0.1035
 7645SOL    HW134394   3.442   4.326  12.159  0.7130 -1.1267  0.3479
 7645SOL    HW234395   3.319   4.257  12.199  1.4779 -0.5986 -0.3907
 7646SOL     OW34396   0.840   1.562   2.494  0.0665  0.6602  0.0449
 7646SOL    HW134397   0.929   1.576   2.465  1.5280 -2.4947  2.9703
 7646SOL    HW234398   0.797   1.591   2.414 -0.1030  0.8411  0.1999
 7647SOL     OW34399   1.564   2.934   2.454  0.1577 -0.1849 -0.2836
 7647SOL    HW134400   1.516   2.979   2.523  1.3315 -0.7720  0.9173
 7647SOL    HW234401   1.604   3.004   2.402  1.8195  0.4298  1.7963
 7648SOL     OW34402   3.405   3.046   2.250  0.5976  0.4789  0.0164
 7648SOL    HW134403   3.412   3.066   2.156 -0.7805 -0.6348 -0.3251
 7648SOL    HW234404   3.483   2.996   2.272  0.6004 -0.1168 -1.3330
 7649SOL     OW34405   1.942   2.727   4.173 -0.6198 -0.3047  0.1786
 7649SOL    HW134406   1.853   2.738   4.208 -1.0917 -2.0387 -0.4847
 7649SOL    HW234407   1.931   2.649   4.119  0.7780 -0.9099  0.7612
 7650SOL     OW34408   2.265   1.686  16.351 -0.0616  0.0025 -0.4130
 7650SOL    HW134409   2.277   1.682  16.256 -1.0882 -0.1550 -0.5358
 7650SOL    HW234410   2.355   1.693  16.383 -0.7974  1.1618  1.3892
 7651SOL     OW34411   2.130   0.535   6.154 -0.1209  0.2987  0.1673
 7651SOL    HW134412   2.049   0.502   6.193 -0.7515  0.1804 -1.2032
 7651SOL    HW234413   2.100   0.616   6.112 -0.1900 -0.5812 -1.4720
 7652SOL     OW34414   4.195   3.731   8.358 -0.0022  0.7034  0.1508
 7652SOL    HW134415   4.287   3.730   8.386  1.1074 -1.1501 -3.4905
 7652SOL    HW234416   4.150   3.703   8.438 -1.1199  0.1561 -0.6651
 7653SOL     OW34417   3.523   1.427   2.226  0.5711 -0.1230 -0.3631
 7653SOL    HW134418   3.587   1.430   2.297  1.7660 -1.2030 -1.4138
 7653SOL    HW234419   3.571   1.424   2.143  1.6486 -1.0468  0.2992
 7654SOL     OW34420   3.973   3.141   2.494  0.7278  0.0971  0.1837
 7654SOL    HW134421   3.896   3.137   2.438 -0.1397  0.7204  1.3482
 7654SOL    HW234422   4.025   3.063   2.471  0.7179 -0.1507  0.9940
 7655SOL     OW34423   4.510   1.950   9.173 -0.0452 -0.5461  0.1557
 7655SOL    HW134424   4.480   1.979   9.086  1.9111  3.1420  0.6900
 7655SOL    HW234425   4.464   1.867   9.182 -1.7415  0.1980 -1.3113
 7656SOL     OW34426   2.165   3.763   4.203  0.2530  0.1015  0.2504
 7656SOL    HW134427   2.152   3.729   4.115  0.6288  0.4355  0.0612
 7656SOL    HW234428   2.247   3.718   4.223  0.1533  0.0786  0.6018
 7657SOL     OW34429   3.331   4.656  10.466  0.4425 -0.2562  0.7043
 7657SOL    HW134430   3.349   4.722  10.399  0.5425 -1.2837 -0.2778
 7657SOL    HW234431   3.360   4.700  10.546  2.1261  1.1490 -0.6946
 7658SOL     OW34432   0.461   1.007   8.048 -0.1157 -0.0443  0.2714
 7658SOL    HW134433   0.373   0.974   8.067 -0.4040 -0.5264 -1.9170
 7658SOL    HW234434   0.473   1.036   8.139  0.7555 -1.6002  0.6683
 7659SOL     OW34435   3.555   2.692   7.527  0.1850 -0.4432 -0.4975
 7659SOL    HW134436   3.565   2.669   7.434  0.1526  0.5956 -0.7483
 7659SOL    HW234437   3.480   2.751   7.518 -0.6057 -1.4948 -0.8944
 7660SOL     OW34438   0.491   1.772   5.116  0.5400 -0.5516 -0.4075
 7660SOL    HW134439   0.419   1.808   5.066  3.1762  3.0737 -1.6055
 7660SOL    HW234440   0.460   1.685   5.142  3.4932 -1.3358  0.5539
 7661SOL     OW34441   3.134   1.912   1.944  0.4123 -0.1543 -0.7484
 7661SOL    HW134442   3.052   1.951   1.911 -0.2052 -0.8081  0.0022
 7661SOL    HW234443   3.116   1.923   2.038  1.2869 -2.0249 -0.3739
 7662SOL     OW34444   2.753   0.815   8.809  0.0742 -0.2943 -0.1411
 7662SOL    HW134445   2.745   0.759   8.731  2.4484  1.1437 -1.3941
 7662SOL    HW234446   2.671   0.863   8.804  0.4982  0.5150  0.8644
 7663SOL     OW34447   0.584   4.411   8.408 -0.5722  0.5902  0.1570
 7663SOL    HW134448   0.499   4.379   8.437  0.7899 -0.5202  2.9503
 7663SOL    HW234449   0.609   4.466   8.483 -0.1037  0.4340  0.1176
 7664SOL     OW34450   4.712   4.449  17.005  0.1050  0.0558 -0.5049
 7664SOL    HW134451   4.711   4.468  16.911  1.8309  3.4445  0.1820
 7664SOL    HW234452   0.061   4.387  17.009  0.5913  0.5098 -2.2043
 7665SOL     OW34453   4.176   1.826   8.538  0.2715  0.2441  0.3742
 7665SOL    HW134454   4.104   1.807   8.599  0.4594 -0.3037  0.4273
 7665SOL    HW234455   4.211   1.907   8.573  0.3231  0.8335 -1.0566
 7666SOL     OW34456   1.153   0.824   6.680 -0.0856  0.0577 -0.1381
 7666SOL    HW134457   1.074   0.780   6.712  0.4156 -1.0323 -0.3845
 7666SOL    HW234458   1.119   0.904   6.640  0.3638  0.5549  0.4682
 7667SOL     OW34459   1.178   4.187   8.789  0.2330  0.0381  0.4697
 7667SOL    HW134460   1.084   4.177   8.770  0.4376 -0.5172 -0.2884
 7667SOL    HW234461   1.180   4.256   8.854  0.3594  0.7192 -0.2574
 7668SOL     OW34462   0.112   3.442   0.052 -0.3709 -0.0727  0.6359
 7668SOL    HW134463   0.114   3.430  17.654  2.1307 -2.5010  1.0017
 7668SOL    HW234464   0.176   3.513   0.060  1.4886 -1.5870 -0.8395
 7669SOL     OW34465   1.813   1.389   7.345  0.0019  0.1879  0.3813
 7669SOL    HW134466   1.813   1.299   7.314 -1.6538  0.5658 -0.7199
 7669SOL    HW234467   1.839   1.369   7.435  1.6198 -0.9028 -0.3379
 7670SOL     OW34468   1.034   3.389   2.189  0.0631  0.5911  0.2176
 7670SOL    HW134469   1.110   3.425   2.145  0.6516  0.5035  1.1492
 7670SOL    HW234470   0.966   3.418   2.128  1.5151  0.6110 -1.3647
 7671SOL     OW34471   1.754   0.870  12.961 -0.1339 -0.2903 -0.9539
 7671SOL    HW134472   1.817   0.893  13.029 -0.8580  0.6759 -0.6083
 7671SOL    HW234473   1.749   0.777  12.983  2.7828 -0.2005 -0.0104
 7672SOL     OW34474   3.755   0.125   5.450 -0.0798 -0.0160 -0.0442
 7672SOL    HW134475   3.734   0.199   5.507 -1.1603  1.0865 -1.8661
 7672SOL    HW234476   3.812   0.174   5.391 -0.0842 -2.5197 -2.1666
 7673SOL     OW34477   2.946   3.189  14.579 -0.4507 -0.2399 -0.4761
 7673SOL    HW134478   2.884   3.203  14.651  0.1786 -1.2744  0.2759
 7673SOL    HW234479   3.027   3.200  14.628 -0.7546  2.3623 -0.5538
 7674SOL     OW34480   4.058   2.250  17.444 -0.0944  0.7790  0.2493
 7674SOL    HW134481   4.030   2.322  17.501 -3.8100 -1.9086  1.7782
 7674SOL    HW234482   4.114   2.299  17.382  1.5045  0.1373  1.1881
 7675SOL     OW34483   0.444   1.772   5.483  0.1190  0.2758  0.5235
 7675SOL    HW134484   0.530   1.741   5.456 -0.3565  0.3341 -1.0629
 7675SOL    HW234485   0.410   1.772   5.394 -0.3275 -2.5740  0.6858
 7676SOL     OW34486   3.048   3.403   7.076  0.2856 -1.0382 -0.9497
 7676SOL    HW134487   3.112   3.464   7.112 -1.2682 -0.1747  0.3536
 7676SOL    HW234488   2.987   3.385   7.147  2.7737 -3.9719  0.4491
 7677SOL     OW34489   2.248   3.854   3.242  0.2602 -0.6182  0.0583
 7677SOL    HW134490   2.153   3.870   3.238  0.1067 -1.3246  0.9729
 7677SOL    HW234491   2.271   3.947   3.243  0.4441 -0.6646  0.1026
 7678SOL     OW34492   3.284   1.865   4.981 -0.0440  0.2394  0.2208
 7678SOL    HW134493   3.207   1.832   4.934  1.9146 -0.1790 -2.6873
 7678SOL    HW234494   3.319   1.921   4.911 -1.7532  1.8154  0.6002
 7679SOL     OW34495   1.224   4.108   4.996  0.9453 -0.0238 -0.4002
 7679SOL    HW134496   1.287   4.084   5.064  1.8047  1.0476 -0.8146
 7679SOL    HW234497   1.143   4.069   5.028  1.4089 -0.4036  0.3037
 7680SOL     OW34498   4.578   1.077   4.081  0.3666  0.2395  1.0056
 7680SOL    HW134499   4.524   1.126   4.020  1.6969 -0.0771 -0.4273
 7680SOL    HW234500   4.515   1.066   4.152 -1.4278  0.1571 -0.5881
 7681SOL     OW34501   1.569   2.124  17.393 -0.4377  0.1927  0.1433
 7681SOL    HW134502   1.610   2.197  17.438  0.5956 -0.8043  0.8142
 7681SOL    HW234503   1.586   2.131  17.299  1.6748 -2.1096  0.3641
 7682SOL     OW34504   0.012   3.083   0.673 -0.1492 -0.6248 -0.1568
 7682SOL    HW134505   4.709   2.992   0.684  1.6878 -0.9400  1.6972
 7682SOL    HW234506   4.716   3.099   0.581 -2.0566 -1.2559  0.1405
 7683SOL     OW34507   4.214   2.375   2.989 -0.5859 -0.4846 -0.0955
 7683SOL    HW134508   4.284   2.325   3.030  0.2961  0.2139 -0.7637
 7683SOL    HW234509   4.170   2.306   2.938  0.1714 -1.0962  0.0863
 7684SOL     OW34510   1.445   1.429  17.435  0.2829  0.1541  0.8586
 7684SOL    HW134511   1.378   1.402  17.372  0.4813  1.1522  0.2205
 7684SOL    HW234512   1.441   1.360  17.502 -0.0333 -1.1719 -0.5146
 7685SOL     OW34513   4.485   2.294   2.138 -0.6079  0.6722  0.3521
 7685SOL    HW134514   4.436   2.371   2.166 -1.1913  0.3273  0.2765
 7685SOL    HW234515   4.512   2.332   2.055 -1.6436 -1.2270 -0.8385
 7686SOL     OW34516   0.011   4.551   4.636  0.0379  0.0087  0.2489
 7686SOL    HW134517   4.663   4.555   4.699  0.2456  3.0635  0.2815
 7686SOL    HW234518   4.690   4.566   4.553 -1.1119 -0.9235  0.7000
 7687SOL     OW34519   0.421   0.568  11.895  0.0828  0.0501 -0.1640
 7687SOL    HW134520   0.507   0.601  11.920  0.1460  1.4377 -2.1795
 7687SOL    HW234521   0.429   0.473  11.884 -0.1304 -0.0402  0.4723
 7688SOL     OW34522   4.432   4.640  16.825  0.5750  0.0039 -0.0532
 7688SOL    HW134523   4.499   4.584  16.787  0.4160 -2.0885  2.8012
 7688SOL    HW234524   4.359   4.632  16.763  1.0859 -1.8401 -0.4198
 7689SOL     OW34525   3.280   0.605   2.059 -0.0769 -0.0606 -0.3952
 7689SOL    HW134526   3.345   0.553   2.011 -1.3149 -1.2277 -0.8041
 7689SOL    HW234527   3.213   0.537   2.049 -1.5439  1.2408  0.5843
 7690SOL     OW34528   3.058   0.692   5.369  0.1072  0.2244 -0.2812
 7690SOL    HW134529   3.017   0.745   5.438  1.3575  2.9506 -1.5963
 7690SOL    HW234530   3.018   0.723   5.287  1.3374 -0.4184 -1.1204
 7691SOL     OW34531   2.737   0.354   6.341  0.3488  0.1727  0.3762
 7691SOL    HW134532   2.747   0.340   6.247 -0.7323  0.8439  0.1514
 7691SOL    HW234533   2.643   0.341   6.355  0.4424 -2.0452 -1.0430
 7692SOL     OW34534   2.773   0.581   5.994 -0.1545 -0.5884 -0.3213
 7692SOL    HW134535   2.787   0.675   6.005  0.1141 -0.5137 -1.3362
 7692SOL    HW234536   2.855   0.540   6.022  0.4229 -1.0707 -2.7649
 7693SOL     OW34537   3.652   1.374  17.317 -0.0161  0.4309 -0.0011
 7693SOL    HW134538   3.583   1.438  17.332  1.8503  1.7699  2.9683
 7693SOL    HW234539   3.726   1.411  17.365  1.9025 -1.2935 -1.6474
 7694SOL     OW34540   1.054   2.861   4.430  0.0567 -0.4230 -0.0296
 7694SOL    HW134541   1.081   2.877   4.339 -0.3650  0.4563 -0.0068
 7694SOL    HW234542   1.142   2.851   4.466 -0.7870 -1.3678  1.7594
 7695SOL     OW34543   0.638   0.069  13.536  0.0319 -0.1809 -0.5781
 7695SOL    HW134544   0.669   0.098  13.622 -0.0928 -0.9603 -0.2626
 7695SOL    HW234545   0.661   4.701  13.550 -0.1946  0.0584  1.3959
 7696SOL     OW34546   3.025   2.373  12.679  0.5553  0.0803  0.5603
 7696SOL    HW134547   3.106   2.422  12.690  0.2522  1.0668 -1.7134
 7696SOL    HW234548   3.054   2.288  12.712  1.7207  0.3785  0.3024
 7697SOL     OW34549   2.678   1.511   3.703 -0.7115 -0.4028 -0.2357
 7697SOL    HW134550   2.693   1.430   3.654  0.0329 -0.2053 -0.3269
 7697SOL    HW234551   2.606   1.479   3.758  0.4120 -1.2871  0.7072
 7698SOL     OW34552   0.576   0.973   5.507 -0.0207  0.0675  0.2873
 7698SOL    HW134553   0.599   0.977   5.414 -1.9916  2.4487 -0.0921
 7698SOL    HW234554   0.606   0.883   5.523 -0.2479 -0.3983 -1.8734
 7699SOL     OW34555   4.588   0.728   4.864  0.5410  0.2533  0.0993
 7699SOL    HW134556   4.619   0.783   4.792 -0.2235 -0.3421 -0.6716
 7699SOL    HW234557   4.562   0.790   4.933 -0.6753  1.1766 -1.1998
 7700SOL     OW34558   4.496   0.764   5.713 -0.2538 -0.1089  0.5243
 7700SOL    HW134559   4.534   0.713   5.641 -1.7511 -2.7667  1.6019
 7700SOL    HW234560   4.572   0.812   5.745  0.5827 -0.8161 -0.4148
 7701SOL     OW34561   3.074   1.102  15.205 -0.3395 -0.3324  0.3461
 7701SOL    HW134562   2.998   1.135  15.157  0.7546 -0.7784 -1.7191
 7701SOL    HW234563   3.038   1.020  15.238 -0.5913 -0.3165  0.1151
 7702SOL     OW34564   0.576   3.245   5.804 -0.2769  0.2957  0.1174
 7702SOL    HW134565   0.510   3.209   5.745 -0.5232 -1.0304  1.2049
 7702SOL    HW234566   0.644   3.178   5.804 -0.1828  0.3907 -0.1171
 7703SOL     OW34567   4.365   1.133   5.298 -0.4247 -0.5968 -0.8006
 7703SOL    HW134568   4.443   1.133   5.242  0.4673 -0.8155  0.4419
 7703SOL    HW234569   4.378   1.199   5.366  1.0851 -0.4859 -1.1937
 7704SOL     OW34570   4.340   0.315   5.679 -0.2694 -0.3710 -0.1158
 7704SOL    HW134571   4.266   0.267   5.641 -2.0922  2.2827  0.1398
 7704SOL    HW234572   4.381   0.252   5.739 -0.2380  0.8249  1.1081
 7705SOL     OW34573   3.767   1.269   6.046  0.3756 -0.7133  0.1950
 7705SOL    HW134574   3.710   1.216   6.102 -0.8053 -0.3821 -0.6856
 7705SOL    HW234575   3.754   1.224   5.962  0.9062  1.9962 -1.3545
 7706SOL     OW34576   3.578   3.657   2.366  0.7332  0.6000  0.2798
 7706SOL    HW134577   3.504   3.598   2.378 -1.0670  2.8874  0.3443
 7706SOL    HW234578   3.618   3.621   2.287 -1.1165  1.4980 -1.0754
 7707SOL     OW34579   1.389   1.508   9.808 -0.1488 -0.2605  0.5842
 7707SOL    HW134580   1.294   1.506   9.806 -0.1010 -1.0121 -0.5606
 7707SOL    HW234581   1.412   1.416   9.803  1.3331  0.0771  0.8515
 7708SOL     OW34582   1.606   2.976  15.264 -0.5731 -0.5738 -0.0473
 7708SOL    HW134583   1.542   3.030  15.218 -1.0616 -1.6100 -0.5875
 7708SOL    HW234584   1.567   2.965  15.351  0.4621 -0.0112  0.4971
 7709SOL     OW34585   1.606   4.602   8.501  0.1134  0.1979 -0.3028
 7709SOL    HW134586   1.702   4.596   8.504  0.0185 -2.7667 -2.8017
 7709SOL    HW234587   1.579   4.545   8.573 -1.0090 -0.3334 -1.1549
 7710SOL     OW34588   1.390   2.397   2.164 -0.2471  0.4032  0.0051
 7710SOL    HW134589   1.315   2.377   2.221 -0.6413  3.5086  0.5842
 7710SOL    HW234590   1.351   2.438   2.087 -0.4882  0.2812  0.0610
 7711SOL     OW34591   0.843   3.353   3.212 -0.0381 -0.3779 -0.0895
 7711SOL    HW134592   0.799   3.430   3.178  1.3779  1.7952  2.9827
 7711SOL    HW234593   0.776   3.314   3.269 -0.8856  0.5477 -0.4713
 7712SOL     OW34594   0.939   2.338  14.955 -0.4564  0.2487 -0.3109
 7712SOL    HW134595   0.969   2.402  14.891 -0.6926 -0.3584 -1.0400
 7712SOL    HW234596   0.887   2.394  15.012 -0.7356  0.2788 -0.5956
 7713SOL     OW34597   0.225   4.440  14.968  0.5908  0.4951  0.0166
 7713SOL    HW134598   0.319   4.431  14.979  0.7641 -0.4098 -2.2288
 7713SOL    HW234599   0.189   4.361  15.010  1.3432  1.3794  2.2798
 7714SOL     OW34600   1.249   4.038   9.687 -0.1855  0.0492 -0.3621
 7714SOL    HW134601   1.177   4.051   9.625  0.8800  0.0245 -1.5957
 7714SOL    HW234602   1.292   4.119   9.663 -0.5763  0.6995  1.1018
 7715SOL     OW34603   3.063   1.593   7.094  0.3390  0.4123  0.0450
 7715SOL    HW134604   3.103   1.612   7.178  0.5835 -0.3126  0.0954
 7715SOL    HW234605   3.107   1.512   7.069 -0.4195 -0.1405  0.4793
 7716SOL     OW34606   2.710   0.478   5.012 -0.1920  0.4139  0.0541
 7716SOL    HW134607   2.712   0.408   4.947  2.7317  1.2383 -0.7442
 7716SOL    HW234608   2.787   0.529   4.988  0.6131 -0.7559  0.1365
 7717SOL     OW34609   0.029   3.240  13.771  0.2333 -0.2773  0.0701
 7717SOL    HW134610   0.057   3.321  13.814  0.6776  0.2755 -1.2605
 7717SOL    HW234611   4.661   3.234  13.798 -0.6953  3.4244 -2.3383
 7718SOL     OW34612   4.495   2.562  15.641 -0.4561  0.0286  0.5061
 7718SOL    HW134613   4.582   2.556  15.603  0.3680  0.7573  2.3059
 7718SOL    HW234614   4.483   2.657  15.641 -0.5926  0.0129 -0.7826
 7719SOL     OW34615   0.755   4.605  10.776  0.2600 -0.1034  0.2533
 7719SOL    HW134616   0.758   4.560  10.860 -0.4767  1.1602  0.9597
 7719SOL    HW234617   0.685   4.559  10.732 -1.3862 -0.0840  2.8634
 7720SOL     OW34618   0.469   0.050   0.193 -0.5142  0.1303  0.3677
 7720SOL    HW134619   0.386   0.091   0.215 -0.2850 -0.8707  3.1241
 7720SOL    HW234620   0.537   0.111   0.220  1.8360 -2.1955 -0.2796
 7721SOL     OW34621   3.388   2.183   8.614  0.3266  0.2911 -0.6653
 7721SOL    HW134622   3.372   2.089   8.610 -0.8034  0.4022  0.9030
 7721SOL    HW234623   3.454   2.194   8.546  2.4091 -2.0714  0.9871
 7722SOL     OW34624   2.285   3.381   4.815 -0.1758 -0.1306  0.2477
 7722SOL    HW134625   2.329   3.429   4.885 -0.9536 -0.8837  1.2344
 7722SOL    HW234626   2.196   3.378   4.847 -0.5354  4.1728 -0.3407
 7723SOL     OW34627   0.240   0.936   9.444 -0.1860 -1.0064  0.8111
 7723SOL    HW134628   0.286   0.873   9.388  1.2358  2.4320 -1.9105
 7723SOL    HW234629   0.176   0.874   9.479  0.5088 -0.5823  2.7997
 7724SOL     OW34630   3.040   3.858  11.259  0.2992 -0.1229  0.6848
 7724SOL    HW134631   2.988   3.787  11.220 -2.3682 -0.2658  4.5510
 7724SOL    HW234632   2.986   3.888  11.332 -0.5078  1.2215 -0.4635
 7725SOL     OW34633   1.651   3.923   9.020  0.2439  0.1026 -0.0049
 7725SOL    HW134634   1.604   3.871   8.955 -0.8077 -1.6359  2.1619
 7725SOL    HW234635   1.672   4.000   8.968 -1.1382 -0.1276 -0.8957
 7726SOL     OW34636   3.101   0.378   6.248 -0.8159  0.0196 -0.7760
 7726SOL    HW134637   3.094   0.425   6.332  1.1326 -0.4328 -0.3745
 7726SOL    HW234638   3.110   0.445   6.180  0.0490 -0.4872 -1.1611
 7727SOL     OW34639   1.451   4.228   1.936  0.1861 -0.2151  0.2310
 7727SOL    HW134640   1.488   4.236   1.848  1.6713  0.6087  0.9228
 7727SOL    HW234641   1.377   4.288   1.939  1.2864  1.1554  0.1799
 7728SOL     OW34642   0.233   2.058   2.423  0.0776  0.0500 -0.1038
 7728SOL    HW134643   0.301   2.070   2.356  0.8821 -3.2374  0.1235
 7728SOL    HW234644   0.215   1.964   2.426 -2.4190  0.5330 -0.1031
 7729SOL     OW34645   3.048   4.517   5.617  0.2231  0.3237 -0.2394
 7729SOL    HW134646   3.116   4.569   5.658  0.4303  0.6156 -0.9518
 7729SOL    HW234647   3.065   4.438   5.669 -0.3096  0.7157  0.5298
 7730SOL     OW34648   3.024   3.711  15.240 -0.4026 -0.4579 -0.6544
 7730SOL    HW134649   3.036   3.676  15.152 -2.0541  0.1604 -1.1270
 7730SOL    HW234650   3.036   3.802  15.214 -1.7631 -0.7880 -2.5209
 7731SOL     OW34651   2.731   1.117   0.566 -0.4429 -0.8146 -0.1906
 7731SOL    HW134652   2.800   1.138   0.503  0.5916  1.1935  1.6402
 7731SOL    HW234653   2.685   1.045   0.522 -0.5575  0.7698 -2.6554
 7732SOL     OW34654   2.166   1.171   8.038  0.4795  0.1780  0.0838
 7732SOL    HW134655   2.082   1.166   8.083  0.9280  0.6901  0.9796
 7732SOL    HW234656   2.217   1.138   8.112  0.8130  0.2069 -0.1327
 7733SOL     OW34657   4.081   3.543   8.175 -0.2271  0.4101 -0.3724
 7733SOL    HW134658   4.059   3.587   8.093 -0.7111  1.2811  0.2198
 7733SOL    HW234659   4.131   3.605   8.229 -0.6299 -1.0542  1.6822
 7734SOL     OW34660   4.257   2.530   1.822 -0.2874 -0.2551 -0.2192
 7734SOL    HW134661   4.244   2.437   1.807  0.7849 -0.5803  0.8747
 7734SOL    HW234662   4.195   2.533   1.895  0.4099 -0.4723  0.3746
 7735SOL     OW34663   0.977   0.955  13.875  0.2539  0.0731 -0.4044
 7735SOL    HW134664   0.965   0.906  13.793  1.0728  0.1588 -0.5767
 7735SOL    HW234665   1.055   0.915  13.912 -2.1856 -1.1158  3.3953
 7736SOL     OW34666   3.569   2.893   1.991  0.1553 -0.2444 -0.2623
 7736SOL    HW134667   3.574   2.812   1.940 -2.4533 -0.7298  0.2494
 7736SOL    HW234668   3.514   2.944   1.932  0.3043 -0.2981 -0.4456
 7737SOL     OW34669   1.022   3.837   4.953  0.5114  0.5365 -0.0514
 7737SOL    HW134670   1.079   3.764   4.975 -2.0364 -0.9536  1.6763
 7737SOL    HW234671   1.045   3.858   4.863 -1.7372  0.7138 -0.5809
 7738SOL     OW34672   4.186   0.417   3.202  0.0077  0.6169 -0.0718
 7738SOL    HW134673   4.182   0.460   3.117  0.2655  1.3777  0.3025
 7738SOL    HW234674   4.219   0.333   3.170 -2.0625 -0.5444  0.8700
 7739SOL     OW34675   1.642   1.392   5.163 -0.3948 -0.2175 -0.4917
 7739SOL    HW134676   1.694   1.471   5.150 -1.1020  0.1620 -1.0300
 7739SOL    HW234677   1.565   1.412   5.109 -0.4051  0.3734 -0.2588
 7740SOL     OW34678   2.994   2.639   7.925 -0.0065  0.0271  0.2721
 7740SOL    HW134679   3.018   2.732   7.928  2.7910 -0.7033  0.3723
 7740SOL    HW234680   2.901   2.639   7.904  0.3811  0.4332 -1.4290
 7741SOL     OW34681   1.588   2.883  10.095 -0.3889  0.4667 -0.4868
 7741SOL    HW134682   1.580   2.920  10.007  3.0926  0.8916 -0.6210
 7741SOL    HW234683   1.498   2.851  10.098  0.4876 -2.2198 -2.6303
 7742SOL     OW34684   1.552   2.256   3.601 -0.5611 -0.0997 -0.7324
 7742SOL    HW134685   1.470   2.217   3.630 -0.3269  0.5668  0.7969
 7742SOL    HW234686   1.606   2.247   3.679  0.7161  2.1414 -1.3400
 7743SOL     OW34687   4.533   2.756   3.835  0.0062 -0.0757 -0.0943
 7743SOL    HW134688   4.618   2.720   3.861  0.1653  0.2105 -0.2131
 7743SOL    HW234689   4.554   2.783   3.746  0.9600 -2.0350 -0.4699
 7744SOL     OW34690   1.666   0.230   6.838  0.1333  0.0816  0.1602
 7744SOL    HW134691   1.609   0.165   6.796  0.2187  0.2308 -0.1813
 7744SOL    HW234692   1.754   0.197   6.820  0.0596  1.5201 -2.6959
 7745SOL     OW34693   4.664   1.104   8.789  0.0160  0.3989  0.1436
 7745SOL    HW134694   4.587   1.114   8.844 -1.3204  0.2227 -1.7135
 7745SOL    HW234695   4.712   1.030   8.828  0.4257  0.1896 -0.7483
 7746SOL     OW34696   0.066   2.907   9.272 -0.1818  0.5352 -0.0975
 7746SOL    HW134697   4.704   2.929   9.308 -0.1508  0.8727 -0.2260
 7746SOL    HW234698   0.110   2.985   9.304  1.7747 -1.3704  1.8481
 7747SOL     OW34699   2.192   4.472   4.942 -0.0739 -0.3870  0.6929
 7747SOL    HW134700   2.245   4.425   5.006 -0.4625 -0.0805  1.2383
 7747SOL    HW234701   2.226   4.436   4.860 -1.8616 -1.1607  0.2907
 7748SOL     OW34702   1.055   3.861  10.731 -0.1158 -0.5002  0.9494
 7748SOL    HW134703   1.040   3.897  10.644  0.1613 -4.3670 -0.7053
 7748SOL    HW234704   1.146   3.878  10.752  0.0636 -1.1956  0.7398
 7749SOL     OW34705   1.196   2.404   9.334 -0.8078  0.2865 -0.5298
 7749SOL    HW134706   1.149   2.377   9.255  2.4758  0.6086 -2.6001
 7749SOL    HW234707   1.152   2.485   9.360 -0.2866 -0.1559  1.7121
 7750SOL     OW34708   1.338   2.172   5.319  0.8925 -0.0290  0.2660
 7750SOL    HW134709   1.423   2.128   5.317  1.1246  0.2808  2.9467
 7750SOL    HW234710   1.326   2.177   5.414  0.2383  3.7104 -0.0097
 7751SOL     OW34711   3.914   3.691  17.158  0.0262 -0.2450  0.1661
 7751SOL    HW134712   3.940   3.650  17.240  3.7379 -0.8009 -1.2588
 7751SOL    HW234713   3.989   3.672  17.102  0.5697 -0.9512  1.1364
 7752SOL     OW34714   2.714   3.169   8.986 -0.8760 -0.1678  0.2909
 7752SOL    HW134715   2.649   3.197   8.922  1.6498 -0.2293 -2.3069
 7752SOL    HW234716   2.703   3.240   9.049  0.1745 -1.2654  1.7076
 7753SOL     OW34717   3.809   4.321  13.354  0.0671 -0.7000  0.2156
 7753SOL    HW134718   3.793   4.258  13.283 -0.7844 -2.2696  1.8113
 7753SOL    HW234719   3.874   4.268  13.400  1.1567 -0.2692 -0.8345
 7754SOL     OW34720   2.735   3.164   2.158 -0.3730 -0.0517 -0.0908
 7754SOL    HW134721   2.800   3.198   2.219 -0.9269 -0.5046  0.7535
 7754SOL    HW234722   2.737   3.228   2.087 -1.8962 -1.3334 -1.2805
 7755SOL     OW34723   0.766   3.258   1.582 -0.3593  0.2414  0.7975
 7755SOL    HW134724   0.718   3.248   1.500 -0.4317  0.6972  0.7878
 7755SOL    HW234725   0.860   3.243   1.571 -1.7671 -4.6662 -4.5377
 7756SOL     OW34726   2.151   1.269   7.082 -0.2377  0.2055 -0.4721
 7756SOL    HW134727   2.172   1.333   7.150  0.7222 -2.5573  1.8298
 7756SOL    HW234728   2.226   1.210   7.091 -0.4447 -0.3077 -2.1317
 7757SOL     OW34729   3.653   1.164  11.586 -0.4263 -0.0098 -0.4749
 7757SOL    HW134730   3.733   1.204  11.620 -3.1820  1.3533  4.4222
 7757SOL    HW234731   3.593   1.154  11.660 -2.0771  0.7832 -1.6879
 7758SOL     OW34732   0.627   1.445  16.768  0.6467 -0.5053 -0.3503
 7758SOL    HW134733   0.661   1.356  16.780  0.3045 -0.7233 -0.9917
 7758SOL    HW234734   0.646   1.464  16.676 -1.3325  0.6921 -0.5047
 7759SOL     OW34735   2.374   4.591   7.849  0.1279 -0.3337  0.2567
 7759SOL    HW134736   2.426   4.667   7.822 -0.2183 -0.1718  0.0388
 7759SOL    HW234737   2.347   4.626   7.934  1.2351  2.9274 -0.7514
 7760SOL     OW34738   3.338   0.737  17.334  0.1382 -0.3949  0.1562
 7760SOL    HW134739   3.433   0.748  17.330 -0.0203 -0.0008 -2.6647
 7760SOL    HW234740   3.310   0.776  17.252  1.2861 -1.1787 -0.6068
 7761SOL     OW34741   1.557   2.917   6.450 -0.3937 -0.4437  0.0767
 7761SOL    HW134742   1.521   2.949   6.532  0.5947  0.7195  0.0494
 7761SOL    HW234743   1.545   2.823   6.462  0.9956 -0.5371  0.7640
 7762SOL     OW34744   1.055   2.624  17.067  0.2750 -0.2302 -0.6662
 7762SOL    HW134745   0.961   2.643  17.071  0.3711  0.1833 -0.3292
 7762SOL    HW234746   1.088   2.713  17.057 -0.5503  0.2419  0.7823
 7763SOL     OW34747   4.073   0.593   4.130  0.0379 -0.5952  0.3069
 7763SOL    HW134748   4.111   0.673   4.095 -0.2217 -1.1245 -1.1577
 7763SOL    HW234749   4.127   0.533   4.079  0.4520  0.2498 -0.2438
 7764SOL     OW34750   2.865   4.317   5.178  0.3929  0.1616 -0.1826
 7764SOL    HW134751   2.920   4.375   5.124  2.0327 -1.0591  0.1820
 7764SOL    HW234752   2.914   4.320   5.260  0.7965  2.3633 -0.4866
 7765SOL     OW34753   2.616   1.354   9.864 -0.5921  0.2087 -0.0841
 7765SOL    HW134754   2.550   1.311   9.809  0.1816 -1.1279  0.0293
 7765SOL    HW234755   2.687   1.291   9.853  0.7304  1.0141  3.8007
 7766SOL     OW34756   0.937   3.665   7.553  0.4074  0.2008  0.4172
 7766SOL    HW134757   0.886   3.694   7.629  0.9449 -0.4281  1.0120
 7766SOL    HW234758   0.873   3.600   7.525 -0.2993  0.0376  2.4267
 7767SOL     OW34759   0.003   1.988   6.830 -0.0352  0.2855 -0.2904
 7767SOL    HW134760   4.711   2.009   6.922  0.0462 -2.0611  0.2597
 7767SOL    HW234761   0.007   2.070   6.780  0.0721 -1.2150 -2.7254
 7768SOL     OW34762   4.112   3.370   0.418 -0.2686  0.1344 -0.4522
 7768SOL    HW134763   4.084   3.287   0.457  0.0884  0.6140  0.8467
 7768SOL    HW234764   4.185   3.350   0.360  0.7275  1.9300  0.1840
 7769SOL     OW34765   1.185   0.809  13.970 -0.0437 -0.3833  0.0286
 7769SOL    HW134766   1.157   0.732  14.019  0.3533 -0.8115 -0.4120
 7769SOL    HW234767   1.258   0.847  14.019 -0.7471  1.1857 -0.1536
 7770SOL     OW34768   0.369   4.318   2.781  0.0443 -0.1438  0.0230
 7770SOL    HW134769   0.332   4.229   2.781 -0.1556 -0.0548  0.9036
 7770SOL    HW234770   0.321   4.343   2.702 -1.2844 -1.3800  0.4496
 7771SOL     OW34771   1.121   2.778   3.271  0.1871 -0.3925  0.3710
 7771SOL    HW134772   1.085   2.719   3.205 -1.8785  0.5493  0.6561
 7771SOL    HW234773   1.137   2.855   3.216  0.4090 -1.1499 -0.6324
 7772SOL     OW34774   1.476   4.480  13.631  0.1264  0.3591  1.0864
 7772SOL    HW134775   1.570   4.472  13.648  0.0115 -0.6351  1.2689
 7772SOL    HW234776   1.449   4.394  13.598 -1.9700  1.5625 -0.3559
 7773SOL     OW34777   3.552   2.509   7.088 -0.2890 -0.3614 -0.7867
 7773SOL    HW134778   3.497   2.489   7.012  0.1021 -1.0083 -0.9026
 7773SOL    HW234779   3.628   2.454   7.069 -0.4619 -0.8825 -0.0169
 7774SOL     OW34780   3.378   3.279   9.249 -0.3568  0.0288  0.1726
 7774SOL    HW134781   3.330   3.358   9.226  0.4981  0.1041 -1.3762
 7774SOL    HW234782   3.469   3.305   9.234  0.2082 -0.2941  3.0219
 7775SOL     OW34783   2.535   4.547   3.304 -0.6297  0.2251  0.1479
 7775SOL    HW134784   2.594   4.477   3.333 -0.6883 -0.0572 -0.4016
 7775SOL    HW234785   2.453   4.501   3.285 -2.2603  2.7738  1.0306
 7776SOL     OW34786   0.079   4.344   2.672  0.4964 -0.1795  0.4072
 7776SOL    HW134787   0.089   4.291   2.752  0.0728  0.0377  0.6034
 7776SOL    HW234788   0.019   4.281   2.631  0.0857  0.6884 -0.3063
 7777SOL     OW34789   2.073   0.468   7.802 -0.5366  0.2436 -0.0375
 7777SOL    HW134790   2.132   0.476   7.727  1.6551 -0.5181  1.6118
 7777SOL    HW234791   2.100   0.377   7.815 -1.3571  0.4879  3.3640
 7778SOL     OW34792   3.049   2.294   2.053  0.1326  0.1522  0.4775
 7778SOL    HW134793   3.038   2.242   1.973  0.9005 -0.2070  0.6039
 7778SOL    HW234794   2.967   2.343   2.053  0.6164  0.9536 -0.0204
 7779SOL     OW34795   1.583   1.086   0.328  0.0191 -0.5889  0.1211
 7779SOL    HW134796   1.540   1.162   0.288 -1.2778 -0.7358  1.2210
 7779SOL    HW234797   1.544   1.080   0.415  1.3393 -1.1245  0.6666
 7780SOL     OW34798   2.223   2.890   9.391 -0.0344 -0.7597 -0.3789
 7780SOL    HW134799   2.308   2.931   9.379 -0.1798 -0.3484  0.0011
 7780SOL    HW234800   2.248   2.800   9.373  0.3200 -0.1119 -3.1510
 7781SOL     OW34801   0.276   0.390  13.554  0.5767 -0.7982 -1.1821
 7781SOL    HW134802   0.208   0.429  13.498 -0.3735 -0.2934  0.3428
 7781SOL    HW234803   0.331   0.468  13.566  0.5523 -1.0829  0.7295
 7782SOL     OW34804   3.754   3.822   7.825  0.0624 -0.0942 -0.3383
 7782SOL    HW134805   3.832   3.852   7.779  0.8384 -1.2260  0.2579
 7782SOL    HW234806   3.728   3.750   7.767  2.1256 -0.4988 -0.7505
 7783SOL     OW34807   2.023   3.574   5.961  0.0790 -0.5027  0.5461
 7783SOL    HW134808   1.988   3.497   6.004 -2.8889  0.9827  0.8105
 7783SOL    HW234809   2.090   3.545   5.899  0.4781 -0.2421  0.8551
 7784SOL     OW34810   2.311   3.658   1.218 -0.1186  0.3364 -0.3282
 7784SOL    HW134811   2.228   3.672   1.262 -0.3558  0.8618 -0.9555
 7784SOL    HW234812   2.315   3.741   1.172 -0.8903 -1.5931 -3.8788
 7785SOL     OW34813   0.500   1.984   0.915  0.4022  0.4711 -0.5222
 7785SOL    HW134814   0.425   1.970   0.972  0.9856  0.5550  0.2559
 7785SOL    HW234815   0.488   2.077   0.893 -1.6579  0.3385  0.0793
 7786SOL     OW34816   0.736   3.762  11.777  0.2654 -0.3407  0.4595
 7786SOL    HW134817   0.681   3.684  11.785 -0.1835 -0.1249 -0.6174
 7786SOL    HW234818   0.747   3.762  11.682  0.6168  0.1681  0.5003
 7787SOL     OW34819   2.002   2.953   7.417  0.3315 -0.3266 -0.2991
 7787SOL    HW134820   2.081   3.004   7.437 -0.5624  0.6901  0.5851
 7787SOL    HW234821   1.974   2.929   7.505  0.5058  0.9087  0.0851
 7788SOL     OW34822   3.890   4.536   4.043  0.2968  0.0669  0.4381
 7788SOL    HW134823   3.878   4.449   4.005 -0.4040  0.8048 -1.0193
 7788SOL    HW234824   3.980   4.531   4.074  1.0396  2.1079 -1.3789
 7789SOL     OW34825   0.217   2.845  10.491  0.4219 -0.0511  0.2100
 7789SOL    HW134826   0.134   2.893  10.489  2.1946  2.9931  0.7018
 7789SOL    HW234827   0.250   2.863  10.403  0.1559  1.0657  0.3447
 7790SOL     OW34828   3.894   4.423   5.619 -0.6993 -0.6860  0.8099
 7790SOL    HW134829   3.970   4.432   5.561 -2.4709  2.5353 -0.9808
 7790SOL    HW234830   3.840   4.498   5.593  0.1448 -0.0639  0.8254
 7791SOL     OW34831   2.725   3.119  10.196  0.3405  0.2754  0.0365
 7791SOL    HW134832   2.800   3.168  10.161  0.5636 -0.6787 -0.8136
 7791SOL    HW234833   2.716   3.180  10.270 -0.4586  0.2163 -0.0177
 7792SOL     OW34834   2.435   1.484  13.010 -0.6720 -0.2580 -0.2965
 7792SOL    HW134835   2.493   1.559  13.018  0.1947 -1.0600  0.8990
 7792SOL    HW234836   2.421   1.484  12.915  1.8688  2.5939 -0.6404
 7793SOL     OW34837   3.519   0.694  13.220 -0.8716  0.2729 -0.1895
 7793SOL    HW134838   3.535   0.754  13.147  1.1547 -0.4672 -0.3466
 7793SOL    HW234839   3.559   0.750  13.287 -1.8626 -0.4420  0.9963
 7794SOL     OW34840   0.391   4.713   6.453 -0.1897  0.1291  0.7604
 7794SOL    HW134841   0.376   0.007   6.546  2.3364  2.2952  0.7429
 7794SOL    HW234842   0.309   4.667   6.434  0.8777 -0.8327 -1.4972
 7795SOL     OW34843   4.320   1.159  15.475  0.0423  0.1777 -0.3255
 7795SOL    HW134844   4.407   1.121  15.489  1.5361  3.1624 -1.5253
 7795SOL    HW234845   4.337   1.234  15.417  1.4965  0.1847  0.1117
 7796SOL     OW34846   1.127   2.890   8.244  0.6324 -0.2473 -0.0360
 7796SOL    HW134847   1.105   2.797   8.245  2.3121 -0.6439  0.6804
 7796SOL    HW234848   1.064   2.926   8.182 -1.9056 -3.7246  0.5347
 7797SOL     OW34849   0.302   1.180   6.098 -0.7364  0.1589 -0.2221
 7797SOL    HW134850   0.341   1.194   6.012 -3.8345  0.2371 -1.6481
 7797SOL    HW234851   0.377   1.173   6.156 -0.7455 -0.9052 -0.3260
 7798SOL     OW34852   2.532   2.714   0.592  0.7753  0.0245 -0.5040
 7798SOL    HW134853   2.520   2.662   0.671 -1.8625  2.6820  0.8132
 7798SOL    HW234854   2.610   2.671   0.555  0.4395 -2.8811  2.1896
 7799SOL     OW34855   2.611   1.623   8.592  0.2887  0.6051 -0.1191
 7799SOL    HW134856   2.567   1.680   8.654 -0.3577 -0.0682  0.0389
 7799SOL    HW234857   2.529   1.586   8.559 -0.8189  1.5276  1.6402
 7800SOL     OW34858   1.059   2.399   3.546  0.0202 -0.8664  0.3189
 7800SOL    HW134859   1.056   2.326   3.484  2.3541  1.1088 -2.0745
 7800SOL    HW234860   1.124   2.461   3.514  0.4324 -2.3938 -1.7623
 7801SOL     OW34861   0.911   3.809   4.032  0.3920  0.7128  0.1919
 7801SOL    HW134862   0.933   3.737   3.974 -0.0704  1.7871 -1.3306
 7801SOL    HW234863   0.851   3.869   3.987 -1.5836 -0.5194  1.1518
 7802SOL     OW34864   0.912   4.006  17.668  0.4378  0.0786 -0.2131
 7802SOL    HW134865   0.882   3.992  17.578 -1.5062 -1.5829  0.7025
 7802SOL    HW234866   0.830   4.025   0.017  0.3000  1.8156 -1.1809
 7803SOL     OW34867   0.176   3.590   6.371 -0.4304  0.4469 -0.4820
 7803SOL    HW134868   0.246   3.563   6.312 -0.0264  1.0704 -0.2965
 7803SOL    HW234869   0.193   3.542   6.452  0.3256 -0.3228 -1.1106
 7804SOL     OW34870   3.222   4.062  11.217  0.9470 -0.1515  0.5249
 7804SOL    HW134871   3.146   4.004  11.226  0.4098  0.3718 -0.7458
 7804SOL    HW234872   3.230   4.088  11.309  1.4076  0.5113  0.2975
 7805SOL     OW34873   3.045   3.209   2.913  0.3921  0.3856  0.1915
 7805SOL    HW134874   3.031   3.230   2.820 -0.2788 -1.6416 -0.1558
 7805SOL    HW234875   3.137   3.183   2.915  0.2757 -0.0558 -0.1686
 7806SOL     OW34876   0.043   4.133   7.593 -0.3468  0.4675  0.1098
 7806SOL    HW134877   4.716   4.177   7.661 -0.7410  0.6895 -0.3290
 7806SOL    HW234878   0.126   4.179   7.602 -0.4139  0.4149  0.9984
 7807SOL     OW34879   1.334   1.301   4.590 -0.0045  0.9232 -0.3969
 7807SOL    HW134880   1.322   1.273   4.499 -0.4401 -0.2699  0.0352
 7807SOL    HW234881   1.305   1.392   4.579  1.9952  1.6502  0.2683
 7808SOL     OW34882   0.785   4.300  11.422 -0.1282  0.1565  0.0791
 7808SOL    HW134883   0.721   4.370  11.411  0.3297  1.1834  3.9656
 7808SOL    HW234884   0.848   4.319  11.352  1.6658 -0.3198  1.5368
 7809SOL     OW34885   2.782   4.380   4.818  0.0177  0.6713  0.1155
 7809SOL    HW134886   2.835   4.452   4.853 -2.4255  2.8014 -0.5779
 7809SOL    HW234887   2.784   4.410   4.728  0.9373  2.5016  0.7398
 7810SOL     OW34888   1.578   4.551   5.979  0.1777 -0.3225 -0.1851
 7810SOL    HW134889   1.582   4.476   5.919 -2.0037  0.4627 -1.2996
 7810SOL    HW234890   1.593   4.626   5.922 -2.2046 -0.1017 -0.5147
 7811SOL     OW34891   2.343   3.094  16.211 -0.1696 -0.2419 -0.0918
 7811SOL    HW134892   2.367   3.179  16.173 -2.7970 -0.1464 -1.5772
 7811SOL    HW234893   2.267   3.068  16.159  0.5278 -1.3299 -0.5566
 7812SOL     OW34894   3.755   2.765   0.743  0.2510  0.0643  0.2323
 7812SOL    HW134895   3.670   2.803   0.766 -0.1850 -0.3449 -0.7095
 7812SOL    HW234896   3.742   2.676   0.775  0.3425  0.2094  0.6739
 7813SOL     OW34897   2.249   4.153  14.009  0.1139  0.4783  0.1841
 7813SOL    HW134898   2.278   4.103  13.933 -2.4983  1.5530 -1.5048
 7813SOL    HW234899   2.322   4.215  14.012 -1.0352  1.7887  0.7646
 7814SOL     OW34900   1.067   4.327   4.268 -0.5384  0.2074 -0.2740
 7814SOL    HW134901   1.134   4.303   4.205  0.5690  1.6097  0.3678
 7814SOL    HW234902   1.061   4.245   4.318 -2.1466  1.9158  2.3199
 7815SOL     OW34903   4.593   2.034   7.991 -0.3761 -0.0686 -0.5867
 7815SOL    HW134904   4.598   1.939   7.977  2.9074  0.0992 -0.5051
 7815SOL    HW234905   4.635   2.040   8.077 -3.5923  2.2242  0.8502
 7816SOL     OW34906   3.888   3.532   0.054 -0.2877 -0.4332  0.1412
 7816SOL    HW134907   3.907   3.461  17.690 -0.9636 -1.2815  0.9269
 7816SOL    HW234908   3.914   3.614   0.011  1.0180 -0.2502  1.2722
 7817SOL     OW34909   4.360   3.857  16.213  0.1671 -0.5519  0.0526
 7817SOL    HW134910   4.279   3.907  16.199 -0.4085 -1.0445  1.5868
 7817SOL    HW234911   4.408   3.862  16.131  2.9596  1.5056  1.8032
 7818SOL     OW34912   0.168   3.974   7.390  0.0297  0.2684  0.2186
 7818SOL    HW134913   0.245   4.030   7.405  0.1568  0.2483 -0.3821
 7818SOL    HW234914   0.097   4.029   7.424 -0.3591 -0.3146  0.3553
 7819SOL     OW34915   0.215   2.769  16.093  0.5209 -0.1471  1.2611
 7819SOL    HW134916   0.303   2.793  16.123  0.7996 -1.6925  1.6873
 7819SOL    HW234917   0.179   2.733  16.174  0.4829  0.7790  1.6609
 7820SOL     OW34918   3.474   0.924   6.576  0.1615 -0.1956  0.2942
 7820SOL    HW134919   3.384   0.895   6.587  0.1152  0.0137  0.4691
 7820SOL    HW234920   3.512   0.838   6.589  2.0120  0.5195 -0.3268
 7821SOL     OW34921   0.705   1.386  15.387  0.2320  0.2673  0.1088
 7821SOL    HW134922   0.660   1.305  15.412  1.4196 -0.9670 -1.7572
 7821SOL    HW234923   0.646   1.461  15.377  0.5609  0.3594 -1.1568
 7822SOL     OW34924   2.511   2.355   1.949 -0.1249 -0.5267  0.2358
 7822SOL    HW134925   2.554   2.309   1.877 -0.8103 -1.5290  0.4625
 7822SOL    HW234926   2.521   2.448   1.928  1.7115 -1.3463 -2.3960
 7823SOL     OW34927   2.598   1.680   7.489 -1.0206  0.1201 -0.6020
 7823SOL    HW134928   2.680   1.653   7.530 -1.7048 -0.4957  0.3628
 7823SOL    HW234929   2.619   1.772   7.475 -0.7834  0.2303  0.4972
 7824SOL     OW34930   0.567   2.808   5.259 -0.5178 -0.2558  0.0987
 7824SOL    HW134931   0.564   2.887   5.205 -0.3345 -1.3173 -1.4734
 7824SOL    HW234932   0.551   2.740   5.193  0.2972  0.8276 -1.2147
 7825SOL     OW34933   3.755   3.369   6.422  0.3407 -0.3671  0.2475
 7825SOL    HW134934   3.718   3.396   6.506 -1.6689  1.5787 -1.2591
 7825SOL    HW234935   3.750   3.457   6.385  1.1967 -0.2634  0.3887
 7826SOL     OW34936   3.414   4.380  10.265  0.1353  0.2458  0.1313
 7826SOL    HW134937   3.398   4.406  10.174  1.6633 -0.4091 -0.3392
 7826SOL    HW234938   3.335   4.328  10.278 -0.1055  0.6498  0.2810
 7827SOL     OW34939   2.860   3.148   1.706  1.0256  0.6464  0.6101
 7827SOL    HW134940   2.798   3.149   1.779 -0.5768 -2.7864 -0.6945
 7827SOL    HW234941   2.810   3.096   1.643  2.3704  1.6527 -1.3075
 7828SOL     OW34942   0.571   3.644   7.666  0.2568  0.0579 -0.0555
 7828SOL    HW134943   0.561   3.631   7.572 -1.3008 -1.6092  0.3439
 7828SOL    HW234944   0.630   3.719   7.662 -0.1867  0.4096 -0.0493
 7829SOL     OW34945   1.683   0.823   2.693 -0.1160 -0.1473  0.3867
 7829SOL    HW134946   1.590   0.847   2.704 -0.0789 -0.9513  2.5676
 7829SOL    HW234947   1.726   0.862   2.769 -0.8522 -0.6205  1.0462
 7830SOL     OW34948   3.747   4.580   2.466  0.1680  0.8573 -0.5325
 7830SOL    HW134949   3.775   4.499   2.510  0.2662  0.0208 -2.1248
 7830SOL    HW234950   3.705   4.541   2.389  0.2440  0.9237 -0.6071
 7831SOL     OW34951   3.070   3.140  17.464  0.1689 -0.7469 -0.0393
 7831SOL    HW134952   3.145   3.195  17.484 -0.9213 -0.4354  3.1736
 7831SOL    HW234953   3.024   3.186  17.394  0.9416 -0.6929 -0.5097
 7832SOL     OW34954   3.145   4.633   7.732  0.4286 -0.0657 -0.3151
 7832SOL    HW134955   3.137   4.538   7.723  0.9473 -0.1649  0.2119
 7832SOL    HW234956   3.196   4.632   7.813  1.1428  2.5174 -0.7478
 7833SOL     OW34957   0.436   0.681   4.150  0.1718 -0.3049  0.0423
 7833SOL    HW134958   0.411   0.767   4.185 -1.8710 -1.1183  0.5895
 7833SOL    HW234959   0.532   0.684   4.150  0.2329 -2.0139  0.3121
 7834SOL     OW34960   4.453   1.812   6.815 -0.1521 -0.0459  0.1736
 7834SOL    HW134961   4.477   1.829   6.906  0.3704  1.1366 -0.1762
 7834SOL    HW234962   4.480   1.895   6.774 -0.7789  1.2362  2.3672
 7835SOL     OW34963   0.155   1.717   8.282  0.7497  0.2584 -0.0508
 7835SOL    HW134964   0.170   1.696   8.189  0.1674 -0.6862  0.0655
 7835SOL    HW234965   0.245   1.711   8.313  0.8155  0.2624 -0.2412
 7836SOL     OW34966   1.266   0.237   4.612  0.0721 -0.4570 -0.1690
 7836SOL    HW134967   1.359   0.258   4.615 -0.3275  1.2566  0.3478
 7836SOL    HW234968   1.267   0.154   4.565 -2.4227  0.2386 -1.4726
 7837SOL     OW34969   0.362   0.752   9.269 -0.1866  0.2630  0.5522
 7837SOL    HW134970   0.454   0.777   9.280 -0.6174  1.8581  0.5228
 7837SOL    HW234971   0.352   0.682   9.333 -1.0281 -0.7483 -0.7036
 7838SOL     OW34972   1.347   2.927   8.091  0.5769 -0.3943 -0.1284
 7838SOL    HW134973   1.266   2.919   8.141  1.2890  5.2845  1.8670
 7838SOL    HW234974   1.321   2.955   8.003  1.5068 -0.7582 -0.5273
 7839SOL     OW34975   2.207   3.565   8.148 -0.5081 -0.2116  0.1622
 7839SOL    HW134976   2.239   3.644   8.106 -1.8739  0.6863  0.8215
 7839SOL    HW234977   2.247   3.496   8.095  0.0178 -1.4782  2.1642
 7840SOL     OW34978   0.056   3.233  12.493  0.4714  0.0802  0.2517
 7840SOL    HW134979   0.079   3.266  12.580 -3.6965 -1.4689  1.9776
 7840SOL    HW234980   4.700   3.283  12.476  0.8550  0.5108 -0.2783
 7841SOL     OW34981   3.229   2.275   5.645  0.4413  0.2875  0.1139
 7841SOL    HW134982   3.232   2.193   5.695 -0.9033  0.5994  0.7174
 7841SOL    HW234983   3.214   2.246   5.555 -1.1385  0.7640  0.2129
 7842SOL     OW34984   4.156   2.119  15.098 -0.9092 -0.1044 -0.4379
 7842SOL    HW134985   4.096   2.166  15.157 -1.4729  0.6206 -1.5853
 7842SOL    HW234986   4.128   2.027  15.097 -1.2806  0.0132 -1.0474
 7843SOL     OW34987   2.100   4.539   5.504 -0.2370  0.1511 -0.2043
 7843SOL    HW134988   2.041   4.614   5.497 -0.2173  0.1712 -0.1545
 7843SOL    HW234989   2.106   4.531   5.408 -0.9946  5.0329 -0.6790
 7844SOL     OW34990   1.496   1.469   7.990 -0.1069  0.1223 -0.4738
 7844SOL    HW134991   1.522   1.440   8.078 -0.8064  0.8379 -0.0337
 7844SOL    HW234992   1.413   1.508   8.020  2.2197  3.6857  1.3297
 7845SOL     OW34993   2.091   1.373   5.418  0.3359 -0.0990  0.5081
 7845SOL    HW134994   2.007   1.327   5.417  0.7276 -0.7594 -2.0878
 7845SOL    HW234995   2.092   1.419   5.334 -0.7130 -0.5412  0.2398
 7846SOL     OW34996   2.166   3.228  13.459  0.2408  0.5387  0.6602
 7846SOL    HW134997   2.085   3.271  13.430  2.3335  3.4275 -0.8408
 7846SOL    HW234998   2.190   3.180  13.380 -2.7447  1.4907 -0.8572
 7847SOL     OW34999   0.927   0.664   7.375  0.5158 -0.4104  0.3282
 7847SOL    HW135000   0.879   0.669   7.457 -0.2591 -0.9061 -0.0885
 7847SOL    HW235001   0.897   0.583   7.333  0.9187 -0.7618  0.7239
 7848SOL     OW35002   1.641   0.956   2.353  0.3775 -0.5992 -0.0520
 7848SOL    HW135003   1.569   0.931   2.411 -0.1893  2.2143  0.4862
 7848SOL    HW235004   1.602   1.019   2.292  0.6974 -0.9383 -0.6095
 7849SOL     OW35005   2.189   1.429  13.660  0.7193 -0.2107  0.0081
 7849SOL    HW135006   2.133   1.353  13.652 -0.6246  0.7501  0.3162
 7849SOL    HW235007   2.186   1.474  13.576 -0.2665  1.1622  0.7757
 7850SOL     OW35008   1.441   2.049  10.574 -0.1952 -0.6264  0.3749
 7850SOL    HW135009   1.353   2.022  10.600  0.1080  0.2565  2.3204
 7850SOL    HW235010   1.427   2.087  10.487  0.4671 -2.4930 -0.5553
 7851SOL     OW35011   0.865   0.856   8.937 -0.1126  0.2618 -0.7203
 7851SOL    HW135012   0.825   0.861   8.850  2.0208  0.4541 -1.6952
 7851SOL    HW235013   0.852   0.762   8.949  1.1088 -0.2340 -3.1870
 7852SOL     OW35014   4.436   3.914   8.483  0.1707  0.1680 -0.0645
 7852SOL    HW135015   4.530   3.925   8.496  0.6829 -1.9871 -1.9040
 7852SOL    HW235016   4.419   3.903   8.576  1.7794 -1.4452  0.0283
 7853SOL     OW35017   3.316   2.622   4.513  0.2746 -0.4355 -0.4309
 7853SOL    HW135018   3.351   2.711   4.516  0.7289 -0.6885  1.3759
 7853SOL    HW235019   3.288   2.615   4.422  0.9561 -1.3666 -0.5741
 7854SOL     OW35020   1.487   3.072  10.783 -0.1261  0.0067  0.3674
 7854SOL    HW135021   1.528   3.094  10.700 -0.1609  0.3738  0.4472
 7854SOL    HW235022   1.497   2.978  10.775  1.9639  0.3044 -0.5004
 7855SOL     OW35023   4.631   4.297   2.422 -0.1954 -0.0378 -0.6879
 7855SOL    HW135024   4.551   4.322   2.468  1.2377  1.3355  1.0727
 7855SOL    HW235025   4.601   4.313   2.333  3.5224  0.6038 -1.8177
 7856SOL     OW35026   1.608   1.711   5.539  0.0447 -0.3037  0.0517
 7856SOL    HW135027   1.569   1.684   5.456 -0.0537  0.9069 -0.2824
 7856SOL    HW235028   1.542   1.677   5.599  0.0331 -2.9338 -1.4040
 7857SOL     OW35029   0.865   1.506   5.213 -0.2088 -0.7523 -0.3924
 7857SOL    HW135030   0.928   1.558   5.163  1.2259  0.3714  2.5688
 7857SOL    HW235031   0.919   1.432   5.239  1.8617  0.2101 -2.0139
 7858SOL     OW35032   3.046   1.366   6.756 -0.3073 -0.7297  0.8430
 7858SOL    HW135033   3.065   1.456   6.784 -0.0827 -0.2892 -0.7102
 7858SOL    HW235034   3.116   1.315   6.797 -0.2090  0.0004  1.5939
 7859SOL     OW35035   2.716   2.395   3.180 -0.1495 -0.2087 -0.3247
 7859SOL    HW135036   2.626   2.376   3.204 -0.1923 -0.4904 -0.7095
 7859SOL    HW235037   2.747   2.305   3.165  0.6890 -0.2659  1.6323
 7860SOL     OW35038   2.809   2.474  12.580 -0.0549 -0.5066 -0.0328
 7860SOL    HW135039   2.804   2.567  12.599  0.6316 -0.4773  0.0016
 7860SOL    HW235040   2.892   2.448  12.620 -0.6356  1.5321  2.4273
 7861SOL     OW35041   3.298   2.383  12.437  0.2114 -0.5088 -0.6129
 7861SOL    HW135042   3.268   2.405  12.525  2.6171  0.1171  0.0375
 7861SOL    HW235043   3.372   2.443  12.437 -0.4052  0.2318  0.6616
 7862SOL     OW35044   1.173   2.834   9.219 -0.3466 -0.1257  0.0579
 7862SOL    HW135045   1.232   2.846   9.293  1.0026 -2.1201 -0.7066
 7862SOL    HW235046   1.098   2.888   9.247 -0.6778 -0.5249 -0.0535
 7863SOL     OW35047   4.350   0.665   9.052 -0.3326 -0.1599  0.0451
 7863SOL    HW135048   4.350   0.710   9.137  2.6099 -0.2975  0.1136
 7863SOL    HW235049   4.263   0.623   9.053  0.1291 -1.0670  1.8839
 7864SOL     OW35050   3.878   0.218  15.449 -0.6632 -0.2351 -0.3292
 7864SOL    HW135051   3.931   0.282  15.495  1.8380 -1.0582 -2.0268
 7864SOL    HW235052   3.805   0.274  15.424  2.3965  2.2560 -3.6583
 7865SOL     OW35053   4.435   4.009   7.691 -0.1040 -0.0330  0.2200
 7865SOL    HW135054   4.468   3.988   7.779 -1.7746 -1.2570  0.5588
 7865SOL    HW235055   4.439   4.103   7.703  2.1177 -0.3639  2.1817
 7866SOL     OW35056   0.643   2.034   4.254 -0.0673 -0.2234  0.3902
 7866SOL    HW135057   0.594   1.979   4.314  0.4406 -1.0912  0.0170
 7866SOL    HW235058   0.633   2.127   4.273  1.3134  0.1559 -0.7399
 7867SOL     OW35059   4.093   3.056  15.915  0.3564  0.3523  0.9071
 7867SOL    HW135060   4.092   2.969  15.953 -0.7085  0.3051  0.7805
 7867SOL    HW235061   4.009   3.085  15.949 -0.4210  1.5554 -2.0072
 7868SOL     OW35062   0.130   4.059   8.197 -0.1436  0.5461 -0.6278
 7868SOL    HW135063   0.220   4.028   8.192 -0.7232 -1.2391  0.1564
 7868SOL    HW235064   0.138   4.137   8.141 -1.6909  0.8680 -0.4016
 7869SOL     OW35065   1.638   3.151  12.581  0.2279  0.0828 -0.2926
 7869SOL    HW135066   1.626   3.122  12.671  1.5865  0.1322 -0.0902
 7869SOL    HW235067   1.730   3.154  12.555  0.3022  1.8057  0.1420
 7870SOL     OW35068   0.381   0.923   4.223 -0.5434  0.3566 -0.0258
 7870SOL    HW135069   0.342   1.000   4.181  1.8335  1.0152 -1.0393
 7870SOL    HW235070   0.310   0.885   4.274 -1.5829  1.9560 -0.2859
 7871SOL     OW35071   3.401   2.331   2.365  0.1906 -0.9994  0.1578
 7871SOL    HW135072   3.491   2.340   2.334 -0.2132 -0.6475 -0.9319
 7871SOL    HW235073   3.365   2.264   2.307  1.0427 -1.5042  0.2260
 7872SOL     OW35074   0.075   0.925   2.930  0.6655  0.7472  1.1185
 7872SOL    HW135075   0.011   0.936   2.859 -0.3668 -1.0314  1.7708
 7872SOL    HW235076   0.139   0.864   2.894  0.4812  0.5587  1.1094
 7873SOL     OW35077   2.861   4.635   3.097 -0.2988  0.0785  0.3468
 7873SOL    HW135078   2.877   4.687   3.175 -0.7076  0.8031 -0.0529
 7873SOL    HW235079   2.775   4.654   3.060  0.7793  2.3742 -1.0078
 7874SOL     OW35080   4.343   2.389   3.381  0.5230  0.3747 -0.0209
 7874SOL    HW135081   4.363   2.340   3.301  0.1975  0.7065 -0.3049
 7874SOL    HW235082   4.361   2.478   3.352 -0.0732  0.4292 -0.2146
 7875SOL     OW35083   0.271   1.899  13.321  0.1722  0.0148 -0.0899
 7875SOL    HW135084   0.346   1.883  13.378  1.1103  0.3104 -1.2542
 7875SOL    HW235085   0.203   1.923  13.384  0.1224  1.6626 -0.7589
 7876SOL     OW35086   1.425   4.358   6.480 -0.6722 -0.5975  0.0958
 7876SOL    HW135087   1.457   4.291   6.419  0.3004 -0.1825  0.1442
 7876SOL    HW235088   1.330   4.360   6.471 -0.8192 -2.7812  1.2032
 7877SOL     OW35089   2.701   1.676   8.077 -0.2899  0.3850 -0.0470
 7877SOL    HW135090   2.655   1.595   8.097 -1.6707  1.4540  1.1532
 7877SOL    HW235091   2.722   1.702   8.166 -1.7156  1.9135 -0.1393
 7878SOL     OW35092   1.099   3.270   3.151 -1.1877  0.7380 -0.0343
 7878SOL    HW135093   1.120   3.345   3.094 -0.3620 -0.5743 -1.4562
 7878SOL    HW235094   1.008   3.298   3.160 -1.3045  0.7415 -1.2088
 7879SOL     OW35095   4.194   2.536   7.045 -0.3552 -0.4457  0.1448
 7879SOL    HW135096   4.244   2.606   7.086 -0.8780 -0.1040  0.1959
 7879SOL    HW235097   4.223   2.543   6.954  1.5696  2.9999  1.0616
 7880SOL     OW35098   0.911   3.533  14.986 -0.4231 -0.2817  0.1551
 7880SOL    HW135099   0.883   3.567  14.901 -1.6313  1.3608  1.2237
 7880SOL    HW235100   0.861   3.580  15.052 -0.3912  1.6389 -1.1947
 7881SOL     OW35101   1.889   3.892   6.490  0.2726  0.8089 -0.1725
 7881SOL    HW135102   1.925   3.885   6.578 -0.1838 -1.5608 -0.1668
 7881SOL    HW235103   1.794   3.885   6.503  0.2059  1.2900 -0.3738
 7882SOL     OW35104   4.197   3.711   2.395  0.2413 -0.2879  0.5977
 7882SOL    HW135105   4.187   3.761   2.477 -1.8559 -0.6896  0.5884
 7882SOL    HW235106   4.151   3.770   2.335 -0.5641 -1.4559  0.0702
 7883SOL     OW35107   3.908   1.751   2.058  0.3882  0.2197  0.0348
 7883SOL    HW135108   4.001   1.763   2.039  0.7349 -1.3727  0.6501
 7883SOL    HW235109   3.867   1.758   1.972 -0.4245 -1.1953  0.3069
 7884SOL     OW35110   4.171   3.523  10.358  0.0924 -0.5118  0.0730
 7884SOL    HW135111   4.203   3.477  10.280  3.5364  1.9297  0.0162
 7884SOL    HW235112   4.251   3.570  10.384  0.5834 -2.9511  2.8823
 7885SOL     OW35113   3.459   1.564  13.371 -0.3811  0.5383 -0.4187
 7885SOL    HW135114   3.397   1.568  13.444 -1.8049  2.6855 -1.7273
 7885SOL    HW235115   3.400   1.541  13.299  2.0180 -1.3608 -1.7513
 7886SOL     OW35116   0.165   4.282   3.486 -0.0122  0.1880 -0.3973
 7886SOL    HW135117   0.137   4.270   3.576  0.1303 -2.3583 -0.7027
 7886SOL    HW235118   0.191   4.374   3.497 -0.3077 -0.2075  3.3280
 7887SOL     OW35119   3.994   0.577   2.357  0.4738  0.2807  0.4641
 7887SOL    HW135120   3.966   0.662   2.390 -0.4864 -0.2222  0.9461
 7887SOL    HW235121   4.001   0.596   2.263  0.5385  1.1755  0.6522
 7888SOL     OW35122   1.789   1.286   1.176  0.1324 -0.5828 -0.3946
 7888SOL    HW135123   1.811   1.262   1.266  1.5759  0.6699 -0.4255
 7888SOL    HW235124   1.693   1.284   1.172  0.0813 -2.4391  1.4890
 7889SOL     OW35125   0.098   1.909   3.708  0.1611 -0.1864  0.5728
 7889SOL    HW135126   0.098   1.851   3.632 -0.7165  2.3496 -1.3763
 7889SOL    HW235127   0.011   1.902   3.747 -0.3809  0.1351 -0.5866
 7890SOL     OW35128   1.718   2.233   3.872  0.2177 -0.4172  0.1737
 7890SOL    HW135129   1.698   2.140   3.861  0.9504 -0.3585 -1.5744
 7890SOL    HW235130   1.813   2.243   3.877  0.5257 -2.9052 -0.7969
 7891SOL     OW35131   0.265   0.299   4.650  0.5928  0.5777  0.1797
 7891SOL    HW135132   0.245   0.331   4.738  3.9889  0.6676  0.9288
 7891SOL    HW235133   0.232   0.365   4.590  0.1035 -0.9844 -1.2707
 7892SOL     OW35134   2.485   4.665   8.625  0.7219  0.0158  0.2313
 7892SOL    HW135135   2.446   0.028   8.620 -1.2428 -0.7957  1.6867
 7892SOL    HW235136   2.448   4.628   8.544 -0.7641  2.3630 -0.1536
 7893SOL     OW35137   3.187   0.084   6.351  0.4230  0.4038  0.2852
 7893SOL    HW135138   3.210   0.037   6.271  1.3445 -1.1580  1.4649
 7893SOL    HW235139   3.258   0.142   6.378  1.4292 -0.4302 -0.5859
 7894SOL     OW35140   0.606   0.547   5.271  0.0800 -0.2831  0.2451
 7894SOL    HW135141   0.644   0.589   5.194 -1.7169 -0.9861 -1.0284
 7894SOL    HW235142   0.646   0.461   5.256  0.4540  0.1830 -1.4881
 7895SOL     OW35143   4.024   4.671   5.601 -1.0942 -0.0887  0.6060
 7895SOL    HW135144   4.001   0.030   5.557  0.4350 -0.6074 -1.1902
 7895SOL    HW235145   4.070   4.621   5.534  0.1647  0.9997  0.6682
 7896SOL     OW35146   3.675   4.443  10.750  0.5865  0.1400  0.4094
 7896SOL    HW135147   3.582   4.422  10.743  0.6700 -0.0392 -0.1664
 7896SOL    HW235148   3.682   4.506  10.679 -0.0884 -0.1520  0.0800
 7897SOL     OW35149   4.619   1.169   7.029 -0.6504  0.1966 -0.1736
 7897SOL    HW135150   4.532   1.130   7.033 -1.2790  1.8429  1.9566
 7897SOL    HW235151   4.611   1.249   7.080 -2.2913  0.7225 -1.2619
 7898SOL     OW35152   0.092   3.769  16.419  0.0402  0.5553  0.4052
 7898SOL    HW135153   0.098   3.786  16.325  0.4474  1.0322  0.5186
 7898SOL    HW235154   0.090   3.673  16.423 -0.5474  0.4848 -2.1318
 7899SOL     OW35155   2.186   2.195   2.210 -0.1717 -0.3956 -0.3702
 7899SOL    HW135156   2.249   2.123   2.200  0.2905 -0.2660  1.7785
 7899SOL    HW235157   2.188   2.233   2.122 -1.5474 -0.9161 -0.6234
 7900SOL     OW35158   4.260   3.659   7.420 -0.2010  0.7132  0.9093
 7900SOL    HW135159   4.322   3.688   7.353 -0.4246  1.1459  0.8910
 7900SOL    HW235160   4.325   3.633   7.484  0.7063  0.0449 -0.2713
 7901SOL     OW35161   2.415   2.608   5.838 -0.0562 -0.0191 -0.3739
 7901SOL    HW135162   2.504   2.639   5.853 -0.2705  0.1297  0.6035
 7901SOL    HW235163   2.370   2.687   5.807 -0.2327  0.5270  1.2855
 7902SOL     OW35164   3.050   2.485  14.395  0.4003 -0.1830 -0.5109
 7902SOL    HW135165   2.968   2.528  14.371  0.9735  1.1353 -0.1082
 7902SOL    HW235166   3.092   2.480  14.309  0.3121 -0.2766 -0.5491
 7903SOL     OW35167   3.703   1.204   9.475  0.1614 -0.1910 -0.7885
 7903SOL    HW135168   3.665   1.291   9.477 -2.4763 -1.3146 -1.5181
 7903SOL    HW235169   3.735   1.190   9.564  3.4120 -0.1191 -1.9625
 7904SOL     OW35170   1.694   0.955   1.263  0.4453  0.3088 -0.2237
 7904SOL    HW135171   1.641   0.943   1.184  2.2293 -0.4746 -1.3044
 7904SOL    HW235172   1.642   1.017   1.314  1.2786 -0.5677  1.6779
 7905SOL     OW35173   4.615   0.415   6.844 -0.0791  0.2628  0.1733
 7905SOL    HW135174   4.652   0.493   6.801 -3.1183  0.5118 -1.9705
 7905SOL    HW235175   4.679   0.349   6.818 -0.3180  0.2351 -0.3373
 7906SOL     OW35176   0.435   4.630  14.698  0.2332  0.1895  0.7717
 7906SOL    HW135177   0.347   4.667  14.703  1.2478  2.5122  1.7794
 7906SOL    HW235178   0.419   4.538  14.716 -0.0633  0.1674  0.3826
 7907SOL     OW35179   1.203   1.060   7.225 -0.7956  0.0856  0.1318
 7907SOL    HW135180   1.200   0.984   7.283  0.8963 -2.4168 -3.1348
 7907SOL    HW235181   1.297   1.056   7.212 -0.9152 -0.1329 -0.6337
 7908SOL     OW35182   4.135   2.949   8.019  0.2592  0.1810 -0.1205
 7908SOL    HW135183   4.209   3.006   7.996  0.0824  1.0700  1.5538
 7908SOL    HW235184   4.154   2.857   8.000 -0.3554  0.0195  0.0368
 7909SOL     OW35185   0.134   2.072   5.303  0.2028 -0.1593  0.8192
 7909SOL    HW135186   0.223   2.093   5.275 -0.8191  1.1830 -1.3875
 7909SOL    HW235187   0.124   2.149   5.359 -1.3707  1.8097 -2.1923
 7910SOL     OW35188   3.346   3.402   2.115  0.1018 -0.4498  0.2799
 7910SOL    HW135189   3.351   3.494   2.142  1.2911 -0.4068 -0.1039
 7910SOL    HW235190   3.251   3.404   2.098  0.2505 -1.5044 -0.5891
 7911SOL     OW35191   3.202   2.823  12.846  0.4211  0.4261 -0.0700
 7911SOL    HW135192   3.120   2.870  12.834  0.4854  0.1216 -1.6573
 7911SOL    HW235193   3.252   2.903  12.863  1.7727 -0.7615  1.5381
 7912SOL     OW35194   2.924   2.778  14.146 -0.4098  0.1259 -0.3673
 7912SOL    HW135195   2.977   2.699  14.141 -2.3960 -1.2083  0.0086
 7912SOL    HW235196   2.872   2.765  14.067  0.6266 -1.5087 -0.7863
 7913SOL     OW35197   3.916   4.191   5.870  0.5094 -0.4692  0.1869
 7913SOL    HW135198   3.920   4.190   5.966 -0.3950  1.8278  0.2448
 7913SOL    HW235199   3.889   4.280   5.850 -0.6344 -1.1539 -1.2356
 7914SOL     OW35200   2.912   2.212   9.377 -0.7560  0.2618 -0.3724
 7914SOL    HW135201   2.988   2.190   9.431 -0.8066 -2.6591 -1.5103
 7914SOL    HW235202   2.944   2.287   9.326 -0.0017 -0.0253 -0.3279
 7915SOL     OW35203   1.238   2.835   3.629  0.1272  0.2472 -0.1700
 7915SOL    HW135204   1.273   2.819   3.542  0.3403 -1.5901  0.2496
 7915SOL    HW235205   1.175   2.762   3.633  0.1560  0.2619  0.5371
 7916SOL     OW35206   0.144   3.128   5.367 -0.2442 -0.5672  0.2337
 7916SOL    HW135207   0.226   3.078   5.369  0.6568  0.8871  0.0964
 7916SOL    HW235208   0.109   3.109   5.280  2.6052  0.2728 -1.0993
 7917SOL     OW35209   1.279   3.096   6.648 -0.2060 -0.0968  0.3743
 7917SOL    HW135210   1.337   3.021   6.664 -1.2209 -1.1226 -0.7107
 7917SOL    HW235211   1.234   3.051   6.576 -0.9421  4.3142 -1.9060
 7918SOL     OW35212   4.446   2.822   8.762  0.0356 -0.6752  0.3107
 7918SOL    HW135213   4.523   2.826   8.706 -1.4543 -2.1824 -1.8642
 7918SOL    HW235214   4.481   2.837   8.849  0.0856  1.6653 -0.1114
 7919SOL     OW35215   4.331   1.494   5.679  0.4234  0.3293  0.4901
 7919SOL    HW135216   4.304   1.579   5.643  0.2531 -0.2705 -0.7989
 7919SOL    HW235217   4.303   1.431   5.613 -1.9780  2.8152 -0.8433
 7920SOL     OW35218   2.866   4.173   3.033  0.1067  0.0804  0.6737
 7920SOL    HW135219   2.908   4.141   3.113 -1.1244 -0.4425  1.1096
 7920SOL    HW235220   2.934   4.183   2.967  1.1953 -2.6649  1.3905
 7921SOL     OW35221   0.932   1.276   3.583 -0.3551 -0.0015 -0.4511
 7921SOL    HW135222   0.967   1.357   3.620 -1.5065 -0.0699  0.7826
 7921SOL    HW235223   0.838   1.287   3.567 -0.2126  1.1672 -0.4770
 7922SOL     OW35224   1.314   0.586   3.953  0.0363  0.6530 -0.5565
 7922SOL    HW135225   1.318   0.517   3.888 -2.4089 -0.5001  0.5178
 7922SOL    HW235226   1.406   0.613   3.953 -0.0853  1.0678 -1.7718
 7923SOL     OW35227   2.022   0.056   8.864 -0.6069 -0.3658  0.0870
 7923SOL    HW135228   2.052   4.697   8.825  0.4804  0.6472 -1.2038
 7923SOL    HW235229   1.977   0.033   8.945  1.9635 -0.2064  1.5603
 7924SOL     OW35230   0.919   0.359   2.073  0.2026  0.4159  0.0908
 7924SOL    HW135231   0.968   0.380   1.993 -2.2892 -0.4829 -1.6523
 7924SOL    HW235232   0.980   0.392   2.139 -0.5595  0.6766  0.6552
 7925SOL     OW35233   0.191   1.447  14.888  0.2045  0.2628  0.0396
 7925SOL    HW135234   0.210   1.474  14.798 -1.3435  1.0336 -0.0415
 7925SOL    HW235235   0.129   1.376  14.873 -1.9918  1.6573  2.6644
 7926SOL     OW35236   1.822   1.455   3.037 -0.4896 -0.0092 -0.0156
 7926SOL    HW135237   1.788   1.380   2.989 -2.7291  1.8005 -1.2292
 7926SOL    HW235238   1.820   1.421   3.126 -3.5246  1.9144  0.6360
 7927SOL     OW35239   2.565   0.413   2.368 -0.4951  0.1697 -0.3800
 7927SOL    HW135240   2.514   0.408   2.287  0.1979  2.1921 -0.9376
 7927SOL    HW235241   2.548   0.321   2.388 -0.4398 -0.3060 -2.5229
 7928SOL     OW35242   0.442   2.781   3.520 -0.1397  0.5690  0.0349
 7928SOL    HW135243   0.375   2.743   3.464  1.2879 -2.5477  0.4293
 7928SOL    HW235244   0.526   2.751   3.486 -0.7050 -0.6400 -0.2835
 7929SOL     OW35245   2.507   1.310   3.164  0.1412 -0.2745 -0.7112
 7929SOL    HW135246   2.438   1.344   3.108 -0.4024  1.4100  0.9763
 7929SOL    HW235247   2.493   1.369   3.238  1.9088 -0.0475 -0.5342
 7930SOL     OW35248   0.375   4.001   0.573 -0.6527  0.5953  0.4742
 7930SOL    HW135249   0.414   4.086   0.553  1.4100 -0.7435 -1.1832
 7930SOL    HW235250   0.440   3.981   0.640 -0.1293 -0.2463 -0.2841
 7931SOL     OW35251   0.362   3.252  13.996 -0.3961 -0.1049  0.1442
 7931SOL    HW135252   0.343   3.334  13.950  0.6772 -0.4230 -0.8571
 7931SOL    HW235253   0.409   3.210  13.924  1.4175  2.0460  0.0956
 7932SOL     OW35254   1.130   2.196  17.604 -0.1454  0.2402 -0.1112
 7932SOL    HW135255   1.101   2.154  17.684  0.1715  0.1212 -0.0563
 7932SOL    HW235256   1.068   2.267  17.612  1.0080  0.8119  3.4534
 7933SOL     OW35257   4.064   1.803   1.067 -0.5523  0.3441 -0.0054
 7933SOL    HW135258   4.078   1.883   1.118 -0.2333 -0.1856  0.7368
 7933SOL    HW235259   4.036   1.742   1.136  0.5519  0.7574  0.7986
 7934SOL     OW35260   4.316   0.425   6.163  0.3882  0.5601 -0.6031
 7934SOL    HW135261   4.284   0.464   6.082  0.3773 -4.2336 -2.9670
 7934SOL    HW235262   4.288   0.487   6.230 -2.9953  1.2246 -2.6400
 7935SOL     OW35263   1.967   1.245   2.346  0.1492 -0.2759 -0.2146
 7935SOL    HW135264   1.976   1.156   2.380  0.1540  0.4929  1.7860
 7935SOL    HW235265   1.915   1.236   2.266 -2.2221 -0.6704  1.3861
 7936SOL     OW35266   1.331   0.019  10.395  0.1329  0.4167 -0.4534
 7936SOL    HW135267   1.305   0.071  10.318 -1.5360  2.0206  1.1975
 7936SOL    HW235268   1.375   4.670  10.352  0.4904  0.2779  0.1587
 7937SOL     OW35269   1.885   4.039  10.716 -0.4956  0.2847 -0.0266
 7937SOL    HW135270   1.932   4.045  10.633  2.1795 -0.2495  1.4362
 7937SOL    HW235271   1.950   4.058  10.784 -0.6876  2.6180 -0.5014
 7938SOL     OW35272   1.961   0.027   3.999 -0.0988  0.5768  0.0584
 7938SOL    HW135273   2.019   0.084   3.948  0.0122  0.9319  0.5852
 7938SOL    HW235274   1.897   0.009   3.929 -4.1295 -0.5015  4.0104
 7939SOL     OW35275   4.424   0.942  16.871  0.2126  0.3276  0.2010
 7939SOL    HW135276   4.510   0.958  16.909  0.2714  0.6516 -0.0742
 7939SOL    HW235277   4.433   0.846  16.875 -1.0592  0.2512  1.4774
 7940SOL     OW35278   3.800   0.590  15.329  0.0871  0.6285  0.0280
 7940SOL    HW135279   3.863   0.634  15.386  0.6880  1.5452 -1.3266
 7940SOL    HW235280   3.852   0.567  15.251  1.8979 -0.5877  1.5838
 7941SOL     OW35281   1.494   2.659   6.507 -0.3034 -0.0894 -0.6229
 7941SOL    HW135282   1.491   2.595   6.578 -1.4792 -0.8995 -1.4155
 7941SOL    HW235283   1.429   2.627   6.445 -0.8586 -1.2550  0.5653
 7942SOL     OW35284   0.968   3.103  16.835  0.4666 -0.1486  0.2636
 7942SOL    HW135285   0.981   3.138  16.923  0.9106 -1.0867  0.5667
 7942SOL    HW235286   0.878   3.130  16.817 -0.1235 -1.7986  0.7282
 7943SOL     OW35287   0.163   2.545   6.878 -0.8929 -0.1667 -0.1996
 7943SOL    HW135288   0.206   2.522   6.960 -1.1996 -1.5632 -0.4209
 7943SOL    HW235289   0.179   2.639   6.868 -0.1840 -0.5137 -2.3865
 7944SOL     OW35290   2.537   2.133   0.146 -0.0809  0.2492  0.0690
 7944SOL    HW135291   2.584   2.114   0.228  0.5093  0.6002 -0.1935
 7944SOL    HW235292   2.578   2.087   0.073 -0.0222  1.9356 -0.9608
 7945SOL     OW35293   0.392   2.289  13.937 -0.2710 -0.2648  0.1101
 7945SOL    HW135294   0.475   2.242  13.927  0.2855  0.4228  1.5645
 7945SOL    HW235295   0.413   2.358  14.000 -2.7010  0.0746  0.5473
 7946SOL     OW35296   3.049   1.695   4.870 -0.0189  0.5845  0.0088
 7946SOL    HW135297   2.970   1.719   4.822  0.3297 -1.4054 -1.5864
 7946SOL    HW235298   3.021   1.700   4.961 -0.9276  3.0582 -0.4149
 7947SOL     OW35299   0.590   0.331  12.008 -0.5233 -0.2115  0.2715
 7947SOL    HW135300   0.613   0.332  12.101 -1.8957 -0.6508  0.6159
 7947SOL    HW235301   0.573   0.239  11.991 -0.2231 -0.1467 -0.3638
 7948SOL     OW35302   2.992   3.098   3.629  0.1304  0.4088 -0.2801
 7948SOL    HW135303   3.046   3.021   3.650 -0.6441  0.7522  3.0427
 7948SOL    HW235304   2.973   3.081   3.537  0.5100  1.3301 -0.5308
 7949SOL     OW35305   4.046   3.900   7.350 -0.4809 -0.1333 -0.1126
 7949SOL    HW135306   3.991   3.975   7.326  0.6570  1.2215  1.5242
 7949SOL    HW235307   4.105   3.942   7.412 -0.5065  0.7415 -0.6877
 7950SOL     OW35308   3.277   1.929   8.161 -0.0334  0.5868  0.1272
 7950SOL    HW135309   3.303   1.914   8.252 -0.1864 -1.1429 -0.1080
 7950SOL    HW235310   3.182   1.927   8.166 -0.0579  0.2061 -0.4372
 7951SOL     OW35311   1.544   3.295  16.597 -0.2396  0.6823 -0.3691
 7951SOL    HW135312   1.529   3.386  16.624 -1.7027 -0.1979  1.7690
 7951SOL    HW235313   1.485   3.296  16.522 -0.8225 -2.2291  0.0769
 7952SOL     OW35314   2.129   1.250   9.298  0.2026  0.6360 -0.2024
 7952SOL    HW135315   2.088   1.210   9.221 -1.7027  1.5237  0.3483
 7952SOL    HW235316   2.060   1.235   9.363  0.4501  2.5463  0.4916
 7953SOL     OW35317   3.116   0.540   3.100 -0.0479 -0.0852  0.7192
 7953SOL    HW135318   3.193   0.561   3.152 -1.4188  4.7140  0.8272
 7953SOL    HW235319   3.123   0.445   3.100 -0.8633 -0.1454 -0.4697
 7954SOL     OW35320   1.127   2.773   9.902  0.1223  0.3532 -0.0449
 7954SOL    HW135321   1.062   2.826   9.856 -2.0357 -0.4819  2.0419
 7954SOL    HW235322   1.065   2.703   9.924 -2.0692  1.9247 -1.2536
 7955SOL     OW35323   4.101   4.629   9.405  0.3403  0.3675 -0.0164
 7955SOL    HW135324   4.163   4.646   9.476  0.3414  0.0204  0.0655
 7955SOL    HW235325   4.141   4.654   9.322 -0.1971 -1.3205 -0.7990
 7956SOL     OW35326   3.240   2.541  14.581 -0.1493  0.1867 -0.3405
 7956SOL    HW135327   3.237   2.631  14.551 -1.9041 -0.8376 -3.2289
 7956SOL    HW235328   3.168   2.515  14.524  2.1984  0.4886 -3.4690
 7957SOL     OW35329   1.404   2.557   5.649 -0.0529 -0.0762 -0.0127
 7957SOL    HW135330   1.462   2.482   5.641  1.0664  0.7637  0.1081
 7957SOL    HW235331   1.347   2.518   5.716  0.2768 -1.7395 -0.7119
 7958SOL     OW35332   3.312   4.209   1.892 -0.3305 -0.1595  0.7189
 7958SOL    HW135333   3.288   4.298   1.915  0.5968  0.6961 -1.6186
 7958SOL    HW235334   3.383   4.200   1.955  0.4993  2.3378  0.1347
 7959SOL     OW35335   4.128   1.476   9.574 -0.4757 -0.3245  0.2505
 7959SOL    HW135336   4.158   1.388   9.597  0.0533  0.3235  2.0493
 7959SOL    HW235337   4.079   1.498   9.654  0.4711 -0.5630  0.8957
 7960SOL     OW35338   0.383   3.210  17.629  0.2484 -0.0943  0.3002
 7960SOL    HW135339   0.305   3.228  17.576  0.4510  0.2669  0.1271
 7960SOL    HW235340   0.420   3.296  17.648 -1.1159  0.6880 -0.5698
 7961SOL     OW35341   3.878   4.634   8.538 -0.0428 -0.0985  0.0663
 7961SOL    HW135342   3.951   4.574   8.555 -1.1571 -1.7627 -1.0229
 7961SOL    HW235343   3.810   4.591   8.589  1.1041 -1.8770  0.0942
 7962SOL     OW35344   0.981   1.635   0.877 -0.2058 -0.2694 -0.4237
 7962SOL    HW135345   0.970   1.673   0.790  1.5422 -1.8874 -1.3308
 7962SOL    HW235346   1.004   1.712   0.930  2.2112 -2.5422  1.8068
 7963SOL     OW35347   1.863   2.462  10.829 -0.1677  0.4648  0.7147
 7963SOL    HW135348   1.843   2.465  10.735 -0.4890 -1.3174  0.7246
 7963SOL    HW235349   1.809   2.389  10.859 -0.3708  0.5993  0.6767
 7964SOL     OW35350   0.874   2.996   5.231 -0.8280  0.1616  0.1532
 7964SOL    HW135351   0.854   2.905   5.252  1.7230 -0.3107  0.5499
 7964SOL    HW235352   0.896   3.031   5.318 -2.8318 -1.2307  1.2054
 7965SOL     OW35353   4.660   1.998   3.407 -0.5718 -0.4465 -0.0574
 7965SOL    HW135354   4.631   2.087   3.391 -0.8132 -0.8060 -1.6478
 7965SOL    HW235355   0.030   2.008   3.390 -0.2535 -0.0463  2.0366
 7966SOL     OW35356   4.323   2.919   3.944  0.1398  0.0234 -0.1071
 7966SOL    HW135357   4.360   3.001   3.975 -2.2989  1.1713 -0.2502
 7966SOL    HW235358   4.400   2.873   3.910  0.6304 -0.6323  1.8706
 7967SOL     OW35359   2.947   2.070  11.197 -0.4869 -0.2435 -0.4518
 7967SOL    HW135360   2.954   2.063  11.102 -0.9583  0.1463 -0.5157
 7967SOL    HW235361   2.854   2.091  11.200 -0.3958  0.1309 -0.2703
 7968SOL     OW35362   1.657   2.797   0.733 -0.4842  0.4263  0.6816
 7968SOL    HW135363   1.681   2.862   0.798  4.6779  1.3490 -2.1723
 7968SOL    HW235364   1.570   2.767   0.760  0.2817 -0.8032  1.7529
 7969SOL     OW35365   0.085   3.713   5.398 -0.3806  0.2835  0.0958
 7969SOL    HW135366   0.090   3.728   5.492  1.1357 -0.8351  0.1788
 7969SOL    HW235367   0.065   3.620   5.398 -1.4735  0.5225  1.2929
 7970SOL     OW35368   1.674   4.334   9.695 -0.1079  0.5774  0.0621
 7970SOL    HW135369   1.730   4.317   9.771 -0.3427 -0.7611 -0.0627
 7970SOL    HW235370   1.740   4.333   9.626  1.3998  0.5919  1.4954
 7971SOL     OW35371   2.095   4.348  13.442 -0.2954  0.5279 -0.0193
 7971SOL    HW135372   2.153   4.416  13.476  0.0925 -0.2669  0.9272
 7971SOL    HW235373   2.039   4.322  13.516 -0.3487 -1.5090 -0.7676
 7972SOL     OW35374   3.565   0.983   8.630  0.0528 -0.5037 -0.1494
 7972SOL    HW135375   3.652   1.001   8.665 -0.3820  1.8299 -0.2337
 7972SOL    HW235376   3.551   0.892   8.607  1.3726 -0.3800 -1.3978
 7973SOL     OW35377   2.741   3.089   3.174 -0.2738  0.6527 -0.0979
 7973SOL    HW135378   2.723   3.087   3.080 -1.3250 -0.4253  0.1278
 7973SOL    HW235379   2.658   3.131   3.198 -1.5680 -2.7655  1.3884
 7974SOL     OW35380   0.930   2.977   3.862 -0.0242  0.1268 -0.8827
 7974SOL    HW135381   0.890   2.890   3.851 -0.6711  0.2432  0.5207
 7974SOL    HW235382   0.892   3.006   3.945 -0.2298  1.0097 -1.2882
 7975SOL     OW35383   4.138   2.280   2.299 -0.0527  0.2202  0.1158
 7975SOL    HW135384   4.206   2.227   2.341 -0.5797 -1.0803 -0.6762
 7975SOL    HW235385   4.078   2.219   2.257 -0.6071  0.8858 -0.0575
 7976SOL     OW35386   3.177   2.148  12.780  0.3761 -0.0920  0.4843
 7976SOL    HW135387   3.261   2.118  12.745 -0.8074 -2.5284 -0.3471
 7976SOL    HW235388   3.180   2.119  12.871 -2.7145 -0.7521  0.3989
 7977SOL     OW35389   2.638   4.027   7.744 -0.2630 -0.9425 -0.3272
 7977SOL    HW135390   2.703   4.068   7.801 -0.4959 -1.9699  0.6819
 7977SOL    HW235391   2.674   3.943   7.715 -1.1754 -0.9514 -1.4462
 7978SOL     OW35392   2.094   0.454   0.554 -0.0357 -0.0816 -0.6274
 7978SOL    HW135393   2.076   0.520   0.621  1.2565 -0.8062  0.4270
 7978SOL    HW235394   2.165   0.503   0.512  1.6634 -0.7789  1.4326
 7979SOL     OW35395   3.085   3.714   5.523  0.4555 -0.0012 -0.3108
 7979SOL    HW135396   3.159   3.654   5.530 -1.3622 -2.0047  1.5190
 7979SOL    HW235397   3.100   3.741   5.432  0.1563 -2.2051 -1.0292
 7980SOL     OW35398   3.189   0.722   2.767 -0.1036 -0.0722  0.6310
 7980SOL    HW135399   3.264   0.697   2.821 -1.9690 -2.2993  2.2246
 7980SOL    HW235400   3.229   0.719   2.681 -2.6134  0.7185 -0.5550
 7981SOL     OW35401   1.548   0.056  14.479 -0.5630  0.1281 -0.5950
 7981SOL    HW135402   1.465   0.103  14.489 -1.1676 -0.8602 -0.9819
 7981SOL    HW235403   1.541   0.013  14.394 -1.2968 -0.5910 -0.1582
 7982SOL     OW35404   1.426   1.250  16.693  0.1734 -0.4141 -0.1094
 7982SOL    HW135405   1.354   1.218  16.748  0.0858  2.2365  1.3157
 7982SOL    HW235406   1.390   1.334  16.662  0.0677 -0.7438 -0.8858
 7983SOL     OW35407   4.536   1.856   6.231 -0.4120  0.0565  0.0563
 7983SOL    HW135408   4.602   1.818   6.290  0.1721  0.1752 -0.5148
 7983SOL    HW235409   4.536   1.793   6.159 -0.6565  0.0745  0.0421
 7984SOL     OW35410   4.627   1.240   2.401  0.0839  0.2293  0.0969
 7984SOL    HW135411   4.568   1.165   2.396 -1.0850  1.2016 -0.8453
 7984SOL    HW235412   4.683   1.220   2.477 -0.0610  3.3964  1.0617
 7985SOL     OW35413   1.835   1.871   1.416 -0.8593  0.3086 -0.1539
 7985SOL    HW135414   1.837   1.783   1.377  0.9224  1.1022 -1.8050
 7985SOL    HW235415   1.911   1.869   1.474 -2.5411 -1.0470  1.9951
 7986SOL     OW35416   0.144   0.918  13.461 -0.3782  0.0547  0.2617
 7986SOL    HW135417   0.149   0.825  13.441 -0.0105  0.4791 -1.6622
 7986SOL    HW235418   0.236   0.940  13.445 -0.9848  1.8891 -0.7434
 7987SOL     OW35419   4.472   3.093   6.022  0.0048 -0.5796  0.0139
 7987SOL    HW135420   4.491   3.185   6.041  1.6658 -1.2008  1.3744
 7987SOL    HW235421   4.481   3.055   6.110 -0.7914 -0.5093  0.1299
 7988SOL     OW35422   3.516   2.849   0.833 -0.0580  0.9514  0.1947
 7988SOL    HW135423   3.452   2.788   0.869  0.4264  0.8736  0.9413
 7988SOL    HW235424   3.532   2.915   0.900  1.4227  0.1586  0.6262
 7989SOL     OW35425   2.863   4.234   4.377 -0.1061 -0.8769 -0.0550
 7989SOL    HW135426   2.789   4.217   4.320  0.9122 -0.7336 -1.4202
 7989SOL    HW235427   2.850   4.171   4.448 -1.2180  0.9124  1.3485
 7990SOL     OW35428   1.523   0.020   0.761 -0.0253  0.1037 -0.3382
 7990SOL    HW135429   1.578   0.070   0.701  1.7944 -0.0301  1.2373
 7990SOL    HW235430   1.512   4.663   0.710 -0.6601  0.2927 -0.5039
 7991SOL     OW35431   1.828   2.118   5.749 -0.1583 -0.0352 -0.1513
 7991SOL    HW135432   1.831   2.152   5.660 -0.8941 -1.8539 -0.8856
 7991SOL    HW235433   1.823   2.022   5.743 -0.3577  0.1796 -3.2171
 7992SOL     OW35434   3.771   2.451  12.494 -0.4592 -0.0864 -0.1972
 7992SOL    HW135435   3.844   2.509  12.472 -0.1208 -0.5987 -0.4176
 7992SOL    HW235436   3.825   2.378  12.522  0.9704 -0.4709 -3.9614
 7993SOL     OW35437   4.317   3.742  17.244 -0.0167 -0.1144 -0.2669
 7993SOL    HW135438   4.255   3.706  17.307 -1.7979  0.4009 -1.7158
 7993SOL    HW235439   4.402   3.712  17.277 -0.6297 -0.7700  0.7264
 7994SOL     OW35440   0.754   1.664  15.475 -0.1546  0.7038  0.1755
 7994SOL    HW135441   0.780   1.712  15.397  2.1579 -0.1608  0.3865
 7994SOL    HW235442   0.665   1.685  15.502  0.9337  2.1629  2.6018
 7995SOL     OW35443   3.374   1.488   0.935 -0.1641  0.1287 -0.0762
 7995SOL    HW135444   3.392   1.550   0.864 -0.8422  0.4914  0.0710
 7995SOL    HW235445   3.282   1.464   0.926  0.8408 -3.3035 -1.3255
 7996SOL     OW35446   3.905   2.281   5.540 -0.5541 -0.0616  0.8637
 7996SOL    HW135447   3.883   2.220   5.610 -1.0623 -0.6330  0.2057
 7996SOL    HW235448   3.821   2.325   5.522 -0.8634 -1.0028 -0.0297
 7997SOL     OW35449   0.085   3.786   4.766  0.4215  0.1968  0.2162
 7997SOL    HW135450   0.099   3.866   4.816  0.2198  1.6039 -1.9684
 7997SOL    HW235451   4.719   3.797   4.735  0.7387  0.3167 -0.6690
 7998SOL     OW35452   4.465   3.219   4.604  0.1075  0.2398  0.2378
 7998SOL    HW135453   4.489   3.151   4.542 -1.7136 -1.2670  1.2038
 7998SOL    HW235454   4.490   3.189   4.691  1.2032 -0.9415 -0.4860
 7999SOL     OW35455   2.506   0.750   2.332 -0.2224  0.2352 -0.3577
 7999SOL    HW135456   2.582   0.698   2.307 -1.4496 -0.6556 -2.1649
 7999SOL    HW235457   2.532   0.810   2.403  1.4312  1.8462 -2.3214
 8000SOL     OW35458   0.602   3.662  11.393  0.0469 -0.2760 -0.0592
 8000SOL    HW135459   0.622   3.676  11.300  0.3463  0.6513  0.1414
 8000SOL    HW235460   0.640   3.577  11.413  1.7074  0.6056  0.5531
 8001SOL     OW35461   4.382   2.641   6.397  0.4463  0.4025 -0.3975
 8001SOL    HW135462   4.464   2.679   6.367  0.5407  0.5592  0.0602
 8001SOL    HW235463   4.409   2.592   6.475 -0.7207  0.3776 -0.0019
 8002SOL     OW35464   2.173   4.600   8.693 -0.2855 -0.2996  0.3453
 8002SOL    HW135465   2.198   4.682   8.649 -3.4286 -1.3201 -3.3154
 8002SOL    HW235466   2.223   4.544   8.634 -0.9845 -1.4295  0.8423
 8003SOL     OW35467   0.433   0.974  16.036  0.2794  0.8834  0.5083
 8003SOL    HW135468   0.485   0.971  16.117  0.5966  0.5687  0.2904
 8003SOL    HW235469   0.488   0.928  15.973 -1.4324  1.1660 -1.1540
 8004SOL     OW35470   1.483   4.465   6.965 -0.4686  0.6703 -0.3760
 8004SOL    HW135471   1.561   4.451   7.018  0.7276  0.2300 -2.2704
 8004SOL    HW235472   1.468   4.557   6.986 -1.7459  0.7556 -1.6307
 8005SOL     OW35473   1.664   0.874   7.924 -0.2301 -0.3422 -0.4082
 8005SOL    HW135474   1.655   0.844   7.833  3.0573 -0.0602 -0.8485
 8005SOL    HW235475   1.613   0.955   7.927  1.6059  0.8471 -0.8638
 8006SOL     OW35476   0.266   3.868  14.368  0.3339 -0.3681 -0.0733
 8006SOL    HW135477   0.297   3.951  14.331  0.3974  0.8811  2.8310
 8006SOL    HW235478   0.244   3.810  14.295  1.3484 -0.3103 -0.4315
 8007SOL     OW35479   4.492   1.853   8.390 -0.0815 -0.3207 -0.4036
 8007SOL    HW135480   4.500   1.884   8.480  3.6423 -0.4071 -0.6889
 8007SOL    HW235481   4.515   1.760   8.398 -2.0293 -0.9242 -1.7091
 8008SOL     OW35482   3.731   1.227   2.436 -0.7436  0.2780  0.1022
 8008SOL    HW135483   3.654   1.174   2.416 -0.9739  1.0974 -1.1483
 8008SOL    HW235484   3.731   1.205   2.529 -1.2805  0.4880  0.1503
 8009SOL     OW35485   0.620   0.892   2.629 -0.0031 -0.0495  0.1771
 8009SOL    HW135486   0.613   0.972   2.578  2.0999  0.4145  0.6176
 8009SOL    HW235487   0.546   0.908   2.687  0.1897  0.0576  0.3928
 8010SOL     OW35488   0.430   1.209   5.864 -0.3564  0.1925 -0.6184
 8010SOL    HW135489   0.399   1.126   5.829  1.2580  0.0449 -1.7103
 8010SOL    HW235490   0.379   1.283   5.832  0.0463  0.8987  0.3476
 8011SOL     OW35491   0.514   4.228   5.620 -0.1810  0.2801 -0.1015
 8011SOL    HW135492   0.512   4.308   5.672  2.7206  0.7481 -0.7370
 8011SOL    HW235493   0.608   4.210   5.619 -0.2757 -0.0601 -2.6674
 8012SOL     OW35494   2.000   3.201  16.309  0.5393 -0.1945  0.0920
 8012SOL    HW135495   2.062   3.267  16.338  1.6750 -1.2280  0.0053
 8012SOL    HW235496   1.925   3.243  16.351  0.5672 -2.1529  2.1198
 8013SOL     OW35497   3.703   0.041   6.992  0.4006  0.2034  0.6227
 8013SOL    HW135498   3.733   0.132   6.983 -0.8748  0.5026 -0.6134
 8013SOL    HW235499   3.616   0.062   6.958 -0.6107 -0.5378  2.7974
 8014SOL     OW35500   3.927   2.112   3.277 -0.1687  0.2016  0.2864
 8014SOL    HW135501   3.891   2.051   3.341 -0.9096  0.6624  0.3172
 8014SOL    HW235502   3.988   2.160   3.334  1.9191 -2.0719 -0.0539
 8015SOL     OW35503   2.542   0.684   4.623 -0.4252  0.3365 -0.1883
 8015SOL    HW135504   2.476   0.697   4.555  0.6680  0.5886 -1.2005
 8015SOL    HW235505   2.541   0.589   4.614 -2.0614  0.2892  0.5609
 8016SOL     OW35506   0.579   4.111   7.150 -0.2395 -0.3521  0.4201
 8016SOL    HW135507   0.619   4.192   7.118  1.3160 -0.7864  1.2206
 8016SOL    HW235508   0.585   4.045   7.081  1.0040 -1.5277  1.6408
 8017SOL     OW35509   1.755   2.533   8.615 -0.1321 -0.2211  0.4200
 8017SOL    HW135510   1.841   2.557   8.650 -0.2237  0.1379  0.4009
 8017SOL    HW235511   1.772   2.441   8.598 -0.2603  0.1089 -1.4863
 8018SOL     OW35512   0.325   4.186  11.797 -0.1794 -0.4813 -0.1065
 8018SOL    HW135513   0.362   4.271  11.774  0.7156 -0.3728  1.7374
 8018SOL    HW235514   0.257   4.205  11.862  1.0090  0.4814  0.8536
 8019SOL     OW35515   2.548   1.849   7.172 -0.1180  1.0285 -0.8535
 8019SOL    HW135516   2.644   1.849   7.175 -0.1426  0.8680  0.0076
 8019SOL    HW235517   2.534   1.786   7.102 -0.3325 -0.5746  0.6360
 8020SOL     OW35518   1.357   3.697  10.076 -0.7886 -0.4388 -0.4821
 8020SOL    HW135519   1.391   3.770  10.023  2.1111  0.3815  2.5102
 8020SOL    HW235520   1.301   3.741  10.140  1.2599  0.9844  0.3251
 8021SOL     OW35521   3.835   4.541   7.622  0.1458 -0.0056  0.6609
 8021SOL    HW135522   3.780   4.504   7.691 -2.4053  2.9793  0.2370
 8021SOL    HW235523   3.861   4.622   7.666  0.5296  0.1645  0.1235
 8022SOL     OW35524   3.851   1.902   6.497  0.1508  0.5387  0.4986
 8022SOL    HW135525   3.844   1.926   6.589 -1.2642 -0.1218  0.5582
 8022SOL    HW235526   3.822   1.980   6.449 -0.8379  0.2219  0.5765
 8023SOL     OW35527   3.833   4.382   3.451  0.3202  0.4440  0.4210
 8023SOL    HW135528   3.809   4.356   3.362 -1.3736 -0.7874  1.2395
 8023SOL    HW235529   3.929   4.382   3.444  0.2865 -0.0238  0.0061
 8024SOL     OW35530   3.940   2.125   2.151 -0.6795  0.0474  0.0131
 8024SOL    HW135531   3.933   2.108   2.057  1.0703  2.1116 -0.4987
 8024SOL    HW235532   3.868   2.070   2.182 -1.0845 -0.8516 -2.5541
 8025SOL     OW35533   4.062   4.495   5.382  0.6319 -0.1494  0.2320
 8025SOL    HW135534   4.154   4.491   5.359 -0.1360 -0.0250 -2.8463
 8025SOL    HW235535   4.029   4.428   5.322  1.9678 -0.8478  0.2705
 8026SOL     OW35536   1.665   3.581   2.651  0.2432 -0.0604  0.0949
 8026SOL    HW135537   1.727   3.539   2.711  2.6509  0.5572 -1.9544
 8026SOL    HW235538   1.726   3.602   2.580  1.3921  0.1211  1.1344
 8027SOL     OW35539   1.009   0.576   3.367  0.3669  0.1881 -0.2783
 8027SOL    HW135540   1.048   0.588   3.454  0.6380  0.3661 -0.4256
 8027SOL    HW235541   1.085   0.564   3.309 -0.3966  0.2233 -1.2793
 8028SOL     OW35542   4.645   2.881   7.463 -0.1153  0.1507 -0.1291
 8028SOL    HW135543   0.010   2.858   7.437 -0.8445 -1.7042 -0.9075
 8028SOL    HW235544   4.614   2.925   7.384 -0.7123  0.8165  0.4707
 8029SOL     OW35545   1.707   3.383   8.626  0.0150  0.0276  0.0165
 8029SOL    HW135546   1.622   3.345   8.648 -0.4791  1.8889  1.3024
 8029SOL    HW235547   1.723   3.420   8.713  1.5500 -1.1466  0.2562
 8030SOL     OW35548   1.016   1.499   4.285  0.3129 -0.0066  0.1142
 8030SOL    HW135549   1.025   1.412   4.324  0.8732 -1.3755 -3.0877
 8030SOL    HW235550   0.976   1.535   4.364  0.3996 -0.0622  0.1839
 8031SOL     OW35551   3.630   1.414   1.970 -0.7911 -0.5978 -0.1301
 8031SOL    HW135552   3.584   1.359   1.907 -1.9952  1.2181 -0.8648
 8031SOL    HW235553   3.722   1.392   1.959 -1.1192 -2.3578  0.6874
 8032SOL     OW35554   1.115   4.042   4.318  0.0089 -0.3104 -0.1980
 8032SOL    HW135555   1.112   3.970   4.254  1.4703 -0.9373  0.4425
 8032SOL    HW235556   1.210   4.044   4.330 -0.1072  0.9851  0.4358
 8033SOL     OW35557   3.270   0.466   4.415 -0.1568 -0.2185 -0.2532
 8033SOL    HW135558   3.346   0.524   4.416  0.0410 -0.4675 -0.4838
 8033SOL    HW235559   3.310   0.381   4.393  1.5069  0.9246 -1.6801
 8034SOL     OW35560   3.888   1.509   2.152  0.1558 -0.5993  0.2027
 8034SOL    HW135561   3.876   1.593   2.109  0.8104 -0.0892  1.0364
 8034SOL    HW235562   3.900   1.448   2.078  0.3882  1.2471 -1.2711
 8035SOL     OW35563   2.551   3.009   0.594 -0.1191 -0.1084 -0.5068
 8035SOL    HW135564   2.544   2.916   0.571 -2.8838  0.1043 -0.5754
 8035SOL    HW235565   2.562   3.036   0.502 -0.3627 -0.3196 -0.5990
 8036SOL     OW35566   2.276   0.133   2.783 -0.7612 -0.3599  0.1510
 8036SOL    HW135567   2.321   0.065   2.733  0.9732  2.9964 -2.8117
 8036SOL    HW235568   2.262   0.209   2.728  0.4000  0.0473  0.4077
 8037SOL     OW35569   2.532   4.252   0.706 -0.2603  0.7615  0.3287
 8037SOL    HW135570   2.474   4.326   0.688 -0.5181  0.5875  0.4405
 8037SOL    HW235571   2.568   4.276   0.791 -1.7748  1.7279  0.7045
 8038SOL     OW35572   0.269   0.229  10.255  0.3750 -0.0365 -0.2793
 8038SOL    HW135573   0.268   0.133  10.262  1.3907 -0.0748 -0.6011
 8038SOL    HW235574   0.282   0.246  10.348 -2.3399 -0.5207  0.1832
 8039SOL     OW35575   4.326   4.706   4.091  0.1145  0.6087 -0.1470
 8039SOL    HW135576   4.344   4.707   3.997 -0.5449  2.9406 -0.2327
 8039SOL    HW235577   4.415   4.716   4.124  0.5930 -1.9771 -0.6058
 8040SOL     OW35578   2.833   3.716  15.856  0.0433  0.4513 -0.4677
 8040SOL    HW135579   2.873   3.643  15.904  0.5206  1.5054  0.7727
 8040SOL    HW235580   2.752   3.674  15.829  0.7132  0.1282 -1.9510
 8041SOL     OW35581   3.179   0.369  12.900 -0.2282 -0.3277  0.5276
 8041SOL    HW135582   3.086   0.391  12.898  0.1941  1.8328  3.5295
 8041SOL    HW235583   3.230   0.434  12.949  1.0752  0.0733 -1.3377
 8042SOL     OW35584   1.921   0.842  10.818 -0.1259 -0.3153 -0.0943
 8042SOL    HW135585   1.842   0.895  10.833  1.0064  1.7916 -1.5662
 8042SOL    HW235586   1.916   0.784  10.894  0.1007 -3.4540 -2.4680
 8043SOL     OW35587   3.517   3.732   7.970  0.2460  0.1772  0.4125
 8043SOL    HW135588   3.469   3.802   7.924  0.5647  0.5755  0.6903
 8043SOL    HW235589   3.592   3.732   7.910  1.5380  0.0440  2.0207
 8044SOL     OW35590   2.883   0.754  16.506 -0.1128  0.0526 -0.3960
 8044SOL    HW135591   2.814   0.757  16.439 -0.0513  1.4446 -0.4055
 8044SOL    HW235592   2.944   0.701  16.454 -0.4641 -0.3480 -0.4001
 8045SOL     OW35593   3.996   2.762   1.971  0.2513  0.0161  0.1900
 8045SOL    HW135594   3.968   2.852   1.990 -0.6676 -0.3524  0.5556
 8045SOL    HW235595   4.051   2.777   1.894 -0.7373 -0.6233 -0.6362
 8046SOL     OW35596   4.718   3.802   6.721  0.0204 -0.1242  0.4528
 8046SOL    HW135597   4.680   3.790   6.634 -0.0550  1.3737  0.2853
 8046SOL    HW235598   4.654   3.760   6.778  0.0936 -1.5763 -0.5140
 8047SOL     OW35599   1.317   0.021   8.123 -0.0673  0.0738  0.0177
 8047SOL    HW135600   1.375   0.078   8.174 -0.0239  0.1393 -0.1045
 8047SOL    HW235601   1.242   0.074   8.098 -0.6573 -0.3907  0.7997
 8048SOL     OW35602   0.100   4.231  15.052 -0.8115  0.2632  0.0680
 8048SOL    HW135603   0.074   4.152  15.099  0.9998 -0.0315  0.5976
 8048SOL    HW235604   0.077   4.213  14.961 -1.8867 -2.1584  0.8252
 8049SOL     OW35605   4.097   2.545  17.564  0.1555 -0.4479  0.0681
 8049SOL    HW135606   4.164   2.538  17.496  0.8236  1.6874  0.5131
 8049SOL    HW235607   4.120   2.626  17.609  0.7350  0.4436 -1.8391
 8050SOL     OW35608   4.208   3.045   7.057 -0.0255  0.2306 -0.5733
 8050SOL    HW135609   4.240   3.094   7.133 -1.0565 -1.0891  0.7049
 8050SOL    HW235610   4.278   2.982   7.039  0.0340 -0.5012  2.3550
 8051SOL     OW35611   1.591   3.307   8.178  0.1977 -0.1554  0.3797
 8051SOL    HW135612   1.668   3.263   8.215  1.6124  1.2762 -0.8323
 8051SOL    HW235613   1.628   3.343   8.097  0.2925 -0.9853  0.0550
 8052SOL     OW35614   1.472   1.714   2.259  0.3173  0.1331  0.5711
 8052SOL    HW135615   1.526   1.747   2.188  0.5311 -0.7839  0.3032
 8052SOL    HW235616   1.524   1.635   2.277 -3.0701 -1.9263  1.3187
 8053SOL     OW35617   2.740   1.975   5.378  0.3977  0.0085 -0.6306
 8053SOL    HW135618   2.730   2.052   5.322  0.2516 -1.0666 -2.0980
 8053SOL    HW235619   2.658   1.931   5.354 -0.2009  1.1731 -0.7397
 8054SOL     OW35620   0.310   3.934  13.992 -0.2057 -0.2877  0.2744
 8054SOL    HW135621   0.371   3.993  13.947  0.4017 -0.7121  0.5437
 8054SOL    HW235622   0.308   3.970  14.080  1.0742  1.6470 -0.4828
 8055SOL     OW35623   3.210   4.404   4.701  0.0299 -0.5781 -0.5554
 8055SOL    HW135624   3.293   4.360   4.684  0.0176 -1.2000  1.0112
 8055SOL    HW235625   3.171   4.336   4.756 -0.0151  0.9279  1.2848
 8056SOL     OW35626   3.539   1.924   5.979 -0.0516 -0.0182  0.1563
 8056SOL    HW135627   3.532   2.015   6.010  1.7212  0.7344 -1.6460
 8056SOL    HW235628   3.546   1.873   6.060 -0.3030 -0.3230 -0.0145
 8057SOL     OW35629   4.484   1.647   6.046  0.1659 -0.4961  0.4819
 8057SOL    HW135630   4.400   1.615   6.080  0.5824 -1.4425  0.6174
 8057SOL    HW235631   4.536   1.574   6.078 -0.6286 -0.2967  2.2769
 8058SOL     OW35632   4.349   4.544   6.958 -0.3629 -0.0929 -0.2352
 8058SOL    HW135633   4.329   4.568   7.048  0.7491 -1.2503  0.3185
 8058SOL    HW235634   4.438   4.577   6.945 -0.2298 -0.3879 -0.0526
 8059SOL     OW35635   4.504   0.648   7.451 -0.4100  1.1357  0.5064
 8059SOL    HW135636   4.524   0.644   7.357 -2.0750 -0.9241  0.2546
 8059SOL    HW235637   4.425   0.595   7.449  0.7335 -0.5162 -1.0615
 8060SOL     OW35638   2.349   2.217  16.777  0.4740 -0.0374 -0.1417
 8060SOL    HW135639   2.443   2.199  16.778  0.6868  0.9466 -1.2897
 8060SOL    HW235640   2.331   2.182  16.689 -0.0182  1.0923 -0.4919
 8061SOL     OW35641   1.351   4.159   0.810 -0.7669 -0.8130 -0.3642
 8061SOL    HW135642   1.275   4.119   0.769 -0.7340 -1.4650  0.2200
 8061SOL    HW235643   1.407   4.165   0.733  0.7395  0.3698  0.8321
 8062SOL     OW35644   1.991   4.141   6.319 -0.1770  0.1661  0.1590
 8062SOL    HW135645   1.941   4.217   6.289 -0.2799  0.0748  0.0992
 8062SOL    HW235646   2.004   4.089   6.239 -2.4670  0.1007 -0.1775
 8063SOL     OW35647   3.590   0.759   3.877  0.4696  0.2669  0.0740
 8063SOL    HW135648   3.669   0.790   3.832  0.4139  0.8363  0.3608
 8063SOL    HW235649   3.612   0.797   3.962  2.5072 -4.2221  1.5289
 8064SOL     OW35650   3.734   3.016   7.445  0.2746  0.0706  0.0858
 8064SOL    HW135651   3.783   3.030   7.526  0.1889 -1.7843  0.4595
 8064SOL    HW235652   3.704   3.106   7.436 -1.9046 -0.4373  2.2132
 8065SOL     OW35653   1.196   2.996  17.548  0.4044 -0.8685 -1.0713
 8065SOL    HW135654   1.203   2.903  17.526  3.5269 -0.1320 -3.0894
 8065SOL    HW235655   1.250   3.043  17.485 -0.4069 -0.0897 -1.1858
 8066SOL     OW35656   1.365   0.507   9.566  0.1282  0.3088 -0.2324
 8066SOL    HW135657   1.415   0.432   9.597 -1.8075 -1.4241 -1.3330
 8066SOL    HW235658   1.329   0.529   9.652 -0.6102 -0.0633 -0.4470
 8067SOL     OW35659   2.714   1.895  16.384 -0.4559 -0.0230  0.5595
 8067SOL    HW135660   2.778   1.850  16.330  0.8537  1.5696  0.7743
 8067SOL    HW235661   2.764   1.925  16.460 -0.5137 -1.8027  1.2921
 8068SOL     OW35662   2.041   2.904  15.023  0.2237  0.2523 -0.3797
 8068SOL    HW135663   1.970   2.950  14.976  1.3300 -0.3964 -2.7040
 8068SOL    HW235664   1.997   2.839  15.077  1.9058  0.2809  1.0080
 8069SOL     OW35665   4.695   0.078   5.578  0.5333 -0.2545 -0.1486
 8069SOL    HW135666   4.700   0.029   5.496  2.3156  1.1568 -0.8893
 8069SOL    HW235667   4.611   0.065   5.621  0.0695  2.1769 -0.2806
 8070SOL     OW35668   0.278   2.661   7.911  0.1851 -0.7317  0.1422
 8070SOL    HW135669   0.295   2.749   7.876  1.1014 -1.2711 -0.7506
 8070SOL    HW235670   0.257   2.677   8.003  0.9955 -1.4259  0.4425
 8071SOL     OW35671   0.200   4.355   7.714  0.0892  0.1601 -0.1130
 8071SOL    HW135672   0.122   4.381   7.763  0.7341 -0.4645  1.2651
 8071SOL    HW235673   0.272   4.373   7.775 -0.8045 -2.6683  1.7784
 8072SOL     OW35674   0.742   4.063   4.811 -0.2541  0.2501  0.5465
 8072SOL    HW135675   0.747   3.995   4.744 -1.1397  1.0179 -0.3080
 8072SOL    HW235676   0.800   4.129   4.772 -2.3468  0.4196 -2.2352
 8073SOL     OW35677   3.245   4.402  10.580  0.0803 -0.4394  0.1321
 8073SOL    HW135678   3.267   4.483  10.534 -0.7479 -1.6921 -2.5093
 8073SOL    HW235679   3.184   4.429  10.647  0.6518  1.9480 -0.3124
 8074SOL     OW35680   4.608   1.247  10.321 -0.4780  0.2973  0.3268
 8074SOL    HW135681   4.652   1.199  10.251 -1.0056  0.1853  0.0689
 8074SOL    HW235682   4.657   1.329  10.326 -0.6164  0.4302 -0.5596
 8075SOL     OW35683   3.735   0.040  11.486 -0.1018  0.0139 -0.4752
 8075SOL    HW135684   3.667   0.107  11.484 -0.2269 -0.0403  1.6108
 8075SOL    HW235685   3.809   0.082  11.443  0.3510  0.8216  1.1266
 8076SOL     OW35686   2.076   3.781   8.704 -0.2207  0.4132 -0.0745
 8076SOL    HW135687   2.022   3.846   8.750 -0.6383  1.1524 -1.5905
 8076SOL    HW235688   2.023   3.772   8.624  2.5021  0.6532 -1.9029
 8077SOL     OW35689   3.038   3.810   3.484  0.1372  0.4853 -0.4291
 8077SOL    HW135690   3.005   3.852   3.563  0.2719 -1.2510  0.5379
 8077SOL    HW235691   2.960   3.755   3.474  1.5687 -1.6104 -0.1110
 8078SOL     OW35692   0.978   1.646   7.890  0.2701 -0.3974 -0.3287
 8078SOL    HW135693   0.933   1.595   7.823 -4.1124  1.8047  0.9230
 8078SOL    HW235694   1.053   1.589   7.906 -0.3487 -1.3544 -0.7968
 8079SOL     OW35695   1.027   1.447  14.447  0.4975  0.0761  0.8322
 8079SOL    HW135696   1.100   1.473  14.391  0.0461  0.8004  0.5770
 8079SOL    HW235697   1.075   1.406  14.519  0.9922  0.9925  1.0320
 8080SOL     OW35698   4.603   1.258  16.512  0.0462  0.3728  0.3026
 8080SOL    HW135699   4.583   1.207  16.434  1.9134  3.4245 -2.1628
 8080SOL    HW235700   4.656   1.323  16.467  1.4474 -1.5344 -0.8007
 8081SOL     OW35701   0.161   2.260   6.913  0.4389 -0.1362 -0.4523
 8081SOL    HW135702   0.173   2.303   6.998  2.7474 -1.7120  0.0176
 8081SOL    HW235703   0.177   2.336   6.858  0.5568  1.2302  1.4788
 8082SOL     OW35704   4.013   0.298   8.099  0.2662 -0.8731 -0.5144
 8082SOL    HW135705   4.017   0.379   8.150 -0.7876  0.0756 -1.9315
 8082SOL    HW235706   3.919   0.282   8.110  0.2128 -1.0962 -1.3045
 8083SOL     OW35707   1.119   0.413   9.046 -0.1600  0.2037 -0.4072
 8083SOL    HW135708   1.064   0.492   9.052 -0.8203 -0.3277  0.5347
 8083SOL    HW235709   1.051   0.350   9.070  0.0634  0.0629 -0.1432
 8084SOL     OW35710   4.498   2.722  14.488 -0.5865 -0.2480 -0.2363
 8084SOL    HW135711   4.422   2.778  14.474  1.0890  1.6719 -1.6093
 8084SOL    HW235712   4.559   2.759  14.424  0.8577 -1.7358  0.2751
 8085SOL     OW35713   1.088   2.248  15.228  0.0668 -0.7873 -0.0828
 8085SOL    HW135714   1.112   2.161  15.196  3.0011  0.1443 -0.4566
 8085SOL    HW235715   0.995   2.262  15.216 -0.4776 -1.8053  2.9944
 8086SOL     OW35716   1.806   0.895   2.917 -0.0155  0.8461  0.3643
 8086SOL    HW135717   1.866   0.821   2.906  1.5969  2.0939  0.7017
 8086SOL    HW235718   1.809   0.916   3.011  1.3332 -2.4064  1.0733
 8087SOL     OW35719   4.650   2.966   7.957  0.2012  0.1132 -0.0278
 8087SOL    HW135720   4.719   2.964   8.023 -0.2980 -1.5008  0.4462
 8087SOL    HW235721   4.695   3.002   7.881  3.0858 -1.2981  0.9915
 8088SOL     OW35722   4.010   3.122   5.950 -0.3666  0.2796 -0.0363
 8088SOL    HW135723   3.923   3.157   5.930 -0.6392 -2.6548 -3.9658
 8088SOL    HW235724   4.034   3.183   6.020  0.0538 -0.3404  0.3513
 8089SOL     OW35725   3.853   4.158   5.576  0.3459 -0.3490  0.1725
 8089SOL    HW135726   3.938   4.156   5.533  0.8658 -1.0001  1.2336
 8089SOL    HW235727   3.851   4.248   5.610 -1.3063 -0.2382 -0.1985
 8090SOL     OW35728   0.790   0.138   2.739  0.2844 -0.0684 -0.2434
 8090SOL    HW135729   0.700   0.171   2.745  0.0772 -0.3024 -1.9103
 8090SOL    HW235730   0.790   0.075   2.811  1.5828  0.7233  0.4628
 8091SOL     OW35731   0.286   1.486   7.633 -0.0299  0.8732  0.6766
 8091SOL    HW135732   0.308   1.551   7.566  1.9273  0.2663  0.7369
 8091SOL    HW235733   0.242   1.535   7.703 -2.4025  0.4940 -0.5380
 8092SOL     OW35734   3.584   4.464   6.625  0.3328  0.1974  0.0227
 8092SOL    HW135735   3.658   4.435   6.679 -0.9045 -1.5039  0.7935
 8092SOL    HW235736   3.576   4.558   6.635 -0.5923  0.3318 -1.9875
 8093SOL     OW35737   1.727   4.124   5.748  0.4286  0.2896 -0.9595
 8093SOL    HW135738   1.720   4.118   5.653 -0.8681 -1.9517 -0.7386
 8093SOL    HW235739   1.681   4.046   5.781  0.8991  1.0861  1.5566
 8094SOL     OW35740   0.406   3.750   8.932 -0.3205  0.4601 -0.3220
 8094SOL    HW135741   0.466   3.785   8.997  0.0476  2.5067 -1.7691
 8094SOL    HW235742   0.455   3.800   8.866  0.1159 -1.3541 -1.3959
 8095SOL     OW35743   4.482   1.060   8.988 -0.3670  0.3369  0.3537
 8095SOL    HW135744   4.546   1.061   9.058  0.2827  1.8997 -0.2790
 8095SOL    HW235745   4.410   1.018   9.036 -1.5242  0.9650 -0.8311
 8096SOL     OW35746   1.389   2.546  14.893  0.4419  0.2989 -0.1390
 8096SOL    HW135747   1.371   2.626  14.845  2.2357  0.3821 -0.6635
 8096SOL    HW235748   1.411   2.563  14.985  1.1946 -0.7471 -0.1224
 8097SOL     OW35749   1.175   0.107   3.365 -0.5018 -0.3958  0.2395
 8097SOL    HW135750   1.107   0.043   3.386 -2.1031  0.5247 -2.1581
 8097SOL    HW235751   1.208   0.065   3.286 -0.2509  2.3302 -1.1188
 8098SOL     OW35752   2.928   4.048   0.496 -0.5582  0.5478 -0.7079
 8098SOL    HW135753   2.899   3.975   0.551 -2.3396  1.7512 -0.0483
 8098SOL    HW235754   3.021   4.035   0.514 -0.2707  3.7390  0.2627
 8099SOL     OW35755   4.590   3.286  11.101 -0.4440  0.2718 -0.6203
 8099SOL    HW135756   4.550   3.206  11.067 -1.2242 -0.7249  2.6159
 8099SOL    HW235757   4.515   3.332  11.138 -0.0461 -0.4851  1.1053
 8100SOL     OW35758   0.684   4.212   5.979  0.8387 -0.2392  0.3156
 8100SOL    HW135759   0.715   4.301   5.992 -1.7304  0.6341  0.4192
 8100SOL    HW235760   0.718   4.180   5.895 -2.2277 -0.9056 -0.6516
 8101SOL     OW35761   3.723   2.440   5.856 -0.1771 -0.1572  0.0180
 8101SOL    HW135762   3.741   2.516   5.800 -2.1346 -0.5592 -1.1690
 8101SOL    HW235763   3.636   2.456   5.894 -0.5100  1.0793 -1.2447
 8102SOL     OW35764   1.840   0.170  17.121  0.9766 -0.0862 -0.2147
 8102SOL    HW135765   1.777   0.124  17.178  0.6872  1.0731  0.4138
 8102SOL    HW235766   1.846   0.099  17.057  0.9157 -0.7146  0.4764
 8103SOL     OW35767   0.427   1.621  16.822  0.3116  0.2688  0.5289
 8103SOL    HW135768   0.419   1.620  16.918 -0.2211  0.9460  0.4868
 8103SOL    HW235769   0.492   1.551  16.816  1.1744  1.2736 -1.7659
 8104SOL     OW35770   1.692   1.116   5.663  0.4481  0.6036  0.1827
 8104SOL    HW135771   1.694   1.207   5.694  0.1007  0.5821  0.2653
 8104SOL    HW235772   1.615   1.079   5.706 -0.1925 -0.0630 -1.5083
 8105SOL     OW35773   2.669   3.563   2.760  0.0673 -0.3323 -0.2023
 8105SOL    HW135774   2.662   3.612   2.679 -3.6166 -2.4972 -1.1492
 8105SOL    HW235775   2.657   3.473   2.729  2.4254 -0.7497  0.0763
 8106SOL     OW35776   4.631   0.367  12.003  0.2459  0.0124 -0.1430
 8106SOL    HW135777   4.675   0.405  11.926 -1.4398 -0.1672 -1.2012
 8106SOL    HW235778   4.571   0.440  12.015  0.8680  0.6821 -1.1073
 8107SOL     OW35779   0.510   3.917  11.505 -0.4962  0.5364  0.1453
 8107SOL    HW135780   0.537   3.838  11.458 -0.7761  0.8766 -0.5858
 8107SOL    HW235781   0.597   3.950  11.527 -0.5277  1.0977 -0.5513
 8108SOL     OW35782   3.478   0.222   8.049  0.1481  0.5582  0.6447
 8108SOL    HW135783   3.456   0.265   7.966 -1.7795 -1.4115  0.1559
 8108SOL    HW235784   3.571   0.242   8.060  0.1650  1.0652 -0.3753
 8109SOL     OW35785   3.720   1.393  12.805 -0.3063  0.0503  0.1757
 8109SOL    HW135786   3.807   1.356  12.793  0.3724  0.8551  2.5698
 8109SOL    HW235787   3.738   1.486  12.794 -0.1904 -0.0417 -0.4229
 8110SOL     OW35788   1.932   1.460  11.501 -0.4195 -0.5637  0.2710
 8110SOL    HW135789   2.006   1.400  11.508 -0.1342 -0.3453 -0.9340
 8110SOL    HW235790   1.858   1.403  11.522  0.7941 -1.4711  2.0222
 8111SOL     OW35791   2.757   3.178   8.159 -0.4256 -0.0663 -0.0820
 8111SOL    HW135792   2.762   3.263   8.204 -1.1629 -0.4892  0.7974
 8111SOL    HW235793   2.748   3.199   8.066 -0.3029 -0.2020 -0.1230
 8112SOL     OW35794   4.061   1.191  10.205 -0.2427  0.7323 -0.0602
 8112SOL    HW135795   4.007   1.133  10.258 -0.2407  1.7545  1.0532
 8112SOL    HW235796   4.090   1.258  10.267  1.9449  1.5603 -1.9817
 8113SOL     OW35797   2.115   3.182  15.082 -0.2704 -0.1107  0.2189
 8113SOL    HW135798   2.092   3.089  15.084 -0.1406 -0.1504 -0.0400
 8113SOL    HW235799   2.102   3.220  15.168  2.9245  2.6431 -0.5239
 8114SOL     OW35800   3.250   3.778   7.583 -0.0659 -0.2214 -0.1164
 8114SOL    HW135801   3.249   3.856   7.526 -1.0193  1.0088  1.5720
 8114SOL    HW235802   3.298   3.713   7.532 -2.3431 -1.9492 -0.0570
 8115SOL     OW35803   0.683   1.095   3.084 -0.3680 -0.2376 -0.0545
 8115SOL    HW135804   0.642   1.143   3.012  0.0742 -2.1919 -1.6422
 8115SOL    HW235805   0.600   1.057   3.113 -1.3248  1.3674 -0.7048
 8116SOL     OW35806   4.108   0.367  12.451  0.6347  0.2633 -0.5869
 8116SOL    HW135807   4.021   0.327  12.457  1.8255 -2.2375 -0.0817
 8116SOL    HW235808   4.093   0.453  12.412 -0.3496  0.6086  0.5472
 8117SOL     OW35809   2.349   4.329   5.137  0.5851  0.1663  0.0921
 8117SOL    HW135810   2.439   4.305   5.117  0.8280  1.6269 -0.5550
 8117SOL    HW235811   2.297   4.249   5.127  2.8891 -1.1074 -1.7364
 8118SOL     OW35812   0.378   1.534   4.311  0.5687  0.2340 -0.1000
 8118SOL    HW135813   0.342   1.510   4.225 -1.6930  2.2627  0.2656
 8118SOL    HW235814   0.459   1.484   4.310  1.2222  1.2725  1.8100
 8119SOL     OW35815   0.053   3.794   7.651 -0.0694 -0.1264 -1.0044
 8119SOL    HW135816   0.083   3.884   7.635  0.0468  0.0221  0.0419
 8119SOL    HW235817   0.111   3.746   7.591  1.6586  1.3308 -0.5218
 8120SOL     OW35818   2.687   1.673   3.327 -0.1802  0.7641 -0.1593
 8120SOL    HW135819   2.775   1.669   3.290  0.0402  1.3989  0.3004
 8120SOL    HW235820   2.644   1.652   3.243 -0.2898 -1.3043  0.4090
 8121SOL     OW35821   1.341   1.203   7.735  0.3571  0.2893  0.0278
 8121SOL    HW135822   1.301   1.122   7.703 -0.9787  0.5770  0.9733
 8121SOL    HW235823   1.271   1.241   7.787 -0.0319 -0.7033  0.2248
 8122SOL     OW35824   3.765   0.441  16.595 -0.3525 -0.3298  0.2039
 8122SOL    HW135825   3.812   0.402  16.669  0.0753  0.4565  0.3406
 8122SOL    HW235826   3.822   0.512  16.566 -1.4183  0.9485  1.2362
 8123SOL     OW35827   2.578   0.500   8.181 -0.3394 -0.7702  0.2585
 8123SOL    HW135828   2.667   0.522   8.153 -1.2291  0.7404 -1.4417
 8123SOL    HW235829   2.523   0.561   8.132 -0.2293 -1.6992 -1.0283
 8124SOL     OW35830   1.662   4.684   2.943 -0.1632  0.4908  0.0235
 8124SOL    HW135831   1.622   4.717   3.023 -2.1700 -0.6604 -0.5108
 8124SOL    HW235832   1.627   0.020   2.877 -1.1663  0.4363  0.5108
 8125SOL     OW35833   2.762   3.349   7.174  0.4518  0.2784 -0.2223
 8125SOL    HW135834   2.736   3.435   7.141  4.3884  1.0410 -1.3517
 8125SOL    HW235835   2.686   3.305   7.137  1.9752 -2.8382  0.3557
 8126SOL     OW35836   0.739   4.606   8.862  0.4770 -0.0002  0.1048
 8126SOL    HW135837   0.720   4.539   8.927 -0.3241 -0.0421 -0.1799
 8126SOL    HW235838   0.739   4.688   8.912  2.8700 -0.0805  0.2599
 8127SOL     OW35839   3.995   1.602   1.262 -0.2930 -0.1140  0.3591
 8127SOL    HW135840   4.018   1.542   1.333 -1.2617 -1.5783 -0.5434
 8127SOL    HW235841   3.912   1.631   1.300  0.0859  0.7427  0.5162
 8128SOL     OW35842   2.291   0.115   5.004 -0.3552 -0.9240 -0.1517
 8128SOL    HW135843   2.339   0.188   5.042  0.7460 -1.2508 -0.9105
 8128SOL    HW235844   2.329   0.034   5.038 -0.5701 -1.6324 -1.6072
 8129SOL     OW35845   4.499   0.145   8.752  0.7575  0.0383  0.1139
 8129SOL    HW135846   4.424   0.188   8.710  2.0511  0.1048 -2.0800
 8129SOL    HW235847   4.546   0.219   8.790  0.0771  0.3067  0.4459
 8130SOL     OW35848   0.345   2.166   9.629 -0.0602 -0.5262  0.0704
 8130SOL    HW135849   0.290   2.127   9.561  0.9693 -2.1518  0.1847
 8130SOL    HW235850   0.434   2.147   9.600  0.2147  0.9346 -0.0719
 8131SOL     OW35851   2.729   2.713   5.154 -0.6548 -0.2885 -0.3702
 8131SOL    HW135852   2.700   2.752   5.236  0.4300 -1.6735  0.6814
 8131SOL    HW235853   2.687   2.770   5.090  0.5254  0.1665 -0.7402
 8132SOL     OW35854   4.014   2.998   6.345  0.3527 -0.2663  0.0848
 8132SOL    HW135855   4.088   3.045   6.307  0.8002 -1.1636 -0.1480
 8132SOL    HW235856   3.970   3.062   6.402  3.2686  0.3860  1.6231
 8133SOL     OW35857   4.582   2.457   5.772 -0.1128 -0.1690  0.2230
 8133SOL    HW135858   4.507   2.407   5.803 -2.1828  0.3040 -4.0051
 8133SOL    HW235859   4.548   2.521   5.710  0.8108 -0.7697 -0.9142
 8134SOL     OW35860   3.368   0.618   6.342  0.1687  0.5222  0.5367
 8134SOL    HW135861   3.355   0.567   6.262 -0.1633  0.3654  0.6908
 8134SOL    HW235862   3.279   0.623   6.379 -0.0485 -2.6943  0.4524
 8135SOL     OW35863   3.337   0.492   7.954 -0.3123  0.4071 -0.5262
 8135SOL    HW135864   3.412   0.545   7.980  1.1162 -0.7147 -2.4499
 8135SOL    HW235865   3.265   0.531   8.005  1.1861  1.3798  0.8484
 8136SOL     OW35866   2.714   0.145   8.259 -0.3820  0.1741 -0.1245
 8136SOL    HW135867   2.784   0.171   8.319 -1.9782  2.8040  0.5815
 8136SOL    HW235868   2.733   0.199   8.183  0.8234 -0.8065 -0.5216
 8137SOL     OW35869   4.294   2.327   2.657  0.1035  0.3322  0.1636
 8137SOL    HW135870   4.208   2.369   2.650 -0.3493 -0.6554 -0.1322
 8137SOL    HW235871   4.296   2.283   2.572  1.2472  1.1062 -0.2107
 8138SOL     OW35872   2.581   2.021   6.243 -0.1446  0.3199 -0.1144
 8138SOL    HW135873   2.512   2.078   6.208  1.3530  2.8999  1.1421
 8138SOL    HW235874   2.532   1.940   6.254 -0.3702  0.7488  2.1772
 8139SOL     OW35875   4.168   2.934  15.229  0.4340  0.0095  0.1238
 8139SOL    HW135876   4.108   3.000  15.262  1.3442  1.5517 -1.2871
 8139SOL    HW235877   4.250   2.981  15.210  0.7919  0.3976  2.5943
 8140SOL     OW35878   0.975   4.523   4.129  0.1184 -0.4546 -0.6241
 8140SOL    HW135879   0.879   4.525   4.134  0.1474 -0.3181 -0.1388
 8140SOL    HW235880   0.998   4.464   4.201 -0.1625 -0.1308 -0.2669
 8141SOL     OW35881   0.923   2.573  10.941 -0.0653  0.2569 -0.1276
 8141SOL    HW135882   0.856   2.517  10.980  0.7284 -0.7080 -0.1399
 8141SOL    HW235883   0.922   2.546  10.849  0.7899 -0.2141  0.0053
 8142SOL     OW35884   0.441   3.304   4.187  0.0581  0.4672 -0.2097
 8142SOL    HW135885   0.455   3.216   4.221 -1.2502  0.7134  0.9279
 8142SOL    HW235886   0.354   3.330   4.217 -0.2248 -0.2211 -0.4474
 8143SOL     OW35887   3.436   4.107   2.463 -0.0792 -0.2141 -0.1758
 8143SOL    HW135888   3.502   4.160   2.508 -0.3499  1.8050 -2.1270
 8143SOL    HW235889   3.494   4.048   2.415  0.9353  2.7746 -2.6872
 8144SOL     OW35890   2.782   4.070  13.086 -0.3929  0.2189  0.2697
 8144SOL    HW135891   2.854   4.133  13.087 -0.4227  0.2415  1.8067
 8144SOL    HW235892   2.822   4.010  13.023  0.9496 -0.3711  1.6991
 8145SOL     OW35893   2.941   4.704   3.909  0.1629  0.4059 -0.5908
 8145SOL    HW135894   2.951   4.611   3.925  1.3381  0.6866  0.2921
 8145SOL    HW235895   3.033   0.005   3.899  0.4034  0.2735  1.3349
 8146SOL     OW35896   0.238   0.578   2.952 -0.9903  0.2591 -0.5554
 8146SOL    HW135897   0.305   0.540   2.894 -0.6164 -1.0424  0.7324
 8146SOL    HW235898   0.273   0.666   2.944  0.3786 -0.2591 -0.3293
 8147SOL     OW35899   2.792   2.899   9.113  1.0164  1.1805 -0.0110
 8147SOL    HW135900   2.827   2.887   9.202 -1.2740 -1.1220  0.6020
 8147SOL    HW235901   2.790   2.994   9.124 -0.0974  1.1400  0.2050
 8148SOL     OW35902   3.530   3.911   1.907  0.5116  0.4407 -0.4280
 8148SOL    HW135903   3.604   3.851   1.905 -1.5018 -2.0563  0.4290
 8148SOL    HW235904   3.510   3.905   1.813 -0.3537  0.0213 -0.2207
 8149SOL     OW35905   1.494   3.959  16.119 -0.5207 -0.0939  0.3155
 8149SOL    HW135906   1.495   3.865  16.103  1.2740  0.0149 -0.2155
 8149SOL    HW235907   1.539   3.991  16.041 -0.5401 -0.0380  0.3268
 8150SOL     OW35908   2.022   4.640   1.607  0.5292  0.1340 -0.2127
 8150SOL    HW135909   1.959   4.569   1.619  0.6137 -0.0100 -0.6088
 8150SOL    HW235910   2.043   4.624   1.515 -0.1786 -0.4552 -0.2707
 8151SOL     OW35911   1.791   2.951   6.307  0.0211 -0.6076  0.2216
 8151SOL    HW135912   1.708   2.951   6.354 -0.1888  1.8910 -0.1551
 8151SOL    HW235913   1.768   2.963   6.215  0.2717 -2.9746 -0.1396
 8152SOL     OW35914   3.288   3.652   2.955 -0.6546 -0.1305  0.0941
 8152SOL    HW135915   3.359   3.716   2.952 -1.3066  0.6267  0.9797
 8152SOL    HW235916   3.244   3.679   2.874  1.5309  0.2334 -0.9736
 8153SOL     OW35917   2.980   0.529   4.899  0.1576  0.0124 -0.1849
 8153SOL    HW135918   3.075   0.518   4.895 -0.0558 -0.4077 -3.3781
 8153SOL    HW235919   2.954   0.482   4.820  0.1804 -0.2190 -0.0564
 8154SOL     OW35920   3.962   1.369   5.019  0.0826 -0.4565 -0.3838
 8154SOL    HW135921   3.978   1.430   4.946  0.4061  0.5734  0.5581
 8154SOL    HW235922   4.048   1.328   5.027 -2.0434 -4.9967 -0.4983
 8155SOL     OW35923   3.797   0.421   1.574  0.2607 -0.3946 -0.3576
 8155SOL    HW135924   3.716   0.402   1.526 -0.7844  1.5325  0.6478
 8155SOL    HW235925   3.858   0.353   1.546  0.1632 -0.6263 -0.0166
 8156SOL     OW35926   2.743   1.343   1.007  1.0786  0.6857  0.5704
 8156SOL    HW135927   2.838   1.345   1.020  0.9841 -0.6054  1.5032
 8156SOL    HW235928   2.744   1.270   0.944  2.1016 -0.8015  2.3134
 8157SOL     OW35929   2.310   3.443   3.048  0.1658  0.4501 -0.6727
 8157SOL    HW135930   2.384   3.503   3.059 -0.3347  0.8948  0.2190
 8157SOL    HW235931   2.240   3.473   3.106  0.8878 -0.8303  0.8569
 8158SOL     OW35932   2.345   3.398   3.405 -0.1806  0.0150 -0.2817
 8158SOL    HW135933   2.251   3.390   3.388 -0.4236 -1.5732  1.8594
 8158SOL    HW235934   2.361   3.308   3.375 -0.5418 -1.0062  2.6658
 8159SOL     OW35935   3.849   1.573  14.656 -0.3700  0.2278  1.0519
 8159SOL    HW135936   3.820   1.515  14.726 -2.7721  0.2990  0.1419
 8159SOL    HW235937   3.940   1.546  14.646  0.3007  3.5376 -1.6128
 8160SOL     OW35938   1.403   3.684   2.644 -0.4492  0.2423 -0.5930
 8160SOL    HW135939   1.487   3.639   2.653 -0.6607  0.3023  1.8156
 8160SOL    HW235940   1.419   3.741   2.569 -1.5382  2.0309  0.5269
 8161SOL     OW35941   4.000   0.984   3.153  0.7140  0.4094 -0.5671
 8161SOL    HW135942   4.073   1.030   3.195  0.6592 -1.6881  1.7529
 8161SOL    HW235943   3.929   0.982   3.217  1.6754 -0.8098  0.4539
 8162SOL     OW35944   1.483   0.087   6.662 -0.1251  0.5313  0.2423
 8162SOL    HW135945   1.512   0.013   6.607  2.0586  0.1871  1.8489
 8162SOL    HW235946   1.392   0.063   6.675  0.2464 -0.9711  0.0592
 8163SOL     OW35947   4.599   0.248   9.628 -0.4827 -0.2534 -0.5194
 8163SOL    HW135948   4.580   0.155   9.614 -0.3297 -0.2785 -0.5523
 8163SOL    HW235949   4.690   0.254   9.655 -0.6289 -1.0073  0.1280
 8164SOL     OW35950   3.801   0.445   4.596  0.1164 -0.2824 -0.3576
 8164SOL    HW135951   3.723   0.500   4.592 -1.6745 -2.8807 -1.7616
 8164SOL    HW235952   3.864   0.500   4.551  0.5043 -0.2628  0.2050
 8165SOL     OW35953   4.280   2.600   0.152 -0.0209 -0.1714  0.0007
 8165SOL    HW135954   4.242   2.593   0.239 -0.4937  1.6867 -0.0698
 8165SOL    HW235955   4.305   2.689   0.129  1.8441 -0.2426  1.7441
 8166SOL     OW35956   4.319   1.101   7.785 -0.2934  0.0396  0.2207
 8166SOL    HW135957   4.325   1.082   7.692  0.3074  0.9044  0.0800
 8166SOL    HW235958   4.327   1.019   7.833 -0.3010 -1.4859 -2.4186
 8167SOL     OW35959   2.303   2.538   0.919 -0.6260 -0.3235  0.5099
 8167SOL    HW135960   2.229   2.482   0.899 -0.6771  0.1746 -0.6893
 8167SOL    HW235961   2.273   2.619   0.878 -1.6100 -0.7201  0.4605
 8168SOL     OW35962   3.009   0.138  12.798 -0.0093  0.3142  0.5262
 8168SOL    HW135963   3.064   0.164  12.872  2.3554 -0.7996 -0.8016
 8168SOL    HW235964   2.947   0.209  12.785 -1.5898 -1.4204 -1.4324
 8169SOL     OW35965   1.103   1.085  15.741 -0.2152  0.0188  0.7036
 8169SOL    HW135966   1.089   1.043  15.826 -0.8571  0.3689  0.7700
 8169SOL    HW235967   1.028   1.063  15.686 -1.0531  2.9607  0.6798
 8170SOL     OW35968   2.597   0.170   4.537 -0.4978 -0.2914 -0.2745
 8170SOL    HW135969   2.673   0.204   4.490  1.0987 -2.1003  0.9891
 8170SOL    HW235970   2.569   0.094   4.486  0.0513 -0.2627 -0.6236
 8171SOL     OW35971   1.218   2.613   8.439  0.3456  0.3484 -0.5624
 8171SOL    HW135972   1.184   2.626   8.350  0.1423 -0.7174 -0.6428
 8171SOL    HW235973   1.149   2.663   8.481  0.4757 -1.8651  2.2651
 8172SOL     OW35974   0.141   1.223  13.615  0.3885  0.1016 -0.0880
 8172SOL    HW135975   0.161   1.173  13.536  0.8155  1.3209 -0.7467
 8172SOL    HW235976   0.110   1.155  13.674 -1.6912  0.4506 -0.7681
 8173SOL     OW35977   1.973   4.684   7.796 -0.3936  0.9970 -0.0608
 8173SOL    HW135978   2.041   4.685   7.728 -1.2236  0.3352 -0.8998
 8173SOL    HW235979   1.953   4.590   7.797 -0.1920  0.9301 -1.8004
 8174SOL     OW35980   1.520   1.825   5.964 -0.0749 -0.0829 -0.8998
 8174SOL    HW135981   1.605   1.790   5.989 -0.6382  0.1404  1.3297
 8174SOL    HW235982   1.548   1.898   5.909 -0.8941 -0.7116 -2.1326
 8175SOL     OW35983   1.579   0.477  11.478 -0.0527 -0.3935  0.4023
 8175SOL    HW135984   1.652   0.449  11.532  0.2039  1.7569  1.1385
 8175SOL    HW235985   1.619   0.456  11.393 -0.1519 -0.6649  0.4209
 8176SOL     OW35986   0.893   1.771  11.743 -0.4067 -0.1983  0.9222
 8176SOL    HW135987   0.922   1.757  11.654  3.1314  0.9561  1.9169
 8176SOL    HW235988   0.856   1.860  11.739  0.1995 -0.0581 -1.1512
 8177SOL     OW35989   1.821   3.507   5.484  0.2555 -0.5409  0.8118
 8177SOL    HW135990   1.899   3.458   5.457 -1.4596 -2.7432 -0.1202
 8177SOL    HW235991   1.796   3.533   5.395 -2.6030  0.2894  1.8596
 8178SOL     OW35992   3.843   2.195   8.629  0.1229 -0.4694  0.0602
 8178SOL    HW135993   3.877   2.190   8.539  0.3218 -2.7895  0.2577
 8178SOL    HW235994   3.767   2.136   8.628  0.2613 -0.6574  0.4294
 8179SOL     OW35995   0.810   2.061   2.780  0.4127 -0.4146  0.5491
 8179SOL    HW135996   0.816   2.104   2.695  0.2898  0.7712  1.1313
 8179SOL    HW235997   0.830   1.971   2.754  3.3142  0.4099 -0.0525
 8180SOL     OW35998   0.937   0.855   8.048  0.5517 -0.6644 -0.1408
 8180SOL    HW135999   0.889   0.914   8.106 -1.8532  0.7190 -3.5203
 8180SOL    HW236000   1.013   0.909   8.028  0.5987 -1.2180 -1.4703
 8181SOL     OW36001   4.295   2.413  14.176 -0.2556 -0.1925 -0.5162
 8181SOL    HW136002   4.223   2.354  14.152 -0.5789 -0.6093  1.4747
 8181SOL    HW236003   4.278   2.489  14.120  2.6591  0.5127 -0.4144
 8182SOL     OW36004   0.591   4.332   3.514  0.3730 -0.0533  0.2485
 8182SOL    HW136005   0.651   4.324   3.440 -0.5499  0.7565 -0.5937
 8182SOL    HW236006   0.574   4.426   3.506 -2.0534 -0.5959 -1.1451
 8183SOL     OW36007   2.032   3.740   8.413  0.1733 -0.1372 -0.2071
 8183SOL    HW136008   2.099   3.807   8.403  2.1743 -2.1700 -0.2911
 8183SOL    HW236009   1.966   3.787   8.362 -0.3570  0.2848  0.8585
 8184SOL     OW36010   1.259   0.732   5.642  0.7366 -0.3483  0.2306
 8184SOL    HW136011   1.305   0.752   5.723 -2.1294  1.1765  1.4932
 8184SOL    HW236012   1.332   0.721   5.582  0.1408 -0.1297 -0.5384
 8185SOL     OW36013   1.397   4.252   7.150 -0.0031 -0.5464 -0.1070
 8185SOL    HW136014   1.488   4.224   7.161 -0.0663 -0.4896  0.5955
 8185SOL    HW236015   1.413   4.322   7.087 -0.4376  0.8798  1.3631
 8186SOL     OW36016   4.718   4.654   4.968  0.3464 -0.2462 -0.1113
 8186SOL    HW136017   0.086   4.630   4.975  0.4751 -0.6409 -3.1957
 8186SOL    HW236018   4.708   4.704   5.050 -0.8912 -0.1864 -0.2983
 8187SOL     OW36019   2.196   3.929   6.020  0.1865 -0.3258  0.0360
 8187SOL    HW136020   2.133   3.878   6.071 -0.7680  0.3451 -0.4726
 8187SOL    HW236021   2.145   3.955   5.944  0.6545  1.7644  0.4517
 8188SOL     OW36022   1.088   4.268  11.668  0.6553  0.4702  0.0072
 8188SOL    HW136023   0.997   4.294  11.680  0.3922 -1.2127  1.7284
 8188SOL    HW236024   1.087   4.175  11.645  1.4540  0.5273 -0.2737
 8189SOL     OW36025   2.791   3.211   4.316  0.5985 -0.1058  0.2445
 8189SOL    HW136026   2.728   3.266   4.363  0.6548 -0.8876  1.2336
 8189SOL    HW236027   2.793   3.132   4.370  0.0027 -1.1505 -1.2650
 8190SOL     OW36028   2.799   4.419   3.741  0.2632 -0.8575 -0.2365
 8190SOL    HW136029   2.792   4.338   3.691  0.7788 -1.5633  0.8452
 8190SOL    HW236030   2.792   4.382   3.829 -0.7383  0.2501  0.1524
 8191SOL     OW36031   2.848   1.574   9.048 -0.5720 -0.3169 -0.1093
 8191SOL    HW136032   2.889   1.583   9.135 -1.8089 -0.1718  0.4626
 8191SOL    HW236033   2.770   1.523   9.069 -0.2369 -0.6223  0.4058
 8192SOL     OW36034   3.457   2.290   9.217  0.2721 -0.2793  0.1100
 8192SOL    HW136035   3.522   2.250   9.274  0.1290 -1.4366 -0.5282
 8192SOL    HW236036   3.380   2.299   9.273 -0.7188 -1.1322 -1.1137
 8193SOL     OW36037   3.809   4.185   6.380  0.0011 -0.2325  0.1564
 8193SOL    HW136038   3.853   4.172   6.464  0.4788 -2.6208 -0.4647
 8193SOL    HW236039   3.715   4.195   6.392  0.4288  1.4941  2.0489
 8194SOL     OW36040   4.687   3.077   4.010 -0.9756  0.2547 -0.6488
 8194SOL    HW136041   4.703   3.055   3.919  0.0946 -1.4911 -0.0371
 8194SOL    HW236042   4.692   2.990   4.050 -1.6656  0.5750  0.1335
 8195SOL     OW36043   1.604   0.631   5.895 -0.9647 -0.6531  0.7750
 8195SOL    HW136044   1.558   0.712   5.914 -1.0203  0.1959 -3.0410
 8195SOL    HW236045   1.592   0.623   5.800 -3.3940 -0.1507  1.0435
 8196SOL     OW36046   4.401   4.419   2.487  0.3183  0.1215 -0.1114
 8196SOL    HW136047   4.328   4.413   2.425  0.2354 -0.2064  0.0171
 8196SOL    HW236048   4.418   4.513   2.490 -1.3458  0.3726  1.5689
 8197SOL     OW36049   1.072   1.595   2.405 -0.6307 -0.6874 -0.6168
 8197SOL    HW136050   1.132   1.520   2.402  0.9402  0.4436  2.6103
 8197SOL    HW236051   1.054   1.623   2.315 -0.7417  0.2823 -0.2915
 8198SOL     OW36052   1.837   1.348   2.630  0.2556 -0.3982  0.0588
 8198SOL    HW136053   1.824   1.314   2.541  0.1858  1.3355 -0.5783
 8198SOL    HW236054   1.929   1.331   2.651  0.6259 -0.5383 -1.6982
 8199SOL     OW36055   2.263   0.719   7.741  0.3288 -0.1195  0.2482
 8199SOL    HW136056   2.222   0.762   7.816  0.4849 -0.5061  0.5540
 8199SOL    HW236057   2.344   0.682   7.775  0.4398  0.3827  0.5296
 8200SOL     OW36058   4.487   1.710   6.499  0.4221  0.3281  0.3005
 8200SOL    HW136059   4.416   1.660   6.458 -0.0697  1.0234  0.2995
 8200SOL    HW236060   4.440   1.794   6.501  0.9916  0.6584  0.1252
 8201SOL     OW36061   2.502   0.003  10.733  0.5485  0.3020  0.1548
 8201SOL    HW136062   2.565   4.690  10.795 -1.9209 -1.9503  1.3086
 8201SOL    HW236063   2.500   0.097  10.752  1.6408  0.4741 -0.5783
 8202SOL     OW36064   2.929   3.274  10.107  0.1871 -0.0190  0.0910
 8202SOL    HW136065   2.880   3.329  10.169 -0.7626 -1.2930  0.4510
 8202SOL    HW236066   2.993   3.339  10.076  0.3799 -1.1076 -1.7864
 8203SOL     OW36067   3.539   2.235  13.368 -0.4603 -0.6451  0.0975
 8203SOL    HW136068   3.490   2.317  13.369  3.1969  1.4785  2.2283
 8203SOL    HW236069   3.599   2.252  13.295  0.1284 -0.0690  0.7242
 8204SOL     OW36070   1.429   0.605  13.188  0.2385  0.4256 -0.1584
 8204SOL    HW136071   1.386   0.580  13.269 -1.5055  0.6171 -1.0142
 8204SOL    HW236072   1.462   0.521  13.155  0.0034  0.4715 -0.5073
 8205SOL     OW36073   1.886   4.450   6.346  0.0192 -0.3965 -0.1693
 8205SOL    HW136074   1.873   4.490   6.432  0.3551 -1.7934  0.5233
 8205SOL    HW236075   1.979   4.473   6.341  0.1051 -0.4860  0.9993
 8206SOL     OW36076   2.898   1.998   6.766  0.2393 -0.2409 -0.0655
 8206SOL    HW136077   2.858   2.075   6.727  2.8984 -0.1957 -2.6936
 8206SOL    HW236078   2.912   1.939   6.691  2.5624  1.2899 -0.8286
 8207SOL     OW36079   1.426   1.657   3.437 -0.3337 -0.4574 -0.4498
 8207SOL    HW136080   1.348   1.618   3.476  0.6811 -1.8457  0.1703
 8207SOL    HW236081   1.477   1.582   3.405 -0.1236 -0.3235 -0.4297
 8208SOL     OW36082   0.897   1.574   3.529 -0.1785 -0.3329  0.3554
 8208SOL    HW136083   0.942   1.590   3.612  1.5496  0.8530 -0.7869
 8208SOL    HW236084   0.868   1.664   3.517  0.6254 -0.0700  0.3689
 8209SOL     OW36085   0.383   2.898   1.586  0.1903  0.6088 -0.1763
 8209SOL    HW136086   0.370   2.894   1.491 -0.7718 -0.1472 -0.0046
 8209SOL    HW236087   0.397   2.804   1.598 -1.2367  0.0634 -2.6588
 8210SOL     OW36088   2.284   4.420   8.534 -0.1800  0.0091  0.1419
 8210SOL    HW136089   2.260   4.334   8.501 -0.8543  0.0152  0.6296
 8210SOL    HW236090   2.372   4.402   8.568  0.4653  3.2345  0.2171
 8211SOL     OW36091   0.345   0.014   8.008 -0.4357  0.0056  0.6818
 8211SOL    HW136092   0.425   4.705   7.966 -1.5171  3.3234 -3.8937
 8211SOL    HW236093   0.323   0.072   7.936 -0.0864 -0.1835  0.4215
 8212SOL     OW36094   0.303   0.305  11.992 -0.1932  0.7049 -0.1179
 8212SOL    HW136095   0.258   0.334  12.071 -0.3272 -2.0778  0.8349
 8212SOL    HW236096   0.382   0.354  12.015  0.1291 -0.3239  0.9305
 8213SOL     OW36097   3.487   1.187   3.078 -0.3196  0.0721 -0.7791
 8213SOL    HW136098   3.455   1.195   3.168  1.8310  1.2968 -0.1162
 8213SOL    HW236099   3.405   1.170   3.031 -0.6040 -1.9277  0.4360
 8214SOL     OW36100   0.184   3.658   9.029  0.1344  0.3704  0.0995
 8214SOL    HW136101   0.260   3.663   8.972  1.1784  1.8504  1.6177
 8214SOL    HW236102   0.205   3.734   9.083 -1.9553 -0.4032  2.0217
 8215SOL     OW36103   1.868   0.226  11.102 -0.6040  0.9454 -0.2766
 8215SOL    HW136104   1.795   0.264  11.053  1.5138  2.3841 -2.3337
 8215SOL    HW236105   1.943   0.241  11.045  0.3354 -0.8065  0.4959
 8216SOL     OW36106   1.489   4.490  15.280 -0.3937  0.0525 -0.0870
 8216SOL    HW136107   1.397   4.463  15.286 -0.3871  0.3747  1.6948
 8216SOL    HW236108   1.533   4.407  15.295  0.1346  0.1741 -0.9618
 8217SOL     OW36109   3.402   4.373   2.916  0.6313  0.4987 -0.3123
 8217SOL    HW136110   3.370   4.453   2.874  1.9625  1.2070  0.0294
 8217SOL    HW236111   3.494   4.373   2.890  0.4706  1.6282 -0.9077
 8218SOL     OW36112   2.523   4.374   7.851  0.2480  0.2082  0.2022
 8218SOL    HW136113   2.455   4.441   7.853  1.0615  0.9502  2.8189
 8218SOL    HW236114   2.470   4.295   7.838  0.5851 -0.1180  0.8284
 8219SOL     OW36115   4.201   2.077   0.116 -0.5195 -0.0900 -0.6799
 8219SOL    HW136116   4.165   2.075   0.027 -0.7509  0.5077 -0.5997
 8219SOL    HW236117   4.223   2.170   0.123  1.6518 -0.6892  0.4406
 8220SOL     OW36118   0.925   4.181   1.972 -0.6731  0.0597  0.0719
 8220SOL    HW136119   0.875   4.253   2.010  0.8148 -0.6046  3.2236
 8220SOL    HW236120   0.851   4.143   1.924 -0.5551 -0.0188 -0.0502
 8221SOL     OW36121   3.320   1.334   7.984  0.0427  0.0351 -0.6629
 8221SOL    HW136122   3.369   1.253   7.968  1.0819  0.9838 -2.3038
 8221SOL    HW236123   3.361   1.364   8.066 -0.0820 -0.9924 -0.2313
 8222SOL     OW36124   0.795   1.161  14.663  0.1618  0.5007  0.3013
 8222SOL    HW136125   0.819   1.244  14.623 -2.0822  0.9382 -0.1763
 8222SOL    HW236126   0.872   1.106  14.652 -0.2612 -0.3794  1.7625
 8223SOL     OW36127   0.438   3.466   8.358 -0.0010 -0.0539  0.1960
 8223SOL    HW136128   0.462   3.540   8.302 -1.9260 -0.1392 -0.7668
 8223SOL    HW236129   0.499   3.475   8.431 -0.2246  0.7756  0.2786
 8224SOL     OW36130   0.996   3.887   1.827 -0.8446  0.3109  0.4079
 8224SOL    HW136131   0.942   3.961   1.851 -3.0462 -0.6146 -1.6900
 8224SOL    HW236132   0.976   3.889   1.734  1.3369  0.0825 -0.0752
 8225SOL     OW36133   2.260   4.344   2.555 -0.1995  0.1230 -0.0110
 8225SOL    HW136134   2.173   4.328   2.519 -0.0213 -0.7994 -0.0350
 8225SOL    HW236135   2.306   4.260   2.549  2.0357  1.5526 -3.1997
 8226SOL     OW36136   1.266   4.708   1.333  0.3643  0.1786 -0.0230
 8226SOL    HW136137   1.243   0.003   1.424 -2.3696 -1.7572 -0.3056
 8226SOL    HW236138   1.277   4.613   1.337  1.3778  0.2891 -0.2416
 8227SOL     OW36139   3.729   1.434  14.857 -0.6838 -0.2868  0.2334
 8227SOL    HW136140   3.644   1.455  14.895  0.8372  1.8845  2.4173
 8227SOL    HW236141   3.739   1.344  14.887 -1.0255 -0.0899  0.9389
 8228SOL     OW36142   3.446   2.651  12.198 -0.2736  0.7789  0.5683
 8228SOL    HW136143   3.408   2.636  12.112  0.4542 -0.1435  0.4164
 8228SOL    HW236144   3.383   2.707  12.244  1.4091  0.7815  2.8868
 8229SOL     OW36145   0.987   0.969   3.662  0.1669 -0.4175  0.0626
 8229SOL    HW136146   0.902   0.991   3.701  1.2692  1.8753  1.1973
 8229SOL    HW236147   1.057   0.996   3.722  1.4466 -1.3310 -1.0506
 8230SOL     OW36148   4.189   1.575   6.080 -0.4404 -0.1346  0.8471
 8230SOL    HW136149   4.246   1.528   6.020  0.9567  1.3231  1.0380
 8230SOL    HW236150   4.113   1.517   6.077  1.5865 -2.7591 -0.0856
 8231SOL     OW36151   3.754   2.903   4.982 -0.1662 -0.7585  0.8814
 8231SOL    HW136152   3.819   2.875   5.046  1.4327 -0.0826 -0.4599
 8231SOL    HW236153   3.702   2.823   4.994  1.2720 -2.0498 -1.5979
 8232SOL     OW36154   1.725   4.023   6.316 -0.4946  0.3107  0.2373
 8232SOL    HW136155   1.815   4.004   6.343 -0.3047 -1.3875 -1.5836
 8232SOL    HW236156   1.741   4.103   6.267 -0.9710 -0.0538 -0.5069
 8233SOL     OW36157   4.666   3.427   2.899  0.2308  0.3401 -0.1191
 8233SOL    HW136158   4.617   3.366   2.844  0.5157  1.2515 -1.3791
 8233SOL    HW236159   4.593   3.461   2.950  0.1747 -1.4998  1.0346
 8234SOL     OW36160   4.560   0.521   3.052  0.2843 -0.0931  0.0508
 8234SOL    HW136161   4.495   0.545   3.117 -0.0575  2.0893 -1.0908
 8234SOL    HW236162   4.645   0.520   3.095 -1.1548 -2.1779  2.8268
 8235SOL     OW36163   3.548   1.915   1.960  0.4613  0.4372 -0.0405
 8235SOL    HW136164   3.532   2.001   1.922  0.4182  0.4819  0.0777
 8235SOL    HW236165   3.576   1.925   2.051 -1.2963  0.2288  0.5337
 8236SOL     OW36166   1.824   0.473  13.449 -0.5959 -0.0445  0.2180
 8236SOL    HW136167   1.900   0.530  13.444  0.7029 -1.7895  0.3119
 8236SOL    HW236168   1.857   0.406  13.510 -1.8159  0.0846  1.0374
 8237SOL     OW36169   3.122   2.732   0.546 -0.0765 -0.1878  0.2060
 8237SOL    HW136170   3.131   2.803   0.610 -3.2850 -0.2956  0.7672
 8237SOL    HW236171   3.216   2.719   0.536 -0.1610 -1.3236  0.8657
 8238SOL     OW36172   0.785   1.071   8.123 -0.2980  0.7378  0.0267
 8238SOL    HW136173   0.841   1.108   8.191 -0.6285  1.7546 -0.2629
 8238SOL    HW236174   0.732   1.145   8.095 -2.4817 -0.0052  2.2076
 8239SOL     OW36175   2.101   3.657   2.668  0.1457  0.6884 -0.2358
 8239SOL    HW136176   2.176   3.598   2.674  0.5103  1.1914  0.0961
 8239SOL    HW236177   2.063   3.646   2.580  1.4403  1.6699 -0.9277
 8240SOL     OW36178   3.227   0.993   9.477 -0.2639 -0.8392 -0.6399
 8240SOL    HW136179   3.197   1.083   9.468  1.8794 -0.4156 -3.5078
 8240SOL    HW236180   3.218   0.964   9.386 -1.7072  1.4649 -1.2471
 8241SOL     OW36181   3.427   2.206  15.277  0.0071  0.6162 -1.1210
 8241SOL    HW136182   3.396   2.294  15.253  3.2982  1.1221 -3.5386
 8241SOL    HW236183   3.472   2.210  15.362 -1.0122 -0.4096 -0.5381
 8242SOL     OW36184   3.869   3.763  10.540 -0.2995 -0.1730 -0.1378
 8242SOL    HW136185   3.818   3.684  10.525 -0.9033  0.1854  0.0508
 8242SOL    HW236186   3.901   3.776  10.450 -1.4731 -0.5962 -0.6133
 8243SOL     OW36187   3.438   0.236   1.681 -0.0639 -0.1312  0.9047
 8243SOL    HW136188   3.420   0.159   1.735  2.6393 -2.2666 -1.2612
 8243SOL    HW236189   3.365   0.235   1.620  1.0005  0.5688 -0.3807
 8244SOL     OW36190   3.199   3.611  11.054 -0.1635 -0.1881 -0.1918
 8244SOL    HW136191   3.261   3.684  11.058  0.9518 -1.3212  3.2308
 8244SOL    HW236192   3.118   3.660  11.041  1.1313  1.4446 -2.1816
 8245SOL     OW36193   3.007   1.162   3.913  0.2005  0.1223 -0.3900
 8245SOL    HW136194   2.913   1.175   3.898 -0.2253 -2.4268  0.0075
 8245SOL    HW236195   2.999   1.079   3.962 -1.6927 -0.3231 -1.4514
 8246SOL     OW36196   4.218   4.195   1.380  0.1058 -0.5653  0.2216
 8246SOL    HW136197   4.299   4.158   1.346  1.4446  1.1706  1.5222
 8246SOL    HW236198   4.249   4.285   1.388  2.6024 -1.3885 -0.3526
 8247SOL     OW36199   0.750   3.052   9.091  0.3725  0.1969 -0.9379
 8247SOL    HW136200   0.674   3.058   9.150 -0.2166  0.6062 -1.7306
 8247SOL    HW236201   0.710   3.006   9.017  0.6055  0.7953 -1.4376
 8248SOL     OW36202   1.291   3.486  12.076  0.1783 -0.3771 -0.6899
 8248SOL    HW136203   1.208   3.439  12.076  0.9950 -1.8240 -0.0304
 8248SOL    HW236204   1.324   3.459  11.990  0.8517  1.1885 -0.9287
 8249SOL     OW36205   2.530   1.635   6.650 -0.2741  0.0210  0.2171
 8249SOL    HW136206   2.606   1.613   6.703 -0.0247 -1.1807 -0.6370
 8249SOL    HW236207   2.532   1.572   6.578  0.2802  0.9674 -0.5841
 8250SOL     OW36208   1.009   0.537   4.813 -0.4072 -0.2234  0.0029
 8250SOL    HW136209   1.077   0.536   4.746 -0.4268 -0.1763 -0.0176
 8250SOL    HW236210   1.040   0.599   4.879 -2.9035 -0.4753  1.4195
 8251SOL     OW36211   2.923   1.352  16.692  1.3436 -0.1367 -0.2013
 8251SOL    HW136212   2.906   1.267  16.653  2.5491 -0.6227  0.3182
 8251SOL    HW236213   2.860   1.359  16.763  1.0109  2.5142 -0.7610
 8252SOL     OW36214   1.495   0.625   3.190  0.3609 -0.2267 -0.1539
 8252SOL    HW136215   1.447   0.607   3.109 -0.9631  0.6578  0.4477
 8252SOL    HW236216   1.509   0.719   3.182  3.0435 -0.4710  1.7261
 8253SOL     OW36217   1.488   0.060  11.135  0.7459 -0.9116  0.2809
 8253SOL    HW136218   1.426   0.008  11.186  0.8769 -1.1861  0.1558
 8253SOL    HW236219   1.441   0.140  11.109  0.6075 -0.4805  1.8890
 8254SOL     OW36220   3.922   2.835  11.389  0.8592 -0.3823  0.2794
 8254SOL    HW136221   3.914   2.782  11.468  0.0825 -1.0431 -0.2413
 8254SOL    HW236222   3.828   2.850  11.382  0.7450 -2.2489 -2.5816
 8255SOL     OW36223   0.320   0.893   7.440 -0.0345  0.0681 -0.1017
 8255SOL    HW136224   0.299   0.878   7.532  1.9988  0.2070  0.3843
 8255SOL    HW236225   0.295   0.983   7.420  1.9014  0.2527 -1.6299
 8256SOL     OW36226   2.461   3.113   5.875  0.0311 -0.1615  0.8196
 8256SOL    HW136227   2.512   3.189   5.847 -0.8570 -0.4738 -1.6367
 8256SOL    HW236228   2.384   3.155   5.912  0.4659  0.9373  0.4659
 8257SOL     OW36229   0.941   2.173   6.233 -0.0748 -0.0591  0.2139
 8257SOL    HW136230   0.861   2.218   6.260 -1.9069 -2.1139 -1.8419
 8257SOL    HW236231   1.007   2.242   6.239  0.8776 -0.7457 -2.1873
 8258SOL     OW36232   1.246   2.951   5.624 -0.3216 -0.3360  0.2049
 8258SOL    HW136233   1.219   3.035   5.661 -2.5318 -0.2587 -1.5918
 8258SOL    HW236234   1.326   2.984   5.584  0.1895 -1.7905  0.0286
 8259SOL     OW36235   2.782   1.499   7.820  0.1772 -0.9769  0.3348
 8259SOL    HW136236   2.689   1.520   7.834  0.4840  1.2113 -0.8991
 8259SOL    HW236237   2.811   1.573   7.874  4.8757 -1.9746 -0.8207
 8260SOL     OW36238   1.628   3.930   7.187  0.1963 -0.4587 -0.2148
 8260SOL    HW136239   1.591   3.900   7.104  1.4750  1.9222 -1.6569
 8260SOL    HW236240   1.670   4.008   7.150  0.0995 -0.9006 -1.2565
 8261SOL     OW36241   3.336   1.735   4.685  0.0666  0.2336  0.0252
 8261SOL    HW136242   3.315   1.670   4.751 -1.5492 -1.2509 -1.9560
 8261SOL    HW236243   3.426   1.712   4.664 -0.1953 -1.7250  1.0600
 8262SOL     OW36244   2.431   2.958   5.283  0.8271 -0.9002 -0.4901
 8262SOL    HW136245   2.513   2.940   5.331  1.1293  2.1582  0.1505
 8262SOL    HW236246   2.381   3.001   5.353  1.8877  1.0744 -0.9255
 8263SOL     OW36247   4.483   0.445   6.568  0.0527  0.0599 -0.0294
 8263SOL    HW136248   4.463   0.526   6.521  1.1287 -1.0333 -2.4147
 8263SOL    HW236249   4.479   0.476   6.658  0.5982  1.3143 -0.4399
 8264SOL     OW36250   3.992   0.765   1.886  0.3093 -0.2255  0.2075
 8264SOL    HW136251   4.057   0.824   1.925 -1.6654  1.1199  1.4694
 8264SOL    HW236252   4.044   0.728   1.815 -0.0170 -0.1766 -0.0568
 8265SOL     OW36253   3.037   1.555  14.187 -0.7549 -0.1622 -0.0078
 8265SOL    HW136254   2.989   1.588  14.111 -0.9410  0.1023  0.2274
 8265SOL    HW236255   3.126   1.553  14.149 -1.9578  0.3094 -2.8565
 8266SOL     OW36256   4.279   1.264  15.927 -0.5284 -0.5040 -0.0319
 8266SOL    HW136257   4.222   1.231  15.996 -1.4058 -0.6133 -0.7974
 8266SOL    HW236258   4.365   1.268  15.968 -0.8070 -0.9504  0.5869
 8267SOL     OW36259   3.531   1.997   3.298  0.7302 -0.5262 -0.1080
 8267SOL    HW136260   3.562   2.079   3.258 -2.5039  2.4950  3.6603
 8267SOL    HW236261   3.574   1.937   3.237  1.6598  0.0984 -0.0781
 8268SOL     OW36262   1.605   1.985  13.508  0.1483 -0.0002 -0.0362
 8268SOL    HW136263   1.628   2.078  13.514  1.2506 -0.1954 -1.2205
 8268SOL    HW236264   1.675   1.940  13.556  0.2753  0.8191  0.5540
 8269SOL     OW36265   3.204   4.245   9.710 -0.7517  0.3636 -0.3489
 8269SOL    HW136266   3.180   4.334   9.685 -2.9009  0.5113  2.1159
 8269SOL    HW236267   3.134   4.208   9.765  0.0124 -0.8248 -0.1857
 8270SOL     OW36268   1.715   3.693   8.345 -0.3740 -0.0885  0.0137
 8270SOL    HW136269   1.735   3.779   8.380 -0.2024 -0.3743  0.6181
 8270SOL    HW236270   1.692   3.714   8.254 -3.8000  2.6204  1.4732
 8271SOL     OW36271   0.500   4.683  15.527  0.2803 -0.3442 -0.1437
 8271SOL    HW136272   0.580   4.699  15.578 -0.6628  1.9660  0.6180
 8271SOL    HW236273   0.491   0.043  15.482  0.5986  0.3043  1.0026
 8272SOL     OW36274   3.211   0.830   3.178 -0.4826 -0.4942  0.4753
 8272SOL    HW136275   3.246   0.764   3.238  0.7498  0.4909  0.8384
 8272SOL    HW236276   3.165   0.773   3.116  0.2970  1.5911 -2.0180
 8273SOL     OW36277   0.610   4.150   6.400  0.5036 -0.7775  0.2455
 8273SOL    HW136278   0.611   4.197   6.483 -1.7540 -0.4846  0.0872
 8273SOL    HW236279   0.555   4.079   6.433  0.5911 -0.9355  0.0533
 8274SOL     OW36280   1.248   0.189  10.211 -0.2674 -0.2020  0.0365
 8274SOL    HW136281   1.284   0.277  10.197 -0.8507  0.2338  1.3397
 8274SOL    HW236282   1.155   0.202  10.195  0.0097 -0.5422 -1.8919
 8275SOL     OW36283   4.197   3.709   0.828 -0.4917 -0.2655 -0.2751
 8275SOL    HW136284   4.216   3.681   0.739  0.1312  1.0670 -0.5581
 8275SOL    HW236285   4.151   3.791   0.807  0.2784  0.5010  1.0241
 8276SOL     OW36286   2.078   3.722   1.325  0.1214 -0.5467 -0.0993
 8276SOL    HW136287   1.987   3.744   1.306  0.5796 -1.0111 -2.7993
 8276SOL    HW236288   2.078   3.763   1.412 -0.4038 -0.5215 -0.1119
 8277SOL     OW36289   4.387   2.850  15.617  0.2688  0.3538  0.1318
 8277SOL    HW136290   4.448   2.866  15.688  0.8207 -1.1046 -0.0194
 8277SOL    HW236291   4.441   2.836  15.539 -0.6100 -1.3606 -0.1591
 8278SOL     OW36292   3.837   2.899   8.937 -0.5156  0.0161 -0.2246
 8278SOL    HW136293   3.801   2.988   8.940  1.6950  1.0140 -3.2979
 8278SOL    HW236294   3.845   2.889   8.842  1.3364  0.3585 -0.1120
 8279SOL     OW36295   1.501   4.218   1.670 -0.4316 -0.4915  0.4680
 8279SOL    HW136296   1.415   4.226   1.628  0.3374 -0.2309 -1.0735
 8279SOL    HW236297   1.549   4.300   1.659  1.7730 -1.9120 -0.6074
 8280SOL     OW36298   1.686   4.678  10.948 -0.1528  0.6840 -0.1497
 8280SOL    HW136299   1.611   4.712  10.996 -0.1777  1.5386 -0.7864
 8280SOL    HW236300   1.661   4.692  10.856 -0.0307 -1.7695 -0.5551
 8281SOL     OW36301   1.561   0.141   2.769 -0.1317  0.3427 -0.2369
 8281SOL    HW136302   1.515   0.224   2.755  0.4207  0.8370  0.9374
 8281SOL    HW236303   1.632   0.152   2.706  0.7102  0.2942  0.7120
 8282SOL     OW36304   2.960   3.018   4.893 -0.0913 -0.5452 -0.2361
 8282SOL    HW136305   3.020   2.943   4.894  0.1973 -0.3057  1.4620
 8282SOL    HW236306   2.934   3.029   4.985  0.6011  0.4957 -0.1588
 8283SOL     OW36307   2.331   1.935   6.933 -0.6224 -0.3181 -0.0809
 8283SOL    HW136308   2.362   2.011   6.982 -3.0259  0.3802  0.3422
 8283SOL    HW236309   2.244   1.915   6.967 -1.0248  1.1083 -0.2815
 8284SOL     OW36310   1.537   3.495   7.000  0.4021 -0.1985 -0.1688
 8284SOL    HW136311   1.532   3.590   7.007  0.5361 -0.0194 -2.3909
 8284SOL    HW236312   1.534   3.458   7.088  0.0659 -1.6774 -0.7817
 8285SOL     OW36313   0.195   2.031   3.401  0.0943 -0.5913  0.0774
 8285SOL    HW136314   0.229   1.947   3.432  2.5833  0.3254 -0.1604
 8285SOL    HW236315   0.258   2.046   3.330 -1.1004 -1.6026 -1.1806
 8286SOL     OW36316   1.484   1.967   5.104  0.2808  0.1643  0.2248
 8286SOL    HW136317   1.564   2.018   5.117 -1.2010  2.5580  0.0262
 8286SOL    HW236318   1.437   2.038   5.061  0.4761 -1.1896 -2.2305
 8287SOL     OW36319   2.741   0.807   6.800 -0.2260 -0.0606  0.0164
 8287SOL    HW136320   2.664   0.795   6.745  0.2728  0.5837 -0.8181
 8287SOL    HW236321   2.755   0.901   6.793 -1.1186  0.2376  2.3727
 8288SOL     OW36322   1.424   3.802   1.977  0.2697 -0.1508  0.0308
 8288SOL    HW136323   1.368   3.725   1.966  0.7842 -0.4160 -0.7888
 8288SOL    HW236324   1.373   3.873   1.941  2.0449  0.7395 -0.7474
 8289SOL     OW36325   3.506   0.094  11.695 -0.4683 -0.5159 -0.3112
 8289SOL    HW136326   3.525   0.176  11.742 -0.1003 -1.5133  1.2682
 8289SOL    HW236327   3.587   0.047  11.712  0.4976  2.2736  2.7406
 8290SOL     OW36328   1.214   3.536   7.252  0.1001  0.4609  0.2771
 8290SOL    HW136329   1.119   3.545   7.262  0.2107 -0.2839  2.1328
 8290SOL    HW236330   1.235   3.458   7.200  0.8543  1.4994 -0.9686
 8291SOL     OW36331   0.837   3.188   3.639  0.1501  0.2720 -0.6188
 8291SOL    HW136332   0.909   3.221   3.584  0.7020 -0.2276 -0.2011
 8291SOL    HW236333   0.873   3.103   3.665 -0.4620 -0.3143 -1.6834
 8292SOL     OW36334   2.711   4.235   6.146  0.2086  0.1437  0.1001
 8292SOL    HW136335   2.803   4.212   6.135 -0.4741 -2.2074 -0.7203
 8292SOL    HW236336   2.678   4.229   6.056 -0.0673 -0.5868  0.2533
 8293SOL     OW36337   0.869   1.311   7.530 -0.1157  0.1446 -0.5357
 8293SOL    HW136338   0.920   1.248   7.479  0.1295  0.4734 -0.6988
 8293SOL    HW236339   0.783   1.269   7.525 -0.3041  0.5645 -0.8407
 8294SOL     OW36340   4.400   0.433   7.795  0.3445  0.2342  0.5104
 8294SOL    HW136341   4.326   0.412   7.852 -0.7748  1.0538 -0.6681
 8294SOL    HW236342   4.431   0.509   7.844  1.0204 -0.1532  0.6897
 8295SOL     OW36343   3.509   3.864   3.753  1.0708  0.0212 -0.0742
 8295SOL    HW136344   3.525   3.794   3.817 -1.0516  0.8471  1.3393
 8295SOL    HW236345   3.414   3.857   3.738  0.9949  1.3457 -0.2080
 8296SOL     OW36346   1.073   4.658   5.519 -0.1491 -0.3021  0.3936
 8296SOL    HW136347   1.097   0.020   5.555  0.3412 -0.7126  1.0528
 8296SOL    HW236348   1.035   4.677   5.434 -0.2195  2.7782  1.0993
 8297SOL     OW36349   2.517   1.139   8.669 -0.0339  0.0742 -0.3048
 8297SOL    HW136350   2.456   1.163   8.599  1.6839  3.3503 -0.6651
 8297SOL    HW236351   2.539   1.049   8.648 -0.4323 -0.1397  0.2094
 8298SOL     OW36352   0.843   0.075   8.083  0.0892  0.3138 -0.0228
 8298SOL    HW136353   0.821   4.712   8.117 -0.1715  0.6463  0.6788
 8298SOL    HW236354   0.877   0.119   8.161  0.9246  0.6608 -0.5798
 8299SOL     OW36355   1.211   2.142   5.593  0.2194 -0.3190  0.2130
 8299SOL    HW136356   1.167   2.222   5.621  0.9628  0.3240 -0.4405
 8299SOL    HW236357   1.183   2.081   5.661  1.1544 -1.9722 -0.8729
 8300SOL     OW36358   4.582   4.381  10.769 -0.4496 -0.1912  0.2144
 8300SOL    HW136359   4.526   4.458  10.778  0.4008  0.4026  0.3851
 8300SOL    HW236360   4.558   4.335  10.850  0.1038  1.1345  1.1225
 8301SOL     OW36361   2.000   1.416   6.312  0.9325  0.2533 -0.4714
 8301SOL    HW136362   1.924   1.373   6.350  2.7182 -2.0822  0.4286
 8301SOL    HW236363   2.031   1.452   6.395 -0.6387 -0.2493  0.3339
 8302SOL     OW36364   3.788   4.633  15.814  0.5581  0.1645 -0.1767
 8302SOL    HW136365   3.722   4.699  15.795  1.2621  0.4863 -1.4900
 8302SOL    HW236366   3.845   4.650  15.739 -0.2463 -0.0045 -0.8172
 8303SOL     OW36367   2.575   2.694   2.092  0.3657  0.5315 -0.4685
 8303SOL    HW136368   2.544   2.662   2.007 -1.5894 -0.8189  0.7656
 8303SOL    HW236369   2.512   2.764   2.107 -0.3287  0.2581 -2.0752
 8304SOL     OW36370   4.477   3.294   3.834 -0.1135  0.2172  0.5753
 8304SOL    HW136371   4.395   3.341   3.823 -0.6223 -0.4423  1.5801
 8304SOL    HW236372   4.472   3.228   3.765 -1.1634  0.5732  0.3069
 8305SOL     OW36373   1.111   2.913  14.322  0.4979 -0.1104 -0.5147
 8305SOL    HW136374   1.100   2.821  14.295 -0.5217 -0.0872 -0.1834
 8305SOL    HW236375   1.206   2.913  14.333  0.4764  0.2427 -0.3523
 8306SOL     OW36376   2.569   2.232   5.730  0.3020  0.0009 -0.4797
 8306SOL    HW136377   2.651   2.264   5.692  0.4070  1.5584  1.0297
 8306SOL    HW236378   2.570   2.138   5.713  3.1456  0.2271 -1.5294
 8307SOL     OW36379   1.876   3.357  13.793  0.3053  0.0438  0.1416
 8307SOL    HW136380   1.944   3.420  13.815 -1.1205  2.1209 -1.4236
 8307SOL    HW236381   1.933   3.287  13.762 -1.2733 -1.6704  1.1109
 8308SOL     OW36382   3.955   2.295   5.876  0.2028  0.0408 -0.2341
 8308SOL    HW136383   3.893   2.226   5.853 -0.7831  1.2885 -1.3693
 8308SOL    HW236384   3.900   2.373   5.874  1.5249  1.0213  1.1759
 8309SOL     OW36385   1.273   2.735   5.483 -0.6955  0.4863 -0.5376
 8309SOL    HW136386   1.253   2.807   5.543  1.8564 -0.6431  1.6590
 8309SOL    HW236387   1.291   2.668   5.548  2.3267  2.6870  0.9194
 8310SOL     OW36388   3.455   4.574   1.497 -0.1903 -0.1640  0.0226
 8310SOL    HW136389   3.377   4.529   1.463 -0.4689  0.3852 -0.0658
 8310SOL    HW236390   3.525   4.549   1.437 -1.1791  0.8191 -1.5592
 8311SOL     OW36391   4.602   3.449   2.100  0.4206  0.4430  0.2082
 8311SOL    HW136392   4.546   3.372   2.105 -1.4538  1.6640 -2.3971
 8311SOL    HW236393   4.689   3.410   2.089  0.4202  1.4288 -3.1610
 8312SOL     OW36394   0.397   2.686  17.125 -0.8766  0.3371  0.2082
 8312SOL    HW136395   0.427   2.595  17.131 -3.0102 -0.3172  1.0147
 8312SOL    HW236396   0.469   2.735  17.165  0.2599  0.3825 -1.8548
 8313SOL     OW36397   0.278   4.032   3.814  0.4773 -0.0560 -0.2283
 8313SOL    HW136398   0.309   4.017   3.725 -2.2234  1.8874 -1.4527
 8313SOL    HW236399   0.360   4.065   3.852 -0.4413  0.3779  1.3728
 8314SOL     OW36400   2.854   0.379  12.325 -0.8140  0.7359  0.1783
 8314SOL    HW136401   2.770   0.425  12.330 -0.6639  1.0909 -0.6806
 8314SOL    HW236402   2.858   0.346  12.235 -0.5121  1.1675  0.0357
 8315SOL     OW36403   2.958   4.239   8.760  0.8495  0.4042  0.7400
 8315SOL    HW136404   3.037   4.273   8.803  1.3781 -0.0248  0.1197
 8315SOL    HW236405   2.946   4.154   8.802 -0.3284 -0.2036 -0.8326
 8316SOL     OW36406   4.240   0.814   3.510 -0.5585 -0.3689 -0.6816
 8316SOL    HW136407   4.163   0.757   3.512 -2.1308  1.8195  2.8728
 8316SOL    HW236408   4.219   0.886   3.570 -2.1683 -0.7826 -0.7625
 8317SOL     OW36409   2.173   0.084   3.021  1.0007  0.0675  0.1969
 8317SOL    HW136410   2.095   0.140   3.020 -0.2110 -1.5689  2.2266
 8317SOL    HW236411   2.221   0.114   2.944  1.7878 -0.4811  0.4809
 8318SOL     OW36412   1.359   3.966   5.460 -0.6543  0.2117 -1.0228
 8318SOL    HW136413   1.286   3.994   5.514 -0.4526  0.4787 -0.8913
 8318SOL    HW236414   1.341   4.006   5.375 -0.2016  0.3012 -1.0761
 8319SOL     OW36415   3.750   0.298   1.956 -0.2777  0.7787 -0.3541
 8319SOL    HW136416   3.783   0.367   1.899  2.0756 -0.1794 -0.1555
 8319SOL    HW236417   3.784   0.214   1.923 -1.0999  0.7388 -1.1063
 8320SOL     OW36418   0.901   2.086  17.018 -0.0059 -0.1683 -0.1109
 8320SOL    HW136419   0.951   2.072  17.099 -2.4392  2.6456  1.9045
 8320SOL    HW236420   0.808   2.085  17.041  0.3227  1.3718  1.2974
 8321SOL     OW36421   1.546   1.193   6.465 -0.1018  0.6904  0.0304
 8321SOL    HW136422   1.537   1.113   6.412  1.4815 -0.7045  1.8253
 8321SOL    HW236423   1.452   1.195   6.485 -0.0876 -1.6435  0.4269
 8322SOL     OW36424   2.150   4.246  13.039 -0.2051  0.4880 -0.0314
 8322SOL    HW136425   2.243   4.261  13.023 -0.4181 -0.1794 -1.9018
 8322SOL    HW236426   2.145   4.151  13.049  0.6251  0.3905 -0.5065
 8323SOL     OW36427   1.198   3.021   3.164  0.4717 -0.1354  0.0952
 8323SOL    HW136428   1.292   3.036   3.158  0.7821 -2.5353 -0.7410
 8323SOL    HW236429   1.176   3.114   3.154  1.0866 -0.0806 -0.7425
 8324SOL     OW36430   3.367   3.553   2.509 -1.0645  0.2030  0.0129
 8324SOL    HW136431   3.293   3.525   2.562  0.6407 -2.4457  0.9974
 8324SOL    HW236432   3.346   3.646   2.508 -0.5447  0.3543  4.3562
 8325SOL     OW36433   1.720   2.379   9.412 -0.2277  0.6645 -0.6188
 8325SOL    HW136434   1.630   2.379   9.442 -0.0278  1.8427 -0.0215
 8325SOL    HW236435   1.740   2.471   9.432 -0.6721  0.7661 -0.6581
 8326SOL     OW36436   2.073   4.637   7.539 -0.6394  0.1630 -0.0965
 8326SOL    HW136437   2.141   4.569   7.545 -2.0868 -1.1045  1.8060
 8326SOL    HW236438   2.047   4.633   7.447 -0.8568 -2.2521  0.0858
 8327SOL     OW36439   0.019   2.609  15.513  0.2179  0.6931  0.0055
 8327SOL    HW136440   0.084   2.586  15.580  0.2753 -0.2356 -0.3786
 8327SOL    HW236441   0.081   2.603  15.440  1.5036 -0.4494  1.1862
 8328SOL     OW36442   3.442   1.041   4.379 -0.6491 -0.3412  0.2931
 8328SOL    HW136443   3.404   0.955   4.394 -0.1586 -0.2826  1.9184
 8328SOL    HW236444   3.503   1.051   4.453  1.5938 -2.3635 -1.2707
 8329SOL     OW36445   3.308   1.717   6.913 -0.1133 -0.0182 -0.1611
 8329SOL    HW136446   3.270   1.794   6.870  0.2929 -0.1163 -0.6959
 8329SOL    HW236447   3.305   1.738   7.006  2.3889 -1.1486  0.1820
 8330SOL     OW36448   0.930   3.778  10.418  0.3238  0.2678 -0.4578
 8330SOL    HW136449   0.981   3.759  10.339  2.5019 -0.4383  1.1058
 8330SOL    HW236450   0.986   3.752  10.491  0.5876 -0.0096 -0.7601
 8331SOL     OW36451   3.438   4.655   6.426 -0.3172  0.2876 -0.2446
 8331SOL    HW136452   3.503   4.594   6.461 -0.4695  1.7964  2.6751
 8331SOL    HW236453   3.431   4.717   6.498  0.3982 -0.3961  0.4173
 8332SOL     OW36454   0.419   1.800   8.042  0.6206 -0.4397 -0.6460
 8332SOL    HW136455   0.389   1.869   7.983  0.5502  0.0536 -0.0268
 8332SOL    HW236456   0.340   1.746   8.046  0.7208 -0.4753  0.6625
 8333SOL     OW36457   2.487   1.746   4.709  0.1175  1.1197 -0.0785
 8333SOL    HW136458   2.481   1.728   4.803 -2.2043 -2.5244 -0.9480
 8333SOL    HW236459   2.514   1.658   4.685 -2.1578 -0.5723  3.4620
 8334SOL     OW36460   0.089   0.350  10.840 -0.5508 -0.3117  0.3107
 8334SOL    HW136461   0.168   0.358  10.892  0.5770  1.5686 -1.6841
 8334SOL    HW236462   0.104   0.265  10.798  1.4344 -0.3509  1.1459
 8335SOL     OW36463   3.514   3.636   3.349  0.2461  0.3789 -0.6290
 8335SOL    HW136464   3.599   3.674   3.330  0.7633  0.6267  2.0804
 8335SOL    HW236465   3.458   3.714   3.356  1.1810  0.8156  2.0577
 8336SOL     OW36466   1.984   2.874   1.455 -0.1409  0.1916  0.4807
 8336SOL    HW136467   1.892   2.852   1.447  0.0402  0.5963 -2.8519
 8336SOL    HW236468   1.974   2.963   1.490  0.5247  0.7676 -0.7716
 8337SOL     OW36469   4.004   0.485   2.725 -0.0567  0.7997 -0.1349
 8337SOL    HW136470   4.052   0.527   2.654  1.7398  1.9460  1.7706
 8337SOL    HW236471   3.951   0.426   2.671  0.2016  0.2526  0.2025
 8338SOL     OW36472   2.965   3.951   9.589 -0.6467 -0.0617 -0.4865
 8338SOL    HW136473   3.008   3.916   9.668  2.4323  1.0638 -1.6802
 8338SOL    HW236474   2.950   3.872   9.538  0.9370 -0.0052 -1.0221
 8339SOL     OW36475   2.337   4.400   3.202 -0.0267  0.4099  0.4742
 8339SOL    HW136476   2.381   4.404   3.117  0.2154  1.7656  0.6583
 8339SOL    HW236477   2.257   4.452   3.190 -0.3570 -0.1568  0.2374
 8340SOL     OW36478   2.107   0.460  10.685 -0.6193 -0.1103  0.2759
 8340SOL    HW136479   2.060   0.379  10.662  1.2389 -1.3300  0.7903
 8340SOL    HW236480   2.072   0.488  10.769  0.0506  0.1350  0.4626
 8341SOL     OW36481   0.764   4.026   0.324  0.2331 -0.8372  0.2038
 8341SOL    HW136482   0.755   3.932   0.307  0.4309 -1.5100  3.8035
 8341SOL    HW236483   0.715   4.052   0.245  2.8031 -1.3028 -1.5456
 8342SOL     OW36484   1.107   1.714   7.193 -0.7761 -0.1566 -0.1494
 8342SOL    HW136485   1.089   1.683   7.104 -0.4503 -0.3712 -0.1439
 8342SOL    HW236486   1.075   1.634   7.236 -0.5145  1.0612  2.2978
 8343SOL     OW36487   2.543   0.024  15.648 -0.2119 -0.3157 -0.1646
 8343SOL    HW136488   2.476   0.053  15.710  1.5842 -0.8285  2.0304
 8343SOL    HW236489   2.548   0.105  15.598  2.1706  0.0646  0.6490
 8344SOL     OW36490   3.196   3.766   5.267  0.5337 -0.2891  0.3766
 8344SOL    HW136491   3.285   3.760   5.234  0.4759  2.0918 -0.2335
 8344SOL    HW236492   3.158   3.680   5.251 -0.4144  0.2651 -0.3808
 8345SOL     OW36493   1.756   3.672   5.890  0.4373  0.5651 -0.0526
 8345SOL    HW136494   1.720   3.745   5.942 -1.5578 -1.0950  0.8599
 8345SOL    HW236495   1.847   3.675   5.919  0.4332 -1.6667  0.1816
 8346SOL     OW36496   2.453   0.257  10.802  0.2725 -0.2206 -0.1936
 8346SOL    HW136497   2.417   0.344  10.782  0.7584  0.0265 -0.0046
 8346SOL    HW236498   2.466   0.269  10.896  3.0254  1.7991 -0.8224
 8347SOL     OW36499   4.150   1.352   5.507 -1.0001 -0.5545 -0.5265
 8347SOL    HW136500   4.088   1.355   5.434 -0.6284  2.6386 -0.6919
 8347SOL    HW236501   4.087   1.382   5.572 -0.6747 -0.1478 -0.4001
 8348SOL     OW36502   3.729   4.002   3.013  0.1377 -0.1517 -0.3578
 8348SOL    HW136503   3.783   3.925   3.030  1.6491  0.9781 -0.0732
 8348SOL    HW236504   3.789   4.056   2.962 -2.0527  0.6963 -2.0608
 8349SOL     OW36505   3.402   0.580   1.165 -0.7360  0.4430  0.1957
 8349SOL    HW136506   3.431   0.655   1.114 -0.5361  0.0657 -0.2443
 8349SOL    HW236507   3.465   0.590   1.236 -0.0453 -0.2110 -0.3283
 8350SOL     OW36508   1.099   0.730  13.427 -0.1104  0.0964 -0.1860
 8350SOL    HW136509   1.164   0.740  13.358  0.5461  0.9030  0.5484
 8350SOL    HW236510   1.052   0.811  13.407 -0.9973 -0.3377  0.1223
 8351SOL     OW36511   1.393   3.704   7.816  0.2414 -0.1677  0.0112
 8351SOL    HW136512   1.483   3.733   7.830  1.1906 -3.3592  0.5529
 8351SOL    HW236513   1.357   3.711   7.905  1.0341  1.3379  0.2046
 8352SOL     OW36514   4.643   3.459   6.566  0.6037 -0.6526  0.1445
 8352SOL    HW136515   4.583   3.394   6.603 -1.7106  0.5604 -1.5723
 8352SOL    HW236516   4.713   3.398   6.544  1.3264 -0.4640  1.9037
 8353SOL     OW36517   3.231   0.124   6.039  0.2265 -0.2332  0.0989
 8353SOL    HW136518   3.259   0.200   6.089 -1.5820 -0.6879  1.7847
 8353SOL    HW236519   3.240   0.158   5.950  0.6245 -1.0340 -0.1738
 8354SOL     OW36520   2.673   0.111   7.649 -0.0626  0.4362 -0.0375
 8354SOL    HW136521   2.763   0.118   7.680  0.0373 -0.3877 -0.1432
 8354SOL    HW236522   2.665   0.016   7.659  2.6854  0.1016 -1.0502
 8355SOL     OW36523   4.551   1.519   2.493 -0.3987 -0.0561 -0.0221
 8355SOL    HW136524   4.613   1.591   2.500  0.3877 -0.8764  1.5777
 8355SOL    HW236525   4.554   1.499   2.400 -1.2167 -1.1699  0.1980
 8356SOL     OW36526   4.479   3.307   7.461 -0.2890 -0.0807  0.2768
 8356SOL    HW136527   4.417   3.265   7.520  0.3850 -0.6209  0.6017
 8356SOL    HW236528   4.515   3.377   7.516 -0.0191 -1.7376  2.1971
 8357SOL     OW36529   2.556   3.587  12.082 -0.2667 -0.0756 -0.3157
 8357SOL    HW136530   2.580   3.517  12.020  0.1103 -0.5056  0.3120
 8357SOL    HW236531   2.592   3.664  12.037 -1.0184 -0.6024 -1.8321
 8358SOL     OW36532   3.285   0.843   7.884 -0.8567 -0.2226 -0.3031
 8358SOL    HW136533   3.247   0.779   7.824  0.9978 -0.4203 -1.2690
 8358SOL    HW236534   3.375   0.840   7.850 -1.1055 -1.1699 -0.9048
 8359SOL     OW36535   0.447   4.702  12.227  0.3247  0.2153 -0.5227
 8359SOL    HW136536   0.484   4.618  12.255 -1.8283 -0.1593  1.2379
 8359SOL    HW236537   0.526   0.029  12.212  0.1095  0.2488 -1.6107
 8360SOL     OW36538   2.424   2.869  13.765  0.3269 -0.3547 -0.3408
 8360SOL    HW136539   2.415   2.907  13.677 -1.0460  0.8285  0.3076
 8360SOL    HW236540   2.387   2.784  13.743  0.5751  0.1102 -2.6474
 8361SOL     OW36541   2.207   0.872   7.265 -0.2591  0.1286  0.2186
 8361SOL    HW136542   2.302   0.877   7.278 -0.3632  0.6643  0.7889
 8361SOL    HW236543   2.208   0.857   7.170 -0.2899  1.5683 -0.0209
 8362SOL     OW36544   4.679   1.302   5.550  0.3789  0.5566  0.6086
 8362SOL    HW136545   4.600   1.344   5.514  0.0917  0.3463  0.9929
 8362SOL    HW236546   0.018   1.369   5.576  2.0057 -0.3856 -0.8753
 8363SOL     OW36547   2.437   2.401   1.104 -0.3950 -0.1030  0.4431
 8363SOL    HW136548   2.399   2.465   1.044  1.5525  2.1175  1.5698
 8363SOL    HW236549   2.356   2.364   1.138 -0.6458 -0.5427 -0.6016
 8364SOL     OW36550   3.860   1.828   5.099 -0.1996  0.3326 -0.3454
 8364SOL    HW136551   3.900   1.763   5.156 -3.0177 -0.1017  1.1779
 8364SOL    HW236552   3.864   1.909   5.150 -1.8320 -0.1147  0.5132
 8365SOL     OW36553   0.005   0.811   5.863  0.4113  0.0785  0.0549
 8365SOL    HW136554   0.100   0.799   5.861  0.4412  0.0515  1.1872
 8365SOL    HW236555   0.005   0.898   5.823 -0.7461 -0.1493 -0.4212
 8366SOL     OW36556   3.032   0.571   8.318 -0.1869  0.0569  0.4425
 8366SOL    HW136557   3.075   0.487   8.304 -1.8467 -0.7828  0.2786
 8366SOL    HW236558   3.048   0.574   8.412  2.4103  2.3122 -0.0739
 8367SOL     OW36559   3.110   3.104   7.851 -0.3389  0.3658  0.2812
 8367SOL    HW136560   3.061   3.184   7.869 -0.4195  0.3918 -0.0554
 8367SOL    HW236561   3.066   3.072   7.772  1.0146  1.7284 -1.0094
 8368SOL     OW36562   0.030   1.405   4.444  0.4027 -0.2190 -0.2363
 8368SOL    HW136563   4.703   1.472   4.398  1.1178 -0.1249 -0.8890
 8368SOL    HW236564   0.052   1.336   4.381 -0.1133 -0.6321  0.0374
 8369SOL     OW36565   2.831   4.613  13.407  0.1190  0.6934  0.7076
 8369SOL    HW136566   2.825   4.708  13.413  0.2745  0.7060  0.6468
 8369SOL    HW236567   2.787   4.592  13.325 -1.0895 -0.2611  1.5914
 8370SOL     OW36568   2.505   4.308   8.617  0.1709 -0.3731  0.1980
 8370SOL    HW136569   2.595   4.340   8.613 -0.6387  1.7334 -1.4739
 8370SOL    HW236570   2.499   4.256   8.697 -2.5009 -1.5682 -0.7778
 8371SOL     OW36571   0.559   2.089  12.600 -0.8699  0.2681 -0.3171
 8371SOL    HW136572   0.553   2.166  12.657  1.5422 -0.1753  0.5279
 8371SOL    HW236573   0.642   2.099  12.554 -0.6279  1.0240  0.2754
 8372SOL     OW36574   1.608   3.339   4.391 -0.1704  0.2124  0.1897
 8372SOL    HW136575   1.665   3.416   4.386 -1.2471  0.8240 -2.5469
 8372SOL    HW236576   1.522   3.379   4.402 -0.5435 -0.5517 -0.0097
 8373SOL     OW36577   1.481   2.153   4.820  0.1496  0.4329 -0.0546
 8373SOL    HW136578   1.394   2.142   4.858 -0.2730  0.9246 -0.8975
 8373SOL    HW236579   1.460   2.205   4.743 -0.7249 -1.1880 -0.9039
 8374SOL     OW36580   1.940   3.856  12.840 -0.5302 -0.2800 -0.1057
 8374SOL    HW136581   1.925   3.950  12.830  0.1606 -0.2360 -0.7607
 8374SOL    HW236582   1.947   3.834  12.747 -0.2342  0.9769 -0.3761
 8375SOL     OW36583   0.751   1.232   4.296 -0.5525 -0.5733 -0.0484
 8375SOL    HW136584   0.835   1.203   4.330 -0.6190  0.1978  0.7732
 8375SOL    HW236585   0.721   1.161   4.239 -0.1580 -0.8841  0.1296
 8376SOL     OW36586   3.332   3.694   2.053  0.8454  0.3682  0.1737
 8376SOL    HW136587   3.354   3.772   2.103  0.3151  0.5910  0.0626
 8376SOL    HW236588   3.411   3.698   2.000  0.9595  2.4826  0.5112
 8377SOL     OW36589   0.772   3.162   0.120  0.0434  0.0152 -0.5123
 8377SOL    HW136590   0.790   3.130   0.032 -1.2283  1.1613 -1.1892
 8377SOL    HW236591   0.858   3.202   0.137 -0.4009  0.7225  0.0900
 8378SOL     OW36592   3.398   1.377  10.933 -0.2399  0.0063 -1.1155
 8378SOL    HW136593   3.368   1.295  10.973 -0.4582 -0.8375 -3.0061
 8378SOL    HW236594   3.360   1.358  10.847  2.6712  0.2654 -2.4754
 8379SOL     OW36595   1.558   0.797  14.441 -0.3441  0.8914  0.0532
 8379SOL    HW136596   1.587   0.828  14.356  1.9629 -0.2341  0.4181
 8379SOL    HW236597   1.508   0.717  14.427  1.2502  0.0457 -0.7586
 8380SOL     OW36598   2.266   2.120  16.510  0.0783  0.2292  0.9977
 8380SOL    HW136599   2.215   2.065  16.570  2.4325 -0.7252  2.1070
 8380SOL    HW236600   2.295   2.055  16.446  0.7831  0.0394  1.5159
 8381SOL     OW36601   4.093   2.709   2.981  0.1365  0.3002  0.0301
 8381SOL    HW136602   4.131   2.703   2.893 -1.5411  0.3111 -0.7073
 8381SOL    HW236603   4.090   2.617   3.008  1.7499  0.1505 -0.2934
 8382SOL     OW36604   0.564   2.590   4.988 -0.2934  0.0647  0.4851
 8382SOL    HW136605   0.490   2.647   5.009 -0.6995 -0.4354  0.4207
 8382SOL    HW236606   0.594   2.643   4.915  1.0632 -0.4399  0.6760
 8383SOL     OW36607   0.741   4.701  14.837  0.0679 -0.1000  0.2588
 8383SOL    HW136608   0.793   0.057  14.841 -0.9648  0.5696  0.3978
 8383SOL    HW236609   0.655   0.008  14.866 -0.7806 -3.5008  1.4059
 8384SOL     OW36610   0.499   1.130   8.811  0.1734 -0.0037  0.3803
 8384SOL    HW136611   0.539   1.216   8.822  0.2467 -0.2090  1.6891
 8384SOL    HW236612   0.441   1.129   8.887  2.7794 -2.2171  2.3729
 8385SOL     OW36613   2.865   3.984  11.440 -0.1918  0.3520 -0.3510
 8385SOL    HW136614   2.796   4.050  11.434  0.1305  0.8325  1.2246
 8385SOL    HW236615   2.940   4.038  11.466 -0.1967  1.4374 -2.6259
 8386SOL     OW36616   3.914   2.483   2.596 -0.0460 -0.9141  0.0596
 8386SOL    HW136617   3.876   2.398   2.618  0.8884 -1.6205 -1.0662
 8386SOL    HW236618   3.931   2.470   2.502  0.2181  0.9037 -0.1300
 8387SOL     OW36619   2.147   2.352   5.007 -0.1222 -0.4178 -0.5278
 8387SOL    HW136620   2.211   2.399   5.061  0.3346 -2.3479  0.5772
 8387SOL    HW236621   2.065   2.381   5.048  0.4657  1.1840 -0.4905
 8388SOL     OW36622   3.204   3.328   1.566  0.2361  0.4514 -0.0244
 8388SOL    HW136623   3.231   3.338   1.475 -0.5876  0.7645 -0.2311
 8388SOL    HW236624   3.109   3.341   1.556  0.4052  1.2544 -0.5669
 8389SOL     OW36625   3.507   1.308   7.445 -0.2722  0.0788  0.2367
 8389SOL    HW136626   3.484   1.385   7.392 -3.4628 -1.0155  0.0220
 8389SOL    HW236627   3.439   1.306   7.512 -0.3406 -0.3709  0.1533
 8390SOL     OW36628   0.598   3.067   5.162 -0.1492  0.4931  0.7889
 8390SOL    HW136629   0.612   3.142   5.219 -1.5838 -0.9474  3.0385
 8390SOL    HW236630   0.690   3.061   5.134 -0.2253 -1.0538  0.8594
 8391SOL     OW36631   2.162   0.201   7.622 -0.3266  0.3615  0.5216
 8391SOL    HW136632   2.129   0.197   7.712 -0.2684 -0.1978  0.5181
 8391SOL    HW236633   2.182   0.110   7.597 -1.5798  0.2820 -0.2120
 8392SOL     OW36634   2.986   2.447   4.150 -0.1267 -0.0633 -0.6302
 8392SOL    HW136635   3.078   2.422   4.159 -0.7699 -1.6347  1.7206
 8392SOL    HW236636   2.932   2.376   4.184  0.7663 -0.9691 -1.0821
 8393SOL     OW36637   2.313   3.428  12.915  0.0675 -0.2212  0.2598
 8393SOL    HW136638   2.340   3.504  12.967  0.2009 -0.2899  0.2929
 8393SOL    HW236639   2.318   3.363  12.985 -0.5193 -1.9379 -1.2814
 8394SOL     OW36640   2.956   3.061   2.535 -0.8199  0.0758  0.4797
 8394SOL    HW136641   3.001   2.977   2.525 -0.5647  0.4369 -1.3546
 8394SOL    HW236642   2.869   3.041   2.501 -0.2314 -0.8989 -0.4460
 8395SOL     OW36643   4.353   1.623   8.480 -0.2479 -0.1148 -0.2077
 8395SOL    HW136644   4.361   1.598   8.572 -0.4725  1.0243  0.1209
 8395SOL    HW236645   4.321   1.713   8.479 -0.0091 -0.0347 -0.6812
 8396SOL     OW36646   4.663   3.147  11.805  0.2936 -0.2324  0.0967
 8396SOL    HW136647   4.667   3.052  11.819  1.2877 -0.4475 -1.7078
 8396SOL    HW236648   0.007   3.184  11.862  1.3671 -1.0695 -0.6535
 8397SOL     OW36649   3.148   1.067   1.110  0.1156 -0.6846 -0.0150
 8397SOL    HW136650   3.089   1.021   1.170  0.9848  1.6819  2.6647
 8397SOL    HW236651   3.193   0.988   1.079  2.2781  0.1164  1.0658
 8398SOL     OW36652   1.751   4.583   3.376  0.0395 -0.4025  0.2960
 8398SOL    HW136653   1.752   4.488   3.364  1.4224  0.0504 -3.3453
 8398SOL    HW236654   1.845   4.596   3.362  0.1695 -0.5671  1.0238
 8399SOL     OW36655   1.980   0.955   5.102 -0.1701 -0.1249  0.2839
 8399SOL    HW136656   2.051   0.928   5.044 -0.8270  1.4119 -1.2356
 8399SOL    HW236657   1.955   0.872   5.144  0.5429 -0.5223 -0.0928
 8400SOL     OW36658   0.618   0.380   5.974  0.5412  0.1371 -0.4113
 8400SOL    HW136659   0.659   0.317   6.032 -0.1957  0.3943  0.3778
 8400SOL    HW236660   0.639   0.466   6.012 -1.6455  0.2620  0.4985
 8401SOL     OW36661   3.545   2.218   2.595 -0.2741  0.4790  0.0473
 8401SOL    HW136662   3.488   2.204   2.520 -1.1751  2.2861  0.3970
 8401SOL    HW236663   3.498   2.160   2.654 -0.4221  0.0727 -0.4741
 8402SOL     OW36664   1.767   4.713   8.156  0.2501  0.2090 -0.3999
 8402SOL    HW136665   1.782   0.025   8.244 -0.6633 -0.9893  0.2484
 8402SOL    HW236666   1.782   0.066   8.100  1.2035  1.4804  1.5814
 8403SOL     OW36667   0.603   2.038   4.612  0.1851  0.0996  0.6232
 8403SOL    HW136668   0.524   2.090   4.598 -0.0057 -0.2370  0.4262
 8403SOL    HW236669   0.576   1.984   4.687  2.3831 -1.4711  0.2859
 8404SOL     OW36670   1.065   1.390   5.618  0.3294 -0.5186  0.0589
 8404SOL    HW136671   1.051   1.476   5.656  0.7459  0.6234 -2.3967
 8404SOL    HW236672   0.973   1.373   5.596 -0.4437  1.2961  1.8209
 8405SOL     OW36673   3.644   0.435   2.368  0.3202  0.1725 -0.0726
 8405SOL    HW136674   3.738   0.419   2.380  0.6171  0.8139 -1.5345
 8405SOL    HW236675   3.621   0.357   2.318 -0.2415  0.3069 -0.0223
 8406SOL     OW36676   2.424   0.381   5.526 -0.7987  0.0709 -0.2482
 8406SOL    HW136677   2.342   0.415   5.492 -0.2975  0.3200 -1.2029
 8406SOL    HW236678   2.479   0.437   5.470  1.0690 -0.7967  0.7174
 8407SOL     OW36679   1.686   0.344  16.029 -1.0583 -0.5385 -0.5991
 8407SOL    HW136680   1.612   0.372  15.976 -0.3188  1.7159 -0.4543
 8407SOL    HW236681   1.676   0.408  16.100  1.7878  0.4678 -1.0981
 8408SOL     OW36682   4.052   4.699  11.811 -0.0720  0.0382 -0.0011
 8408SOL    HW136683   4.054   0.065  11.776  1.6649 -0.8446 -2.1545
 8408SOL    HW236684   4.088   4.703  11.899  0.5480 -1.2538 -0.1925
 8409SOL     OW36685   2.334   1.694  16.094 -0.2603 -0.7061 -0.2003
 8409SOL    HW136686   2.397   1.751  16.049  0.1746 -1.3066 -0.3547
 8409SOL    HW236687   2.320   1.619  16.036  1.8197 -0.9247 -0.4246
 8410SOL     OW36688   0.815   2.648   3.851 -0.1193  0.0939 -0.1587
 8410SOL    HW136689   0.745   2.583   3.840 -0.0692  0.1814 -1.0379
 8410SOL    HW236690   0.867   2.624   3.774  0.6055  0.3218  0.2666
 8411SOL     OW36691   1.049   3.149   9.766 -0.4045  0.1852  0.1926
 8411SOL    HW136692   0.997   3.069   9.761  0.6402 -0.5315  0.8104
 8411SOL    HW236693   1.038   3.167   9.860  2.7068  2.7389  0.0564
 8412SOL     OW36694   4.621   1.072   6.057 -0.2347 -0.0931 -0.2032
 8412SOL    HW136695   4.699   1.018   6.050 -0.6564 -0.9006  1.2702
 8412SOL    HW236696   4.630   1.085   6.151  1.7680  0.1866 -0.4375
 8413SOL     OW36697   4.524   4.443   6.543 -0.5516  0.3964  0.4005
 8413SOL    HW136698   4.612   4.467   6.573  0.1126 -0.5574 -0.7645
 8413SOL    HW236699   4.496   4.408   6.628 -2.4975 -2.7407 -1.5405
 8414SOL     OW36700   0.540   2.488   2.476  0.0911  0.5114  0.3738
 8414SOL    HW136701   0.472   2.531   2.424  1.4942 -0.8940 -2.6525
 8414SOL    HW236702   0.608   2.471   2.410 -1.3903 -0.9127 -0.7853
 8415SOL     OW36703   4.278   4.043   2.783 -0.1459  0.0417  0.4226
 8415SOL    HW136704   4.319   4.019   2.866  1.4577 -0.7518 -0.5961
 8415SOL    HW236705   4.298   4.137   2.780 -0.5021  0.1822  2.4269
 8416SOL     OW36706   2.966   3.619   8.368  0.7521 -0.2227  0.0734
 8416SOL    HW136707   3.006   3.698   8.406  2.1266 -0.8530 -0.0977
 8416SOL    HW236708   2.879   3.618   8.410  1.3198  2.1838  1.3273
 8417SOL     OW36709   1.857   1.727   3.425 -0.3145  0.1948  0.2189
 8417SOL    HW136710   1.927   1.790   3.442  1.1924 -1.3765 -0.1467
 8417SOL    HW236711   1.898   1.643   3.402 -2.2110 -0.7233  0.2314
 8418SOL     OW36712   1.727   3.982  15.972 -0.4737 -0.1323  0.2771
 8418SOL    HW136713   1.750   4.064  16.016  1.3207  0.4797 -1.8443
 8418SOL    HW236714   1.806   3.933  15.993  0.4328  1.8107  1.4694
 8419SOL     OW36715   0.471   1.987   0.026 -0.1467  0.0913 -0.5643
 8419SOL    HW136716   0.512   1.918   0.079 -2.0491 -1.9344 -1.7814
 8419SOL    HW236717   0.541   2.053   0.023  0.1636 -0.2100 -0.0219
 8420SOL     OW36718   3.448   0.798  15.469 -0.4889  0.4669 -0.5042
 8420SOL    HW136719   3.420   0.793  15.378  2.0602 -1.6051 -1.1732
 8420SOL    HW236720   3.487   0.885  15.462  0.2022  0.2647  0.7744
 8421SOL     OW36721   2.549   2.325   2.722  0.0319 -0.2425 -0.7338
 8421SOL    HW136722   2.546   2.360   2.633  2.1526 -1.4358 -1.2853
 8421SOL    HW236723   2.531   2.236   2.691  0.5801 -0.6914  0.2623
 8422SOL     OW36724   4.425   0.083   4.495 -0.0540  0.2028 -0.2244
 8422SOL    HW136725   4.519   0.101   4.490 -0.0247 -0.0027 -0.3851
 8422SOL    HW236726   4.398   0.167   4.532 -0.0550 -0.3038  0.9364
 8423SOL     OW36727   0.866   0.515   4.182 -0.2524 -0.1817 -0.3800
 8423SOL    HW136728   0.858   0.446   4.248  3.2316 -1.1049 -0.9000
 8423SOL    HW236729   0.958   0.495   4.162 -0.6143  0.7296 -2.9661
 8424SOL     OW36730   0.851   3.729  15.211 -0.3345  0.1337 -0.2908
 8424SOL    HW136731   0.778   3.776  15.172  1.4031  2.8047 -0.2953
 8424SOL    HW236732   0.928   3.784  15.199 -0.1410  0.2570  1.4308
 8425SOL     OW36733   0.979   1.740   3.783 -0.2010  0.2887  0.0561
 8425SOL    HW136734   0.955   1.804   3.851  0.8957  2.1133 -1.2844
 8425SOL    HW236735   1.023   1.796   3.719 -1.8668 -0.0570 -1.3984
 8426SOL     OW36736   1.971   2.331   0.454 -0.5146  0.1405  0.3615
 8426SOL    HW136737   1.901   2.376   0.406  0.2883  1.5259  0.5052
 8426SOL    HW236738   1.931   2.244   0.460  1.5224 -0.5981  3.0368
 8427SOL     OW36739   0.283   2.228   7.818  0.1179  0.1609  0.3105
 8427SOL    HW136740   0.303   2.317   7.790  0.4658 -0.6085 -1.8474
 8427SOL    HW236741   0.243   2.248   7.903  0.4524  1.3277  0.1971
 8428SOL     OW36742   2.483   1.992   5.082  0.0283  0.0416 -0.6101
 8428SOL    HW136743   2.392   1.965   5.098  0.6104 -1.0905  0.7957
 8428SOL    HW236744   2.493   2.066   5.142  1.8683 -0.2133 -0.6238
 8429SOL     OW36745   1.012   3.857   7.795 -1.2390  0.0768  0.5521
 8429SOL    HW136746   1.066   3.904   7.732 -1.5196 -0.7289 -0.3024
 8429SOL    HW236747   1.069   3.873   7.869 -0.8024 -0.8623  0.4254
 8430SOL     OW36748   3.714   3.536  10.513  0.2726 -0.4987  0.4011
 8430SOL    HW136749   3.638   3.594  10.504 -0.0950 -0.8242  1.4301
 8430SOL    HW236750   3.715   3.494  10.427  1.8727 -3.6408  1.9839
 8431SOL     OW36751   1.891   3.931   8.268  0.5547 -0.2164  0.2969
 8431SOL    HW136752   1.957   3.979   8.218  1.2979 -1.2905  0.2399
 8431SOL    HW236753   1.857   4.006   8.317  1.3426  1.4201 -1.6784
 8432SOL     OW36754   3.038   2.759  16.191 -0.4408 -0.2378  1.0065
 8432SOL    HW136755   3.070   2.759  16.101 -1.4338 -0.1394  0.6482
 8432SOL    HW236756   2.943   2.761  16.178 -0.3389  1.6181  0.5869
 8433SOL     OW36757   0.767   4.349   3.741 -0.4429 -0.1368  0.5331
 8433SOL    HW136758   0.713   4.340   3.663 -1.6768 -1.6979  1.5615
 8433SOL    HW236759   0.711   4.415   3.784  0.2308 -0.3759  1.7786
 8434SOL     OW36760   4.708   1.816  16.528 -0.3492  0.5241 -0.0720
 8434SOL    HW136761   4.711   1.779  16.440 -0.3881 -1.4290  0.7346
 8434SOL    HW236762   0.067   1.863  16.523 -0.1397  0.3760  1.9057
 8435SOL     OW36763   0.083   0.537   3.174 -0.1261 -0.3633 -0.1861
 8435SOL    HW136764   0.126   0.555   3.090 -1.4665  2.8935 -0.1840
 8435SOL    HW236765   0.113   0.448   3.193  1.3676  0.1624 -0.0761
 8436SOL     OW36766   4.184   1.961   9.200  0.1543  0.1509  0.0278
 8436SOL    HW136767   4.236   1.884   9.223 -0.8281  0.0030  1.7141
 8436SOL    HW236768   4.224   2.021   9.264 -1.5723 -0.6933  1.8906
 8437SOL     OW36769   3.206   3.775   6.972  0.2916  0.2522  0.0027
 8437SOL    HW136770   3.210   3.681   6.955 -0.8635  0.3898 -1.0554
 8437SOL    HW236771   3.156   3.771   7.054 -2.0050 -1.0937 -1.4681
 8438SOL     OW36772   0.985   3.097  12.057  0.2666  0.4650 -0.3280
 8438SOL    HW136773   1.011   3.173  12.109  1.7042 -1.8212  2.2573
 8438SOL    HW236774   1.060   3.039  12.046  0.7949  1.1942 -0.6239
 8439SOL     OW36775   2.721   1.787   9.544 -0.0531 -0.0005 -0.0678
 8439SOL    HW136776   2.669   1.851   9.593 -1.0322  0.1697 -1.3012
 8439SOL    HW236777   2.764   1.848   9.483  0.7426 -0.2176  0.2819
 8440SOL     OW36778   3.718   3.828   5.992  0.6320 -0.3087  0.3002
 8440SOL    HW136779   3.793   3.857   5.940  0.4922  0.5887  0.6074
 8440SOL    HW236780   3.700   3.913   6.031 -2.4452 -0.5969 -0.5346
 8441SOL     OW36781   4.552   4.007   7.211 -0.9233 -0.4097  0.3052
 8441SOL    HW136782   4.495   4.030   7.284  1.9814 -0.4659  2.5903
 8441SOL    HW236783   4.623   4.070   7.227 -1.3865 -0.4960  2.6990
 8442SOL     OW36784   2.366   2.594   8.939  0.4431  0.1907 -0.0821
 8442SOL    HW136785   2.339   2.595   8.847  1.2660  1.0251 -0.3191
 8442SOL    HW236786   2.455   2.629   8.936  0.2285  0.8497  1.3942
 8443SOL     OW36787   2.397   3.008   7.213  0.3072  0.0005 -0.4869
 8443SOL    HW136788   2.324   3.054   7.254  2.5499  2.4097  0.7810
 8443SOL    HW236789   2.353   2.932   7.173 -1.4892  0.0201  1.4462
 8444SOL     OW36790   3.893   4.599   1.978  0.2888  0.2697 -0.6261
 8444SOL    HW136791   3.820   4.631   1.926 -0.2415  0.2076  0.0781
 8444SOL    HW236792   3.935   4.681   2.006 -1.8843  0.6393  1.5299
 8445SOL     OW36793   2.705   3.391   1.390 -0.3414 -0.2338 -0.1729
 8445SOL    HW136794   2.764   3.357   1.323 -0.5598 -0.0696 -0.4478
 8445SOL    HW236795   2.699   3.485   1.370 -1.1618 -0.3686 -0.5797
 8446SOL     OW36796   4.445   2.716   5.660 -0.2106  0.6432  0.0503
 8446SOL    HW136797   4.529   2.762   5.668  1.0143 -1.7898  1.4920
 8446SOL    HW236798   4.421   2.721   5.753  1.0984  2.1253  0.3218
 8447SOL     OW36799   4.678   0.910   7.905 -0.2249  0.9917 -0.5673
 8447SOL    HW136800   0.001   0.836   7.867 -0.5511  1.4042 -1.7670
 8447SOL    HW236801   4.638   0.863   7.978  2.0190 -0.3780 -0.2399
 8448SOL     OW36802   2.724   2.487   6.188  0.3185  0.3722  0.1866
 8448SOL    HW136803   2.703   2.430   6.113 -0.6049 -0.6313  1.2006
 8448SOL    HW236804   2.764   2.561   6.143 -0.2314  1.8727  2.1805
 8449SOL     OW36805   2.361   4.138   5.361  0.6987 -0.2160  0.0045
 8449SOL    HW136806   2.346   4.204   5.294  3.6716  0.1542 -0.3047
 8449SOL    HW236807   2.269   4.117   5.379  0.8439 -1.4499 -0.6904
 8450SOL     OW36808   2.847   3.625   3.552  0.3537  0.0337 -0.1536
 8450SOL    HW136809   2.880   3.538   3.574  1.8112  0.7974  0.6399
 8450SOL    HW236810   2.786   3.640   3.624  1.8424 -1.4558  1.4146
 8451SOL     OW36811   2.741   0.631  10.294  0.3234  0.7346 -0.5433
 8451SOL    HW136812   2.758   0.555  10.239  4.8392 -0.0611  1.9615
 8451SOL    HW236813   2.718   0.598  10.381  1.9315  2.0694  0.3875
 8452SOL     OW36814   2.848   0.645   1.239 -0.0368 -0.3379 -0.5419
 8452SOL    HW136815   2.873   0.555   1.220  3.4864  0.4668  0.1805
 8452SOL    HW236816   2.842   0.681   1.150  1.6083 -1.2109 -1.0167
 8453SOL     OW36817   1.689   2.691  11.688 -0.3461  0.1746 -0.2362
 8453SOL    HW136818   1.703   2.713  11.596 -0.1653  1.4866  0.1189
 8453SOL    HW236819   1.687   2.596  11.676 -1.7690  0.0964  0.5690
 8454SOL     OW36820   4.510   3.599   8.274  0.3895  0.7230  0.2643
 8454SOL    HW136821   4.599   3.617   8.245  0.1120 -0.2122 -1.1793
 8454SOL    HW236822   4.469   3.599   8.188 -0.9331 -0.6307  0.8924
 8455SOL     OW36823   4.434   3.170   5.104  0.3049 -0.2093 -0.0572
 8455SOL    HW136824   4.400   3.253   5.068  1.6598  1.6277  2.9104
 8455SOL    HW236825   4.385   3.098   5.065 -1.6423 -0.4940  2.9221
 8456SOL     OW36826   3.071   1.647   4.589  0.3968 -0.4144 -0.0516
 8456SOL    HW136827   3.142   1.648   4.654  0.1344 -1.8406  0.2562
 8456SOL    HW236828   3.043   1.738   4.590  0.7775 -0.3325  2.2723
 8457SOL     OW36829   3.305   2.842  10.331 -0.4123  0.1240  0.5558
 8457SOL    HW136830   3.383   2.896  10.347 -0.9450  0.9151  0.4841
 8457SOL    HW236831   3.333   2.756  10.362 -0.2085 -0.4267 -1.1473
 8458SOL     OW36832   0.766   3.553  10.103 -0.2146 -0.7754  0.5758
 8458SOL    HW136833   0.764   3.552  10.198 -1.6854  3.5657  0.6081
 8458SOL    HW236834   0.849   3.510  10.087  1.0739  2.1154 -0.6064
 8459SOL     OW36835   3.104   0.633   9.036  0.1263 -0.3134  0.1583
 8459SOL    HW136836   3.055   0.711   9.008 -0.0163 -0.9112 -1.2157
 8459SOL    HW236837   3.193   0.654   9.009 -0.1980  0.3665 -0.3895
 8460SOL     OW36838   2.710   2.279   8.424  0.1064 -0.3514 -0.1406
 8460SOL    HW136839   2.757   2.362   8.413 -0.4666 -0.3317 -2.5047
 8460SOL    HW236840   2.626   2.290   8.379  0.1315  3.1676  0.6192
 8461SOL     OW36841   4.605   1.826   0.962  0.5777  0.3867  0.0736
 8461SOL    HW136842   4.577   1.749   0.911 -1.5349  0.1216  1.6083
 8461SOL    HW236843   4.622   1.791   1.050 -1.2863 -1.0948 -0.1556
 8462SOL     OW36844   3.720   3.015  17.274 -0.0282 -0.0083 -0.1211
 8462SOL    HW136845   3.746   2.945  17.214 -1.5093 -0.6931  0.0266
 8462SOL    HW236846   3.636   3.033  17.231 -0.0229  1.3565  0.4492
 8463SOL     OW36847   3.453   3.364   4.993  0.3308 -0.3010 -0.0286
 8463SOL    HW136848   3.487   3.437   5.045 -2.6209  2.1269 -1.4543
 8463SOL    HW236849   3.531   3.313   4.971  0.7689  1.2196 -2.0167
 8464SOL     OW36850   1.363   0.347   1.057  0.8368 -0.3720 -0.2807
 8464SOL    HW136851   1.322   0.345   1.144  0.4996  0.5424 -0.4162
 8464SOL    HW236852   1.293   0.400   1.018  0.5006 -1.9067 -1.7522
 8465SOL     OW36853   1.540   3.092   5.268  0.4073 -0.0095 -0.1341
 8465SOL    HW136854   1.507   3.087   5.358 -0.8060  1.3327 -0.4931
 8465SOL    HW236855   1.480   3.155   5.227 -0.3721 -0.5633  0.1595
 8466SOL     OW36856   3.032   0.286   1.453 -0.3753  0.5864  0.7546
 8466SOL    HW136857   3.110   0.233   1.438  0.2128  1.7592 -0.2638
 8466SOL    HW236858   3.050   0.337   1.532 -0.5999 -0.0564  1.2222
 8467SOL     OW36859   3.442   0.785   4.209 -0.1091 -0.5755 -0.1280
 8467SOL    HW136860   3.531   0.821   4.203 -0.8660  1.1195 -1.3534
 8467SOL    HW236861   3.435   0.763   4.301 -0.2066 -1.4174 -0.3391
 8468SOL     OW36862   4.222   3.575  17.502  0.2125 -0.2373  0.4026
 8468SOL    HW136863   4.254   3.535  17.582  1.7048 -1.1601 -0.6475
 8468SOL    HW236864   4.237   3.665  17.532 -1.2082  0.0398  0.2600
 8469SOL     OW36865   4.406   3.447  11.213 -0.2942 -0.4277 -0.0709
 8469SOL    HW136866   4.415   3.505  11.138 -0.6090 -1.3396 -0.8209
 8469SOL    HW236867   4.468   3.484  11.276 -0.7806 -0.1325  0.2336
 8470SOL     OW36868   2.168   4.441   9.752  0.4469 -0.2105  0.3478
 8470SOL    HW136869   2.226   4.377   9.710 -1.5095 -0.1074 -2.5635
 8470SOL    HW236870   2.153   4.486   9.669 -1.1370  0.5532  1.0567
 8471SOL     OW36871   4.411   3.202   8.577 -0.0541 -0.3966  0.0321
 8471SOL    HW136872   4.443   3.219   8.665  0.4857  0.7720 -0.3886
 8471SOL    HW236873   4.461   3.267   8.528 -1.2819  0.2756 -0.3197
 8472SOL     OW36874   0.911   3.596   6.429  0.5541 -0.4557 -0.4944
 8472SOL    HW136875   0.836   3.655   6.424  1.0249  0.0585 -1.4717
 8472SOL    HW236876   0.980   3.662   6.437 -0.2166  0.5051 -1.7663
 8473SOL     OW36877   3.409   2.770   5.984 -0.5107 -0.5450 -0.0166
 8473SOL    HW136878   3.323   2.790   6.021 -0.2733  0.7810 -0.1822
 8473SOL    HW236879   3.470   2.788   6.055  0.4676 -1.7985 -0.5247
 8474SOL     OW36880   4.292   1.681  15.936  0.7028  0.2560 -0.1673
 8474SOL    HW136881   4.378   1.703  15.900  1.6410  0.8513  2.3738
 8474SOL    HW236882   4.249   1.767  15.933 -0.2187 -0.1231  1.9476
 8475SOL     OW36883   0.212   2.753   2.579 -0.1550 -0.1885 -0.0811
 8475SOL    HW136884   0.193   2.682   2.517 -0.6381  0.7700 -1.0227
 8475SOL    HW236885   0.225   2.694   2.653 -1.2391 -0.1412  0.1458
 8476SOL     OW36886   4.196   0.893   9.479  0.1744 -0.6636  0.3678
 8476SOL    HW136887   4.247   0.916   9.557 -1.0899 -0.7568  1.2214
 8476SOL    HW236888   4.129   0.961   9.486 -0.7454 -1.9870  4.5518
 8477SOL     OW36889   2.687   1.932  15.173 -0.3043 -0.8394 -1.0594
 8477SOL    HW136890   2.706   2.003  15.111 -0.7538 -0.8734 -1.2317
 8477SOL    HW236891   2.592   1.926  15.163 -0.5283  0.5206  0.3671
 8478SOL     OW36892   0.431   1.621   6.396  0.3999  0.1719 -0.0204
 8478SOL    HW136893   0.409   1.668   6.316  0.8857  0.7860  0.2056
 8478SOL    HW236894   0.463   1.538   6.360 -0.2549  0.3281 -0.9581
 8479SOL     OW36895   2.023   0.213   4.987 -0.3689 -0.5106  0.0626
 8479SOL    HW136896   2.053   0.260   4.909  0.6448 -0.7048  0.3376
 8479SOL    HW236897   2.108   0.174   5.009 -0.8317 -2.4432 -1.5962
 8480SOL     OW36898   0.680   4.599   4.027 -0.2464 -0.1966  0.3496
 8480SOL    HW136899   0.693   4.634   4.115 -0.7528  2.9153 -0.8395
 8480SOL    HW236900   0.651   4.675   3.976 -0.8792 -0.3943  0.4087
 8481SOL     OW36901   3.602   4.461   3.168 -0.6830 -0.6375 -0.3381
 8481SOL    HW136902   3.629   4.524   3.234 -0.6441 -0.4715 -0.5146
 8481SOL    HW236903   3.594   4.527   3.100 -0.2991  0.2573  0.4885
 8482SOL     OW36904   3.824   1.561   2.623  0.3646 -0.3266  0.0151
 8482SOL    HW136905   3.740   1.604   2.639 -0.0799 -0.1237 -2.8452
 8482SOL    HW236906   3.826   1.546   2.529 -1.0050 -0.2339 -0.0244
 8483SOL     OW36907   2.830   4.020   9.336 -0.5643 -0.0939  0.1638
 8483SOL    HW136908   2.912   3.975   9.353  0.6202  2.0176  0.0763
 8483SOL    HW236909   2.854   4.108   9.363  0.4156 -0.0948 -0.6967
 8484SOL     OW36910   0.050   4.455   6.714  0.6078  0.3814 -0.1861
 8484SOL    HW136911   0.016   4.545   6.711 -0.7912 -0.1199  0.6674
 8484SOL    HW236912   4.723   4.416   6.785  3.9778 -1.4351  1.1973
 8485SOL     OW36913   4.421   3.771  14.400  0.2552  0.0358  0.2792
 8485SOL    HW136914   4.462   3.697  14.446 -0.4951  0.8244  2.1831
 8485SOL    HW236915   4.499   3.802  14.354 -1.0349  1.4298 -0.9464
 8486SOL     OW36916   1.734   2.334  10.123  0.3812  0.2139 -0.2057
 8486SOL    HW136917   1.706   2.266  10.184  0.5472  0.2978 -0.0369
 8486SOL    HW236918   1.651   2.375  10.099 -0.4041 -0.4156  1.4496
 8487SOL     OW36919   4.226   4.577  16.668  0.5118  0.1145 -0.3998
 8487SOL    HW136920   4.279   4.499  16.654  3.5567  1.4001  4.1181
 8487SOL    HW236921   4.134   4.554  16.673  0.7842 -0.1477  2.9058
 8488SOL     OW36922   1.937   1.163   9.467 -0.4862  0.2385  0.3632
 8488SOL    HW136923   1.870   1.122   9.522 -0.0303 -1.7628 -0.5612
 8488SOL    HW236924   1.993   1.207   9.531  0.9981 -1.5455  0.2840
 8489SOL     OW36925   2.259   0.009  10.878  0.0130 -0.2779 -0.1147
 8489SOL    HW136926   2.343   4.707  10.841 -0.0502 -4.4929  2.6563
 8489SOL    HW236927   2.206   4.674  10.823 -0.6886  0.5091 -0.2899
 8490SOL     OW36928   1.247   3.413   9.447 -0.4467 -0.7293  0.0663
 8490SOL    HW136929   1.168   3.361   9.432  1.0799 -3.2988  0.8603
 8490SOL    HW236930   1.288   3.393   9.363  2.0408 -0.4967  1.2308
 8491SOL     OW36931   1.856   0.919   1.523 -0.3063 -0.7461  0.3404
 8491SOL    HW136932   1.933   0.893   1.472 -0.5394  1.5057 -1.1519
 8491SOL    HW236933   1.785   0.907   1.460 -0.4349  0.6636  0.2187
 8492SOL     OW36934   2.249   0.010  13.112 -0.0370 -0.6918 -0.1253
 8492SOL    HW136935   2.181   4.667  13.102 -0.2422 -0.3351 -1.1186
 8492SOL    HW236936   2.273   0.040  13.024 -2.2248  2.1263  0.2659
 8493SOL     OW36937   3.462   4.389   3.851 -0.4086  0.2101 -0.2670
 8493SOL    HW136938   3.473   4.388   3.946 -1.8643 -0.7203 -0.1052
 8493SOL    HW236939   3.378   4.436   3.844 -0.6553 -0.0641  0.7807
 8494SOL     OW36940   3.111   4.311   5.790 -0.5073 -0.0662 -0.2653
 8494SOL    HW136941   3.120   4.345   5.879  0.5259  0.0177 -0.3973
 8494SOL    HW236942   3.204   4.298   5.774 -0.7625  0.1996 -1.9963
 8495SOL     OW36943   3.652   2.225   3.201  0.2615 -0.1235  0.1169
 8495SOL    HW136944   3.737   2.229   3.245  1.2094  0.9765 -1.8211
 8495SOL    HW236945   3.659   2.306   3.151 -4.1862  1.4007  1.9276
 8496SOL     OW36946   0.565   2.823  13.005 -0.1289 -0.2122 -0.7775
 8496SOL    HW136947   0.507   2.818  13.080 -0.1090  1.9779 -0.5996
 8496SOL    HW236948   0.646   2.843  13.051 -0.9074  0.9954  0.0663
 8497SOL     OW36949   2.595   3.285   7.921  0.0362  0.4127 -0.6489
 8497SOL    HW136950   2.578   3.287   7.827 -1.6141 -2.4939 -0.4157
 8497SOL    HW236951   2.508   3.304   7.955  0.7545  0.1218  1.3497
 8498SOL     OW36952   4.030   3.854   2.228  0.4477 -0.3998  0.0921
 8498SOL    HW136953   3.966   3.788   2.200 -0.6155  2.4623 -4.1614
 8498SOL    HW236954   4.085   3.868   2.151  0.6743 -0.7404  0.1932
 8499SOL     OW36955   4.149   2.414   1.277 -0.2671  0.3513 -0.3281
 8499SOL    HW136956   4.209   2.400   1.204 -0.1683 -0.1545 -0.1503
 8499SOL    HW236957   4.078   2.466   1.237 -0.7625 -0.8867 -1.0561
 8500SOL     OW36958   0.622   3.476  13.968  0.3200 -0.3085  0.6882
 8500SOL    HW136959   0.710   3.501  13.996  1.1098 -0.4537 -1.6483
 8500SOL    HW236960   0.578   3.489  14.052 -2.2242 -1.1208 -0.5188
 8501SOL     OW36961   3.672   0.138   3.160  0.0984 -0.7394  0.5416
 8501SOL    HW136962   3.597   0.181   3.202  1.8713  3.1010 -0.2257
 8501SOL    HW236963   3.657   0.172   3.072  0.6106 -0.4399  0.5684
 8502SOL     OW36964   3.758   3.633   3.642 -0.4258  0.2703  0.3723
 8502SOL    HW136965   3.789   3.599   3.558 -0.2749 -0.4493  0.7213
 8502SOL    HW236966   3.826   3.697   3.663  0.0964 -0.0590 -0.3189
 8503SOL     OW36967   0.546   2.778   9.241  0.3948  0.5723 -0.2692
 8503SOL    HW136968   0.462   2.733   9.250 -0.5496  1.9604 -2.2088
 8503SOL    HW236969   0.512   2.867   9.229  0.5566  0.5137 -1.1654
 8504SOL     OW36970   4.504   2.532   3.663 -0.3189 -0.4095 -0.1246
 8504SOL    HW136971   4.422   2.582   3.658  0.1447  0.2399 -1.3034
 8504SOL    HW236972   4.539   2.551   3.576 -1.0739  2.3631  0.1906
 8505SOL     OW36973   2.390   4.108   7.107  0.1383  0.6091  0.3682
 8505SOL    HW136974   2.427   4.161   7.178  0.0730  0.7369  0.3073
 8505SOL    HW236975   2.377   4.176   7.042 -2.9555 -0.3650 -0.0048
 8506SOL     OW36976   3.582   4.352  14.242 -0.3448 -0.1213 -0.5400
 8506SOL    HW136977   3.660   4.307  14.208  0.3517 -0.0106  0.9322
 8506SOL    HW236978   3.592   4.444  14.219 -3.2511  0.5944  1.0692
 8507SOL     OW36979   1.388   4.416   3.044  0.0550 -0.2693 -0.1234
 8507SOL    HW136980   1.392   4.398   2.950  0.7636 -1.1343  0.0830
 8507SOL    HW236981   1.481   4.410   3.064  0.1083  0.4335 -0.1644
 8508SOL     OW36982   0.484   3.910   6.498 -0.0044  0.5535 -0.0188
 8508SOL    HW136983   0.488   3.910   6.594  1.4501  0.4509 -0.0765
 8508SOL    HW236984   0.388   3.905   6.492  0.1016 -0.5249 -0.8234
 8509SOL     OW36985   1.552   0.646  15.969 -0.9929 -0.4612  0.3053
 8509SOL    HW136986   1.482   0.666  16.032  0.0407 -2.2570  2.0386
 8509SOL    HW236987   1.511   0.570  15.927 -0.0887 -1.8157  1.8673
 8510SOL     OW36988   2.510   4.025   8.475 -0.1751  0.4131  0.0225
 8510SOL    HW136989   2.451   4.070   8.536 -0.6580 -1.7041  1.1258
 8510SOL    HW236990   2.517   4.088   8.404 -0.5296 -1.1867 -1.4177
 8511SOL     OW36991   1.393   2.409   8.405 -0.6854 -0.0553 -0.2201
 8511SOL    HW136992   1.377   2.338   8.467  1.5412  1.7665  2.4430
 8511SOL    HW236993   1.335   2.478   8.437  0.1989  0.3133  0.5986
 8512SOL     OW36994   0.805   1.472  14.688 -0.1366 -0.3317  0.1120
 8512SOL    HW136995   0.795   1.562  14.719  0.0986 -0.1341 -0.3803
 8512SOL    HW236996   0.875   1.446  14.748 -0.3878  1.4011  1.1287
 8513SOL     OW36997   3.869   1.457   4.047 -0.0777 -0.7250  0.1579
 8513SOL    HW136998   3.909   1.507   3.976 -1.9574  0.1227 -0.3128
 8513SOL    HW236999   3.778   1.463   4.017 -0.1684  0.9343  0.7536
 8514SOL     OW37000   2.515   1.837   5.343  0.0449 -0.4657 -0.4021
 8514SOL    HW137001   2.442   1.819   5.402  0.1752 -0.9057 -0.3757
 8514SOL    HW237002   2.538   1.747   5.319 -1.0965 -0.4871 -1.4159
 8515SOL     OW37003   0.528   1.655   9.081  0.0852 -0.0566 -0.6159
 8515SOL    HW137004   0.518   1.748   9.104 -0.5827 -0.5839  1.2894
 8515SOL    HW237005   0.595   1.629   9.145  0.6237 -0.1121 -1.2023
 8516SOL     OW37006   1.628   2.593   3.244 -0.1280  0.6109 -0.1822
 8516SOL    HW137007   1.653   2.626   3.330 -2.3481 -3.0404  1.8420
 8516SOL    HW237008   1.694   2.528   3.221  0.0462  0.7152  0.0235
 8517SOL     OW37009   1.137   1.423  10.598  0.6300 -0.2847 -0.1789
 8517SOL    HW137010   1.095   1.337  10.598 -0.5892  0.3219 -2.1290
 8517SOL    HW237011   1.101   1.451  10.514  2.4854  1.0750 -0.5146
 8518SOL     OW37012   2.717   1.568   5.811  0.0352 -0.1806  0.0723
 8518SOL    HW137013   2.758   1.512   5.877 -1.2591 -0.2113  0.8488
 8518SOL    HW237014   2.777   1.561   5.736 -2.3062  0.7810 -1.8889
 8519SOL     OW37015   2.870   4.047   5.242 -0.3570  0.2304  0.0556
 8519SOL    HW137016   2.855   4.137   5.211  2.3980  0.6526 -0.0419
 8519SOL    HW237017   2.900   4.006   5.161  1.5039  1.0879  0.2998
 8520SOL     OW37018   3.470   4.462   9.176 -0.0054 -0.4849  0.2932
 8520SOL    HW137019   3.514   4.419   9.249 -0.9559  0.7085  1.5715
 8520SOL    HW237020   3.508   4.423   9.097  1.4275  0.4562  0.5201
 8521SOL     OW37021   3.579   3.496  11.241  0.6956  0.4396  0.4220
 8521SOL    HW137022   3.590   3.476  11.148 -1.4119 -1.8439  0.6374
 8521SOL    HW237023   3.486   3.515  11.252  0.0607 -2.4245  0.1104
 8522SOL     OW37024   3.415   1.156   6.748  0.2389  0.3736  0.3145
 8522SOL    HW137025   3.432   1.103   6.670 -2.1808 -0.3818  0.3118
 8522SOL    HW237026   3.473   1.126   6.818  0.4328 -0.8029 -0.3605
 8523SOL     OW37027   4.369   1.278   3.913  0.2307  0.1385 -0.0031
 8523SOL    HW137028   4.453   1.249   3.879  1.1321 -0.3316  2.5980
 8523SOL    HW237029   4.393   1.342   3.981  0.2857 -1.1699  1.2055
 8524SOL     OW37030   1.345   1.471   6.792 -0.0135 -0.4141  0.0176
 8524SOL    HW137031   1.435   1.491   6.816  0.2208 -1.0033 -0.3804
 8524SOL    HW237032   1.296   1.542   6.834 -0.8190 -0.8334 -0.2210
 8525SOL     OW37033   3.508   0.586   7.669 -0.5291 -0.1453 -0.3348
 8525SOL    HW137034   3.571   0.656   7.689 -0.0508  0.0472 -2.5776
 8525SOL    HW237035   3.465   0.612   7.587  0.5379  2.5128 -0.0671
 8526SOL     OW37036   0.015   2.242  15.951  0.4669 -0.1578 -0.1967
 8526SOL    HW137037   4.649   2.276  15.946  0.9740  1.4998  1.7909
 8526SOL    HW237038   0.066   2.302  16.005  1.1720 -0.9927  0.0528
 8527SOL     OW37039   3.566   4.659   4.059  0.2649  0.1164  0.2610
 8527SOL    HW137040   3.498   4.682   4.122  1.0654  1.2597  0.7177
 8527SOL    HW237041   3.538   4.698   3.976  1.3089  0.2698 -0.0223
 8528SOL     OW37042   1.631   2.320   9.079 -0.1005 -0.3886 -0.3052
 8528SOL    HW137043   1.690   2.249   9.056  0.4510 -0.1663  0.4057
 8528SOL    HW237044   1.644   2.386   9.011 -2.3855 -1.0388 -1.3637
 8529SOL     OW37045   2.416   2.456  17.371 -0.0263  0.0819  0.3309
 8529SOL    HW137046   2.387   2.365  17.376  1.4195 -0.3646  0.6204
 8529SOL    HW237047   2.448   2.457  17.281 -0.4508  0.9165  0.1905
 8530SOL     OW37048   4.710   4.280  13.579 -0.1995 -0.1345  0.6601
 8530SOL    HW137049   4.652   4.281  13.502  1.6557  0.7432 -0.7183
 8530SOL    HW237050   4.675   4.352  13.633  1.9077  2.2726 -1.1658
 8531SOL     OW37051   0.823   1.497   4.017 -0.4167 -0.3643  0.0164
 8531SOL    HW137052   0.836   1.428   4.083  0.7274 -0.2141 -0.0682
 8531SOL    HW237053   0.755   1.548   4.063 -1.0069 -1.5231  0.4337
 8532SOL     OW37054   3.332   4.330  12.590 -0.2883  0.5663 -0.3487
 8532SOL    HW137055   3.250   4.338  12.542  0.1937  0.4722 -1.1893
 8532SOL    HW237056   3.370   4.248  12.558  0.2976 -0.2137  2.2533
 8533SOL     OW37057   0.166   2.827   8.289  0.8457 -0.0746 -0.1251
 8533SOL    HW137058   0.090   2.811   8.232  0.3217  1.4608  0.1546
 8533SOL    HW237059   0.190   2.734   8.290 -1.9100 -0.7743 -0.1390
 8534SOL     OW37060   1.422   1.500   8.498  0.5299 -0.4033  0.2886
 8534SOL    HW137061   1.411   1.533   8.587  0.1167  1.8197 -0.5725
 8534SOL    HW237062   1.468   1.417   8.512  0.9422 -0.2599 -0.2472
 8535SOL     OW37063   3.595   2.132  10.172  0.0362 -0.0252  0.3437
 8535SOL    HW137064   3.521   2.169  10.124  0.2899  2.4208  1.8708
 8535SOL    HW237065   3.675   2.174  10.143  0.3655 -0.3181  0.8234
 8536SOL     OW37066   3.927   3.548   0.319  0.2749  0.2188  0.2276
 8536SOL    HW137067   3.939   3.513   0.231 -1.6435  0.0997  0.0162
 8536SOL    HW237068   3.987   3.483   0.356  0.5573 -1.5160 -3.2749
 8537SOL     OW37069   1.714   2.631   4.353 -0.0646  0.4416 -1.0115
 8537SOL    HW137070   1.635   2.667   4.312 -0.3329  0.1528 -0.7449
 8537SOL    HW237071   1.713   2.670   4.441  2.3832 -1.8850  0.0270
 8538SOL     OW37072   3.526   2.169   4.088  0.1486  0.2207  0.1965
 8538SOL    HW137073   3.460   2.104   4.112 -2.2959  2.2346 -1.0080
 8538SOL    HW237074   3.536   2.159   3.993  1.3348  0.9631  0.2541
 8539SOL     OW37075   3.737   2.111   5.815 -0.4597 -0.2109  0.0445
 8539SOL    HW137076   3.646   2.118   5.785 -0.6640 -0.7249  0.5397
 8539SOL    HW237077   3.724   2.147   5.902 -1.1601  2.1635 -1.0447
 8540SOL     OW37078   2.299   2.535   9.909 -0.0153 -0.4820  0.0334
 8540SOL    HW137079   2.329   2.452   9.945 -0.5261 -1.6418 -2.1959
 8540SOL    HW237080   2.361   2.597   9.948 -2.2106  1.4688  0.4444
 8541SOL     OW37081   0.067   2.501   9.027  0.2803  0.1778  0.4045
 8541SOL    HW137082   0.010   2.544   9.090  0.4409  0.5803  0.2817
 8541SOL    HW237083   0.021   2.500   8.943 -0.3691 -0.6042  0.7745
 8542SOL     OW37084   4.395   2.129  11.859 -0.2266 -0.0586 -0.1785
 8542SOL    HW137085   4.463   2.076  11.899 -1.9690 -1.7187  0.5719
 8542SOL    HW237086   4.424   2.135  11.768  1.3202 -2.0275  0.1956
 8543SOL     OW37087   3.653   1.971  14.882 -0.1054 -0.6656  0.3424
 8543SOL    HW137088   3.724   1.952  14.821  0.7865 -1.6568  1.6754
 8543SOL    HW237089   3.579   1.992  14.826 -0.3235 -1.3172  0.3798
 8544SOL     OW37090   0.809   2.349  16.815  0.3281  0.1905  0.0338
 8544SOL    HW137091   0.890   2.393  16.841  0.2824  0.4434 -0.2496
 8544SOL    HW237092   0.844   2.273  16.770  1.6249  0.9690 -0.2573
 8545SOL     OW37093   4.369   3.717  13.950 -0.1144  0.3391  0.1986
 8545SOL    HW137094   4.343   3.708  13.858 -0.5596 -1.5840  0.5238
 8545SOL    HW237095   4.283   3.746  13.983 -0.0712  0.1302  0.4888
 8546SOL     OW37096   2.723   3.780   7.698  0.4348  0.0869 -0.3661
 8546SOL    HW137097   2.687   3.718   7.761 -1.1306  1.5071  0.1432
 8546SOL    HW237098   2.796   3.729   7.663  1.2818  1.0832 -0.0654
 8547SOL     OW37099   3.180   0.418   7.503  0.1694  0.1673  0.4143
 8547SOL    HW137100   3.132   0.443   7.424  0.0226  1.7629  1.0012
 8547SOL    HW237101   3.216   0.336   7.471 -1.7254 -1.1202  1.6325
 8548SOL     OW37102   2.965   3.618  12.159 -0.3924 -0.0643 -0.1847
 8548SOL    HW137103   2.927   3.617  12.071  2.5702 -2.2196 -1.4649
 8548SOL    HW237104   3.060   3.631  12.150 -0.2331  0.4025  2.1696
 8549SOL     OW37105   3.787   0.020   4.196  0.2532  0.0966 -0.5163
 8549SOL    HW137106   3.838   4.679   4.148  1.3584  0.7755 -0.2491
 8549SOL    HW237107   3.698   0.001   4.164 -0.2322  1.5386 -0.0369
 8550SOL     OW37108   3.093   3.152   9.877  0.1960  0.1515  0.1652
 8550SOL    HW137109   3.172   3.099   9.883 -0.4142 -0.8085 -0.1738
 8550SOL    HW237110   3.064   3.163   9.967  0.3312  0.7893  0.1284
 8551SOL     OW37111   2.614   4.031   5.084 -0.2340 -0.3894 -0.3711
 8551SOL    HW137112   2.611   4.126   5.074  1.9384 -0.2512  0.2920
 8551SOL    HW237113   2.619   4.015   4.990 -0.2130 -1.5333 -0.1733
 8552SOL     OW37114   3.064   0.434   6.524 -0.2795 -0.1823  0.2239
 8552SOL    HW137115   3.014   0.358   6.553 -0.2756 -0.7511 -1.2367
 8552SOL    HW237116   3.152   0.399   6.507 -0.6113 -1.0037  0.1784
 8553SOL     OW37117   0.006   0.370   4.480 -0.0992  0.5626 -0.0487
 8553SOL    HW137118   4.714   0.398   4.570 -2.6606  3.6004 -1.4346
 8553SOL    HW237119   0.055   0.450   4.460 -0.6198  1.7213  3.4138
 8554SOL     OW37120   4.176   4.205   0.670  0.1904 -0.1427  0.5275
 8554SOL    HW137121   4.103   4.226   0.612 -0.7966  0.3047  1.9054
 8554SOL    HW237122   4.232   4.155   0.612 -0.9794  0.5163 -1.1669
 8555SOL     OW37123   0.510   0.479  12.268 -0.2290  0.6138 -0.1065
 8555SOL    HW137124   0.443   0.411  12.268 -0.6622  1.0471 -0.1121
 8555SOL    HW237125   0.544   0.463  12.357 -1.6519  0.9526  0.4981
 8556SOL     OW37126   3.588   1.785   5.566 -0.4822 -0.3898 -0.6009
 8556SOL    HW137127   3.660   1.763   5.625 -0.2993 -1.8102 -1.3479
 8556SOL    HW237128   3.514   1.784   5.626  0.6410 -2.6921  0.7246
 8557SOL     OW37129   1.707   3.563   9.388 -0.2764  0.2297  0.5924
 8557SOL    HW137130   1.704   3.643   9.335  0.9630 -0.4469 -0.4814
 8557SOL    HW237131   1.801   3.567   9.405  0.1434  0.3954 -1.7823
 8558SOL     OW37132   0.704   3.518  16.795  0.0668 -0.0626  0.2407
 8558SOL    HW137133   0.729   3.528  16.703  1.6457  0.9230  0.7847
 8558SOL    HW237134   0.657   3.597  16.823 -1.2029 -1.2900  1.5794
 8559SOL     OW37135   4.564   0.155   8.025 -0.0969  0.2239 -0.3612
 8559SOL    HW137136   4.516   0.094   8.081 -1.6770  2.7852  1.0797
 8559SOL    HW237137   4.655   0.125   8.022  0.2506  1.0418  1.8656
 8560SOL     OW37138   3.191   0.250   5.559 -0.4268 -0.4074 -0.6837
 8560SOL    HW137139   3.218   0.202   5.481  0.1573 -0.3725 -0.4987
 8560SOL    HW237140   3.138   0.313   5.509 -2.8106 -0.5084  1.7051
 8561SOL     OW37141   0.463   3.852  17.170  1.0725 -0.3388  0.4770
 8561SOL    HW137142   0.380   3.811  17.193  1.8401 -2.2151 -0.0720
 8561SOL    HW237143   0.441   3.926  17.113  1.1906 -1.0837 -0.5302
 8562SOL     OW37144   3.853   3.526   0.625 -0.1156 -0.1870  0.0993
 8562SOL    HW137145   3.812   3.443   0.646 -0.6179 -0.0898 -0.5135
 8562SOL    HW237146   3.875   3.510   0.534 -0.1453  1.7642 -0.2577
 8563SOL     OW37147   2.626   2.720   2.475 -0.0286 -0.2994 -0.8923
 8563SOL    HW137148   2.603   2.813   2.481 -0.4203 -0.4114 -0.6533
 8563SOL    HW237149   2.705   2.706   2.423  1.0177  4.0421 -0.4729
 8564SOL     OW37150   0.377   4.180  12.420  0.2412 -0.3346 -0.2990
 8564SOL    HW137151   0.430   4.108  12.455  1.2481  0.6320  0.1533
 8564SOL    HW237152   0.314   4.203  12.488  0.4851  0.1066 -0.2240
 8565SOL     OW37153   0.553   3.448   0.180  0.2482  0.0442  0.8450
 8565SOL    HW137154   0.556   3.526   0.236 -1.7767  1.1332 -0.5630
 8565SOL    HW237155   0.600   3.387   0.237 -0.1271 -0.7720  0.2857
 8566SOL     OW37156   1.876   0.695  11.053 -0.0722 -0.3269  0.5342
 8566SOL    HW137157   1.785   0.673  11.074  0.1100 -1.2340  0.4089
 8566SOL    HW237158   1.914   0.685  11.140 -0.0440  0.1969  0.5828
 8567SOL     OW37159   1.097   0.841   5.434 -0.2492 -0.3991 -0.2405
 8567SOL    HW137160   1.168   0.871   5.378  0.5075  1.5309  1.7314
 8567SOL    HW237161   1.147   0.816   5.512 -3.0490 -1.2994  1.2859
 8568SOL     OW37162   2.063   4.101   3.402 -0.0527 -0.7293  0.1188
 8568SOL    HW137163   2.103   4.188   3.397 -0.7741 -0.4946 -1.7268
 8568SOL    HW237164   1.994   4.105   3.335  1.1033 -2.0286 -1.1410
 8569SOL     OW37165   2.222   2.557   2.062  0.7189 -0.5842  0.0297
 8569SOL    HW137166   2.153   2.619   2.085  0.6815 -1.8230  3.1831
 8569SOL    HW237167   2.257   2.525   2.145  1.2841  1.0179  0.4205
 8570SOL     OW37168   0.641   1.337   4.643 -0.2347 -0.3543  0.4294
 8570SOL    HW137169   0.737   1.343   4.651  0.0040 -2.4465 -1.0813
 8570SOL    HW237170   0.623   1.244   4.636  2.6394 -0.9732  1.1336
 8571SOL     OW37171   1.674   3.508   8.880 -0.3716  0.4012  0.1799
 8571SOL    HW137172   1.699   3.495   8.971  0.4304 -0.6812 -0.1837
 8571SOL    HW237173   1.664   3.602   8.869  0.0447  0.1217 -2.7119
 8572SOL     OW37174   2.497   4.392   2.995  0.6698 -0.3886  0.4854
 8572SOL    HW137175   2.535   4.304   3.002 -1.6674 -1.4349  0.0929
 8572SOL    HW237176   2.453   4.383   2.911  4.7345  1.6960 -1.8956
 8573SOL     OW37177   1.511   0.346   4.615  0.2476 -0.6939  0.5259
 8573SOL    HW137178   1.498   0.386   4.701 -0.0644 -1.5487  0.8691
 8573SOL    HW237179   1.606   0.335   4.612  0.3004  0.8706 -4.3280
 8574SOL     OW37180   4.542   4.012   8.781  0.1070 -0.2036  0.3174
 8574SOL    HW137181   4.504   4.099   8.774  0.1480 -0.1705  0.4969
 8574SOL    HW237182   4.459   3.967   8.801 -0.9091  0.7978 -1.6480
 8575SOL     OW37183   1.126   2.690   4.731 -0.2258 -0.2948 -0.1303
 8575SOL    HW137184   1.179   2.722   4.658  0.7385  0.0253  0.7076
 8575SOL    HW237185   1.134   2.598   4.706  0.8076 -0.0783 -0.5601
 8576SOL     OW37186   3.950   1.974   3.033  0.1602 -0.4113  0.0240
 8576SOL    HW137187   3.856   1.983   3.016  0.3024  1.9452  0.5997
 8576SOL    HW237188   3.956   2.029   3.111 -2.5911 -1.3030  0.8727
 8577SOL     OW37189   3.171   1.144   8.607  0.3729 -0.1247 -0.1501
 8577SOL    HW137190   3.156   1.075   8.542  1.1680 -0.4322 -0.0119
 8577SOL    HW237191   3.193   1.091   8.683  1.1409 -1.2547 -1.1634
 8578SOL     OW37192   4.689   2.602  10.645 -0.0261  0.1630  0.1876
 8578SOL    HW137193   4.633   2.536  10.605 -0.8537  0.6274  0.5778
 8578SOL    HW237194   4.632   2.679  10.644 -0.2206  0.0209  0.6306
 8579SOL     OW37195   3.702   2.337   1.704  0.4482  0.2812 -0.0132
 8579SOL    HW137196   3.790   2.370   1.721  0.2248  1.3792 -1.0558
 8579SOL    HW237197   3.687   2.384   1.623 -2.6847 -0.3465  0.2075
 8580SOL     OW37198   3.377   0.724   7.480 -0.1395 -0.1877  0.4949
 8580SOL    HW137199   3.311   0.692   7.542 -0.5902 -0.4053 -0.1033
 8580SOL    HW237200   3.338   0.806   7.452  1.5096  0.6717  0.6979
 8581SOL     OW37201   2.395   3.232   6.436  0.4739  0.0839  0.2041
 8581SOL    HW137202   2.361   3.146   6.411 -0.2132  0.3066  0.3901
 8581SOL    HW237203   2.375   3.288   6.362  0.2954 -1.5037 -0.9364
 8582SOL     OW37204   3.682   1.126  13.208 -0.5826  0.0780 -0.4622
 8582SOL    HW137205   3.642   1.128  13.295 -1.1443  0.9572 -0.7385
 8582SOL    HW237206   3.664   1.215  13.176 -0.1307  0.4300  0.2498
 8583SOL     OW37207   1.061   2.773   2.963  0.0961  0.5367  0.4212
 8583SOL    HW137208   1.086   2.716   2.890  1.3166  1.8488 -0.1864
 8583SOL    HW237209   1.062   2.856   2.914  1.6297  1.6545  2.3394
 8584SOL     OW37210   3.934   0.323   2.187 -0.0688  0.0756  0.0662
 8584SOL    HW137211   3.996   0.348   2.256 -1.5113  0.0666  1.3468
 8584SOL    HW237212   3.937   0.392   2.121 -2.4319  1.1977  1.1697
 8585SOL     OW37213   2.280   4.722   9.802  0.1556 -0.6511 -0.3997
 8585SOL    HW137214   2.280   4.628   9.785  1.4199 -1.1079  2.2291
 8585SOL    HW237215   2.349   0.032   9.744  2.0343 -1.6243  1.2907
 8586SOL     OW37216   4.242   2.946   4.676 -0.3142 -0.2661  0.1141
 8586SOL    HW137217   4.276   3.006   4.609 -1.9244 -2.0799 -2.3170
 8586SOL    HW237218   4.152   2.944   4.644 -0.2576  0.1154 -0.0691
 8587SOL     OW37219   4.154   3.536   3.586 -0.1689 -0.3192 -0.7406
 8587SOL    HW137220   4.064   3.540   3.555 -0.1260  3.9441 -0.3385
 8587SOL    HW237221   4.149   3.469   3.654 -1.2638  0.1810 -0.3287
 8588SOL     OW37222   4.358   1.788   2.749  0.4795  0.3042 -0.0149
 8588SOL    HW137223   4.298   1.830   2.809 -0.3034 -0.4847 -0.2476
 8588SOL    HW237224   4.335   1.696   2.762 -0.6322  0.8843  2.1227
 8589SOL     OW37225   2.218   2.659  16.013  0.0297  0.1311  0.1602
 8589SOL    HW137226   2.191   2.686  15.925 -0.6663  0.5656  0.5096
 8589SOL    HW237227   2.271   2.733  16.042  0.4307 -0.3663  0.7024
 8590SOL     OW37228   1.912   2.797  15.949 -0.0040 -0.5483 -0.2681
 8590SOL    HW137229   1.999   2.797  15.909 -0.2068 -3.2247 -0.6676
 8590SOL    HW237230   1.894   2.704  15.959  1.1832 -0.9293 -1.6035
 8591SOL     OW37231   2.460   2.243   8.255  0.4930 -0.8414 -0.1075
 8591SOL    HW137232   2.500   2.278   8.176  0.0642 -1.9859 -0.8354
 8591SOL    HW237233   2.465   2.148   8.240  0.0662 -1.0630  1.2012
 8592SOL     OW37234   1.969   3.124  17.261  0.6676 -0.2286 -0.2172
 8592SOL    HW137235   2.029   3.111  17.334  0.3968 -0.0571  0.0367
 8592SOL    HW237236   1.888   3.081  17.287  0.2094  1.4830  1.2155
 8593SOL     OW37237   0.800   0.341   3.635 -0.4298 -0.0020 -1.2306
 8593SOL    HW137238   0.791   0.265   3.693  0.0548 -0.7799 -2.1927
 8593SOL    HW237239   0.849   0.410   3.681  0.4095 -2.7102  1.9730
 8594SOL     OW37240   2.394   3.452   6.777 -0.8633  0.1959  0.6064
 8594SOL    HW137241   2.314   3.492   6.743 -0.7244  1.5518  1.8575
 8594SOL    HW237242   2.375   3.358   6.779 -3.8974  0.8058  0.3189
 8595SOL     OW37243   3.459   3.267   9.696  0.0328  0.0563  0.6394
 8595SOL    HW137244   3.437   3.360   9.695  0.4950  0.1502 -0.2599
 8595SOL    HW237245   3.499   3.256   9.783  1.6782 -0.8954 -0.2398
 8596SOL     OW37246   1.441   3.502  13.180  0.0147  0.1025  0.5434
 8596SOL    HW137247   1.474   3.447  13.251 -1.5664  1.5845  2.4457
 8596SOL    HW237248   1.422   3.582  13.230 -0.5160 -0.6137  1.4753
 8597SOL     OW37249   3.565   0.657   8.069  0.4695 -0.7819 -0.1383
 8597SOL    HW137250   3.642   0.707   8.095 -0.9070 -0.1191  2.7043
 8597SOL    HW237251   3.509   0.691   8.139  2.6548 -0.1908  1.3078
 8598SOL     OW37252   3.705   3.593  10.800  0.2901  0.0311  0.1801
 8598SOL    HW137253   3.670   3.679  10.825 -0.7822 -1.4391  3.7757
 8598SOL    HW237254   3.742   3.614  10.714  0.5200  1.9754  0.7457
 8599SOL     OW37255   2.131   1.795   8.412 -0.0737  0.8470  0.6658
 8599SOL    HW137256   2.061   1.859   8.405  0.0892  1.2840  2.9311
 8599SOL    HW237257   2.154   1.764   8.325 -2.6920 -0.6196  0.5118
 8600SOL     OW37258   3.254   1.475   5.334 -0.4802 -0.2728  0.3405
 8600SOL    HW137259   3.261   1.561   5.373 -1.9835 -0.1876  0.4065
 8600SOL    HW237260   3.272   1.494   5.242 -1.4738  0.9722  0.4111
 8601SOL     OW37261   2.164   0.477   5.427  0.4170  0.0433 -0.2451
 8601SOL    HW137262   2.178   0.572   5.425 -2.3296  0.3987 -3.7694
 8601SOL    HW237263   2.157   0.459   5.333  1.0055 -1.9277  0.0778
 8602SOL     OW37264   4.159   3.698   0.240 -0.2764 -0.5431 -0.7331
 8602SOL    HW137265   4.094   3.725   0.305 -0.3551 -1.0720 -0.5881
 8602SOL    HW237266   4.191   3.782   0.207  1.1263 -1.8095 -2.5514
 8603SOL     OW37267   4.404   2.447  13.089 -0.2642 -0.6756  0.6560
 8603SOL    HW137268   4.419   2.438  13.183  0.1973  0.9098  0.7388
 8603SOL    HW237269   4.427   2.539  13.079  1.4702 -0.9470  2.1607
 8604SOL     OW37270   0.621   0.697   2.927 -0.1567  0.0616 -0.6220
 8604SOL    HW137271   0.665   0.620   2.962 -0.8401 -0.4780 -0.9531
 8604SOL    HW237272   0.688   0.760   2.953  0.2693 -1.0113  0.8764
 8605SOL     OW37273   3.853   1.619   8.126 -0.0606 -0.5122  0.0111
 8605SOL    HW137274   3.929   1.677   8.128 -0.2287 -0.3290  1.0424
 8605SOL    HW237275   3.795   1.656   8.060 -2.1658  2.3909  3.5122
 8606SOL     OW37276   2.440   1.426   5.814  0.1477 -0.2891 -0.3113
 8606SOL    HW137277   2.411   1.498   5.869 -3.1159 -1.5122 -0.4487
 8606SOL    HW237278   2.533   1.449   5.808  0.0372 -0.2767 -1.9533
 8607SOL     OW37279   1.289   0.195   0.798 -0.1979  0.3990  0.3769
 8607SOL    HW137280   1.362   0.136   0.817 -1.3601 -1.2347 -0.2218
 8607SOL    HW237281   1.272   0.217   0.890  2.2594  0.4162  0.8150
 8608SOL     OW37282   4.261   1.889   7.866 -0.4259  0.4707 -0.0257
 8608SOL    HW137283   4.298   1.861   7.950 -0.5990 -3.0041 -1.1454
 8608SOL    HW237284   4.267   1.803   7.827 -0.1592  0.7897 -0.6812
 8609SOL     OW37285   0.565   0.883  15.833 -0.0812 -1.0634 -0.5999
 8609SOL    HW137286   0.624   0.865  15.761 -0.6507 -0.3549 -1.2335
 8609SOL    HW237287   0.489   0.835  15.801  0.4890 -0.5475 -2.7034
 8610SOL     OW37288   4.706   2.556   8.393 -0.1961  0.5790 -0.2024
 8610SOL    HW137289   4.695   2.630   8.452 -2.0046  0.9730 -1.0379
 8610SOL    HW237290   0.075   2.535   8.389 -0.0634  1.1991 -0.3253
 8611SOL     OW37291   3.582   1.757   4.046 -0.1727 -0.1491  0.4649
 8611SOL    HW137292   3.529   1.767   4.125  0.3543  2.4698  0.4784
 8611SOL    HW237293   3.669   1.790   4.068 -0.8285  3.1128 -1.8263
 8612SOL     OW37294   3.144   4.527   8.383 -0.1230  0.3514 -0.3461
 8612SOL    HW137295   3.154   4.435   8.408  1.7449  0.6778  0.1105
 8612SOL    HW237296   3.169   4.524   8.291 -0.1228 -1.8791 -0.2911
 8613SOL     OW37297   2.379   4.579  12.531 -0.1039  0.0916 -0.1461
 8613SOL    HW137298   2.299   4.597  12.580  0.9052  0.0766  1.5329
 8613SOL    HW237299   2.425   4.526  12.597  1.1019 -0.3228 -1.3264
 8614SOL     OW37300   2.590   3.551   1.120 -0.6674 -0.0527 -0.4380
 8614SOL    HW137301   2.652   3.584   1.056  1.1191 -1.3660  0.6283
 8614SOL    HW237302   2.529   3.624   1.134 -1.3669 -0.7101 -0.0059
 8615SOL     OW37303   0.659   3.197   3.405 -0.2304 -0.0305  0.2666
 8615SOL    HW137304   0.583   3.140   3.415  0.1772 -0.6560 -0.2194
 8615SOL    HW237305   0.692   3.195   3.495  1.8125 -0.6647 -0.5081
 8616SOL     OW37306   3.969   2.514   6.352  0.2482 -0.1455 -0.1601
 8616SOL    HW137307   3.982   2.586   6.413  0.1278 -0.7014  0.5250
 8616SOL    HW237308   3.910   2.459   6.404  0.1228  0.2069  0.0734
 8617SOL     OW37309   0.767   0.860  12.195  0.0304 -0.6063 -0.1431
 8617SOL    HW137310   0.756   0.854  12.100  2.0591  0.7054 -0.4462
 8617SOL    HW237311   0.710   0.786  12.220  1.5140 -2.7770 -3.2126
 8618SOL     OW37312   2.949   3.647   5.788 -0.4654 -0.0118  0.3660
 8618SOL    HW137313   2.977   3.665   5.698 -2.1811  0.9805  0.0377
 8618SOL    HW237314   2.979   3.725   5.835  2.0303 -1.5393  1.2676
 8619SOL     OW37315   0.724   4.270   4.372 -0.4056  0.5186  0.3230
 8619SOL    HW137316   0.662   4.323   4.423  1.8345  1.0816  2.4235
 8619SOL    HW237317   0.801   4.325   4.383  0.2877 -0.2458 -0.7828
 8620SOL     OW37318   3.534   1.263   1.774  0.5107 -0.3303 -0.1431
 8620SOL    HW137319   3.441   1.247   1.760  0.4475  1.4572 -1.9481
 8620SOL    HW237320   3.565   1.173   1.768  2.7180  0.4500 -0.4912
 8621SOL     OW37321   1.195   0.858   6.982  0.5289  0.1220  0.2709
 8621SOL    HW137322   1.186   0.853   6.887  0.3535  3.1668  0.1245
 8621SOL    HW237323   1.152   0.938   7.014  2.1465  1.1464 -0.0809
 8622SOL     OW37324   0.784   2.469  11.492  0.2861 -0.0441 -0.0074
 8622SOL    HW137325   0.735   2.525  11.553 -0.6216 -0.4455 -0.3642
 8622SOL    HW237326   0.850   2.530  11.461 -0.3066 -0.2869 -1.7226
 8623SOL     OW37327   4.385   0.467   0.321 -0.1069  0.6355  0.7134
 8623SOL    HW137328   4.390   0.532   0.251  3.5397 -2.2236 -1.6803
 8623SOL    HW237329   4.293   0.442   0.329  0.7212 -2.2144  1.6229
 8624SOL     OW37330   1.881   3.254   8.216  0.0918  0.4164  0.0051
 8624SOL    HW137331   1.926   3.229   8.297  1.9359 -0.8207 -1.3910
 8624SOL    HW237332   1.883   3.349   8.229 -2.5623  0.4863 -0.2072
 8625SOL     OW37333   3.591   3.908   2.665 -0.7934  0.3317 -0.0854
 8625SOL    HW137334   3.573   4.002   2.656 -0.5027  0.3469 -0.5074
 8625SOL    HW237335   3.683   3.896   2.641 -1.3665 -2.0969 -1.0578
 8626SOL     OW37336   0.561   1.430   8.903  0.5233  0.2123  0.1189
 8626SOL    HW137337   0.560   1.503   8.964  0.0326  1.6489 -1.6181
 8626SOL    HW237338   0.565   1.468   8.815 -1.6864 -0.7776 -0.3996
 8627SOL     OW37339   1.674   3.774   4.028 -0.4088 -0.0725 -0.4061
 8627SOL    HW137340   1.616   3.795   4.101  1.3754 -2.0943  1.5577
 8627SOL    HW237341   1.718   3.858   4.011 -1.7761  0.6920 -0.2096
 8628SOL     OW37342   4.721   2.023  14.654 -0.6515 -0.0133  0.0833
 8628SOL    HW137343   0.072   2.026  14.714  0.1104  1.1256 -0.9309
 8628SOL    HW237344   4.719   2.108  14.611  1.6593  0.0190  0.0525
 8629SOL     OW37345   1.488   0.717   5.112 -0.7684 -0.1734 -0.2433
 8629SOL    HW137346   1.569   0.745   5.154 -0.9196 -0.6850  0.3764
 8629SOL    HW237347   1.501   0.747   5.022 -0.1419 -1.5987 -0.6162
 8630SOL     OW37348   0.557   0.693   5.529 -0.2809 -0.1931 -0.7785
 8630SOL    HW137349   0.557   0.647   5.445  1.4393  1.3332 -1.6215
 8630SOL    HW237350   0.594   0.623   5.582 -1.7909 -0.6786 -0.3643
 8631SOL     OW37351   0.236   0.876   7.074 -0.4266  0.1690 -0.2833
 8631SOL    HW137352   0.326   0.898   7.050 -0.3713  0.8046  0.5011
 8631SOL    HW237353   0.199   0.963   7.090 -0.6513  0.4707 -2.4769
 8632SOL     OW37354   4.524   4.399  10.174  1.0925 -0.1281  0.6882
 8632SOL    HW137355   4.509   4.471  10.112 -0.5177 -0.8702  0.2388
 8632SOL    HW237356   4.471   4.333  10.131  0.3102 -0.2858  1.9053
 8633SOL     OW37357   3.158   1.194   2.921 -0.1144  0.1501  0.0877
 8633SOL    HW137358   3.105   1.273   2.926 -2.6408 -1.6547  1.7536
 8633SOL    HW237359   3.108   1.147   2.853  0.4038  1.5649 -1.2668
 8634SOL     OW37360   1.990   3.713   2.892 -0.1108 -0.1743 -0.2936
 8634SOL    HW137361   2.049   3.705   2.817  0.2054 -2.6549  0.2268
 8634SOL    HW237362   1.932   3.782   2.857  0.7241 -0.4762 -2.3202
 8635SOL     OW37363   0.847   3.850   4.628 -0.3158 -0.0667  0.0418
 8635SOL    HW137364   0.841   3.860   4.533  0.2004  2.8442  0.3020
 8635SOL    HW237365   0.787   3.775   4.635  2.0052 -1.8350  0.9764
 8636SOL     OW37366   2.121   0.226  11.005  0.3882 -0.0795  0.0377
 8636SOL    HW137367   2.142   0.201  11.095 -1.1304 -1.7628 -0.0815
 8636SOL    HW237368   2.183   0.174  10.953 -0.7089 -2.3549  1.0587
 8637SOL     OW37369   4.534   3.570   4.038  0.4036  0.0564  0.5187
 8637SOL    HW137370   4.502   3.488   4.002 -0.4873  0.6216  0.0309
 8637SOL    HW237371   4.477   3.585   4.113 -1.2122 -0.1563 -0.6692
 8638SOL     OW37372   1.236   0.705   8.748  0.4411 -0.2511  0.2595
 8638SOL    HW137373   1.205   0.792   8.773 -1.1252 -0.4777 -0.9607
 8638SOL    HW237374   1.326   0.731   8.772  0.4284  1.1430 -1.2077
 8639SOL     OW37375   4.450   2.812   2.047 -0.1118  0.2658  0.1532
 8639SOL    HW137376   4.441   2.812   2.142 -1.2979 -0.7803  0.0416
 8639SOL    HW237377   4.536   2.851   2.033 -0.6925  1.5572  0.2169
 8640SOL     OW37378   3.091   0.651   8.038 -0.0213 -0.6873 -0.2728
 8640SOL    HW137379   3.072   0.641   8.132 -1.4286 -1.2018 -0.6146
 8640SOL    HW237380   3.018   0.606   7.995 -0.3242  0.4201 -0.9166
 8641SOL     OW37381   0.870   0.674   4.475 -0.5440 -0.0877  0.3538
 8641SOL    HW137382   0.884   0.584   4.445  0.5999  1.1427 -2.7845
 8641SOL    HW237383   0.959   0.696   4.505 -1.2045  2.8681  0.1195
 8642SOL     OW37384   4.661   0.632   5.520 -0.3021  0.0346  0.4249
 8642SOL    HW137385   4.692   0.543   5.534 -0.1186  0.1690  0.8765
 8642SOL    HW237386   0.016   0.684   5.500 -0.4114  0.1819  0.3815
 8643SOL     OW37387   4.087   2.323  12.102  0.6211 -0.0702  0.8330
 8643SOL    HW137388   3.994   2.312  12.119  0.1136 -0.2895 -2.0880
 8643SOL    HW237389   4.106   2.237  12.065  0.2172 -0.4254  1.4529
 8644SOL     OW37390   0.891   3.355   6.106 -0.0654 -0.1708  0.0707
 8644SOL    HW137391   0.862   3.297   6.177  2.0176 -0.2659  0.8531
 8644SOL    HW237392   0.840   3.430   6.135  0.9933  0.6140 -0.1094
 8645SOL     OW37393   2.753   3.349   4.078  0.1570 -0.1006 -0.0777
 8645SOL    HW137394   2.776   3.312   4.163 -1.9732 -0.3098  0.3879
 8645SOL    HW237395   2.836   3.334   4.031  0.5545  0.2154  0.5204
 8646SOL     OW37396   3.995   1.631   7.836 -0.1824  0.0817  0.5455
 8646SOL    HW137397   4.038   1.629   7.921  1.1714 -2.0827 -0.1882
 8646SOL    HW237398   3.906   1.656   7.858 -1.2265 -1.8061 -1.4834
 8647SOL     OW37399   1.635   1.282  12.171  0.2111 -0.1525 -0.0500
 8647SOL    HW137400   1.636   1.186  12.165 -1.4813 -0.1487 -0.3850
 8647SOL    HW237401   1.729   1.292  12.152 -0.0783  0.7731 -0.9440
 8648SOL     OW37402   0.884   2.633   7.757 -0.2466 -0.5934 -0.0817
 8648SOL    HW137403   0.977   2.611   7.763 -0.4292 -1.0673  0.9950
 8648SOL    HW237404   0.902   2.727   7.762 -0.7919 -0.5028  0.1387
 8649SOL     OW37405   4.111   1.880   6.430  0.1887 -0.4070  0.7940
 8649SOL    HW137406   4.103   1.864   6.336 -1.7158  0.9492  0.7202
 8649SOL    HW237407   4.019   1.898   6.447  0.5113  1.3844  0.6461
 8650SOL     OW37408   0.368   2.736   5.526  0.1159 -0.3886 -0.3526
 8650SOL    HW137409   0.328   2.688   5.597  1.8461 -0.8970  0.2675
 8650SOL    HW237410   0.382   2.820   5.571  1.9528 -0.2032 -1.2616
 8651SOL     OW37411   0.052   3.998   0.851 -0.6624  0.2375 -0.1715
 8651SOL    HW137412   4.709   3.991   0.783 -0.4023  0.8603 -0.4918
 8651SOL    HW237413   0.088   3.909   0.852 -0.2919  0.3905  0.3250
 8652SOL     OW37414   0.230   3.715   7.439 -0.1711 -0.1418  0.4141
 8652SOL    HW137415   0.213   3.805   7.409  0.2591  0.4948  2.1100
 8652SOL    HW237416   0.325   3.707   7.427 -0.5347 -3.2465 -0.3587
 8653SOL     OW37417   1.606   1.757   4.956  0.0553 -0.0947 -0.0261
 8653SOL    HW137418   1.550   1.822   4.999 -0.5104 -0.9183  0.4891
 8653SOL    HW237419   1.674   1.807   4.912  1.1320 -1.1653  0.4419
 8654SOL     OW37420   2.264   4.171  13.326 -0.4852  0.4703 -0.3083
 8654SOL    HW137421   2.220   4.209  13.250  0.8080 -0.2995 -1.4375
 8654SOL    HW237422   2.223   4.228  13.391 -1.0311  0.5528 -0.7292
 8655SOL     OW37423   1.946   3.199   4.026  0.4152 -0.4249 -0.4395
 8655SOL    HW137424   1.854   3.205   4.002  0.5312  1.9202 -0.2793
 8655SOL    HW237425   1.975   3.131   3.965 -0.2474  1.5010 -2.8511
 8656SOL     OW37426   0.641   3.482  11.741 -0.4334  0.2133 -0.4701
 8656SOL    HW137427   0.580   3.418  11.704 -0.0123 -2.3907  3.2641
 8656SOL    HW237428   0.727   3.453  11.711 -0.3056 -0.2724  0.3520
 8657SOL     OW37429   0.060   0.149  12.280 -0.3580  0.8770 -0.0581
 8657SOL    HW137430   0.040   0.060  12.308 -1.0382  0.0644 -3.1143
 8657SOL    HW237431   0.019   0.208  12.344 -3.2435 -2.1733  0.8982
 8658SOL     OW37432   4.167   4.242   8.893 -0.4957 -0.2756 -0.3281
 8658SOL    HW137433   4.254   4.244   8.855 -0.2518 -0.7921  0.2096
 8658SOL    HW237434   4.208   4.281   8.970  2.4817 -2.0701 -1.0148
 8659SOL     OW37435   0.256   3.641  16.806 -0.2337 -0.2659 -0.5671
 8659SOL    HW137436   0.305   3.559  16.801  1.4028  0.7435 -1.3351
 8659SOL    HW237437   0.170   3.611  16.835 -1.4465  3.6943 -0.1517
 8660SOL     OW37438   0.381   4.117   3.549 -0.3954  0.4716  0.0822
 8660SOL    HW137439   0.307   4.171   3.520 -0.8147  1.7247  3.4089
 8660SOL    HW237440   0.447   4.185   3.561 -0.7700  1.4864 -3.8157
 8661SOL     OW37441   4.259   0.333   7.995  0.0025 -0.3395  0.2891
 8661SOL    HW137442   4.167   0.320   8.018 -0.2523  0.3365 -0.3574
 8661SOL    HW237443   4.303   0.325   8.080 -1.2582  1.1937  1.1030
 8662SOL     OW37444   2.320   2.295  14.115  0.1830  0.6337 -0.3834
 8662SOL    HW137445   2.363   2.373  14.081  1.4903  0.7196  1.4589
 8662SOL    HW237446   2.298   2.321  14.205  0.0040 -3.5411  0.8143
 8663SOL     OW37447   1.034   3.841   7.092  0.0616 -0.1417  0.1605
 8663SOL    HW137448   1.047   3.853   7.186 -0.0894  1.1525  0.0045
 8663SOL    HW237449   0.943   3.813   7.083  0.1288 -0.5958  0.9004
 8664SOL     OW37450   1.823   2.624   9.054 -0.0224 -0.2847  0.3824
 8664SOL    HW137451   1.842   2.534   9.082  0.1107 -0.5573 -0.5740
 8664SOL    HW237452   1.864   2.676   9.122  0.7366 -1.7062  1.0204
 8665SOL     OW37453   0.466   3.324   2.580 -0.1890  0.0500 -0.0422
 8665SOL    HW137454   0.539   3.264   2.592  1.9632  2.5843 -0.3558
 8665SOL    HW237455   0.401   3.257   2.558 -0.3551 -0.2623  1.3925
 8666SOL     OW37456   0.945   1.798  12.010 -0.3202 -0.0854  0.3761
 8666SOL    HW137457   0.919   1.781  11.920  0.3643 -0.7019  0.2930
 8666SOL    HW237458   0.980   1.714  12.039  0.7218 -0.0202 -0.6951
 8667SOL     OW37459   0.012   3.630  14.599  1.2457 -0.2908 -0.6484
 8667SOL    HW137460   4.671   3.560  14.601  1.2934 -0.3966 -2.8663
 8667SOL    HW237461   0.071   3.601  14.530  0.3520 -0.0422 -1.5222
 8668SOL     OW37462   3.947   2.638   0.306  0.5131 -0.1268 -0.2642
 8668SOL    HW137463   3.898   2.645   0.388 -1.0269  2.7205 -1.4405
 8668SOL    HW237464   4.022   2.589   0.339 -0.0476 -0.6838  0.1971
 8669SOL     OW37465   0.144   1.263   7.382 -0.4139  0.6956  0.0309
 8669SOL    HW137466   0.109   1.241   7.468  2.1592 -0.4706  0.7914
 8669SOL    HW237467   0.235   1.244   7.406 -0.3602  1.9335  0.8821
 8670SOL     OW37468   4.694   0.978   3.194  0.2661  0.9966 -0.5180
 8670SOL    HW137469   0.059   1.009   3.210 -0.0395  1.2788  0.5807
 8670SOL    HW237470   4.692   0.972   3.098  1.7210  0.1220 -0.4817
 8671SOL     OW37471   0.423   2.863   6.581  0.2560  0.0517 -0.3412
 8671SOL    HW137472   0.457   2.779   6.613  0.4074 -0.1620 -1.0513
 8671SOL    HW237473   0.362   2.827   6.516 -1.3503 -0.9971  1.7449
 8672SOL     OW37474   4.017   2.008   6.115  0.2177  0.2403 -0.2273
 8672SOL    HW137475   4.030   2.096   6.081 -0.3419  0.8301  1.0693
 8672SOL    HW237476   4.109   1.984   6.129 -0.0362  0.5694  2.1259
 8673SOL     OW37477   2.258   3.243   2.402 -0.2088 -0.2055  0.7079
 8673SOL    HW137478   2.319   3.225   2.330  1.0755  1.9473  1.2533
 8673SOL    HW237479   2.226   3.331   2.385 -0.9243 -0.3947  1.0769
 8674SOL     OW37480   3.449   4.438  16.033 -0.5002  0.4621 -0.5866
 8674SOL    HW137481   3.412   4.432  15.945  1.8711 -0.5644 -1.5006
 8674SOL    HW237482   3.535   4.398  16.021  0.6244  2.8678 -0.4996
 8675SOL     OW37483   0.076   0.214   6.857 -0.1686  0.4357 -0.0125
 8675SOL    HW137484   0.145   0.245   6.798  1.1125 -2.0971  0.1374
 8675SOL    HW237485   0.129   0.179   6.929 -1.5497  0.9421  1.2468
 8676SOL     OW37486   3.706   4.404   2.811  0.1940  0.1698 -0.0262
 8676SOL    HW137487   3.737   4.428   2.898  1.3265 -0.4868 -0.2605
 8676SOL    HW237488   3.700   4.489   2.766  2.0669 -0.3090 -1.1365
 8677SOL     OW37489   1.380   2.991   8.944  0.4248 -0.4909  0.3153
 8677SOL    HW137490   1.430   3.026   9.018  1.0398 -1.1696  0.2130
 8677SOL    HW237491   1.439   2.920   8.923  1.6508  0.3763  0.8152
 8678SOL     OW37492   4.161   0.534   9.609 -0.6505 -0.2429  0.0930
 8678SOL    HW137493   4.159   0.462   9.672  1.8365 -1.4944 -1.2495
 8678SOL    HW237494   4.070   0.564   9.616 -1.2093 -1.5303 -1.7049
 8679SOL     OW37495   1.650   1.462   2.155 -0.0596  0.3681  0.2405
 8679SOL    HW137496   1.663   1.550   2.120  0.0922  0.1476 -0.2634
 8679SOL    HW237497   1.714   1.453   2.225 -0.8185  0.8731  0.9949
 8680SOL     OW37498   0.853   2.928   4.675  0.2960 -0.4748  0.2124
 8680SOL    HW137499   0.910   2.912   4.750 -0.9552 -0.5052  1.1755
 8680SOL    HW237500   0.917   2.966   4.616  0.6750  1.8459  2.1105
 8681SOL     OW37501   1.056   0.715   2.519  0.1689  0.4386  0.0316
 8681SOL    HW137502   1.147   0.742   2.512  0.3646 -0.7480 -2.1571
 8681SOL    HW237503   1.012   0.793   2.486  0.7323  0.2035 -1.2846
 8682SOL     OW37504   0.770   1.407  14.058 -0.0068 -0.0837  0.5015
 8682SOL    HW137505   0.783   1.357  13.978 -0.7653 -1.6614  1.3503
 8682SOL    HW237506   0.679   1.430  14.041 -0.1790 -1.4393 -0.4212
 8683SOL     OW37507   3.924   3.911   6.849 -0.2731 -0.3749 -0.1964
 8683SOL    HW137508   3.880   3.982   6.896 -0.6801 -1.5266  1.1361
 8683SOL    HW237509   3.987   3.877   6.913 -0.8484  0.4471  0.7992
 8684SOL     OW37510   2.215   4.354   2.838 -0.0291  0.4735 -0.1339
 8684SOL    HW137511   2.210   4.349   2.742  0.2104  0.7350 -0.1608
 8684SOL    HW237512   2.145   4.419   2.853 -1.3072 -1.0261  0.3441
 8685SOL     OW37513   1.898   3.587  12.628 -0.4668  0.1112  0.2762
 8685SOL    HW137514   1.966   3.584  12.695 -0.9277 -0.8075  0.6968
 8685SOL    HW237515   1.919   3.674  12.592 -0.9106 -0.0223 -0.3028
 8686SOL     OW37516   3.313   0.446   0.908 -0.1067  0.2457 -0.5583
 8686SOL    HW137517   3.375   0.434   0.979 -1.8520  1.6287  1.1853
 8686SOL    HW237518   3.275   0.358   0.906  0.7928 -0.1664  1.5054
 8687SOL     OW37519   1.991   2.543   6.087 -0.5218 -0.0271 -0.7066
 8687SOL    HW137520   1.974   2.605   6.016 -0.0217  1.1419  0.1971
 8687SOL    HW237521   2.081   2.571   6.102 -1.2704  1.9637  0.0784
 8688SOL     OW37522   4.681   0.764  11.960 -0.0057 -0.1105 -0.4268
 8688SOL    HW137523   0.024   0.704  11.994  0.7306  0.0674 -1.5588
 8688SOL    HW237524   4.642   0.706  11.895 -1.8408  1.1998 -0.4824
 8689SOL     OW37525   3.215   3.766   4.554 -0.1229 -0.2633  0.4712
 8689SOL    HW137526   3.124   3.735   4.562  0.1857 -0.6614  2.3991
 8689SOL    HW237527   3.262   3.708   4.614  1.6618 -0.2805 -0.9449
 8690SOL     OW37528   1.710   3.022   6.066 -0.4008  0.5303  0.3227
 8690SOL    HW137529   1.688   3.114   6.074 -1.6442  0.2455  0.2548
 8690SOL    HW237530   1.695   3.022   5.972  1.8828  0.1842 -0.0474
 8691SOL     OW37531   2.566   1.388   5.021 -0.4515  0.2659 -0.6379
 8691SOL    HW137532   2.595   1.403   4.931  0.2448 -0.1038 -0.4776
 8691SOL    HW237533   2.650   1.347   5.044  0.0303  0.8949 -1.2544
 8692SOL     OW37534   1.179   2.472   7.983 -0.1369 -0.0661  0.2343
 8692SOL    HW137535   1.162   2.507   7.896 -1.0367 -0.7647  0.1307
 8692SOL    HW237536   1.254   2.414   7.970  0.4405  0.1479  2.6593
 8693SOL     OW37537   0.666   3.642  17.153  0.0586 -0.1459  0.5045
 8693SOL    HW137538   0.602   3.711  17.136 -0.0315 -0.4805 -0.4842
 8693SOL    HW237539   0.686   3.660  17.245  0.6923 -2.9511  0.9060
 8694SOL     OW37540   4.664   0.452   7.644 -0.4629  0.4458  1.1776
 8694SOL    HW137541   4.714   0.429   7.565 -3.5884 -2.0795 -0.0662
 8694SOL    HW237542   4.598   0.510   7.606 -0.1165 -0.8746 -1.4323
 8695SOL     OW37543   2.209   1.309  15.015 -0.2357 -0.6067 -0.5969
 8695SOL    HW137544   2.213   1.245  15.087 -0.9635  0.5336  0.4594
 8695SOL    HW237545   2.258   1.252  14.956 -0.4333 -0.6343 -0.7344
 8696SOL     OW37546   4.597   2.040   8.614  0.0811 -0.0984  0.0714
 8696SOL    HW137547   4.690   2.064   8.621  0.4380 -1.1096 -1.2941
 8696SOL    HW237548   4.558   2.125   8.592  1.2685  0.2287 -0.8308
 8697SOL     OW37549   2.755   3.517  10.929  0.2533 -0.7096  0.0802
 8697SOL    HW137550   2.698   3.458  10.978  0.3695  0.2258  1.3576
 8697SOL    HW237551   2.703   3.541  10.852 -0.4784  1.9392  1.3952
 8698SOL     OW37552   4.662   2.099   2.990 -0.1527 -0.0466 -0.0078
 8698SOL    HW137553   4.594   2.145   2.941 -0.5633 -1.8513 -1.1203
 8698SOL    HW237554   4.608   2.064   3.060  1.0980 -2.1946 -0.1328
 8699SOL     OW37555   1.051   2.312   8.978  0.3842  0.1806 -0.1438
 8699SOL    HW137556   0.996   2.386   9.006  0.6157  0.9930 -1.8077
 8699SOL    HW237557   1.128   2.357   8.944 -0.5023  1.1102 -0.9281
 8700SOL     OW37558   1.112   4.655   8.942  0.0281  0.4416 -0.1032
 8700SOL    HW137559   1.104   4.702   8.859  3.7343 -1.0209 -1.2783
 8700SOL    HW237560   1.066   4.574   8.923 -0.2017  0.2954  1.0315
 8701SOL     OW37561   4.467   2.200   4.579  0.5818  0.6125  0.1600
 8701SOL    HW137562   4.522   2.271   4.611  0.3293  1.3224 -0.9898
 8701SOL    HW237563   4.390   2.248   4.550  0.4687  0.0749 -0.4425
 8702SOL     OW37564   3.576   3.109   7.971 -0.0948 -0.0063  0.3371
 8702SOL    HW137565   3.660   3.084   8.009  0.2194  1.3152  0.5135
 8702SOL    HW237566   3.588   3.180   7.908  1.1289  0.1706  0.7738
 8703SOL     OW37567   0.324   2.594   0.409  0.5851 -0.2971 -0.4319
 8703SOL    HW137568   0.314   2.661   0.342  2.1838 -0.1855 -0.5542
 8703SOL    HW237569   0.245   2.540   0.401  1.0547 -1.0289 -0.1468
 8704SOL     OW37570   2.191   2.513   2.796 -0.0738 -0.0591 -0.1599
 8704SOL    HW137571   2.188   2.593   2.848  1.9217  1.1138 -1.8566
 8704SOL    HW237572   2.227   2.557   2.719 -0.5555 -0.3801 -0.5728
 8705SOL     OW37573   0.564   1.896   7.246 -0.4537  0.2069 -0.2110
 8705SOL    HW137574   0.535   1.960   7.180 -1.1268  0.5357  0.4143
 8705SOL    HW237575   0.582   1.953   7.320 -0.8246 -0.0773  0.0969
 8706SOL     OW37576   4.237   2.026   7.450 -0.2018  0.1957 -0.0622
 8706SOL    HW137577   4.142   2.039   7.444 -0.6665 -2.3707  1.7051
 8706SOL    HW237578   4.253   2.051   7.359  0.3902  1.3008  0.3400
 8707SOL     OW37579   3.813   1.831   4.164  0.1251  0.0728 -0.1164
 8707SOL    HW137580   3.857   1.885   4.098 -0.1995  0.5847  0.0910
 8707SOL    HW237581   3.850   1.872   4.242 -0.1977  0.3746 -0.1226
 8708SOL     OW37582   0.741   3.845   6.015 -0.2534  0.4509  0.0270
 8708SOL    HW137583   0.826   3.886   5.998  0.4274 -0.6107  0.9180
 8708SOL    HW237584   0.718   3.895   6.093 -3.1276  2.3089 -2.0230
 8709SOL     OW37585   1.741   3.916  16.370  0.1691 -0.0453 -0.3143
 8709SOL    HW137586   1.800   3.936  16.297  1.2310 -3.1754 -0.3171
 8709SOL    HW237587   1.699   4.002  16.384  0.0105 -0.4864  1.9436
 8710SOL     OW37588   2.824   0.554   8.043 -0.7852 -0.0873 -0.4563
 8710SOL    HW137589   2.817   0.460   8.026 -0.6866  0.2498 -2.3183
 8710SOL    HW237590   2.824   0.584   7.952 -1.3797 -1.0110 -0.7659
 8711SOL     OW37591   3.010   3.458   7.376 -0.0870  0.2019  0.6935
 8711SOL    HW137592   2.921   3.475   7.407  0.7014  1.5994  2.1711
 8711SOL    HW237593   3.046   3.398   7.441  0.2808 -2.1493 -1.6603
 8712SOL     OW37594   0.647   3.421   5.170  0.2423  0.0236  0.7557
 8712SOL    HW137595   0.678   3.508   5.196  1.7654 -1.1902  2.9387
 8712SOL    HW237596   0.579   3.430   5.103  0.9502  0.0934  0.0480
 8713SOL     OW37597   3.956   4.360   4.687  0.5532  0.0442 -0.0920
 8713SOL    HW137598   3.918   4.446   4.668  1.3321  0.1150 -1.3265
 8713SOL    HW237599   3.991   4.385   4.772 -0.5667  0.3130  0.2861
 8714SOL     OW37600   2.613   3.769   1.813 -0.0959 -0.0901  0.1737
 8714SOL    HW137601   2.605   3.758   1.718  0.2349 -1.8353  0.3509
 8714SOL    HW237602   2.541   3.713   1.843  0.8116 -1.2266  0.2579
 8715SOL     OW37603   3.177   3.605   3.240  0.2280  0.1423  0.7754
 8715SOL    HW137604   3.212   3.636   3.157  2.1800 -4.1835  0.0018
 8715SOL    HW237605   3.228   3.663   3.297 -0.7106  0.4898  1.2669
 8716SOL     OW37606   0.362   1.523  10.283 -0.0744 -0.0268 -0.2527
 8716SOL    HW137607   0.444   1.549  10.323  0.5935 -3.7278  0.7700
 8716SOL    HW237608   0.328   1.608  10.253  0.4925 -0.2120 -1.3962
 8717SOL     OW37609   1.029   0.241   4.798  0.0833 -0.1758  0.1321
 8717SOL    HW137610   0.986   0.325   4.813  0.4925  0.2162 -0.8629
 8717SOL    HW237611   1.099   0.251   4.734  1.9046 -2.3956  1.8154
 8718SOL     OW37612   3.582   1.652   6.489  0.0334  0.0652  0.2542
 8718SOL    HW137613   3.602   1.560   6.474  2.2095  0.5190  0.4197
 8718SOL    HW237614   3.638   1.686   6.559 -2.3187  3.3292  0.5640
 8719SOL     OW37615   3.101   3.250   2.637 -0.1734 -0.2422  0.0581
 8719SOL    HW137616   3.184   3.208   2.661  1.3532  0.8937 -3.3351
 8719SOL    HW237617   3.058   3.188   2.578 -1.6764 -0.1635  1.0457
 8720SOL     OW37618   4.571   4.351   9.803 -0.6068  0.0091 -0.3705
 8720SOL    HW137619   4.494   4.295   9.815 -1.7118  1.4959 -0.4948
 8720SOL    HW237620   4.528   4.432   9.776 -2.2801 -0.8499 -0.2565
 8721SOL     OW37621   3.230   0.985   8.844 -0.3622  0.2767  0.5148
 8721SOL    HW137622   3.234   0.994   8.939 -2.4541  0.3115  0.5857
 8721SOL    HW237623   3.139   0.960   8.827 -1.0022  2.5629  0.6437
 8722SOL     OW37624   1.111   3.920   4.685 -0.2677  0.1824 -0.0425
 8722SOL    HW137625   1.024   3.895   4.656 -0.1648  0.3981 -0.5436
 8722SOL    HW237626   1.118   4.011   4.658 -1.3992 -0.0292 -1.0345
 8723SOL     OW37627   4.390   3.291  11.468  0.2206 -0.3226  0.2195
 8723SOL    HW137628   4.376   3.351  11.394  1.5483  1.4532  1.4102
 8723SOL    HW237629   4.361   3.207  11.432  1.2031 -0.4410 -0.2839
 8724SOL     OW37630   1.139   0.644   8.494  0.8861  1.1129 -0.1335
 8724SOL    HW137631   1.175   0.659   8.582 -0.4402 -0.2348  0.6567
 8724SOL    HW237632   1.185   0.711   8.444  1.5053 -0.3633 -1.5515
 8725SOL     OW37633   0.372   3.945   4.556  0.8601  0.6900  0.6696
 8725SOL    HW137634   0.409   4.002   4.489  2.2691 -0.6699  0.2800
 8725SOL    HW237635   0.400   3.859   4.524  0.7967  1.9254 -2.6883
 8726SOL     OW37636   0.697   1.622   5.427 -0.7344  0.1643 -1.0417
 8726SOL    HW137637   0.667   1.537   5.458 -1.4969  1.0284  0.5997
 8726SOL    HW237638   0.747   1.591   5.352 -0.4061  0.0470 -0.7760
 8727SOL     OW37639   0.079   0.015   8.153  0.6201 -0.5645  0.0034
 8727SOL    HW137640   0.060   4.662   8.208  1.4378 -1.0055 -0.3237
 8727SOL    HW237641   0.170   4.713   8.134  0.5693 -0.6024 -0.1876
 8728SOL     OW37642   4.244   1.968   0.339 -0.1258 -0.2893  0.2159
 8728SOL    HW137643   4.152   1.958   0.363 -0.4034  0.6686 -0.4694
 8728SOL    HW237644   4.238   1.990   0.246 -1.6148  1.3628  0.6882
 8729SOL     OW37645   3.880   3.568  14.543  0.0487 -0.1636  0.3002
 8729SOL    HW137646   3.949   3.503  14.529 -1.5836 -1.0178 -3.5878
 8729SOL    HW237647   3.930   3.650  14.546  0.4864 -0.4410  0.5675
 8730SOL     OW37648   3.917   0.774   8.409  0.4753 -0.3365  0.1816
 8730SOL    HW137649   3.905   0.839   8.479 -0.3389  0.2840 -0.5378
 8730SOL    HW237650   3.982   0.716   8.448  1.2474  1.5762  1.7276
 8731SOL     OW37651   4.592   3.810   0.220  0.1403  0.3198  0.1906
 8731SOL    HW137652   4.521   3.750   0.243  0.0810  0.5063  0.5028
 8731SOL    HW237653   4.606   3.852   0.305  4.2983 -2.4024  0.8373
 8732SOL     OW37654   4.590   2.110   0.696  0.3364 -0.3368  0.2426
 8732SOL    HW137655   4.569   2.034   0.643  0.4285 -0.9064  1.0340
 8732SOL    HW237656   4.657   2.077   0.755  0.8711 -2.1635 -1.3885
 8733SOL     OW37657   3.493   4.712  16.047  0.3246 -0.3727  0.2418
 8733SOL    HW137658   3.489   4.617  16.044  1.9980 -0.4504  0.4518
 8733SOL    HW237659   3.579   0.011  16.083  0.1767 -0.2710  0.5319
 8734SOL     OW37660   1.862   3.878   0.905 -0.5032  0.3617  0.0011
 8734SOL    HW137661   1.914   3.799   0.893 -0.6447  0.3501 -0.5464
 8734SOL    HW237662   1.794   3.854   0.842 -0.4430 -1.4580  0.6289
 8735SOL     OW37663   4.113   2.156   4.736  0.2939  0.1763 -0.1122
 8735SOL    HW137664   4.100   2.166   4.830  0.1571  1.7400 -0.2937
 8735SOL    HW237665   4.138   2.246   4.715  1.6721 -0.0992  0.3228
 8736SOL     OW37666   1.155   4.117  15.603  0.1891  0.3200  0.3301
 8736SOL    HW137667   1.092   4.142  15.670 -2.0261 -1.0267 -1.2473
 8736SOL    HW237668   1.220   4.081  15.664  2.2304  2.3435 -0.6251
 8737SOL     OW37669   4.140   4.402   7.300 -0.6493  0.3406 -0.0865
 8737SOL    HW137670   4.125   4.374   7.209 -0.8567  0.1354  0.0105
 8737SOL    HW237671   4.228   4.372   7.321 -1.2941 -0.3928  1.5895
 8738SOL     OW37672   4.029   3.889   0.751 -0.7354 -0.2738 -0.6677
 8738SOL    HW137673   3.981   3.968   0.776  0.1705  0.1306 -0.2408
 8738SOL    HW237674   3.959   3.824   0.765 -0.1846 -0.5532  0.7277
 8739SOL     OW37675   2.851   2.126   7.935 -0.2087 -0.5419  0.1830
 8739SOL    HW137676   2.896   2.043   7.948  3.7628  1.9072  2.1375
 8739SOL    HW237677   2.814   2.109   7.848  1.6653  0.4046 -0.8011
 8740SOL     OW37678   2.998   2.516   3.320 -0.2223  0.4536  0.2973
 8740SOL    HW137679   3.031   2.431   3.347 -1.5196 -0.0749  0.2255
 8740SOL    HW237680   2.992   2.559   3.405  1.2121 -0.4653  0.8601
 8741SOL     OW37681   2.308   3.318   3.942 -0.2047 -0.0958 -0.3012
 8741SOL    HW137682   2.305   3.235   3.989 -0.2159 -1.0968 -2.0844
 8741SOL    HW237683   2.273   3.297   3.855 -0.0056 -1.1120 -0.1268
 8742SOL     OW37684   0.083   3.011  13.871 -0.4562  0.0733  0.2235
 8742SOL    HW137685   0.078   3.101  13.839  1.9725  0.2344  0.3436
 8742SOL    HW237686   0.062   2.953  13.797 -1.4103 -0.4684  0.9124
 8743SOL     OW37687   1.077   1.608  11.523  0.5487  0.4309 -0.0583
 8743SOL    HW137688   1.071   1.679  11.459  1.0095 -1.3988 -2.1301
 8743SOL    HW237689   1.149   1.559  11.485 -1.8865 -1.7245 -1.9440
 8744SOL     OW37690   0.652   0.016  14.549  0.2792  0.3607 -0.2346
 8744SOL    HW137691   0.579   4.691  14.588 -0.6624 -0.1694 -2.6265
 8744SOL    HW237692   0.669   0.087  14.611  1.3860  1.3358 -1.6698
 8745SOL     OW37693   2.252   2.478  16.746  0.3459  0.1883  0.3240
 8745SOL    HW137694   2.330   2.531  16.736 -0.5010  1.3709 -0.0067
 8745SOL    HW237695   2.293   2.402  16.788 -0.8710 -0.1019  0.9952
 8746SOL     OW37696   0.898   3.300   8.032 -0.4386  0.2037 -0.3949
 8746SOL    HW137697   0.964   3.361   8.000  0.2532 -0.1016  0.4237
 8746SOL    HW237698   0.870   3.325   8.120 -1.6202  3.1465 -1.6388
 8747SOL     OW37699   4.327   1.759   4.950 -0.0594 -0.3891  0.7195
 8747SOL    HW137700   4.278   1.703   5.010  1.1466 -0.4633  1.6275
 8747SOL    HW237701   4.258   1.778   4.886  0.9796 -1.6138 -0.7573
 8748SOL     OW37702   1.390   3.917   9.894  0.0050 -0.5886  0.4938
 8748SOL    HW137703   1.477   3.949   9.869 -0.6151 -0.3266 -1.3422
 8748SOL    HW237704   1.344   3.939   9.813 -2.1915 -1.5704  1.4724
 8749SOL     OW37705   1.480   0.775   5.438  0.2356  0.0084 -0.0373
 8749SOL    HW137706   1.564   0.760   5.396  0.5250  0.6934  0.2833
 8749SOL    HW237707   1.483   0.871   5.438 -0.1977  0.0245  0.0787
 8750SOL     OW37708   3.087   0.758  11.905  0.2196  0.0174  0.1216
 8750SOL    HW137709   3.089   0.721  11.993 -1.3213 -1.3256 -0.3916
 8750SOL    HW237710   3.127   0.688  11.853  1.5599  0.0258  1.1565
 8751SOL     OW37711   2.134   1.582   8.141  0.3946 -0.1916 -0.2338
 8751SOL    HW137712   2.155   1.668   8.102  2.3697  0.4497  2.2627
 8751SOL    HW237713   2.208   1.537   8.100  0.4537  0.4759 -0.8811
 8752SOL     OW37714   2.930   1.307   2.718  0.4845  0.6716 -0.1278
 8752SOL    HW137715   2.851   1.274   2.676  1.0291 -0.4459 -0.2516
 8752SOL    HW237716   2.979   1.316   2.636  0.8422  3.5369  0.3999
 8753SOL     OW37717   2.075   1.396   6.859  1.0040 -0.6692  0.0851
 8753SOL    HW137718   2.043   1.322   6.807  0.9929 -0.0417 -0.7953
 8753SOL    HW237719   2.091   1.351   6.942  0.1288  1.1466  1.2400
 8754SOL     OW37720   1.153   3.425  14.233  0.3555  0.0060  0.2683
 8754SOL    HW137721   1.210   3.484  14.282  0.6272  1.1403 -1.4287
 8754SOL    HW237722   1.138   3.354  14.295  2.1293 -1.2521 -0.7234
 8755SOL     OW37723   1.310   2.868   4.541  0.4538 -0.0800  0.7788
 8755SOL    HW137724   1.349   2.866   4.629  2.2336  0.0923 -0.0088
 8755SOL    HW237725   1.335   2.954   4.505  2.1057 -1.2435 -0.8599
 8756SOL     OW37726   1.986   2.160  13.594  0.2134  0.3150 -0.5216
 8756SOL    HW137727   1.978   2.121  13.681 -1.3590  0.1959 -0.7184
 8756SOL    HW237728   1.895   2.178  13.572 -0.5852 -2.4494  0.5560
 8757SOL     OW37729   4.016   0.525   3.372  0.6870  0.0877  0.2746
 8757SOL    HW137730   4.016   0.451   3.433  0.2715  1.1527  1.5561
 8757SOL    HW237731   4.076   0.485   3.309  0.7039  2.4131 -1.1914
 8758SOL     OW37732   2.169   1.005   6.320 -0.5013 -0.0488 -0.4105
 8758SOL    HW137733   2.143   1.060   6.246  0.7403  0.6670 -0.3147
 8758SOL    HW237734   2.249   0.962   6.291  0.1898 -0.0618  1.5444
 8759SOL     OW37735   2.028   2.368   2.987 -0.1125 -0.0887  0.0741
 8759SOL    HW137736   2.064   2.399   2.904 -1.5596 -0.0681 -0.5452
 8759SOL    HW237737   2.102   2.359   3.047  0.6294 -0.4143 -0.8949
 8760SOL     OW37738   3.699   0.321   5.101  0.1778 -0.0070  0.4093
 8760SOL    HW137739   3.708   0.402   5.051 -0.8726 -0.5948 -0.7419
 8760SOL    HW237740   3.758   0.327   5.176  0.5165 -0.1836  0.1587
 8761SOL     OW37741   2.638   2.871   3.914  0.3702  0.0537 -0.3277
 8761SOL    HW137742   2.657   2.942   3.975  0.0206 -1.0283  1.0647
 8761SOL    HW237743   2.604   2.921   3.840 -0.1669  0.7100  0.3536
 8762SOL     OW37744   4.583   3.723   6.489  0.0928 -0.3166 -0.1593
 8762SOL    HW137745   4.618   3.640   6.522  0.2696 -0.1019  0.1975
 8762SOL    HW237746   4.535   3.688   6.415 -1.2335 -1.8924  1.4497
 8763SOL     OW37747   1.797   2.328   6.064  0.4859  0.1692 -0.0690
 8763SOL    HW137748   1.848   2.406   6.086  1.8424 -1.4817  2.6189
 8763SOL    HW237749   1.721   2.371   6.025 -0.9191 -3.5354 -1.3831
 8764SOL     OW37750   3.437   0.132   9.462 -0.1393 -0.6287  0.0743
 8764SOL    HW137751   3.448   0.099   9.372 -1.8028  0.2560 -0.4454
 8764SOL    HW237752   3.452   0.052   9.513  2.2193  0.3094  0.8508
 8765SOL     OW37753   3.379   2.596   3.275 -0.3024 -0.4576  0.1747
 8765SOL    HW137754   3.298   2.646   3.264  0.8893  1.5306  0.5819
 8765SOL    HW237755   3.367   2.560   3.363 -1.0222 -0.1276  0.2103
 8766SOL     OW37756   2.043   1.487   5.737  0.6066 -0.2837  0.0783
 8766SOL    HW137757   2.007   1.540   5.808  0.1189  1.6425 -1.6189
 8766SOL    HW237758   1.968   1.474   5.680  0.6991  1.8687 -0.5482
 8767SOL     OW37759   0.231   1.035   0.860  0.1073 -0.3494 -0.2042
 8767SOL    HW137760   0.278   0.975   0.802  2.5602  1.4316 -0.1038
 8767SOL    HW237761   0.140   1.012   0.842  0.0166  1.7361 -2.4837
 8768SOL     OW37762   4.624   4.113   1.888  0.1834  1.1004  0.1483
 8768SOL    HW137763   4.618   4.169   1.965 -1.3853  3.3527 -1.6024
 8768SOL    HW237764   4.678   4.039   1.917 -1.2995  0.9044  2.3688
 8769SOL     OW37765   2.800   1.523  14.394  0.2117 -0.0777 -0.1228
 8769SOL    HW137766   2.810   1.616  14.414  1.9223 -0.6772  1.7318
 8769SOL    HW237767   2.847   1.527  14.311 -0.5333 -3.9226 -0.7433
 8770SOL     OW37768   0.870   1.237   2.695  0.3558 -0.4008  0.8440
 8770SOL    HW137769   0.867   1.157   2.747  0.4499 -0.6459  0.4638
 8770SOL    HW237770   0.781   1.273   2.699  0.2375 -0.6667  0.5693
 8771SOL     OW37771   1.576   0.964   1.013  0.4082 -0.1503 -0.4583
 8771SOL    HW137772   1.532   0.879   1.018 -0.5773  0.2810 -1.7839
 8771SOL    HW237773   1.562   0.997   0.925  0.5301  1.6167  0.1698
 8772SOL     OW37774   2.162   4.559   6.360 -0.5433  0.3205  0.2503
 8772SOL    HW137775   2.157   4.544   6.265 -0.7030  1.5821  0.0590
 8772SOL    HW237776   2.235   4.498   6.372 -0.4672  0.3593 -0.0023
 8773SOL     OW37777   2.512   1.600   8.868 -0.5159  0.2000  0.8359
 8773SOL    HW137778   2.576   1.533   8.890 -1.4832 -1.2799 -0.8446
 8773SOL    HW237779   2.468   1.611   8.953 -3.0779 -0.1880 -0.4350
 8774SOL     OW37780   4.078   0.848   0.316  0.5237  0.4202 -0.4233
 8774SOL    HW137781   4.043   0.840   0.227  2.8080  0.2422 -1.3025
 8774SOL    HW237782   4.009   0.893   0.365 -0.4811 -0.7968 -0.7190
 8775SOL     OW37783   0.854   0.352   3.344  0.1736  0.2930  0.2130
 8775SOL    HW137784   0.811   0.338   3.428  0.9773  0.9130  0.7299
 8775SOL    HW237785   0.912   0.427   3.359 -0.9572  0.9387  1.3775
 8776SOL     OW37786   3.973   2.335  17.001  0.3751  0.0229  0.0323
 8776SOL    HW137787   3.958   2.369  16.913  3.0000 -0.7461 -0.7019
 8776SOL    HW237788   3.900   2.276  17.021 -2.0959  3.5482  1.3710
 8777SOL     OW37789   2.632   0.505   7.556  0.1084  0.8365 -0.4306
 8777SOL    HW137790   2.724   0.479   7.563 -0.0805  0.4014  0.4193
 8777SOL    HW237791   2.579   0.428   7.576  1.7818 -0.0606  0.5565
 8778SOL     OW37792   2.004   4.331  12.652 -0.2346  0.5156 -0.4151
 8778SOL    HW137793   2.089   4.337  12.609 -0.0714 -2.4588 -0.4737
 8778SOL    HW237794   1.994   4.408  12.708 -1.4675 -1.3654  1.9807
 8779SOL     OW37795   1.606   1.014   7.589  0.4186 -0.0683 -0.0227
 8779SOL    HW137796   1.565   0.928   7.599  0.8906 -0.1065  1.5094
 8779SOL    HW237797   1.553   1.072   7.644 -0.4518  0.5516 -1.4961
 8780SOL     OW37798   2.025   0.894  10.035  0.0801 -0.3893  0.1907
 8780SOL    HW137799   2.075   0.926  10.110  1.0469 -0.2556 -0.4959
 8780SOL    HW237800   2.001   0.809  10.071 -1.0618  0.2296  0.8806
 8781SOL     OW37801   0.115   3.842  12.266  0.7313 -0.2076 -0.0647
 8781SOL    HW137802   0.057   3.869  12.338  2.5634 -2.5264  2.2654
 8781SOL    HW237803   0.045   3.824  12.203  0.2633 -2.1931  1.0285
 8782SOL     OW37804   4.686   0.056   4.026 -0.3677  0.2456  0.6201
 8782SOL    HW137805   4.677   0.148   4.050 -1.0316  0.3425  0.0011
 8782SOL    HW237806   0.047   0.042   3.983 -0.9397 -0.3336 -0.3338
 8783SOL     OW37807   0.909   3.229   7.352  0.6955 -0.1628  0.4448
 8783SOL    HW137808   0.874   3.199   7.436  0.3308  2.4943  1.2388
 8783SOL    HW237809   0.957   3.154   7.318 -0.3230 -1.5192  2.0036
 8784SOL     OW37810   0.493   1.639   2.799 -0.6018  0.2612  0.4085
 8784SOL    HW137811   0.588   1.628   2.796 -0.7729 -1.1517 -0.0976
 8784SOL    HW237812   0.474   1.730   2.823 -0.9479  0.2385  0.2148
 8785SOL     OW37813   3.388   4.370   3.391  0.2068  0.1969  0.9725
 8785SOL    HW137814   3.449   4.428   3.437  1.0670 -1.3845  1.8304
 8785SOL    HW237815   3.371   4.302   3.456 -2.4712 -1.2144 -1.2220
 8786SOL     OW37816   3.821   2.859  15.911 -0.2785  0.2241 -0.3857
 8786SOL    HW137817   3.841   2.949  15.938  1.6346 -0.1214 -0.6501
 8786SOL    HW237818   3.897   2.814  15.949  0.0357  2.2749  1.4365
 8787SOL     OW37819   0.404   1.014   2.732 -0.5170 -0.0785 -0.2305
 8787SOL    HW137820   0.333   0.953   2.709 -1.6572  0.5563  1.5723
 8787SOL    HW237821   0.380   1.085   2.673  3.6052  0.8527 -0.7730
 8788SOL     OW37822   0.643   1.932   3.740  0.3289  0.2839  0.0034
 8788SOL    HW137823   0.605   1.964   3.822 -0.0900  1.0224 -0.4741
 8788SOL    HW237824   0.606   1.844   3.745 -1.0094  0.7905 -1.0752
 8789SOL     OW37825   0.552   3.959   2.724  0.1976 -0.0776 -0.1267
 8789SOL    HW137826   0.610   4.033   2.746 -1.1398  0.6397  0.9534
 8789SOL    HW237827   0.618   3.899   2.689  0.2424 -2.4442  4.0365
 8790SOL     OW37828   2.470   0.935   1.264  0.3505 -0.1654 -0.1449
 8790SOL    HW137829   2.557   0.959   1.234 -0.3917  2.9893  0.1538
 8790SOL    HW237830   2.442   1.027   1.275 -0.9841 -0.5208 -0.5035
 8791SOL     OW37831   4.579   3.269   0.804  0.0881 -0.2156  0.3003
 8791SOL    HW137832   4.641   3.205   0.768 -0.7708 -1.4613  1.0682
 8791SOL    HW237833   4.492   3.245   0.772  0.0580 -0.8469  0.8562
 8792SOL     OW37834   2.025   0.759   6.724 -0.6642  0.1960  0.0998
 8792SOL    HW137835   2.052   0.683   6.673 -1.3069 -0.0779  0.1683
 8792SOL    HW237836   2.095   0.822   6.706 -3.1451  2.4434 -1.6421
 8793SOL     OW37837   2.028   0.352   3.361 -0.0965  0.2810  0.4520
 8793SOL    HW137838   2.079   0.380   3.285 -1.7026  1.9580  0.0187
 8793SOL    HW237839   1.945   0.394   3.338  0.7426  1.0452 -1.1960
 8794SOL     OW37840   3.612   2.867  15.336  0.5633  0.1210 -0.0993
 8794SOL    HW137841   3.644   2.919  15.262  0.8014 -2.0538 -1.5212
 8794SOL    HW237842   3.694   2.833  15.371  0.0583 -2.9478 -1.9129
 8795SOL     OW37843   4.164   2.087   1.006 -0.5142  0.6658 -0.2749
 8795SOL    HW137844   4.188   2.157   0.945 -0.0526  0.5489 -0.2259
 8795SOL    HW237845   4.249   2.044   1.006 -0.7880  0.1119 -1.5981
 8796SOL     OW37846   1.192   0.254   6.483 -1.0147 -0.6552  0.0433
 8796SOL    HW137847   1.205   0.268   6.577  0.4076  0.3290 -0.2866
 8796SOL    HW237848   1.255   0.317   6.447  0.6937 -2.2058  0.2797
 8797SOL     OW37849   0.995   3.974   6.267 -0.5236  0.0855  0.3827
 8797SOL    HW137850   0.903   3.987   6.246 -0.1988 -1.6352 -2.1456
 8797SOL    HW237851   1.020   3.912   6.199 -1.8515 -0.6961  0.6227
 8798SOL     OW37852   0.989   1.087  16.045 -0.6340 -0.4750 -0.4124
 8798SOL    HW137853   0.942   1.099  16.128  1.8689 -0.0089  0.9306
 8798SOL    HW237854   0.943   1.150  15.990 -1.6568 -0.9288 -0.0761
 8799SOL     OW37855   0.097   4.009   4.929 -0.3612 -0.0885  0.5751
 8799SOL    HW137856   0.142   3.968   5.003 -0.6676 -0.2128  0.6921
 8799SOL    HW237857   0.139   4.095   4.917 -0.9546 -0.0421 -1.2024
 8800SOL     OW37858   1.836   4.087   3.255  0.1288  0.4417  0.5149
 8800SOL    HW137859   1.742   4.078   3.241  0.4933 -0.4966 -1.3323
 8800SOL    HW237860   1.882   4.009   3.223 -1.1971 -0.7056  1.4179
 8801SOL     OW37861   2.342   3.721   7.479 -0.1522 -0.0904  0.4454
 8801SOL    HW137862   2.400   3.649   7.456 -2.0668 -1.2670 -0.6929
 8801SOL    HW237863   2.294   3.729   7.397  0.6103  1.5928  0.1566
 8802SOL     OW37864   1.944   0.958   3.792 -0.0860 -0.0832  0.3449
 8802SOL    HW137865   2.040   0.954   3.786 -0.1362 -0.1812 -0.3915
 8802SOL    HW237866   1.920   0.879   3.841  2.2274  1.2981  3.7079
 8803SOL     OW37867   1.918   3.164  16.853  0.0575 -0.0706  0.2208
 8803SOL    HW137868   1.921   3.253  16.817 -1.2869  0.2620  0.9410
 8803SOL    HW237869   1.847   3.124  16.802  0.7858  0.2508 -1.0588
 8804SOL     OW37870   4.217   3.094  15.671 -0.2676  0.5820  0.3740
 8804SOL    HW137871   4.209   3.106  15.765 -1.4007 -0.5983  0.4256
 8804SOL    HW237872   4.265   3.012  15.658 -0.7760  0.3969 -0.3521
 8805SOL     OW37873   0.202   4.339   3.836  0.3108 -0.2062  0.1043
 8805SOL    HW137874   0.168   4.259   3.876  1.5343 -0.1703  1.2322
 8805SOL    HW237875   0.204   4.405   3.906 -0.2720 -0.0014 -0.0781
 8806SOL     OW37876   1.667   3.579  17.421 -0.3490 -0.1431 -0.3700
 8806SOL    HW137877   1.724   3.633  17.367 -0.4088 -0.3760 -0.6650
 8806SOL    HW237878   1.716   3.498  17.433  0.4148  0.3653 -0.0283
 8807SOL     OW37879   3.538   1.467   3.078 -0.5204 -0.1255  0.2506
 8807SOL    HW137880   3.634   1.471   3.073 -0.3893 -2.2643  0.9828
 8807SOL    HW237881   3.527   1.373   3.066 -1.5938 -0.2751  2.4176
 8808SOL     OW37882   3.192   2.920   3.725  0.1276 -0.1271  0.1264
 8808SOL    HW137883   3.166   2.880   3.807 -0.3852 -0.0377  0.0065
 8808SOL    HW237884   3.220   2.839   3.683  0.5386  0.1507 -0.1333
 8809SOL     OW37885   0.635   2.123  16.640  0.3597 -0.2138  0.2963
 8809SOL    HW137886   0.640   2.071  16.559  2.1428  1.4712 -0.6730
 8809SOL    HW237887   0.703   2.083  16.694 -0.7237  1.0812  2.5900
 8810SOL     OW37888   0.065   2.482  13.496 -0.1840  0.4349  0.0819
 8810SOL    HW137889   0.086   2.434  13.415  0.7592  1.8566 -0.5111
 8810SOL    HW237890   4.700   2.509  13.472 -0.8497 -0.0775  1.9791
 8811SOL     OW37891   2.911   4.068   5.775  0.3820 -0.2182  0.1490
 8811SOL    HW137892   2.894   4.090   5.684  0.4409 -1.8265 -0.2370
 8811SOL    HW237893   2.966   4.145   5.793 -0.1621 -0.4351  2.8614
 8812SOL     OW37894   2.093   2.757  17.364  0.0207  0.4675 -0.4246
 8812SOL    HW137895   2.097   2.666  17.394 -1.1474  0.3886 -0.4771
 8812SOL    HW237896   2.099   2.742  17.270 -1.2184 -1.7340 -0.1623
 8813SOL     OW37897   1.272   1.691   4.951 -0.2563  0.4691 -0.4732
 8813SOL    HW137898   1.293   1.782   4.931  0.3877  0.4366  0.0658
 8813SOL    HW237899   1.187   1.696   4.906 -1.2663  0.5093  1.4039
 8814SOL     OW37900   2.172   4.448   4.184 -0.2016  0.2423  0.3965
 8814SOL    HW137901   2.168   4.405   4.099  0.0461  0.7017  0.1500
 8814SOL    HW237902   2.236   4.515   4.159  1.0849 -1.4463 -0.8381
 8815SOL     OW37903   0.683   0.446  12.761  0.2050 -0.4052  0.4186
 8815SOL    HW137904   0.606   0.451  12.818  0.4817 -0.9667  0.8376
 8815SOL    HW237905   0.637   0.421  12.681 -0.5003  0.9266  0.4041
 8816SOL     OW37906   1.385   4.363  11.690  0.3321 -0.0398 -0.2002
 8816SOL    HW137907   1.303   4.324  11.661  1.0578 -1.3223 -0.5312
 8816SOL    HW237908   1.375   4.346  11.783 -1.0170  0.9178 -0.1777
 8817SOL     OW37909   4.419   2.225   3.835  0.0968  0.4251  0.1995
 8817SOL    HW137910   4.509   2.194   3.840 -0.2123 -0.6281 -0.6467
 8817SOL    HW237911   4.422   2.280   3.913  1.8778  0.0481  0.3946
 8818SOL     OW37912   2.217   0.055   6.158 -0.2344 -0.4625  0.2790
 8818SOL    HW137913   2.247   0.124   6.099 -1.3685  0.1650  0.4435
 8818SOL    HW237914   2.246   4.701   6.110 -1.2417  0.1370 -1.2969
 8819SOL     OW37915   2.872   0.607  10.616 -0.1644  0.1266  0.1925
 8819SOL    HW137916   2.865   0.579  10.707 -0.9911 -1.4575 -0.3578
 8819SOL    HW237917   2.779   0.616  10.594 -0.1600  0.5021  0.3384
 8820SOL     OW37918   0.588   0.452   4.640 -0.2551  0.2172 -0.3802
 8820SOL    HW137919   0.570   0.359   4.631  0.4898  0.2771 -2.5655
 8820SOL    HW237920   0.681   0.449   4.621 -0.2632 -1.8631 -0.0859
 8821SOL     OW37921   2.897   2.545  12.317  0.0132  0.1239  0.6864
 8821SOL    HW137922   2.829   2.503  12.264  0.0177  0.3078  0.5361
 8821SOL    HW237923   2.879   2.507  12.404  1.7224 -2.0273  0.1004
 8822SOL     OW37924   1.604   0.057   7.160  0.1046 -0.6505  0.1777
 8822SOL    HW137925   1.697   0.069   7.140  1.0291 -0.4045  4.6144
 8822SOL    HW237926   1.583   0.150   7.164  1.3184 -0.3478 -0.5089
 8823SOL     OW37927   0.219   2.810   2.273  0.1894  0.0293 -0.3442
 8823SOL    HW137928   0.257   2.722   2.266 -1.3225 -0.6898  0.4280
 8823SOL    HW237929   0.140   2.795   2.222 -1.0242  1.9421  0.9666
 8824SOL     OW37930   0.417   1.718  11.290  0.1032  0.1311 -0.6542
 8824SOL    HW137931   0.376   1.693  11.208 -2.9655 -1.3904  1.3469
 8824SOL    HW237932   0.414   1.811  11.269 -1.4920  0.1681 -0.2662
 8825SOL     OW37933   3.443   4.093   0.918 -0.3642 -0.2006 -0.0119
 8825SOL    HW137934   3.427   4.098   0.824  1.0886  0.1963 -0.2374
 8825SOL    HW237935   3.465   4.000   0.919 -2.7596 -0.7741  0.3388
 8826SOL     OW37936   1.707   0.448   4.947 -0.3116  0.1837 -0.0965
 8826SOL    HW137937   1.702   0.527   4.893 -3.3823  0.8196  1.1313
 8826SOL    HW237938   1.638   0.394   4.910  0.0853  0.1558 -0.7981
 8827SOL     OW37939   0.264   0.259  10.519 -0.1800 -0.0279  0.4681
 8827SOL    HW137940   0.229   0.238  10.606 -1.6790 -1.6889 -0.5393
 8827SOL    HW237941   0.213   0.341  10.524 -0.0863 -0.0393  1.5134
 8828SOL     OW37942   2.267   0.335   6.047 -0.1826  0.3469 -0.2681
 8828SOL    HW137943   2.350   0.377   6.026  0.8025 -0.7576  1.4409
 8828SOL    HW237944   2.209   0.401   6.086  0.3832  1.6277 -1.5882
 8829SOL     OW37945   1.250   0.237  10.557 -0.1348 -0.3469 -0.1427
 8829SOL    HW137946   1.275   0.166  10.498  0.7901 -2.1882  2.4614
 8829SOL    HW237947   1.161   0.249  10.524 -0.2657 -0.2052  0.2634
 8830SOL     OW37948   1.540   3.021   7.336 -0.5388 -0.0704 -0.2941
 8830SOL    HW137949   1.608   3.085   7.315 -3.0792  2.8535  0.3072
 8830SOL    HW237950   1.569   2.993   7.423 -0.4423  1.3560  0.1295
 8831SOL     OW37951   3.958   0.515  14.453  0.6019  0.3791  0.2917
 8831SOL    HW137952   3.882   0.514  14.510 -1.5991 -0.8567 -2.6563
 8831SOL    HW237953   3.983   0.422  14.449  0.6189  0.3298  1.8064
 8832SOL     OW37954   3.963   2.736   4.273 -0.5939  0.0427  0.2486
 8832SOL    HW137955   3.940   2.761   4.183  1.4661 -1.7629 -0.7730
 8832SOL    HW237956   3.937   2.820   4.311  0.9463  0.5870  0.0895
 8833SOL     OW37957   4.498   3.618   7.540 -0.4677  0.1735 -0.1897
 8833SOL    HW137958   4.549   3.653   7.613 -1.6155  2.4162 -0.4429
 8833SOL    HW237959   4.575   3.591   7.489 -0.6404 -0.6996  0.0163
 8834SOL     OW37960   0.953   1.053  13.357 -0.1670 -0.1254 -0.6964
 8834SOL    HW137961   0.895   1.054  13.434  1.2102 -1.0890  0.3592
 8834SOL    HW237962   0.901   1.022  13.283  1.9630 -1.1579 -1.7498
 8835SOL     OW37963   3.165   3.654  11.431 -0.0020  0.0254  0.4202
 8835SOL    HW137964   3.199   3.604  11.357 -0.4224  1.8198 -1.0042
 8835SOL    HW237965   3.184   3.744  11.403 -0.5449 -0.7822 -2.5279
 8836SOL     OW37966   1.652   3.120   6.917  0.4062 -0.0083  0.0252
 8836SOL    HW137967   1.684   3.039   6.956  1.8357 -0.1304 -1.3735
 8836SOL    HW237968   1.657   3.180   6.991 -1.8493  0.4691 -0.2033
 8837SOL     OW37969   2.716   2.200   5.222  0.5895  0.4211  0.5135
 8837SOL    HW137970   2.730   2.195   5.127  1.5563 -0.0311  0.6807
 8837SOL    HW237971   2.761   2.278   5.254  3.0044 -1.5613  1.9629
 8838SOL     OW37972   4.025   3.195   4.915  0.0526 -0.0800  0.1086
 8838SOL    HW137973   3.992   3.172   5.002 -2.0432 -0.5481 -0.8107
 8838SOL    HW237974   4.077   3.118   4.894 -3.4043 -2.1233 -1.0602
 8839SOL     OW37975   1.344   1.355  12.400 -0.2306 -0.2533 -0.2429
 8839SOL    HW137976   1.304   1.268  12.406 -1.2383  0.2931  0.8363
 8839SOL    HW237977   1.316   1.391  12.484  0.9894  1.4003 -0.5491
 8840SOL     OW37978   3.051   0.573   6.037 -0.1305  0.8034  0.3456
 8840SOL    HW137979   3.083   0.653   6.077  1.2775  0.1958  0.4143
 8840SOL    HW237980   3.127   0.531   5.998 -0.7544 -0.1148  0.1229
 8841SOL     OW37981   3.123   1.851  12.761  0.0362  0.1589  0.4959
 8841SOL    HW137982   3.171   1.915  12.814  0.8984 -0.9844  1.0925
 8841SOL    HW237983   3.149   1.860  12.669 -0.0452 -0.0805  0.4497
 8842SOL     OW37984   0.196   4.313   2.346  0.1911 -0.0730 -0.2262
 8842SOL    HW137985   0.237   4.393   2.379  0.2439 -0.5031  0.7547
 8842SOL    HW237986   0.104   4.331   2.366  0.2568 -0.6045  0.5765
 8843SOL     OW37987   4.324   3.813  15.069  0.1355 -0.2430 -0.0789
 8843SOL    HW137988   4.330   3.721  15.041  0.4227 -0.2498  0.0018
 8843SOL    HW237989   4.276   3.799  15.150  0.4393  2.9594  0.6384
 8844SOL     OW37990   1.909   4.582   2.913  0.3283 -0.3074 -1.3374
 8844SOL    HW137991   1.945   4.595   3.001  0.5264 -0.3608 -1.4117
 8844SOL    HW237992   1.827   4.633   2.914  1.2570  1.1331  1.2524
 8845SOL     OW37993   2.374   3.819  12.709  0.5543  0.5076  0.2203
 8845SOL    HW137994   2.359   3.753  12.776 -1.7773 -0.2196 -0.9950
 8845SOL    HW237995   2.296   3.799  12.657  0.0438 -0.8277  1.5280
 8846SOL     OW37996   3.704   4.332   7.785  0.0911  0.0824  0.3823
 8846SOL    HW137997   3.664   4.348   7.871  0.3326  1.1408  0.3064
 8846SOL    HW237998   3.687   4.238   7.780  1.5650 -0.1334 -0.5711
 8847SOL     OW37999   2.465   0.328   5.066 -0.1461 -0.3314  0.0323
 8847SOL    HW138000   2.493   0.409   5.108  0.5145 -0.9004  0.6939
 8847SOL    HW238001   2.539   0.274   5.097 -0.2573 -0.2428  0.4547
 8848SOL     OW38002   1.542   4.173   8.281  0.0653  0.8893 -0.1634
 8848SOL    HW138003   1.491   4.227   8.341 -1.9454 -1.3655  0.1998
 8848SOL    HW238004   1.481   4.099   8.272  0.7781  0.0786  1.7250
 8849SOL     OW38005   1.615   3.897  10.757  0.6364  0.3120  0.1136
 8849SOL    HW138006   1.637   3.898  10.850  3.4957  2.9103 -0.5752
 8849SOL    HW238007   1.686   3.950  10.720  0.3442  0.2385 -0.5482
 8850SOL     OW38008   2.657   0.432   4.033 -0.7563  0.5599  0.0386
 8850SOL    HW138009   2.739   0.480   4.050 -1.3144  1.5559 -0.0973
 8850SOL    HW238010   2.592   0.461   4.097 -1.9503 -1.2945 -0.3556
 8851SOL     OW38011   4.055   2.198   2.820  0.6669 -0.3453 -0.1881
 8851SOL    HW138012   4.097   2.120   2.855  1.0128 -0.7289 -1.4797
 8851SOL    HW238013   4.047   2.179   2.727 -1.1370 -2.0776  0.3210
 8852SOL     OW38014   4.555   2.460  14.200 -0.6192  0.1058  0.2957
 8852SOL    HW138015   4.545   2.486  14.291 -0.8745  2.0820 -0.3045
 8852SOL    HW238016   4.463   2.448  14.175 -0.0309 -1.4822 -1.1597
 8853SOL     OW38017   1.025   0.794   9.345  0.4218  0.9000  0.2135
 8853SOL    HW138018   1.041   0.798   9.440  0.1289  0.0722  0.2985
 8853SOL    HW238019   1.101   0.742   9.321 -0.9324 -0.2603 -1.5251
 8854SOL     OW38020   3.632   3.482   2.115 -0.1870  0.2611  0.6073
 8854SOL    HW138021   3.700   3.430   2.072  0.5733  1.3862  0.4384
 8854SOL    HW238022   3.566   3.419   2.144 -1.0112  0.5062 -0.7717
 8855SOL     OW38023   4.118   0.715   1.010 -0.0490 -0.5804  0.1761
 8855SOL    HW138024   4.085   0.748   1.093 -0.6750  1.9328 -1.0696
 8855SOL    HW238025   4.186   0.779   0.989  0.7133 -1.5256 -0.2005
 8856SOL     OW38026   1.707   0.486   8.210 -0.0315 -0.2977 -0.4581
 8856SOL    HW138027   1.698   0.444   8.295 -1.6816  2.3259  0.6625
 8856SOL    HW238028   1.613   0.493   8.192 -0.0806 -0.0111 -0.0812
 8857SOL     OW38029   0.052   0.132   4.744  0.1662  0.7189 -0.1925
 8857SOL    HW138030   4.714   0.169   4.807  0.3358  0.0522  0.3636
 8857SOL    HW238031   0.132   0.164   4.785  0.6667  2.0316 -2.1871
 8858SOL     OW38032   4.551   4.296   8.195  0.4098  0.3154  0.0360
 8858SOL    HW138033   4.462   4.332   8.193  0.2359 -0.2847 -3.2216
 8858SOL    HW238034   4.543   4.244   8.115  0.0103 -0.1921  0.4071
 8859SOL     OW38035   3.346   1.416  11.959 -0.0670  0.7854  0.7353
 8859SOL    HW138036   3.371   1.484  11.896 -1.8827  0.3398 -0.4614
 8859SOL    HW238037   3.283   1.460  12.015 -1.3191  1.7442 -1.4151
 8860SOL     OW38038   2.500   2.049   9.241 -0.0258  0.6158 -0.1944
 8860SOL    HW138039   2.519   2.049   9.147 -2.6800 -1.6410 -0.7259
 8860SOL    HW238040   2.504   2.139   9.274  2.7551  0.4802 -0.1018
 8861SOL     OW38041   2.075   2.156   7.899 -0.1380 -0.3144  0.4058
 8861SOL    HW138042   2.166   2.154   7.929  0.0596  1.7226  0.0019
 8861SOL    HW238043   2.032   2.188   7.978 -0.8746 -0.0634 -0.0968
 8862SOL     OW38044   3.125   3.867   5.817 -0.2457 -0.3585 -0.6646
 8862SOL    HW138045   3.073   3.947   5.819 -1.0578 -0.8801 -0.8700
 8862SOL    HW238046   3.214   3.903   5.816  0.6967 -2.6743 -0.9730
 8863SOL     OW38047   2.585   4.027   4.816 -0.2021 -0.2161  0.1936
 8863SOL    HW138048   2.540   3.964   4.760 -2.0674 -0.6492  2.1719
 8863SOL    HW238049   2.561   4.103   4.763  2.8456  0.8507  0.3012
 8864SOL     OW38050   1.129   1.249  11.361 -0.3363 -0.8014 -0.0589
 8864SOL    HW138051   1.174   1.333  11.353 -1.9178  0.1620  1.0643
 8864SOL    HW238052   1.039   1.283  11.364 -0.1825 -0.3003 -1.3699
 8865SOL     OW38053   3.355   4.563   0.280 -0.6357  0.2799  0.0609
 8865SOL    HW138054   3.450   4.549   0.276 -0.4663  1.1800  1.1833
 8865SOL    HW238055   3.347   4.643   0.331  1.4136 -1.6730  3.4414
 8866SOL     OW38056   3.791   0.743   4.435 -0.4733 -0.5893 -0.5214
 8866SOL    HW138057   3.836   0.828   4.431  0.1240 -0.7856  2.5619
 8866SOL    HW238058   3.861   0.680   4.418  1.7433  2.1188 -1.4170
 8867SOL     OW38059   0.155   1.662   1.817  0.0270 -0.4091  0.9563
 8867SOL    HW138060   0.151   1.568   1.796 -1.1975 -0.6222  2.1286
 8867SOL    HW238061   0.127   1.660   1.909 -0.1565 -1.2943  0.8885
 8868SOL     OW38062   3.959   3.939  12.260 -0.0037 -0.2808  0.1990
 8868SOL    HW138063   4.022   4.002  12.223  0.0413  0.4946  1.6090
 8868SOL    HW238064   4.011   3.901  12.330  0.2400  2.8422  1.7045
 8869SOL     OW38065   1.654   3.444  10.789 -0.2584 -0.5270  0.4103
 8869SOL    HW138066   1.694   3.496  10.719 -0.9532  0.7984  0.9779
 8869SOL    HW238067   1.723   3.385  10.816  1.6281  0.8843 -1.2956
 8870SOL     OW38068   1.830   2.465   2.551  0.3429  0.5034 -0.3106
 8870SOL    HW138069   1.860   2.510   2.472  2.1932  1.1567  0.7459
 8870SOL    HW238070   1.763   2.527   2.581  0.4176  0.3953  0.0881
 8871SOL     OW38071   4.303   3.371   4.970 -0.2008 -0.0650  0.0260
 8871SOL    HW138072   4.216   3.390   5.006 -0.0503  1.4162 -0.4082
 8871SOL    HW238073   4.284   3.347   4.880  2.2015 -0.5807 -0.3247
 8872SOL     OW38074   0.186   4.209  16.552  0.6560 -0.5738  0.6891
 8872SOL    HW138075   0.259   4.260  16.517  0.5662  0.1926  1.6183
 8872SOL    HW238076   0.215   4.119  16.539 -0.4186 -0.7226 -0.6714
 8873SOL     OW38077   1.513   3.683   3.591 -0.0961 -0.3287 -0.3762
 8873SOL    HW138078   1.465   3.629   3.653 -1.6218  1.5584  0.0749
 8873SOL    HW238079   1.587   3.713   3.644 -0.3714 -0.1192 -0.1165
 8874SOL     OW38080   4.193   2.953   2.395 -0.5794 -0.0129  0.8147
 8874SOL    HW138081   4.190   3.007   2.316 -1.3682  2.1388  2.3118
 8874SOL    HW238082   4.249   2.884   2.359 -4.1243 -1.6007 -1.5588
 8875SOL     OW38083   1.898   4.406   7.826  0.3066  0.0933 -0.0501
 8875SOL    HW138084   1.865   4.397   7.916  1.6857 -1.0162  0.3488
 8875SOL    HW238085   1.981   4.360   7.832 -1.3498 -2.8422  0.3917
 8876SOL     OW38086   3.241   4.686   4.766  0.6316 -0.4772 -0.7064
 8876SOL    HW138087   3.217   4.689   4.858  1.6819  1.4953 -0.5186
 8876SOL    HW238088   3.214   4.596   4.744 -3.0197  0.1181  1.2829
 8877SOL     OW38089   2.475   2.347   9.972  0.2793  0.3215  0.4327
 8877SOL    HW138090   2.467   2.304   9.887  0.1652 -0.7127  0.9601
 8877SOL    HW238091   2.481   2.271  10.030  3.7530 -0.5681 -1.1141
 8878SOL     OW38092   4.192   2.574   4.341 -0.0934 -0.5983  0.1199
 8878SOL    HW138093   4.137   2.645   4.310 -0.7260 -0.6047  1.2448
 8878SOL    HW238094   4.236   2.610   4.418 -0.8110  0.1196  0.1795
 8879SOL     OW38095   4.088   4.392  12.223 -0.0183  0.1473 -0.3895
 8879SOL    HW138096   4.095   4.393  12.318 -0.0249  1.3279 -0.3998
 8879SOL    HW238097   4.177   4.393  12.188  0.4856  0.6041  0.9463
 8880SOL     OW38098   2.808   1.124   0.848 -0.0671 -0.1652 -0.1301
 8880SOL    HW138099   2.774   1.111   0.760  1.7334 -0.4999 -0.7719
 8880SOL    HW238100   2.900   1.099   0.844  0.1148  0.2435  1.3136
 8881SOL     OW38101   4.316   1.242   9.582  0.1533  0.6022 -0.0823
 8881SOL    HW138102   4.302   1.159   9.627  0.4867  0.9028  0.5810
 8881SOL    HW238103   4.382   1.208   9.521  0.0064 -0.3992  0.3156
 8882SOL     OW38104   2.021   2.699   2.193 -0.5365  0.1735  0.0709
 8882SOL    HW138105   1.939   2.650   2.192 -0.6913  0.4357  0.2184
 8882SOL    HW238106   2.059   2.682   2.279  2.5108 -0.4282 -1.3896
 8883SOL     OW38107   3.662   0.359  15.359  0.7309 -0.8703  0.5405
 8883SOL    HW138108   3.697   0.447  15.349  2.6750 -1.5811  1.0924
 8883SOL    HW238109   3.588   0.359  15.299  1.9820 -0.6027 -1.0063
 8884SOL     OW38110   3.317   0.310   6.534 -0.0281  0.5000 -0.0972
 8884SOL    HW138111   3.411   0.316   6.514  0.0703 -0.9141 -0.0836
 8884SOL    HW238112   3.319   0.271   6.621  1.5786  1.1856  0.1739
 8885SOL     OW38113   0.863   3.398   9.079  0.1792 -0.2372  0.0640
 8885SOL    HW138114   0.867   3.411   9.174  0.0827  0.9323 -0.0836
 8885SOL    HW238115   0.813   3.317   9.084 -1.4369  0.7659  0.3561
 8886SOL     OW38116   0.322   0.723   6.120  0.1309  0.3388 -0.5071
 8886SOL    HW138117   0.284   0.636   6.123  0.3758  0.2139 -1.1907
 8886SOL    HW238118   0.298   0.745   6.210  1.3688  4.9431 -1.3056
 8887SOL     OW38119   2.006   2.173   1.733  0.3931  0.5779 -0.2500
 8887SOL    HW138120   2.069   2.113   1.772  0.3452  1.8960  1.8655
 8887SOL    HW238121   2.063   2.229   1.679  1.2118  1.3771  1.4548
 8888SOL     OW38122   2.252   4.307   3.432 -0.4874 -0.1011 -0.1293
 8888SOL    HW138123   2.267   4.368   3.504 -1.3751 -1.2395  1.0338
 8888SOL    HW238124   2.285   4.346   3.351 -0.0123  1.8063  1.0022
 8889SOL     OW38125   1.776   0.146   5.577 -0.1187 -0.0819  0.1884
 8889SOL    HW138126   1.859   0.117   5.614  0.7528  1.1692 -0.8060
 8889SOL    HW238127   1.781   0.240   5.592  0.2349 -0.2053  0.8427
 8890SOL     OW38128   1.157   0.992   4.734  0.2334  1.0227  0.1049
 8890SOL    HW138129   1.083   1.049   4.715 -2.1891 -2.4805 -0.9989
 8890SOL    HW238130   1.152   0.985   4.830  1.1575  3.0323  0.2869
 8891SOL     OW38131   0.373   3.622  12.495 -0.5723  0.2302 -0.3597
 8891SOL    HW138132   0.332   3.706  12.475  1.5203  1.0419 -1.1897
 8891SOL    HW238133   0.459   3.634  12.455 -0.7658 -4.0432 -2.0389
 8892SOL     OW38134   2.168   1.120  16.759 -0.1249  0.4932  0.1617
 8892SOL    HW138135   2.075   1.096  16.759 -0.4395  1.7533 -1.1757
 8892SOL    HW238136   2.202   1.041  16.716  3.0010  1.6742  0.5129
 8893SOL     OW38137   2.704   1.135  11.178 -0.2915 -0.1213 -0.2879
 8893SOL    HW138138   2.769   1.176  11.121  0.4994 -1.1892 -0.1413
 8893SOL    HW238139   2.697   1.195  11.253  2.1602  0.8763 -0.8535
 8894SOL     OW38140   0.753   0.829   8.678  0.3179  0.3270 -0.0830
 8894SOL    HW138141   0.765   0.852   8.586  1.3784 -1.9752 -0.5164
 8894SOL    HW238142   0.657   0.835   8.672  0.3821  0.6047 -0.8356
 8895SOL     OW38143   1.434   2.904   3.061 -0.2987  0.6544  0.2790
 8895SOL    HW138144   1.484   2.859   2.993  0.9853  1.8886  0.4224
 8895SOL    HW238145   1.419   2.988   3.018  0.2266  1.1793  1.1258
 8896SOL     OW38146   3.575   2.636   3.903 -0.0254  0.8580 -0.0934
 8896SOL    HW138147   3.580   2.723   3.944  0.2615 -0.3080  2.3421
 8896SOL    HW238148   3.640   2.651   3.835  0.3208 -0.4535 -0.0376
 8897SOL     OW38149   3.778   0.487   8.343  0.0817  0.2783 -0.6291
 8897SOL    HW138150   3.694   0.490   8.388  1.1328  0.5356  1.3000
 8897SOL    HW238151   3.809   0.578   8.343  0.8901 -0.0027 -0.8103
 8898SOL     OW38152   3.314   1.950   2.305  0.3714  1.0920  0.2855
 8898SOL    HW138153   3.261   2.002   2.245  1.5644  2.8366  0.7546
 8898SOL    HW238154   3.401   1.974   2.271  1.4822 -2.5066  0.5260
 8899SOL     OW38155   2.467   0.822   8.301 -0.2014  0.1922 -0.5831
 8899SOL    HW138156   2.480   0.906   8.256  1.4194  1.0922  1.5913
 8899SOL    HW238157   2.442   0.766   8.228 -0.9885  0.0455 -0.1960
 8900SOL     OW38158   4.530   1.776   2.285  0.8082 -0.5827  0.2209
 8900SOL    HW138159   4.456   1.797   2.342  0.1475  1.0398 -1.2480
 8900SOL    HW238160   4.596   1.763   2.353  0.2408 -0.6375  0.7583
 8901SOL     OW38161   1.557   0.144  13.226 -0.6890 -0.3128 -0.5435
 8901SOL    HW138162   1.604   0.062  13.238  0.8917  0.8820  1.4983
 8901SOL    HW238163   1.470   0.106  13.227 -1.5121  1.6581  2.2276
 8902SOL     OW38164   1.918   1.994   4.222  0.1792 -0.0400 -0.1410
 8902SOL    HW138165   1.993   1.943   4.193 -0.7310 -1.4779  0.0405
 8902SOL    HW238166   1.883   1.941   4.294 -1.9654  1.1366 -0.3195
 8903SOL     OW38167   2.198   1.219   4.913  0.2256 -0.0365 -0.5191
 8903SOL    HW138168   2.171   1.198   4.823  2.9206 -1.5048 -0.9882
 8903SOL    HW238169   2.127   1.177   4.960 -0.7918  0.0942 -1.9388
 8904SOL     OW38170   2.907   3.942   4.253  0.2192 -0.3207 -0.3477
 8904SOL    HW138171   2.886   3.998   4.327  1.3027 -1.4894  0.8432
 8904SOL    HW238172   2.989   3.975   4.214 -0.4956 -0.0496 -1.6302
 8905SOL     OW38173   3.107   1.006  13.074 -0.2597 -0.0041  0.2712
 8905SOL    HW138174   3.102   0.911  13.071 -0.5245 -0.0004  0.5525
 8905SOL    HW238175   3.193   1.030  13.040  0.5590 -1.5082  1.3371
 8906SOL     OW38176   2.670   3.906   7.322  0.3923  0.1651  0.7314
 8906SOL    HW138177   2.712   3.987   7.352  2.3380 -0.7055  0.3356
 8906SOL    HW238178   2.608   3.888   7.393 -0.6780  1.5385  0.1482
 8907SOL     OW38179   2.357   4.676   4.181  0.1120  0.4509  0.6247
 8907SOL    HW138180   2.433   4.632   4.142  1.5099  3.3569  0.0560
 8907SOL    HW238181   2.369   0.044   4.156  0.1480  0.3810  0.3875
 8908SOL     OW38182   1.995   1.488   3.366  0.2945 -0.6446 -0.5665
 8908SOL    HW138183   2.062   1.474   3.434 -0.0976 -0.9164 -0.2371
 8908SOL    HW238184   1.932   1.419   3.385  1.6558 -1.9356 -0.7268
 8909SOL     OW38185   1.823   1.861   4.432  0.5584  0.1674 -0.0839
 8909SOL    HW138186   1.906   1.822   4.457 -0.2360 -0.6285  1.3119
 8909SOL    HW238187   1.770   1.840   4.509 -0.8546  2.3637 -0.4491
 8910SOL     OW38188   4.389   1.323  13.699  0.3222 -0.3073 -0.5272
 8910SOL    HW138189   4.365   1.236  13.668 -2.6555  0.6903 -1.0300
 8910SOL    HW238190   4.303   1.359  13.721  0.9903  1.2896 -0.5176
 8911SOL     OW38191   3.772   2.566   4.768 -0.3726 -0.2919  0.1013
 8911SOL    HW138192   3.828   2.628   4.720 -0.5803 -0.8005 -0.7989
 8911SOL    HW238193   3.758   2.503   4.698 -0.3558 -1.3101  1.0071
 8912SOL     OW38194   4.407   0.162   7.764 -0.1286  0.2078 -0.4925
 8912SOL    HW138195   4.411   0.256   7.750 -0.6650  0.6384  2.2789
 8912SOL    HW238196   4.452   0.159   7.848 -1.8235 -1.8231  0.3485
 8913SOL     OW38197   3.555   1.622  12.602  0.9246  0.0451  0.0082
 8913SOL    HW138198   3.595   1.660  12.680  0.3721  2.2721 -0.7953
 8913SOL    HW238199   3.625   1.648  12.542 -0.2937  0.1518 -1.3877
 8914SOL     OW38200   1.082   3.668  12.791  0.5714  0.3168  0.3965
 8914SOL    HW138201   1.125   3.672  12.877 -0.9131  0.0292  1.1481
 8914SOL    HW238202   1.013   3.733  12.805 -0.7463 -0.9877 -0.0441
 8915SOL     OW38203   1.334   0.015   4.468 -0.0787  0.1124 -0.0632
 8915SOL    HW138204   1.291   0.026   4.383  2.0531  0.7086 -1.0555
 8915SOL    HW238205   1.375   4.653   4.460 -0.8042 -0.3086  0.6649
 8916SOL     OW38206   1.317   0.105  17.632  0.0165  0.0706  0.1919
 8916SOL    HW138207   1.226   0.127  17.610 -0.2136 -0.3302  0.7409
 8916SOL    HW238208   1.339   0.189  17.674 -1.9185 -0.5281  2.4126
 8917SOL     OW38209   2.571   2.345   8.036 -0.2578 -0.6863 -0.4989
 8917SOL    HW138210   2.615   2.428   8.016  1.2219 -1.2400  0.4467
 8917SOL    HW238211   2.623   2.288   7.979 -1.3245 -1.3001 -0.8504
 8918SOL     OW38212   1.683   1.052   4.906  0.3974 -0.3713 -0.0408
 8918SOL    HW138213   1.684   0.958   4.891  2.4915 -0.1906 -1.0102
 8918SOL    HW238214   1.613   1.084   4.849 -1.3417 -0.0242  2.2748
 8919SOL     OW38215   3.550   1.685   2.549  0.2669  0.6806  0.3597
 8919SOL    HW138216   3.554   1.781   2.553 -2.5084  0.7634  1.1680
 8919SOL    HW238217   3.584   1.669   2.461 -2.4283 -2.9452  0.0174
 8920SOL     OW38218   3.737   1.228   3.089 -0.1662  0.1322  0.0244
 8920SOL    HW138219   3.778   1.157   3.039  0.4777  0.4872  0.0424
 8920SOL    HW238220   3.648   1.195   3.085 -1.7326  4.1453  1.2942
 8921SOL     OW38221   1.244   2.319  10.891 -0.1692  0.3360 -0.3326
 8921SOL    HW138222   1.212   2.408  10.905 -0.2738  0.1883  0.3547
 8921SOL    HW238223   1.318   2.317  10.952 -0.2187  1.9877 -0.2174
 8922SOL     OW38224   4.311   3.453   2.639 -0.7285 -0.4856  0.1172
 8922SOL    HW138225   4.387   3.396   2.649 -0.6493 -0.3447  0.3035
 8922SOL    HW238226   4.338   3.503   2.562 -1.3955 -0.1715  0.0921
 8923SOL     OW38227   1.910   3.979   2.791 -0.0931  0.1082 -0.7368
 8923SOL    HW138228   1.923   3.949   2.701 -1.9170  0.2438 -1.0478
 8923SOL    HW238229   1.992   4.018   2.821  0.3433  0.2967 -2.1711
 8924SOL     OW38230   2.417   1.181   4.278 -0.1531  0.0232 -0.5568
 8924SOL    HW138231   2.497   1.233   4.279  0.2980 -0.6724 -0.4127
 8924SOL    HW238232   2.445   1.090   4.282  0.6815  0.4407  2.4446
 8925SOL     OW38233   0.497   1.999   4.878 -0.7474  0.9726  0.4608
 8925SOL    HW138234   0.544   1.922   4.912 -0.1048  1.0881 -0.1652
 8925SOL    HW238235   0.404   1.978   4.883 -0.6518  0.5113  0.2854
 8926SOL     OW38236   0.731   3.962   3.763 -0.1074 -0.1897 -0.5103
 8926SOL    HW138237   0.779   3.949   3.681  0.2656  3.1283 -0.8265
 8926SOL    HW238238   0.703   3.874   3.789  1.6626 -1.2447 -2.1219
 8927SOL     OW38239   2.907   1.045  14.804  0.0944  0.5708  0.5120
 8927SOL    HW138240   2.909   1.053  14.899  3.2720  1.7993  0.3263
 8927SOL    HW238241   2.916   0.951  14.787 -1.5699  1.0582 -3.2197
 8928SOL     OW38242   2.706   3.514   2.221  0.1532 -0.0942  0.7288
 8928SOL    HW138243   2.744   3.552   2.142 -0.7968 -1.1124 -0.2286
 8928SOL    HW238244   2.614   3.537   2.208  0.5693  0.3609 -1.4053
 8929SOL     OW38245   1.728   0.214   3.206  0.1540 -0.7412  0.2332
 8929SOL    HW138246   1.647   0.208   3.156 -0.0879 -3.4632  0.9353
 8929SOL    HW238247   1.705   0.165   3.285 -0.6139 -0.1318  0.3927
 8930SOL     OW38248   1.684   1.000  12.469 -0.4942  0.7009 -0.0039
 8930SOL    HW138249   1.655   0.931  12.529 -0.7101  1.0764  0.3253
 8930SOL    HW238250   1.774   1.017  12.498 -0.6283 -1.0072  1.4032
 8931SOL     OW38251   2.306   0.674   3.225 -0.0507 -0.3507 -0.0904
 8931SOL    HW138252   2.210   0.682   3.221  0.0026  1.8121  3.5147
 8931SOL    HW238253   2.318   0.579   3.233 -1.4334 -0.3733  1.6500
 8932SOL     OW38254   4.053   0.482   7.633  0.3018  0.4580 -0.2952
 8932SOL    HW138255   4.002   0.419   7.684 -0.0003  1.4144  0.5922
 8932SOL    HW238256   4.052   0.442   7.546  1.4188  1.6990 -0.8697
 8933SOL     OW38257   4.362   3.795  10.808  0.8574 -0.3532 -0.2977
 8933SOL    HW138258   4.283   3.762  10.766 -0.0832  0.4284  0.8784
 8933SOL    HW238259   4.404   3.843  10.736 -1.1707  1.1692 -0.4630
 8934SOL     OW38260   3.788   1.559   6.256 -0.2232  0.0721 -0.0932
 8934SOL    HW138261   3.824   1.644   6.229  0.1129 -0.2111 -0.5583
 8934SOL    HW238262   3.796   1.519   6.169  0.2920  0.6488 -0.3097
 8935SOL     OW38263   2.135   2.844  12.433 -0.4687 -0.1221 -0.4389
 8935SOL    HW138264   2.164   2.771  12.488  1.5205 -1.6247 -3.4892
 8935SOL    HW238265   2.126   2.906  12.506 -0.3788 -0.5039 -0.1038
 8936SOL     OW38266   1.138   1.657   2.654 -0.0530  0.6483 -0.1282
 8936SOL    HW138267   1.080   1.593   2.695 -2.0107  1.6471 -1.3019
 8936SOL    HW238268   1.134   1.641   2.559  3.6082  1.6165 -0.4621
 8937SOL     OW38269   0.953   3.540   9.334  0.3130 -0.3822 -0.6699
 8937SOL    HW138270   0.995   3.480   9.396 -1.0537  0.7613  1.3716
 8937SOL    HW238271   0.988   3.623   9.364 -0.6406 -0.6341  1.1108
 8938SOL     OW38272   3.018   0.432   1.696  0.1474  0.0874 -0.3155
 8938SOL    HW138273   3.086   0.496   1.716 -1.1252  1.0713  0.7950
 8938SOL    HW238274   2.952   0.466   1.755 -2.0186 -1.9514 -1.5674
 8939SOL     OW38275   3.846   3.740   5.378  0.0074  0.3231  0.2831
 8939SOL    HW138276   3.834   3.665   5.320 -0.7894  0.5546  0.1528
 8939SOL    HW238277   3.845   3.819   5.324 -1.5593 -0.7352 -1.1924
 8940SOL     OW38278   2.066   4.418   6.728  0.3862  0.7602 -0.8985
 8940SOL    HW138279   2.006   4.364   6.677 -0.3843  0.5509  0.2195
 8940SOL    HW238280   2.150   4.373   6.737 -1.1735 -1.7609  1.0861
 8941SOL     OW38281   2.378   2.244   6.187  0.2731 -0.8291  0.3539
 8941SOL    HW138282   2.363   2.281   6.100 -0.8169 -0.5668  0.6468
 8941SOL    HW238283   2.285   2.239   6.210  1.0580  3.4194  4.5056
 8942SOL     OW38284   1.433   4.439   8.727 -0.4540  0.1277  0.1316
 8942SOL    HW138285   1.472   4.395   8.803 -1.4017  0.7854  0.9977
 8942SOL    HW238286   1.461   4.522   8.767  2.4895 -0.4513 -0.7402
 8943SOL     OW38287   0.364   4.079   9.035  0.1914  0.2615 -0.0677
 8943SOL    HW138288   0.341   4.035   8.953  0.8874  0.9137 -0.6060
 8943SOL    HW238289   0.339   4.014   9.101 -0.6753 -1.3120 -1.9360
 8944SOL     OW38290   1.493   2.550   9.810 -0.1246  0.0647 -0.2217
 8944SOL    HW138291   1.447   2.509   9.737 -0.1910  0.4961 -0.4187
 8944SOL    HW238292   1.466   2.641   9.801  1.0850  0.3742 -0.7597
 8945SOL     OW38293   0.471   3.536  14.460 -0.7056  0.3524 -0.0430
 8945SOL    HW138294   0.462   3.526  14.365  1.2068 -0.5036 -0.1258
 8945SOL    HW238295   0.386   3.497  14.483 -0.4738 -0.4314 -0.4893
 8946SOL     OW38296   3.417   2.580   6.844 -0.1809  0.4218  0.0335
 8946SOL    HW138297   3.323   2.564   6.852 -0.1654 -0.4540 -1.5556
 8946SOL    HW238298   3.428   2.673   6.824  1.2617  0.3245  0.3133
 8947SOL     OW38299   4.412   3.577   8.026 -0.2192 -0.3686 -0.3401
 8947SOL    HW138300   4.466   3.614   7.956 -0.6324 -0.8816 -0.9334
 8947SOL    HW238301   4.377   3.502   7.978  1.2563 -1.6659  0.6173
 8948SOL     OW38302   2.804   0.228   4.403 -0.2949  0.1967 -0.1262
 8948SOL    HW138303   2.875   0.287   4.429 -1.1936  0.1183  2.4585
 8948SOL    HW238304   2.819   0.209   4.310  1.8292 -2.3640  0.7262
 8949SOL     OW38305   2.853   2.910  10.984  0.9171 -0.5529 -0.2129
 8949SOL    HW138306   2.819   2.878  11.068 -0.6968 -2.4204 -1.5738
 8949SOL    HW238307   2.926   2.849  10.975  0.5902 -0.6721 -2.0283
 8950SOL     OW38308   3.660   4.099   6.046 -0.3597 -0.0119 -0.6592
 8950SOL    HW138309   3.672   4.187   6.079  2.2195  0.2028 -2.1827
 8950SOL    HW238310   3.688   4.118   5.956  1.6348  1.4520  0.2865
 8951SOL     OW38311   0.351   0.283   8.967  0.2594  0.2207  0.0959
 8951SOL    HW138312   0.364   0.354   8.904 -3.6537 -0.7204 -1.7689
 8951SOL    HW238313   0.422   0.224   8.940  2.8609  2.0108  2.9964
 8952SOL     OW38314   2.946   4.689   1.007  0.2611 -0.3514  0.3205
 8952SOL    HW138315   3.006   4.623   1.041 -1.0741 -2.1397 -0.7816
 8952SOL    HW238316   2.866   4.637   0.994  0.2941  0.0489 -1.4719
 8953SOL     OW38317   3.633   0.790   8.944 -0.5420 -0.4766  0.4871
 8953SOL    HW138318   3.675   0.754   9.023 -1.2044 -1.5250  0.3656
 8953SOL    HW238319   3.586   0.863   8.985 -0.5209  0.3699 -1.0082
 8954SOL     OW38320   3.812   4.636   7.943 -0.7288  0.1687  0.1016
 8954SOL    HW138321   3.845   4.713   7.898 -0.9889 -0.1755 -0.6732
 8954SOL    HW238322   3.880   4.613   8.006 -0.9866 -0.5545  0.1174
 8955SOL     OW38323   2.999   1.880   9.350  0.3751 -0.2275 -0.1594
 8955SOL    HW138324   2.906   1.904   9.351  0.1389 -1.2045  1.0245
 8955SOL    HW238325   3.005   1.787   9.331  1.7859 -0.6366  2.3342
 8956SOL     OW38326   0.651   0.619  12.096 -0.4725 -0.1233 -0.0602
 8956SOL    HW138327   0.720   0.553  12.093 -0.0234  0.3037  0.8216
 8956SOL    HW238328   0.598   0.572  12.160 -0.0442  2.4552  2.1984
 8957SOL     OW38329   2.307   0.986   0.079 -0.0133  0.0063  0.7254
 8957SOL    HW138330   2.250   0.910   0.069 -0.9804  0.7137  0.9048
 8957SOL    HW238331   2.281   1.001   0.170 -2.0219  0.3520  0.0787
 8958SOL     OW38332   4.076   2.852   8.282  0.5485  0.0414  0.2547
 8958SOL    HW138333   4.105   2.925   8.336 -0.4967  0.0267  0.8315
 8958SOL    HW238334   4.094   2.889   8.196  1.4258  0.7417  0.7382
 8959SOL     OW38335   3.765   1.377   7.387  0.5475 -0.6274  0.5141
 8959SOL    HW138336   3.678   1.339   7.397  0.1272 -0.3176 -2.0456
 8959SOL    HW238337   3.821   1.320   7.439 -0.7121 -2.2183  0.1065
 8960SOL     OW38338   4.214   2.600   1.031  0.6160  0.7090 -0.4009
 8960SOL    HW138339   4.267   2.676   1.054 -0.9411  1.3817  0.9444
 8960SOL    HW238340   4.151   2.648   0.977  1.5956 -1.1208 -3.2067
 8961SOL     OW38341   3.631   3.320   5.574  0.1511 -0.8636  0.1762
 8961SOL    HW138342   3.643   3.405   5.615  1.4869 -1.0961  0.2535
 8961SOL    HW238343   3.574   3.278   5.638 -0.3017 -0.5449 -0.0183
 8962SOL     OW38344   1.683   4.677  13.738 -0.4491 -0.5468  0.0727
 8962SOL    HW138345   1.670   4.673  13.832  1.4799 -2.2331  0.2705
 8962SOL    HW238346   1.600   4.652  13.698 -1.3721  3.2187 -0.3842
 8963SOL     OW38347   1.587   0.677  13.509  0.3859 -0.1122 -0.3110
 8963SOL    HW138348   1.542   0.600  13.475 -2.6276  1.3229  0.4083
 8963SOL    HW238349   1.520   0.744  13.497 -0.7840 -1.2692 -0.2641
 8964SOL     OW38350   0.509   1.109   3.945 -0.0796  0.1053  0.4080
 8964SOL    HW138351   0.569   1.166   3.897  0.0438  1.3855  2.0955
 8964SOL    HW238352   0.538   1.025   3.908 -0.9045  1.2430 -2.8617
 8965SOL     OW38353   4.262   3.630   4.706 -0.1515  0.0137 -0.0732
 8965SOL    HW138354   4.233   3.703   4.762  0.8261 -1.0765  1.8371
 8965SOL    HW238355   4.353   3.656   4.691  0.3829 -0.5184  2.2345
 8966SOL     OW38356   0.397   1.536   8.342 -0.9933  0.0011  0.2099
 8966SOL    HW138357   0.349   1.508   8.419 -0.9081 -0.6410  0.0273
 8966SOL    HW238358   0.383   1.469   8.275  2.0819  1.6420 -2.0825
 8967SOL     OW38359   1.532   1.222   4.772 -0.1830 -0.3100  0.1438
 8967SOL    HW138360   1.502   1.256   4.855 -0.4022  1.1095 -0.5241
 8967SOL    HW238361   1.473   1.264   4.710  0.4217  0.8870  0.3735
 8968SOL     OW38362   0.121   2.747   4.788  0.1752  0.1107 -0.2186
 8968SOL    HW138363   0.105   2.769   4.880 -0.3855 -0.7516 -0.1061
 8968SOL    HW238364   0.032   2.728   4.757 -0.3622  1.3086  0.5619
 8969SOL     OW38365   0.973   2.938   3.428  0.1528  0.1670  0.0137
 8969SOL    HW138366   1.034   2.885   3.377 -1.1948  0.2611 -1.6684
 8969SOL    HW238367   1.029   3.014   3.443 -1.0912  0.6268  2.3745
 8970SOL     OW38368   1.748   3.013   5.483 -0.3431 -0.1414  0.1286
 8970SOL    HW138369   1.705   2.997   5.399  0.4929  1.4612 -0.5891
 8970SOL    HW238370   1.706   2.945   5.535 -0.8665  0.4654  0.4985
 8971SOL     OW38371   4.457   0.507   4.887 -0.1691  0.8714  0.2595
 8971SOL    HW138372   4.483   0.599   4.893 -0.7208  1.0766 -0.4291
 8971SOL    HW238373   4.393   0.515   4.816  0.0955 -0.5310 -0.1273
 8972SOL     OW38374   0.809   2.431   4.112 -0.0412 -0.2196  0.0153
 8972SOL    HW138375   0.777   2.518   4.139 -0.1391 -0.3950  0.4590
 8972SOL    HW238376   0.727   2.392   4.082 -0.6601  2.7993 -2.2073
 8973SOL     OW38377   1.986   2.922  16.994  0.2738 -0.4388 -0.2953
 8973SOL    HW138378   1.990   2.901  16.901 -1.7146  0.8662 -0.6577
 8973SOL    HW238379   2.023   2.845  17.038  0.2879  0.5061  1.3281
 8974SOL     OW38380   0.664   1.411   2.030  0.7867 -0.0370  0.5100
 8974SOL    HW138381   0.646   1.379   1.942 -0.4328 -1.3138  1.2365
 8974SOL    HW238382   0.647   1.332   2.082  1.6981 -2.5871 -3.0587
 8975SOL     OW38383   0.098   2.952   2.976 -0.1414  0.1618  0.5029
 8975SOL    HW138384   0.009   2.916   2.968 -0.4543  1.3101 -1.2147
 8975SOL    HW238385   0.150   2.874   2.996 -0.2781 -0.3722 -1.1808
 8976SOL     OW38386   2.185   2.669   5.540 -0.3149  0.6245  0.3591
 8976SOL    HW138387   2.225   2.700   5.459 -1.1051  2.1819  0.5690
 8976SOL    HW238388   2.132   2.747   5.559 -0.0145  0.6581  1.0726
 8977SOL     OW38389   3.235   1.689   7.524 -0.1943  0.1529  0.2962
 8977SOL    HW138390   3.171   1.743   7.478 -1.5571 -1.9106 -0.2679
 8977SOL    HW238391   3.177   1.627   7.569 -1.1486  2.4076  2.1642
 8978SOL     OW38392   4.637   4.617   6.060  0.1271 -0.2447  0.2994
 8978SOL    HW138393   4.650   4.557   6.133 -0.6518 -0.5784  0.1604
 8978SOL    HW238394   4.641   4.701   6.106  0.1294 -0.3332  0.4587
 8979SOL     OW38395   2.536   4.444   8.190 -0.0849 -0.0363  0.0086
 8979SOL    HW138396   2.612   4.489   8.151 -0.7084  0.1383 -0.9953
 8979SOL    HW238397   2.513   4.513   8.252 -0.6538 -0.3875  0.1836
 8980SOL     OW38398   2.982   1.693   6.864 -0.0951 -0.1679 -0.1194
 8980SOL    HW138399   3.059   1.734   6.825  0.4667 -0.4457  0.6766
 8980SOL    HW238400   3.014   1.654   6.946  1.0003 -1.1519 -1.0141
 8981SOL     OW38401   4.232   2.430   3.716 -0.0091 -0.3782  0.3210
 8981SOL    HW138402   4.316   2.433   3.669 -0.4366 -0.5134 -0.4450
 8981SOL    HW238403   4.262   2.401   3.802 -0.0884  0.7582  0.7342
 8982SOL     OW38404   1.462   0.448   8.655  0.8184 -0.4802 -0.9625
 8982SOL    HW138405   1.452   0.516   8.721  1.2300  1.3406 -2.7938
 8982SOL    HW238406   1.383   0.393   8.661 -1.0011  2.3329  0.7338
 8983SOL     OW38407   1.048   1.825   3.524 -0.3932 -0.2804  0.2608
 8983SOL    HW138408   0.962   1.866   3.526 -0.6169 -0.8018  1.1445
 8983SOL    HW238409   1.091   1.888   3.466 -1.6798 -1.5123 -2.0064
 8984SOL     OW38410   4.054   4.518   4.915 -0.0917 -0.2033 -0.3275
 8984SOL    HW138411   4.107   4.539   4.992 -0.6817 -0.2062  0.0820
 8984SOL    HW238412   4.122   4.493   4.853  0.0218  1.8338 -0.9987
 8985SOL     OW38413   4.255   2.409   8.557 -0.2392 -0.2245 -0.1669
 8985SOL    HW138414   4.180   2.445   8.606  0.4624  0.1531  0.6221
 8985SOL    HW238415   4.221   2.418   8.467 -1.4111  0.6253  0.3498
 8986SOL     OW38416   4.714   3.412  15.939  0.3156  0.0300 -0.0478
 8986SOL    HW138417   0.008   3.466  15.862  0.2412  1.0818  0.6698
 8986SOL    HW238418   4.658   3.342  15.906  1.1876 -0.7895  0.1941
 8987SOL     OW38419   3.161   1.847   9.756  0.0565  0.0145  0.1945
 8987SOL    HW138420   3.227   1.849   9.826  2.6538 -1.6819 -2.1622
 8987SOL    HW238421   3.134   1.759   9.781  0.3048  0.0653  0.6470
 8988SOL     OW38422   1.715   1.751   6.389  0.6321 -0.3182  0.3324
 8988SOL    HW138423   1.796   1.702   6.398  1.4521  1.0160  0.2365
 8988SOL    HW238424   1.659   1.728   6.463 -2.3019  0.5551 -1.6147
 8989SOL     OW38425   3.496   2.051   7.513  0.0157  0.0914 -0.2262
 8989SOL    HW138426   3.573   2.076   7.564 -1.4517  0.5959  1.7282
 8989SOL    HW238427   3.526   1.988   7.447 -2.2916 -0.4025 -0.8008
 8990SOL     OW38428   2.142   0.172   9.942 -0.4662  0.8178  0.0665
 8990SOL    HW138429   2.185   0.116   9.877 -2.1680 -0.0017 -0.3436
 8990SOL    HW238430   2.116   0.253   9.900  0.0360  0.8077 -0.2575
 8991SOL     OW38431   3.574   2.382   5.258  0.2451  0.7746  0.0625
 8991SOL    HW138432   3.507   2.445   5.233 -1.4379 -0.8991  0.3154
 8991SOL    HW238433   3.632   2.380   5.182  1.0507 -2.1226  0.7575
 8992SOL     OW38434   3.886   3.119   5.630  0.8889  0.0135  0.5227
 8992SOL    HW138435   3.854   3.193   5.579  1.0795 -1.6526 -1.9922
 8992SOL    HW238436   3.918   3.164   5.709  0.1571  2.4283 -0.5520
 8993SOL     OW38437   0.114   1.537   3.422 -0.3157  0.1643 -0.4226
 8993SOL    HW138438   0.135   1.443   3.424  2.0506  0.7251  0.5371
 8993SOL    HW238439   0.029   1.554   3.462  0.1736 -2.7158  1.8313
 8994SOL     OW38440   1.428   1.464   4.990 -0.2224  0.8988 -0.1194
 8994SOL    HW138441   1.389   1.552   4.988  0.7806  1.3223 -1.4678
 8994SOL    HW238442   1.494   1.480   4.922  2.0263  2.1470  2.3638
 8995SOL     OW38443   0.782   1.883   4.491 -0.0310 -0.2385  0.7356
 8995SOL    HW138444   0.737   1.963   4.519 -0.8329 -0.3555 -0.1954
 8995SOL    HW238445   0.797   1.847   4.579 -0.1786 -1.1718  0.3772
 8996SOL     OW38446   2.174   4.246  12.121 -0.6086  0.0100 -0.3004
 8996SOL    HW138447   2.124   4.314  12.075 -1.4820  0.6648  1.6027
 8996SOL    HW238448   2.139   4.168  12.078 -0.1667 -1.6240  2.3413
 8997SOL     OW38449   0.405   1.558   5.233 -0.2201  0.5978  0.0443
 8997SOL    HW138450   0.322   1.571   5.280 -0.7247  1.8004 -1.1816
 8997SOL    HW238451   0.429   1.467   5.253 -1.4529  0.7084  2.0296
 8998SOL     OW38452   2.176   1.298  10.538 -0.1699 -0.6654 -0.5879
 8998SOL    HW138453   2.116   1.279  10.609 -0.0631 -0.2390 -0.3851
 8998SOL    HW238454   2.193   1.213  10.498  0.7080 -1.0670  0.6587
 8999SOL     OW38455   1.410   3.689   5.951  0.0577 -0.4834  0.2459
 8999SOL    HW138456   1.458   3.630   6.010 -0.1396 -2.6187 -1.7557
 8999SOL    HW238457   1.362   3.626   5.899  0.5535  0.6131 -1.5671
 9000SOL     OW38458   0.399   3.934   4.859  0.3417 -0.2703 -0.4835
 9000SOL    HW138459   0.364   3.963   4.775 -1.9367 -1.3565  0.0933
 9000SOL    HW238460   0.452   4.008   4.889  1.1170  0.3566 -3.3507
 9001SOL     OW38461   1.289   3.142   7.321 -0.5950  0.1698 -0.9696
 9001SOL    HW138462   1.253   3.166   7.236  0.7134 -0.6561 -1.7635
 9001SOL    HW238463   1.371   3.096   7.303 -1.0041 -1.5099  1.4741
 9002SOL     OW38464   2.581   4.678   6.968 -0.2347 -0.2166 -0.1960
 9002SOL    HW138465   2.610   0.044   6.982  1.5736 -0.1417 -4.6324
 9002SOL    HW238466   2.643   4.639   6.907 -1.1536  0.6954 -1.6974
 9003SOL     OW38467   0.722   2.456   2.279  0.6345  0.8296 -0.5389
 9003SOL    HW138468   0.744   2.374   2.236 -1.6327 -0.8912  1.5677
 9003SOL    HW238469   0.801   2.509   2.285  0.2566  1.4689 -1.1044
 9004SOL     OW38470   1.860   4.458   3.790  0.4986  0.0290  0.7744
 9004SOL    HW138471   1.822   4.380   3.748  0.1572  0.3342  0.5173
 9004SOL    HW238472   1.792   4.525   3.780  1.3626  0.6928 -0.6079
 9005SOL     OW38473   0.297   2.502  11.521  0.1895  1.1424  0.2714
 9005SOL    HW138474   0.236   2.429  11.530  1.2109  0.0921 -1.3110
 9005SOL    HW238475   0.245   2.582  11.524 -0.0892  1.0204 -1.2432
 9006SOL     OW38476   3.777   1.783   1.818  0.0445  0.1601 -0.5153
 9006SOL    HW138477   3.694   1.818   1.850 -0.7937 -3.3900  1.0833
 9006SOL    HW238478   3.737   1.742   1.742 -0.8329 -0.1514  0.1169
 9007SOL     OW38479   0.414   3.054   4.302  0.1110 -0.0434 -0.0123
 9007SOL    HW138480   0.384   2.989   4.365 -0.2030 -1.0704 -1.2249
 9007SOL    HW238481   0.509   3.042   4.311  0.0415  0.4717  1.3383
 9008SOL     OW38482   3.700   2.059   7.868  0.3352 -0.1201 -0.2343
 9008SOL    HW138483   3.686   2.084   7.777  0.8266  0.2086 -0.2248
 9008SOL    HW238484   3.767   2.124   7.893 -0.5917  0.3033  1.1496
 9009SOL     OW38485   3.344   0.288   4.849 -0.2474 -0.0303 -0.0423
 9009SOL    HW138486   3.302   0.304   4.765 -0.2204 -0.5587 -0.1526
 9009SOL    HW238487   3.427   0.337   4.841 -1.6674  2.1908 -1.1985
 9010SOL     OW38488   2.612   3.576   7.832 -0.1697  0.5447 -0.0825
 9010SOL    HW138489   2.619   3.503   7.892  2.0087  0.5159 -0.3681
 9010SOL    HW238490   2.520   3.569   7.807 -0.3995  0.8224  0.6865
 9011SOL     OW38491   0.838   3.123   6.435  0.1909 -0.5558  0.6670
 9011SOL    HW138492   0.753   3.151   6.400  0.8663 -0.9937 -1.2859
 9011SOL    HW238493   0.894   3.200   6.424  0.5652 -1.4793 -3.7078
 9012SOL     OW38494   3.424   3.456   3.716 -0.1104 -0.1763 -0.1467
 9012SOL    HW138495   3.457   3.409   3.640  0.1689  0.5444 -0.4737
 9012SOL    HW238496   3.334   3.470   3.686 -0.7652 -3.4409  0.3102
 9013SOL     OW38497   0.709   3.286   0.363  0.5863  0.3974  0.0068
 9013SOL    HW138498   0.787   3.265   0.413  1.4946 -0.2492 -1.6716
 9013SOL    HW238499   0.722   3.232   0.285 -0.9313  1.7842 -1.2179
 9014SOL     OW38500   0.177   3.477  14.396 -0.6449 -0.4211  0.5676
 9014SOL    HW138501   0.201   3.386  14.410 -0.6271 -0.2690  1.4747
 9014SOL    HW238502   0.237   3.501  14.325 -0.3319 -1.4025  0.5064
 9015SOL     OW38503   0.323   3.058   8.801  0.1750 -0.8807 -0.0792
 9015SOL    HW138504   0.349   3.088   8.714  1.1595 -2.1153 -0.2170
 9015SOL    HW238505   0.366   2.973   8.815 -0.8055 -1.6367 -1.6112
 9016SOL     OW38506   0.714   3.047   7.033 -0.0524 -0.3626  0.9537
 9016SOL    HW138507   0.804   3.081   7.039  0.0322 -0.1087 -1.6956
 9016SOL    HW238508   0.712   2.952   7.045  2.6455 -0.3184  1.7651
 9017SOL     OW38509   3.053   2.115   7.571  0.1019 -0.2923 -0.2025
 9017SOL    HW138510   3.122   2.162   7.618  1.5366 -0.5336 -2.0741
 9017SOL    HW238511   3.040   2.042   7.632 -0.2349  0.5028  0.6845
 9018SOL     OW38512   2.108   1.078  11.659  0.2698  0.1844 -0.3259
 9018SOL    HW138513   2.153   1.162  11.668 -0.7021  0.6323  0.2690
 9018SOL    HW238514   2.033   1.102  11.604  1.1099  4.4041  0.3177
 9019SOL     OW38515   4.621   1.582   0.472 -0.3464  0.3191  0.0893
 9019SOL    HW138516   4.550   1.519   0.485  0.0102  0.2542  1.7060
 9019SOL    HW238517   4.664   1.548   0.393  0.4683 -0.4678  0.8660
 9020SOL     OW38518   3.992   0.051   2.790 -0.5264 -0.3181  0.5172
 9020SOL    HW138519   3.981   0.027   2.882  2.6769  0.4599  1.1071
 9020SOL    HW238520   3.992   0.146   2.793  0.5403 -0.2761 -1.0261
 9021SOL     OW38521   1.255   1.902   0.288 -0.0221 -0.1974  0.3402
 9021SOL    HW138522   1.270   1.940   0.201  0.5222 -0.4409  0.3317
 9021SOL    HW238523   1.160   1.917   0.291  0.0691  0.4241  0.1573
 9022SOL     OW38524   4.455   3.674   1.979  0.0803 -0.0259  0.0402
 9022SOL    HW138525   4.514   3.599   1.989  0.6789  0.2053 -1.6728
 9022SOL    HW238526   4.472   3.688   1.886  0.5986  1.3841  0.3437
 9023SOL     OW38527   2.098   4.379   4.425  0.1123 -0.0415  0.2755
 9023SOL    HW138528   2.121   4.375   4.332  0.1051  0.7504  0.2367
 9023SOL    HW238529   2.165   4.322   4.463  0.8837  0.5060 -0.2527
 9024SOL     OW38530   2.699   1.253   8.854  0.2946 -0.5095  0.2223
 9024SOL    HW138531   2.665   1.192   8.788  1.5756 -0.3130 -0.6106
 9024SOL    HW238532   2.753   1.305   8.795 -1.2571 -1.0224 -1.6709
 9025SOL     OW38533   1.471   1.108  14.375  0.2225  0.2014 -0.3672
 9025SOL    HW138534   1.426   1.169  14.317  0.3285 -0.3773 -1.0634
 9025SOL    HW238535   1.511   1.041  14.319 -0.6859 -0.4236 -0.2567
 9026SOL     OW38536   3.991   4.226  15.225  1.0305  0.3650 -0.0314
 9026SOL    HW138537   4.064   4.167  15.241 -0.0659 -0.8131  0.6211
 9026SOL    HW238538   3.927   4.198  15.291  0.4963 -0.1730 -0.7763
 9027SOL     OW38539   4.300   1.661   7.746 -0.1839  0.2878  0.6130
 9027SOL    HW138540   4.302   1.566   7.754 -1.9922  0.2385  0.4373
 9027SOL    HW238541   4.305   1.672   7.651 -0.2202  0.0500  0.5835
 9028SOL     OW38542   1.012   1.430   7.709 -0.0498 -0.1198 -0.0286
 9028SOL    HW138543   1.074   1.376   7.757 -1.6610 -1.1539  0.8468
 9028SOL    HW238544   0.955   1.367   7.666  1.7550 -1.7820  0.0220
 9029SOL     OW38545   0.646   2.937   0.175  0.0567 -0.6415  0.5774
 9029SOL    HW138546   0.555   2.967   0.176  0.2584 -0.0301  0.9766
 9029SOL    HW238547   0.697   3.015   0.153 -0.6147  0.0580  1.4782
 9030SOL     OW38548   3.802   0.547   6.186 -0.1993  0.1670  0.0343
 9030SOL    HW138549   3.863   0.570   6.116  0.6418 -0.6124  0.5186
 9030SOL    HW238550   3.850   0.481   6.236 -0.1428 -0.2550 -0.5721
 9031SOL     OW38551   4.276   0.208   6.952 -0.0892  0.3775 -0.6178
 9031SOL    HW138552   4.260   0.181   6.862 -0.1692 -1.0189 -0.1900
 9031SOL    HW238553   4.218   0.150   7.002 -1.2848  2.6841  0.6694
 9032SOL     OW38554   3.280   0.609   3.325  0.1397 -0.4789  0.6902
 9032SOL    HW138555   3.256   0.516   3.330 -4.6279  0.7496  0.5123
 9032SOL    HW238556   3.328   0.623   3.407 -0.4981  0.8020  0.8446
 9033SOL     OW38557   3.585   2.695   5.156  0.6975 -0.3751 -0.3083
 9033SOL    HW138558   3.623   2.621   5.109  2.1753  1.0107 -1.2901
 9033SOL    HW238559   3.492   2.684   5.139  0.0448  1.8741  1.7487
 9034SOL     OW38560   4.160   2.378   5.512 -0.1803  0.1254  0.1574
 9034SOL    HW138561   4.147   2.472   5.523  1.1755  0.4312 -0.8962
 9034SOL    HW238562   4.070   2.347   5.507 -0.1067  0.4539 -2.9190
 9035SOL     OW38563   3.537   4.052   3.948  0.1469  0.0440  0.0888
 9035SOL    HW138564   3.507   3.997   3.876  0.9640 -2.4667  1.6362
 9035SOL    HW238565   3.607   4.112   3.924 -1.6251  2.3298  0.5799
 9036SOL     OW38566   0.616   4.092  10.331  0.1957 -0.1552 -0.1551
 9036SOL    HW138567   0.694   4.106  10.385  1.0379 -1.4209 -1.0403
 9036SOL    HW238568   0.578   4.024  10.386 -0.0419 -0.1896 -0.3645
 9037SOL     OW38569   0.919   4.311   7.434 -0.2811 -0.1532 -0.5205
 9037SOL    HW138570   1.008   4.337   7.411  0.2006  0.5350  2.1011
 9037SOL    HW238571   0.868   4.390   7.422 -0.3507 -0.8516 -4.5993
 9038SOL     OW38572   0.437   2.139   7.176  0.0181 -0.4924  0.0212
 9038SOL    HW138573   0.382   2.098   7.109  0.5635 -1.8324  0.3833
 9038SOL    HW238574   0.418   2.232   7.167 -1.0987 -0.5095  2.1669
 9039SOL     OW38575   2.569   4.663   4.394  0.1385  0.4341 -0.1776
 9039SOL    HW138576   2.622   4.632   4.320 -0.8518  0.5629 -0.9405
 9039SOL    HW238577   2.497   4.601   4.390 -0.0922  0.6898 -0.0036
 9040SOL     OW38578   2.862   3.323   2.329  0.7348 -0.1272 -0.7359
 9040SOL    HW138579   2.858   3.310   2.424 -1.9908 -0.7317 -0.9449
 9040SOL    HW238580   2.796   3.389   2.307  0.6803 -0.4146 -1.4296
 9041SOL     OW38581   3.749   1.416   8.933  0.1352 -0.0210  0.4777
 9041SOL    HW138582   3.840   1.388   8.927  0.2489  0.6232 -0.8657
 9041SOL    HW238583   3.718   1.348   8.993 -0.2478  0.1680  0.4956
 9042SOL     OW38584   3.962   3.613  17.403  0.1578 -0.5098  0.4729
 9042SOL    HW138585   3.967   3.649  17.492  2.2272 -1.9569  0.9558
 9042SOL    HW238586   4.050   3.577  17.404  1.3978  2.4953  0.5997
 9043SOL     OW38587   2.890   0.334  16.193 -0.3939 -0.1083  0.0262
 9043SOL    HW138588   2.849   0.302  16.112  0.1043 -1.3388  0.2670
 9043SOL    HW238589   2.983   0.339  16.172 -0.1072  0.5474  1.4908
 9044SOL     OW38590   1.363   2.207   8.177 -0.0183  0.1698 -0.0989
 9044SOL    HW138591   1.357   2.121   8.220  0.3536  0.0887 -0.2118
 9044SOL    HW238592   1.393   2.256   8.254  1.6475 -1.8537  0.5277
 9045SOL     OW38593   3.044   3.491  16.391 -1.2417  0.5581 -0.3710
 9045SOL    HW138594   3.119   3.506  16.334 -1.2251  2.2268  0.0868
 9045SOL    HW238595   2.979   3.459  16.328  0.9085  0.9641 -2.7785
 9046SOL     OW38596   0.447   3.249   9.955 -0.3617 -0.2283  0.4067
 9046SOL    HW138597   0.481   3.169   9.995 -1.5527 -1.6170 -1.3765
 9046SOL    HW238598   0.406   3.232   9.870  1.8998  1.0214 -0.9119
 9047SOL     OW38599   0.014   2.434   4.842  0.3118 -0.0231 -0.3896
 9047SOL    HW138600   0.028   2.417   4.748 -0.3688  2.1958 -0.8962
 9047SOL    HW238601   0.098   2.405   4.877 -0.4001 -1.2394  0.2978
 9048SOL     OW38602   0.487   3.039   9.228 -0.2415  0.2828  0.3714
 9048SOL    HW138603   0.415   3.071   9.282 -0.5893 -1.4112  0.8980
 9048SOL    HW238604   0.488   3.105   9.158  0.3907  0.6401  0.7128
 9049SOL     OW38605   0.865   1.988   5.870 -0.7058 -0.2409  0.0157
 9049SOL    HW138606   0.818   2.059   5.826  0.2873  2.2791  3.0245
 9049SOL    HW238607   0.794   1.928   5.892 -2.6567  1.6352 -1.1445
 9050SOL     OW38608   4.517   4.091   3.184 -0.0481 -0.0898  0.1259
 9050SOL    HW138609   4.473   4.086   3.270 -1.0551  2.4705 -0.2472
 9050SOL    HW238610   4.440   4.089   3.127  1.7658  1.8336 -2.3577
 9051SOL     OW38611   0.014   3.880   2.307  0.3654  0.2349  0.2982
 9051SOL    HW138612   0.003   3.785   2.309 -1.5635  0.4398 -0.8968
 9051SOL    HW238613   0.090   3.891   2.250  0.5568  0.6148  0.6305
 9052SOL     OW38614   1.656   3.180  11.263 -0.2156 -0.4166 -0.5272
 9052SOL    HW138615   1.624   3.139  11.183  2.3368 -2.3461 -0.5621
 9052SOL    HW238616   1.616   3.121  11.326 -0.9866  0.6561 -0.0193
 9053SOL     OW38617   1.214   1.776   0.772 -0.0979  0.0671 -0.1200
 9053SOL    HW138618   1.153   1.813   0.836  0.7102 -0.5814  1.0143
 9053SOL    HW238619   1.253   1.857   0.737  0.7870 -0.0096  0.6722
 9054SOL     OW38620   3.999   1.747   5.954 -0.1849  0.6253  0.2075
 9054SOL    HW138621   4.061   1.694   6.005 -0.4822 -1.1732 -1.2565
 9054SOL    HW238622   4.007   1.828   6.004  0.8870  0.7146 -0.0882
 9055SOL     OW38623   0.319   0.545   9.417 -0.2755  0.4657  0.1517
 9055SOL    HW138624   0.250   0.538   9.484 -2.8331 -0.4240 -2.5604
 9055SOL    HW238625   0.381   0.475   9.436 -0.0130  0.6817  0.0824
 9056SOL     OW38626   1.523   4.469  10.023 -0.2900  0.0258  0.3169
 9056SOL    HW138627   1.610   4.431  10.039 -0.3657 -0.4905 -0.4881
 9056SOL    HW238628   1.506   4.503  10.111 -1.8146 -0.8708  0.3636
 9057SOL     OW38629   3.480   2.125  11.879 -0.1662 -0.4858 -0.0449
 9057SOL    HW138630   3.489   2.150  11.787  0.3059  1.0078  0.3997
 9057SOL    HW238631   3.414   2.182  11.918 -1.3907 -0.7644 -1.6923
 9058SOL     OW38632   2.000   3.271   5.690  0.0123 -0.4344  0.3936
 9058SOL    HW138633   2.010   3.228   5.774  1.7109  1.5453  1.2122
 9058SOL    HW238634   2.084   3.317   5.683  1.5397 -3.2318  0.1139
 9059SOL     OW38635   2.509   0.954  11.136  0.3127  0.0793  0.2198
 9059SOL    HW138636   2.572   1.023  11.156  0.7471  0.5158 -2.6831
 9059SOL    HW238637   2.483   0.927  11.224 -2.1188 -0.4653 -0.6595
 9060SOL     OW38638   2.023   1.635   9.261  0.3819 -0.0165 -0.0006
 9060SOL    HW138639   1.985   1.549   9.241 -1.9114  0.9279  0.2753
 9060SOL    HW238640   1.955   1.692   9.224  0.4258  0.3166  0.4307
 9061SOL     OW38641   1.058   4.202  16.162  0.0007 -0.1937  0.2886
 9061SOL    HW138642   1.149   4.216  16.187  0.3389 -1.5500 -0.1948
 9061SOL    HW238643   1.016   4.256  16.229 -3.0943 -0.2003 -1.6686
 9062SOL     OW38644   4.322   3.949  12.360  0.3263  0.0530  0.5456
 9062SOL    HW138645   4.270   4.000  12.297 -0.2180 -0.6248  0.4558
 9062SOL    HW238646   4.413   3.975  12.341 -0.1880  0.4534 -1.3909
 9063SOL     OW38647   1.337   3.932  10.814 -0.0954  0.4716  0.4001
 9063SOL    HW138648   1.333   4.027  10.813 -0.4747  0.4873  2.4379
 9063SOL    HW238649   1.432   3.925  10.803 -0.2363  1.1574 -1.0899
 9064SOL     OW38650   0.403   1.995   5.633  0.3333  0.4026  0.2160
 9064SOL    HW138651   0.315   2.031   5.620 -0.3692 -1.0465  1.0134
 9064SOL    HW238652   0.418   1.918   5.579  0.3824  0.0014  0.8015
 9065SOL     OW38653   3.216   3.579  14.821  0.3766  0.0785 -0.5583
 9065SOL    HW138654   3.259   3.632  14.754 -2.3950  0.7965 -1.7841
 9065SOL    HW238655   3.284   3.514  14.838 -1.3171 -0.6975  3.1343
 9066SOL     OW38656   2.131   0.621   5.800 -0.6161  0.6372  0.0236
 9066SOL    HW138657   2.142   0.687   5.869  2.1014 -0.5424  0.7465
 9066SOL    HW238658   2.044   0.599   5.833 -0.0186 -1.6546  0.0192
 9067SOL     OW38659   1.496   3.613  15.752  0.2847  0.6778 -0.4112
 9067SOL    HW138660   1.409   3.625  15.714  0.2579  0.7152 -0.3378
 9067SOL    HW238661   1.523   3.534  15.705 -0.7359  0.8217 -1.2472
 9068SOL     OW38662   1.965   4.191  10.257 -0.4377 -0.3083 -0.1097
 9068SOL    HW138663   2.047   4.145  10.240 -0.9155 -1.5006  0.8382
 9068SOL    HW238664   1.980   4.217  10.347  2.3467 -3.9338  0.4532
 9069SOL     OW38665   1.564   0.014   4.103  0.9645 -0.1378 -0.2575
 9069SOL    HW138666   1.483   0.017   4.154  1.2590  0.7978  0.1612
 9069SOL    HW238667   1.526   0.003   4.016 -1.2493 -0.0711  0.6891
 9070SOL     OW38668   1.564   0.222  16.607  0.3494  0.7442 -0.4539
 9070SOL    HW138669   1.612   0.273  16.541  0.1608 -1.6132 -2.3951
 9070SOL    HW238670   1.550   0.284  16.679  0.7432 -0.7273  0.9028
 9071SOL     OW38671   0.251   0.516   5.436  0.1837  0.3879 -0.6767
 9071SOL    HW138672   0.221   0.550   5.521  1.3704 -0.1089 -0.0670
 9071SOL    HW238673   0.284   0.431   5.464 -0.3612  0.8293  1.2960
 9072SOL     OW38674   0.278   4.579   7.575 -0.1035  0.6269  0.3192
 9072SOL    HW138675   0.230   4.587   7.493  2.2174  1.8010 -0.8983
 9072SOL    HW238676   0.225   4.509   7.615 -1.0488  0.0660 -1.9107
 9073SOL     OW38677   4.437   0.214   2.031  0.1698  0.5802 -0.5465
 9073SOL    HW138678   4.386   0.240   2.108  0.9951  0.6598 -0.0310
 9073SOL    HW238679   4.364   0.187   1.975  0.4550  1.0727 -1.1503
 9074SOL     OW38680   1.171   4.268   1.859  0.0105  0.0271  0.1144
 9074SOL    HW138681   1.085   4.227   1.853 -0.9312  1.9770  0.1054
 9074SOL    HW238682   1.162   4.325   1.936  0.2544  0.4592 -0.1781
 9075SOL     OW38683   2.919   2.597   5.704 -0.3829  0.5352  0.3048
 9075SOL    HW138684   2.914   2.504   5.682  1.5707  0.5735 -0.2684
 9075SOL    HW238685   2.998   2.596   5.757  0.8921  0.1193 -1.6021
 9076SOL     OW38686   4.420   3.560   2.917 -0.2147 -0.2188  0.0394
 9076SOL    HW138687   4.376   3.643   2.934 -1.2597 -0.6695 -0.4544
 9076SOL    HW238688   4.371   3.523   2.843 -0.1172 -0.7909  0.2622
 9077SOL     OW38689   0.563   3.246   5.357 -0.2343 -0.7384 -0.4206
 9077SOL    HW138690   0.575   3.327   5.308 -0.9376  0.1415  0.8548
 9077SOL    HW238691   0.532   3.271   5.444  0.3271 -2.9145  0.4152
 9078SOL     OW38692   1.108   2.137   3.489  0.1782  0.7837 -0.8164
 9078SOL    HW138693   1.040   2.118   3.553  2.2154  0.0401  1.1270
 9078SOL    HW238694   1.188   2.139   3.541 -0.3329 -1.2502  0.0477
 9079SOL     OW38695   3.412   0.867   6.207  0.1018 -0.5096 -0.0620
 9079SOL    HW138696   3.412   0.798   6.272  0.1145 -0.9035 -0.4805
 9079SOL    HW238697   3.505   0.861   6.184  0.4189 -1.2758  1.5080
 9080SOL     OW38698   0.854   2.804  15.953 -0.5715 -0.5472 -0.1362
 9080SOL    HW138699   0.924   2.795  15.888 -1.2524  2.8398 -1.3781
 9080SOL    HW238700   0.808   2.881  15.918  0.0881  1.0685  2.5343
 9081SOL     OW38701   0.760   3.061   2.931 -0.3396  0.0434  0.1475
 9081SOL    HW138702   0.789   3.129   2.870  0.5513  0.7386  1.3284
 9081SOL    HW238703   0.807   3.085   3.011  0.1499 -0.3258 -0.0250
 9082SOL     OW38704   3.700   0.987   5.901  0.0887 -0.3813  0.4885
 9082SOL    HW138705   3.788   1.020   5.880 -0.3266  0.8721  0.7399
 9082SOL    HW238706   3.666   0.981   5.812 -2.3387 -0.3635  1.4133
 9083SOL     OW38707   0.662   0.498   6.509 -0.1601  0.2692  0.4908
 9083SOL    HW138708   0.687   0.544   6.589 -0.8757 -0.1990  0.9798
 9083SOL    HW238709   0.597   0.560   6.477 -2.0526 -2.6344 -1.2476
 9084SOL     OW38710   2.592   0.436   4.575  0.6854 -0.1762  0.0335
 9084SOL    HW138711   2.578   0.352   4.533  2.3207  0.3311 -1.5477
 9084SOL    HW238712   2.585   0.409   4.667  0.9932 -0.0157  0.1062
 9085SOL     OW38713   0.923   2.711  11.623 -0.1111  0.1936  0.0809
 9085SOL    HW138714   0.843   2.691  11.672  0.4014  0.2186  0.9338
 9085SOL    HW238715   0.902   2.792  11.576  0.1144  1.2301  1.7368
 9086SOL     OW38716   3.733   0.619   7.455 -0.6793  0.2317 -0.2136
 9086SOL    HW138717   3.713   0.557   7.525 -0.0779  1.2076  0.8241
 9086SOL    HW238718   3.826   0.597   7.445 -0.9451 -0.9792 -0.0471
 9087SOL     OW38719   3.833   4.664   4.920  0.3727 -0.6096 -0.6275
 9087SOL    HW138720   3.918   4.622   4.931  0.7458  0.3461  0.1680
 9087SOL    HW238721   3.797   4.596   4.864  1.5351 -2.3782  0.7776
 9088SOL     OW38722   3.104   3.046   4.594  0.0882 -0.2031 -0.2781
 9088SOL    HW138723   3.126   3.101   4.669 -1.1728 -0.0524 -0.0162
 9088SOL    HW238724   3.021   3.090   4.573 -0.1474 -0.9574 -0.8894
 9089SOL     OW38725   1.632   3.430   0.717 -0.2345 -0.3027 -0.2311
 9089SOL    HW138726   1.544   3.394   0.709  0.0636 -1.3170  0.9821
 9089SOL    HW238727   1.691   3.356   0.727 -1.3981 -1.1445  0.3729
 9090SOL     OW38728   2.801   1.407  14.637 -0.0981  0.2553  0.1323
 9090SOL    HW138729   2.861   1.338  14.610  0.5563  1.0440 -0.4065
 9090SOL    HW238730   2.819   1.477  14.575  1.6975 -1.4709 -1.3053
 9091SOL     OW38731   4.103   3.927   5.199  0.6204 -0.2627 -0.4928
 9091SOL    HW138732   4.181   3.957   5.153  0.5729  1.5221  0.5804
 9091SOL    HW238733   4.061   3.888   5.123  1.0140 -0.4836 -0.5962
 9092SOL     OW38734   0.100   3.729   3.946  0.0840 -0.4210 -0.1160
 9092SOL    HW138735   0.039   3.715   3.872  0.8558 -0.0975 -0.8093
 9092SOL    HW238736   0.130   3.640   3.966 -0.8973 -0.8110 -0.3691
 9093SOL     OW38737   4.132   0.376   6.670 -0.5533  0.3040 -0.3200
 9093SOL    HW138738   4.195   0.304   6.678 -0.8600  0.1917  1.1069
 9093SOL    HW238739   4.168   0.437   6.735 -1.2575 -0.1822  0.5233
 9094SOL     OW38740   4.209   4.046   4.619  0.1944 -0.0646  0.4930
 9094SOL    HW138741   4.186   4.130   4.579  0.5226  0.6217  1.7588
 9094SOL    HW238742   4.154   4.045   4.698 -0.9499  1.4322 -0.2755
 9095SOL     OW38743   2.925   1.819   7.944  0.1761  0.4292 -0.0060
 9095SOL    HW138744   2.830   1.826   7.955  0.2901  1.7068  0.1513
 9095SOL    HW238745   2.949   1.808   8.036 -1.8894 -0.7844  0.3747
 9096SOL     OW38746   4.190   3.684   9.307 -0.5052  0.1761  0.1915
 9096SOL    HW138747   4.189   3.707   9.214 -1.8894 -0.3542  0.0788
 9096SOL    HW238748   4.148   3.598   9.300  1.7944 -1.0229  0.7901
 9097SOL     OW38749   0.140   1.091  10.666 -0.4315  0.3406  0.2080
 9097SOL    HW138750   0.228   1.127  10.676 -0.1798 -0.3478  0.4928
 9097SOL    HW238751   0.089   1.170  10.647 -1.8798 -0.7082 -0.3348
 9098SOL     OW38752   3.427   1.938   2.545  0.1802  0.5473 -0.1949
 9098SOL    HW138753   3.393   1.943   2.456  0.1617  0.5606 -0.1871
 9098SOL    HW238754   3.350   1.905   2.590  1.5249 -0.7412  1.1778
 9099SOL     OW38755   2.165   0.064   1.244 -0.6003  0.2757  0.3354
 9099SOL    HW138756   2.151   4.715   1.304 -0.5333  0.2380  0.3049
 9099SOL    HW238757   2.147   0.138   1.303  0.7487 -0.9520  2.2852
 9100SOL     OW38758   3.952   0.112   3.729  0.2245  0.0557  0.4232
 9100SOL    HW138759   3.912   0.026   3.737 -3.4939  1.5357 -2.2916
 9100SOL    HW238760   3.902   0.159   3.796  1.4007  0.7974  0.7786
 9101SOL     OW38761   2.782   1.856   8.614  0.1626 -0.3685 -0.1255
 9101SOL    HW138762   2.797   1.907   8.693 -1.8180 -1.9784  1.2817
 9101SOL    HW238763   2.726   1.787   8.649  0.0275 -0.7325 -1.0427
 9102SOL     OW38764   0.794   2.259  15.218  0.1200 -0.0703  0.7610
 9102SOL    HW138765   0.756   2.201  15.153 -0.1660  0.7535  0.1868
 9102SOL    HW238766   0.778   2.345  15.179 -1.5649 -0.9461 -0.4644
 9103SOL     OW38767   1.274   3.982   1.863  0.0137  0.7667 -0.0077
 9103SOL    HW138768   1.201   3.936   1.821  1.6588 -1.7622 -0.0963
 9103SOL    HW238769   1.256   4.074   1.843  1.0760  1.1522  0.8644
 9104SOL     OW38770   0.828   1.410   3.314  0.2065  0.6541 -0.0840
 9104SOL    HW138771   0.875   1.418   3.397  1.4974 -1.9366 -0.5612
 9104SOL    HW238772   0.750   1.464   3.325  0.4918  1.1258 -0.3166
 9105SOL     OW38773   2.806   3.659   5.483 -0.2610  0.5217  0.0265
 9105SOL    HW138774   2.897   3.672   5.454 -0.0243  0.7832  0.8848
 9105SOL    HW238775   2.795   3.747   5.517  0.5767  0.4377  0.5221
 9106SOL     OW38776   2.343   2.979  13.528  0.3624  0.2199  0.1200
 9106SOL    HW138777   2.292   3.019  13.458 -0.9072 -1.7912 -0.1115
 9106SOL    HW238778   2.357   2.892  13.492 -0.5179  0.2206 -0.2234
 9107SOL     OW38779   1.735   3.055   8.504 -0.2929 -0.5947 -0.0369
 9107SOL    HW138780   1.804   3.089   8.447  1.4970  1.6424  3.4523
 9107SOL    HW238781   1.779   3.048   8.589  2.3307  1.5386 -1.2273
 9108SOL     OW38782   3.700   0.962   5.040  0.0557 -0.2714 -0.3681
 9108SOL    HW138783   3.680   0.900   5.110 -1.0460  1.6077  0.9720
 9108SOL    HW238784   3.785   0.996   5.069 -0.4854 -0.0617  0.9600
 9109SOL     OW38785   1.215   0.921   6.341 -0.2200 -0.0407  0.5554
 9109SOL    HW138786   1.209   0.826   6.330  1.0184  0.1301 -1.7159
 9109SOL    HW238787   1.124   0.932   6.370 -0.8005 -1.7320 -0.5859
 9110SOL     OW38788   1.148   2.903   4.161 -0.3324 -0.9076 -0.3810
 9110SOL    HW138789   1.065   2.862   4.140 -0.1427 -1.4040 -0.1706
 9110SOL    HW238790   1.191   2.893   4.076  1.2335 -0.5946  0.3698
 9111SOL     OW38791   2.610   2.245   2.168  0.0274 -0.2647  1.1740
 9111SOL    HW138792   2.645   2.324   2.209  0.8729 -0.2488  0.4426
 9111SOL    HW238793   2.583   2.278   2.082  0.0019  0.3688  1.4323
 9112SOL     OW38794   1.152   3.911   0.004  0.0935 -0.1987  0.3115
 9112SOL    HW138795   1.216   3.977  17.676  1.8950 -1.6340  1.0884
 9112SOL    HW238796   1.073   3.955  17.670 -0.2022 -1.1784 -0.3230
 9113SOL     OW38797   3.441   4.487  16.313  0.0107  0.0269  0.6115
 9113SOL    HW138798   3.510   4.553  16.307 -1.9530  1.9786 -0.5785
 9113SOL    HW238799   3.433   4.481  16.217  0.7843 -2.0700  0.6830
 9114SOL     OW38800   1.021   3.481   8.633 -0.0546 -0.3171  0.5917
 9114SOL    HW138801   1.042   3.453   8.722  0.8083 -1.8977 -0.0991
 9114SOL    HW238802   1.031   3.395   8.592 -2.0980 -0.3201  0.1112
 9115SOL     OW38803   4.277   1.630   4.235 -0.8380  0.0619 -0.1343
 9115SOL    HW138804   4.201   1.573   4.244 -0.9687  0.2173 -0.2434
 9115SOL    HW238805   4.270   1.677   4.318  0.5700 -1.5263  0.8504
 9116SOL     OW38806   0.271   4.557   4.049 -0.4275 -0.4502  0.3773
 9116SOL    HW138807   0.206   4.565   4.120 -0.2448 -0.8979  0.5925
 9116SOL    HW238808   0.350   4.565   4.102  0.7304 -2.2247 -1.1132
 9117SOL     OW38809   4.669   2.406   4.564 -0.4258  0.0647 -0.4418
 9117SOL    HW138810   4.648   2.409   4.471 -1.1807 -0.9844 -0.3029
 9117SOL    HW238811   0.031   2.364   4.577 -1.7880 -2.3652  0.6109
 9118SOL     OW38812   2.649   1.145   6.971 -0.0884  0.5643  0.4874
 9118SOL    HW138813   2.683   1.234   6.967  2.7235 -0.5600 -0.1333
 9118SOL    HW238814   2.728   1.112   6.928  0.6236 -0.4378  2.5817
 9119SOL     OW38815   0.585   2.341   8.991  0.2568 -0.0437 -0.1205
 9119SOL    HW138816   0.561   2.403   9.060 -0.4131  0.3958 -0.7527
 9119SOL    HW238817   0.628   2.274   9.045 -0.5778 -0.9787 -0.6086
 9120SOL     OW38818   1.345   1.152   6.251  0.2279 -0.1830  1.2501
 9120SOL    HW138819   1.277   1.219   6.253  0.9062  0.6268 -1.8225
 9120SOL    HW238820   1.304   1.067   6.265  1.8439 -1.4454 -1.6312
 9121SOL     OW38821   3.948   1.697   0.018 -0.1834  0.0210 -0.8811
 9121SOL    HW138822   3.932   1.768   0.081 -3.1750  1.9507 -3.8392
 9121SOL    HW238823   3.956   1.629   0.085  0.7418  2.6179  1.6205
 9122SOL     OW38824   1.315   1.567   4.493 -0.3257  0.1845 -0.1321
 9122SOL    HW138825   1.403   1.560   4.530 -0.0665  1.3456 -0.5313
 9122SOL    HW238826   1.335   1.576   4.400 -0.5236  1.9760 -0.0088
 9123SOL     OW38827   3.403   2.524   0.839 -1.2641 -0.1275 -0.2140
 9123SOL    HW138828   3.446   2.544   0.755  0.0241  1.1032  0.7315
 9123SOL    HW238829   3.418   2.429   0.837  1.8101  0.3639 -1.6681
 9124SOL     OW38830   4.060   1.489   4.785 -0.9368 -0.7608  0.1974
 9124SOL    HW138831   4.040   1.404   4.745 -5.3911 -0.8519  2.5531
 9124SOL    HW238832   4.155   1.495   4.787 -1.1182  1.6958  0.4484
 9125SOL     OW38833   0.472   0.081  11.945 -0.1684  0.6135  0.9463
 9125SOL    HW138834   0.393   0.128  11.969 -0.0348  1.2400  0.1637
 9125SOL    HW238835   0.453   4.712  11.955 -1.8465  0.5665 -2.4764
 9126SOL     OW38836   2.594   0.678  15.017  0.5047  0.2125 -0.2863
 9126SOL    HW138837   2.595   0.600  14.961  0.3217 -0.6907  0.9601
 9126SOL    HW238838   2.509   0.714  14.990  0.7199 -0.8582 -2.3119
 9127SOL     OW38839   2.752   4.370   5.770 -0.1225 -0.2678 -0.6935
 9127SOL    HW138840   2.787   4.412   5.848  0.0112 -1.2463 -0.2266
 9127SOL    HW238841   2.724   4.287   5.809  1.2857 -0.3092  0.1989
 9128SOL     OW38842   1.209   2.611  10.983 -0.1096  0.5318 -0.1917
 9128SOL    HW138843   1.176   2.594  11.071  0.5482 -2.0335 -0.4329
 9128SOL    HW238844   1.134   2.650  10.938 -0.3611 -0.7584 -0.8994
 9129SOL     OW38845   3.665   2.809  12.542  0.4259  0.1792  0.5169
 9129SOL    HW138846   3.688   2.738  12.602 -1.1564 -0.5463  0.2818
 9129SOL    HW238847   3.571   2.800  12.560  0.3815 -1.0400 -0.3275
 9130SOL     OW38848   0.245   2.082  15.892  0.2382 -0.5731 -0.0028
 9130SOL    HW138849   0.165   2.117  15.930 -0.6136 -1.4939 -0.9526
 9130SOL    HW238850   0.258   2.145  15.821  2.3850 -1.3222 -0.2739
 9131SOL     OW38851   1.025   1.254   4.439 -0.2497 -0.2212 -0.2012
 9131SOL    HW138852   1.109   1.213   4.415  0.4493  1.7893 -1.2260
 9131SOL    HW238853   0.993   1.198   4.510  1.4325  0.2509  0.9541
 9132SOL     OW38854   0.601   3.086   8.163  0.3460  0.0968 -0.4058
 9132SOL    HW138855   0.666   3.041   8.216  0.8882  0.1828 -1.0046
 9132SOL    HW238856   0.522   3.033   8.178  0.0792 -0.1641 -2.8371
 9133SOL     OW38857   0.997   3.029   1.099 -0.1119  0.0371 -0.0382
 9133SOL    HW138858   1.027   2.940   1.077 -1.5977 -0.1803 -1.1512
 9133SOL    HW238859   1.019   3.039   1.192  0.6161  0.7283 -0.2851
 9134SOL     OW38860   2.932   3.217   8.430 -0.2097 -0.1309  0.4807
 9134SOL    HW138861   2.972   3.218   8.343  3.5933 -0.5317  2.2481
 9134SOL    HW238862   2.995   3.266   8.482 -0.6420  0.5997  0.3195
 9135SOL     OW38863   0.959   1.186   2.413 -0.5087 -0.2457 -0.3000
 9135SOL    HW138864   0.944   1.196   2.507 -0.2881  3.1349 -0.6209
 9135SOL    HW238865   0.888   1.130   2.380  0.3037 -2.0886  1.0646
 9136SOL     OW38866   0.494   3.322  14.237 -0.3756 -0.2854 -0.1838
 9136SOL    HW138867   0.451   3.290  14.158 -0.1660 -3.2473  0.9071
 9136SOL    HW238868   0.576   3.273  14.233  1.7525  3.1647  0.6713
 9137SOL     OW38869   3.484   4.097   7.672  0.9378  0.4170  0.1182
 9137SOL    HW138870   3.551   4.117   7.606  1.9869  1.2610  1.4459
 9137SOL    HW238871   3.412   4.148   7.635  1.5054  1.4690  0.4488
 9138SOL     OW38872   3.566   2.576   6.325  0.6606  0.1183  0.2903
 9138SOL    HW138873   3.583   2.623   6.243 -1.0417 -0.8710 -0.6264
 9138SOL    HW238874   3.474   2.591   6.345  0.4144  0.9110 -1.4411
 9139SOL     OW38875   0.570   2.160  12.302  0.0208 -0.2275  0.6030
 9139SOL    HW138876   0.659   2.153  12.339  0.3537 -3.3031 -0.7776
 9139SOL    HW238877   0.569   2.252  12.276 -0.4255 -0.1333  0.9570
 9140SOL     OW38878   0.688   1.237   3.805 -0.1819 -0.3900 -0.1225
 9140SOL    HW138879   0.640   1.316   3.831  0.4834  0.4123 -1.3446
 9140SOL    HW238880   0.717   1.257   3.716 -0.5600 -2.1063 -0.6252
 9141SOL     OW38881   4.606   3.545   7.186  0.0812  0.2614 -0.2528
 9141SOL    HW138882   4.659   3.520   7.262  1.0428 -2.0376 -1.6708
 9141SOL    HW238883   4.558   3.622   7.215 -0.2463 -0.0707  0.0870
 9142SOL     OW38884   0.436   0.582   3.881 -0.3905  0.2132 -0.7163
 9142SOL    HW138885   0.437   0.620   3.969 -1.0016 -1.8297  0.1696
 9142SOL    HW238886   0.473   0.662   3.843  1.5614  0.2152  1.1901
 9143SOL     OW38887   1.408   0.813   5.865 -0.3121 -0.5050  1.2114
 9143SOL    HW138888   1.434   0.903   5.845 -0.6490 -0.9388 -1.2137
 9143SOL    HW238889   1.346   0.820   5.937 -0.8737 -1.0294  0.7826
 9144SOL     OW38890   1.013   3.245   4.332 -0.4183 -0.3797 -0.3508
 9144SOL    HW138891   0.960   3.313   4.374  1.0739  0.8103 -0.3830
 9144SOL    HW238892   1.077   3.230   4.402  0.9769 -0.2347 -1.5914
 9145SOL     OW38893   3.010   2.660   3.557 -0.0128  0.1613 -0.5993
 9145SOL    HW138894   2.937   2.695   3.607  0.8113 -1.7100  1.9011
 9145SOL    HW238895   3.050   2.596   3.616 -1.6772 -0.2692  0.0502
 9146SOL     OW38896   2.924   3.457   8.120  0.5705  0.5906  0.8984
 9146SOL    HW138897   2.932   3.552   8.111  2.3627  0.2989 -0.4923
 9146SOL    HW238898   2.853   3.459   8.183  0.9451  0.6241  1.3225
 9147SOL     OW38899   4.522   0.996   3.491 -0.1248 -0.3961  0.1985
 9147SOL    HW138900   4.502   1.089   3.502  1.1598 -0.0690 -0.2295
 9147SOL    HW238901   4.579   0.989   3.414 -0.7712 -1.4124 -0.1874
 9148SOL     OW38902   0.442   3.624   4.482  0.2610  0.2425 -0.0886
 9148SOL    HW138903   0.496   3.601   4.406 -2.8196 -3.3802 -1.2369
 9148SOL    HW238904   0.361   3.652   4.439  0.5148  0.1279 -0.6420
 9149SOL     OW38905   1.863   1.639   6.847 -0.8119 -0.0897  0.4301
 9149SOL    HW138906   1.916   1.571   6.888 -0.3585  1.4981  2.4881
 9149SOL    HW238907   1.908   1.720   6.870  0.1197 -0.6598  0.6049
 9150SOL     OW38908   0.610   1.259  13.317  0.0093 -0.0995  0.0116
 9150SOL    HW138909   0.640   1.170  13.334 -0.0698  0.2127  1.8440
 9150SOL    HW238910   0.650   1.281  13.233  0.0845 -0.8550 -0.1472
 9151SOL     OW38911   0.475   3.855   1.517  0.2517  0.6367  0.1965
 9151SOL    HW138912   0.495   3.781   1.574 -2.6750  0.5806  1.1397
 9151SOL    HW238913   0.553   3.909   1.529  0.0296 -0.1985  5.2806
 9152SOL     OW38914   1.567   3.740  14.972 -0.2949 -0.2919 -0.1126
 9152SOL    HW138915   1.520   3.719  15.053  0.6562  1.1366  0.8127
 9152SOL    HW238916   1.656   3.708  14.987  0.0983  0.0577 -1.6667
 9153SOL     OW38917   0.522   2.372   5.407  0.2334 -0.4765 -0.4952
 9153SOL    HW138918   0.547   2.455   5.367 -3.0646  0.7104 -0.0460
 9153SOL    HW238919   0.589   2.345   5.471  0.4932  2.4764  0.4751
 9154SOL     OW38920   3.762   3.890   2.115  0.0180 -0.1286 -0.4103
 9154SOL    HW138921   3.751   3.954   2.045  0.9063 -0.2711 -0.6780
 9154SOL    HW238922   3.782   3.814   2.062  4.0798 -0.6347  1.8742
 9155SOL     OW38923   4.592   0.564  11.239  0.1594 -0.1452 -0.2902
 9155SOL    HW138924   4.560   0.474  11.228 -1.6442  0.0724  2.9188
 9155SOL    HW238925   4.526   0.606  11.295 -0.0867 -2.0323  0.8641
 9156SOL     OW38926   0.220   2.335   7.329 -0.2939 -0.3474 -0.5214
 9156SOL    HW138927   0.145   2.381   7.367 -0.2156  0.1823 -1.0083
 9156SOL    HW238928   0.274   2.330   7.409 -1.4690  0.4940  0.3206
 9157SOL     OW38929   3.411   2.607  10.487  0.2239  0.0644 -0.3820
 9157SOL    HW138930   3.478   2.597  10.419 -0.4947 -0.8216 -0.9560
 9157SOL    HW238931   3.464   2.614  10.567  0.2160 -1.1455 -0.2666
 9158SOL     OW38932   2.652   2.922   4.987  0.4427 -0.1227 -0.1932
 9158SOL    HW138933   2.694   2.936   4.903  0.9172 -0.0648  0.0520
 9158SOL    HW238934   2.712   2.962   5.050 -0.5519  2.0005 -0.5878
 9159SOL     OW38935   1.641   0.557   4.178  0.0190 -0.1028  0.5250
 9159SOL    HW138936   1.615   0.583   4.089  1.4432  1.8148  0.6692
 9159SOL    HW238937   1.645   0.462   4.164 -1.2959 -0.3333  1.6598
 9160SOL     OW38938   1.517   4.340   8.964  0.3737 -0.2580 -0.1931
 9160SOL    HW138939   1.585   4.390   9.009 -1.2683  0.5402  1.4037
 9160SOL    HW238940   1.468   4.316   9.043  1.8896 -0.6578  0.6117
 9161SOL     OW38941   2.511   0.403  13.460  0.2442  0.2194  0.0034
 9161SOL    HW138942   2.458   0.483  13.468 -2.1712 -1.4659  0.9069
 9161SOL    HW238943   2.444   0.335  13.452 -1.9038  2.5344 -1.6942
 9162SOL     OW38944   0.704   3.372   3.806  0.2263  0.4305  0.1669
 9162SOL    HW138945   0.673   3.425   3.733  1.2511 -0.1393 -0.6848
 9162SOL    HW238946   0.751   3.308   3.752 -0.3673  0.6012 -0.5389
 9163SOL     OW38947   1.970   4.320  13.674 -0.2791  0.1925 -0.2501
 9163SOL    HW138948   1.884   4.292  13.704  0.4213 -1.2124  0.4269
 9163SOL    HW238949   1.973   4.405  13.719  2.5511  0.4926 -0.9537
 9164SOL     OW38950   3.078   0.586   7.269 -0.3067 -0.1608 -0.3032
 9164SOL    HW138951   2.984   0.601   7.261 -0.8049 -5.0303 -3.5192
 9164SOL    HW238952   3.115   0.663   7.225  0.4418 -0.8328 -0.8450
 9165SOL     OW38953   4.143   2.976   3.727 -0.1595 -1.6869 -0.2325
 9165SOL    HW138954   4.222   2.949   3.774  0.2059 -0.2460 -0.0199
 9165SOL    HW238955   4.179   3.004   3.643  2.6713 -0.7256  1.2995
 9166SOL     OW38956   1.180   0.313   2.914 -0.5972 -0.8123  0.4946
 9166SOL    HW138957   1.249   0.342   2.854 -1.6864 -0.4141 -0.5768
 9166SOL    HW238958   1.182   0.217   2.920 -1.8414 -0.7384  1.8119
 9167SOL     OW38959   0.061   1.610   9.267  0.1730  0.1438  0.7023
 9167SOL    HW138960   0.148   1.610   9.226 -0.0315 -1.2524  0.2925
 9167SOL    HW238961   0.010   1.645   9.194  1.5292  0.3571 -0.1606
 9168SOL     OW38962   2.577   3.552   4.919  0.4562 -0.0308 -0.0615
 9168SOL    HW138963   2.596   3.464   4.951  1.6264 -1.1480 -3.8038
 9168SOL    HW238964   2.639   3.598   4.976 -0.3027 -0.0794  0.8017
 9169SOL     OW38965   4.107   1.879   4.634 -0.3120  0.6213  0.0814
 9169SOL    HW138966   4.073   1.853   4.719  1.5263 -1.6054  0.1462
 9169SOL    HW238967   4.123   1.971   4.655 -1.0161  0.6910  0.2978
 9170SOL     OW38968   0.265   3.102   9.399  0.3002  0.2277  0.4545
 9170SOL    HW138969   0.196   3.164   9.421 -0.0322 -0.5380  1.5288
 9170SOL    HW238970   0.252   3.032   9.463  0.2539 -0.4808 -0.3149
 9171SOL     OW38971   1.330   3.471   5.748 -0.5609  0.2964  0.6691
 9171SOL    HW138972   1.291   3.524   5.678  0.2999  0.1229  0.0468
 9171SOL    HW238973   1.420   3.478   5.715  0.3579 -1.2293  2.8390
 9172SOL     OW38974   0.008   4.160   5.905  0.5142  0.0857  0.0740
 9172SOL    HW138975   4.678   4.150   5.983 -0.0845 -1.3979 -0.5443
 9172SOL    HW238976   0.079   4.096   5.909  0.8446  0.4104 -0.5176
 9173SOL     OW38977   0.688   2.450   3.231  0.2798 -0.2222  0.1483
 9173SOL    HW138978   0.656   2.361   3.243 -2.3519  1.0047  2.3668
 9173SOL    HW238979   0.782   2.434   3.237  0.3901  1.0517  1.9188
 9174SOL     OW38980   2.317   2.759  12.240 -0.0268 -0.1725  0.0170
 9174SOL    HW138981   2.248   2.796  12.294 -1.7597 -0.3859 -2.0562
 9174SOL    HW238982   2.274   2.752  12.154  0.8535  0.4396 -0.4802
 9175SOL     OW38983   2.811   2.252   2.860  0.1608 -0.1153  0.1514
 9175SOL    HW138984   2.845   2.208   2.783  0.4449 -0.1135  0.2737
 9175SOL    HW238985   2.716   2.248   2.847  0.1023  2.0988 -0.0632
 9176SOL     OW38986   2.139   2.229  11.332  0.1115  0.2853 -0.7570
 9176SOL    HW138987   2.213   2.190  11.379 -1.0301 -0.5148  0.3685
 9176SOL    HW238988   2.132   2.319  11.365 -0.6425  0.6678 -1.9626
 9177SOL     OW38989   2.863   4.088   7.915  0.1800 -0.1205 -0.2575
 9177SOL    HW138990   2.838   4.076   8.007 -2.7012 -0.0712 -1.0278
 9177SOL    HW238991   2.954   4.110   7.933 -0.2604  1.2934  0.2323
 9178SOL     OW38992   2.393   3.484  13.218  0.5550  0.3053 -0.0458
 9178SOL    HW138993   2.375   3.491  13.311 -1.6514  0.2550 -0.4722
 9178SOL    HW238994   2.357   3.397  13.201  0.4600  0.4700 -0.6863
 9179SOL     OW38995   3.073   1.667   2.532 -0.0884  0.2752  0.2589
 9179SOL    HW138996   2.989   1.652   2.489 -0.7430  0.6838  1.4113
 9179SOL    HW238997   3.131   1.656   2.456 -0.9843 -2.4979 -0.0547
 9180SOL     OW38998   0.630   0.210   7.251 -0.0472  0.3964 -0.1209
 9180SOL    HW138999   0.692   0.171   7.313  1.9167 -0.9100 -2.8644
 9180SOL    HW239000   0.558   0.238   7.307 -1.0422  2.0777 -2.2276
 9181SOL     OW39001   2.493   3.279   7.653 -0.2053 -0.1247  1.1148
 9181SOL    HW139002   2.443   3.198   7.640  0.6924 -0.7881  1.7848
 9181SOL    HW239003   2.465   3.345   7.590 -0.4419  1.0047  2.4200
 9182SOL     OW39004   0.903   2.829   6.936 -0.2972 -0.2517  0.4743
 9182SOL    HW139005   0.928   2.921   6.929 -2.5904  0.0846 -3.4839
 9182SOL    HW239006   0.915   2.800   6.846  3.1733  0.7443  0.6083
 9183SOL     OW39007   2.247   3.187   6.692  0.6097  0.1033  0.2906
 9183SOL    HW139008   2.223   3.095   6.683 -0.3835  0.0855  3.1807
 9183SOL    HW239009   2.303   3.195   6.615 -1.3928 -2.5991 -1.4536
 9184SOL     OW39010   2.530   1.786  15.646 -0.4698 -0.1502 -0.0625
 9184SOL    HW139011   2.601   1.778  15.709 -0.6919  0.6354  0.2880
 9184SOL    HW239012   2.534   1.880  15.631 -0.9132 -0.2629 -0.9395
 9185SOL     OW39013   1.853   0.729   6.154  0.4691 -0.2523 -0.6030
 9185SOL    HW139014   1.827   0.708   6.244 -0.6743 -0.6053 -1.0164
 9185SOL    HW239015   1.828   0.821   6.159 -0.9411 -0.5718 -1.7787
 9186SOL     OW39016   4.013   0.109   2.016  0.2176 -0.2370 -0.0092
 9186SOL    HW139017   4.000   0.138   2.106 -0.5876  0.1731 -0.2507
 9186SOL    HW239018   4.032   0.193   1.974  0.7002 -0.3009  0.0812
 9187SOL     OW39019   3.020   2.374  11.605 -0.1538 -0.2136 -0.2885
 9187SOL    HW139020   3.058   2.303  11.552  0.9676 -0.0714  0.3287
 9187SOL    HW239021   2.947   2.404  11.551 -0.2721 -1.4052 -0.7986
 9188SOL     OW39022   2.248   1.678   1.934 -0.2535 -0.2669  0.6077
 9188SOL    HW139023   2.326   1.671   1.989  0.2564  0.9556  0.0437
 9188SOL    HW239024   2.262   1.765   1.897 -0.1039 -1.2697 -1.6886
 9189SOL     OW39025   3.621   0.881  13.040  0.3795 -0.6022  0.1243
 9189SOL    HW139026   3.635   0.971  13.069 -1.1576 -0.6885  1.1098
 9189SOL    HW239027   3.701   0.869  12.989 -1.1606 -0.8794 -2.2360
 9190SOL     OW39028   3.336   3.392   6.254  0.1214  0.0573 -0.2213
 9190SOL    HW139029   3.380   3.330   6.311 -1.8583  0.1920  1.4711
 9190SOL    HW239030   3.284   3.448   6.312 -2.3159 -0.4010 -1.9500
 9191SOL     OW39031   4.107   2.283   3.389 -0.1879 -0.1194 -0.3719
 9191SOL    HW139032   4.167   2.357   3.396 -0.3441  0.1864 -2.1389
 9191SOL    HW239033   4.137   2.231   3.463 -0.2111 -3.3691 -2.6549
 9192SOL     OW39034   2.478   0.900   7.268 -0.3302 -0.8959 -0.2290
 9192SOL    HW139035   2.556   0.956   7.265 -0.2323 -0.9367  1.4860
 9192SOL    HW239036   2.512   0.819   7.305 -1.0654 -1.0769  0.0441
 9193SOL     OW39037   2.515   3.221   2.286  0.2792 -0.0268  0.0198
 9193SOL    HW139038   2.515   3.317   2.294  1.3070 -0.0515  0.2836
 9193SOL    HW239039   2.582   3.201   2.221  1.1795  2.8981  0.0444
 9194SOL     OW39040   0.434   1.770  10.913  0.1729  0.3206 -0.7926
 9194SOL    HW139041   0.341   1.758  10.896  0.0527  0.9062 -0.5446
 9194SOL    HW239042   0.434   1.858  10.950 -1.8058  0.7161 -1.7709
 9195SOL     OW39043   3.490   0.505   3.855 -0.2320  0.3385  0.0336
 9195SOL    HW139044   3.551   0.571   3.890  2.6959 -1.4955 -1.5959
 9195SOL    HW239045   3.508   0.430   3.911 -1.4532 -0.1310 -0.2215
 9196SOL     OW39046   3.407   1.772   5.772 -0.0251  0.1956 -0.2065
 9196SOL    HW139047   3.450   1.830   5.834 -0.2348  0.3082 -0.1655
 9196SOL    HW239048   3.412   1.694   5.827  0.9457  0.7408  0.4622
 9197SOL     OW39049   0.023   3.541   7.434 -0.1922  0.2788  0.0321
 9197SOL    HW139050   0.100   3.596   7.425 -0.7422  1.0678  0.1532
 9197SOL    HW239051   0.059   3.481   7.499 -1.2601  0.5374  0.8569
 9198SOL     OW39052   1.261   1.691   6.941  0.3967 -0.0634  0.0433
 9198SOL    HW139053   1.205   1.735   6.878 -0.3889  0.6145  1.2123
 9198SOL    HW239054   1.335   1.752   6.943 -0.4108  0.8252  3.4182
 9199SOL     OW39055   1.512   2.718   6.833 -0.2978 -0.1487 -0.4426
 9199SOL    HW139056   1.454   2.689   6.763  1.0906  1.4826 -2.2661
 9199SOL    HW239057   1.602   2.690   6.814 -0.2888 -0.7912  0.5551
 9200SOL     OW39058   0.277   1.993   7.403  0.1821  0.0236 -0.3948
 9200SOL    HW139059   0.358   2.030   7.368 -0.4450  0.9970 -0.7910
 9200SOL    HW239060   0.273   2.036   7.488  0.3064  1.4362 -1.1029
 9201SOL     OW39061   1.080   0.492   6.946 -0.3407  0.3895  0.3572
 9201SOL    HW139062   1.024   0.570   6.941  0.4284  0.7936 -2.2891
 9201SOL    HW239063   1.010   0.432   6.921 -1.4260  1.4642  0.8219
 9202SOL     OW39064   1.793   4.432  10.074  0.0373  0.1130 -0.2854
 9202SOL    HW139065   1.841   4.444   9.992 -2.6785  0.1890 -1.8395
 9202SOL    HW239066   1.840   4.487  10.137  2.9167 -0.1091 -2.2595
 9203SOL     OW39067   1.344   0.665  17.692  0.6304  0.8313 -0.3498
 9203SOL    HW139068   1.406   0.737   0.008  1.2131 -0.0864  2.0700
 9203SOL    HW239069   1.383   0.593   0.046  1.1247  1.4319  0.1259
 9204SOL     OW39070   0.977   2.324   4.900  0.2844 -0.5024 -0.3107
 9204SOL    HW139071   0.995   2.337   4.993  0.7907  0.5739 -0.5707
 9204SOL    HW239072   0.894   2.372   4.894  0.0029 -0.8026  1.1601
 9205SOL     OW39073   0.520   3.746   7.400  0.3784 -0.1585  0.9873
 9205SOL    HW139074   0.608   3.711   7.385  0.3175 -0.1801  0.6696
 9205SOL    HW239075   0.534   3.838   7.375 -1.7803 -0.2161 -0.3825
 9206SOL     OW39076   2.978   4.085   1.947 -0.1087 -0.1315  0.1229
 9206SOL    HW139077   2.884   4.070   1.936 -0.6467  2.0280  1.7642
 9206SOL    HW239078   3.012   3.996   1.935  2.2839  0.4366  2.5386
 9207SOL     OW39079   1.448   4.075   2.547  0.4267  0.1984  0.3406
 9207SOL    HW139080   1.405   4.156   2.522  2.1487  1.0218  0.0137
 9207SOL    HW239081   1.393   4.017   2.495 -0.0808  0.6254  0.4087
 9208SOL     OW39082   2.645   2.315   3.984  0.5346  0.1346 -0.3255
 9208SOL    HW139083   2.571   2.262   4.014  0.0217  1.8951  1.5088
 9208SOL    HW239084   2.659   2.368   4.062  1.4558  1.0849 -1.1399
 9209SOL     OW39085   3.800   2.003   3.891  0.3110 -0.3995  0.4888
 9209SOL    HW139086   3.851   1.979   3.813  0.1225 -4.0838  1.5109
 9209SOL    HW239087   3.852   2.070   3.933 -0.3246  0.8964 -0.7846
 9210SOL     OW39088   3.915   3.274   4.664 -0.1204 -0.0771  0.0114
 9210SOL    HW139089   3.958   3.206   4.717 -0.9124 -0.6295 -0.0623
 9210SOL    HW239090   3.995   3.312   4.627  1.1209 -0.7329  1.9753
 9211SOL     OW39091   4.406   4.376  17.610  0.3718  0.6388  0.0572
 9211SOL    HW139092   4.381   4.372   0.005 -0.3956 -2.3760 -0.2749
 9211SOL    HW239093   4.426   4.470  17.613 -0.9378  1.0232 -2.9039
 9212SOL     OW39094   3.507   3.219   5.785 -0.1066  0.3509 -0.4910
 9212SOL    HW139095   3.439   3.242   5.848 -1.2900  1.6508 -2.2298
 9212SOL    HW239096   3.568   3.172   5.842 -1.6065 -1.3784 -0.3111
 9213SOL     OW39097   3.471   3.193   1.988  0.2423  0.1782 -0.7514
 9213SOL    HW139098   3.387   3.177   1.945 -0.5093  0.7042  0.4921
 9213SOL    HW239099   3.436   3.267   2.039  1.9422  0.7220 -0.3734
 9214SOL     OW39100   0.409   2.252   4.413  0.5260 -0.4590  0.2389
 9214SOL    HW139101   0.379   2.211   4.332 -0.4364  2.5379 -0.9397
 9214SOL    HW239102   0.504   2.257   4.401  0.6066 -0.5321  0.8488
 9215SOL     OW39103   3.368   0.015   3.571  0.0719 -0.5159 -0.1872
 9215SOL    HW139104   3.331   0.101   3.551  0.8508  0.0146  0.6338
 9215SOL    HW239105   3.296   4.686   3.537 -1.8090  0.4568  2.2752
 9216SOL     OW39106   1.567   4.398  14.245  0.6648 -0.3159  0.0587
 9216SOL    HW139107   1.635   4.366  14.305  0.1700 -1.1022  0.2062
 9216SOL    HW239108   1.625   4.395  14.169  0.2540  0.2941 -0.2742
 9217SOL     OW39109   1.578   0.303   7.406 -0.1852  0.1218  0.0467
 9217SOL    HW139110   1.648   0.258   7.453 -2.0757  2.0591  4.7064
 9217SOL    HW239111   1.617   0.385   7.375  3.1797 -1.2776  0.6210
 9218SOL     OW39112   0.837   4.407  11.670  0.3454  0.1196 -0.5528
 9218SOL    HW139113   0.816   4.385  11.580 -0.9724 -4.0370  0.7343
 9218SOL    HW239114   0.750   4.431  11.703  1.1751  1.0424  0.9465
 9219SOL     OW39115   2.247   3.219   3.687  0.4852  0.2772 -0.3884
 9219SOL    HW139116   2.268   3.146   3.629 -0.6749  0.5334 -1.1249
 9219SOL    HW239117   2.197   3.274   3.627  0.1015 -0.1519 -0.4654
 9220SOL     OW39118   4.310   3.569  10.036  0.1600  0.1114  0.2944
 9220SOL    HW139119   4.314   3.491  10.091  2.1797  0.5967  0.8413
 9220SOL    HW239120   4.402   3.595  10.039  0.9168 -2.3593 -1.2186
 9221SOL     OW39121   0.506   2.399   3.513  0.4831  0.0370 -0.2661
 9221SOL    HW139122   0.526   2.329   3.450  1.4932 -1.1185  1.3401
 9221SOL    HW239123   0.433   2.447   3.475  1.0388  0.9412 -0.1812
 9222SOL     OW39124   1.367   2.869   3.388 -0.6988  0.1825 -0.0370
 9222SOL    HW139125   1.306   2.836   3.322 -0.5051  2.5788 -1.4113
 9222SOL    HW239126   1.388   2.959   3.363 -0.6239  0.3001  0.4490
 9223SOL     OW39127   4.593   0.114   5.885  0.6073  0.1598  0.3179
 9223SOL    HW139128   4.592   0.020   5.903  0.9645  0.3314  1.2082
 9223SOL    HW239129   4.526   0.148   5.944 -2.3022  1.4249 -3.7375
 9224SOL     OW39130   3.589   0.969  12.195 -0.1797 -0.4392  0.3285
 9224SOL    HW139131   3.508   0.980  12.145  0.8588 -2.2751 -1.7575
 9224SOL    HW239132   3.572   0.895  12.254 -1.0183  0.6595  1.4749
 9225SOL     OW39133   1.580   1.326   7.617 -0.2093  1.0274  0.1320
 9225SOL    HW139134   1.547   1.398   7.563 -2.0922 -0.4249 -0.6458
 9225SOL    HW239135   1.515   1.329   7.686  2.6575  1.0926  2.8207
 9226SOL     OW39136   0.413   3.020   4.916 -0.1276  0.1474  0.0680
 9226SOL    HW139137   0.368   3.100   4.890 -2.2162 -1.1696 -0.3401
 9226SOL    HW239138   0.464   3.040   4.995 -3.3195 -1.4311  2.5654
 9227SOL     OW39139   0.542   2.113   2.509 -0.1160 -1.0807  0.5716
 9227SOL    HW139140   0.627   2.156   2.501 -0.0038 -0.9835  2.3100
 9227SOL    HW239141   0.502   2.110   2.422 -1.8907 -1.1104  1.3868
 9228SOL     OW39142   1.611   2.331   6.644 -0.0280  0.0146  0.3316
 9228SOL    HW139143   1.541   2.306   6.704  1.2588  0.7870  2.1350
 9228SOL    HW239144   1.685   2.321   6.704  0.2858 -1.8961 -0.3712
 9229SOL     OW39145   3.342   1.907   7.770  0.5583 -0.3779  0.2720
 9229SOL    HW139146   3.340   1.915   7.674 -1.4770  0.4838  0.3820
 9229SOL    HW239147   3.387   1.824   7.780 -2.2480 -1.9279 -0.0672
 9230SOL     OW39148   1.619   3.059  16.419 -0.1588 -0.1028  0.4582
 9230SOL    HW139149   1.627   2.984  16.360 -0.3501  0.6390 -0.5281
 9230SOL    HW239150   1.696   3.048  16.474  0.2894  1.5722  0.1757
 9231SOL     OW39151   2.452   2.236   1.386 -0.0778  0.9168 -0.1159
 9231SOL    HW139152   2.529   2.180   1.386 -0.6482  0.1559  2.1926
 9231SOL    HW239153   2.373   2.184   1.372  0.3206  0.2831 -0.0010
 9232SOL     OW39154   0.822   1.608   9.120 -0.2213 -0.0658 -0.0662
 9232SOL    HW139155   0.857   1.521   9.105  0.7324 -0.1150  2.4577
 9232SOL    HW239156   0.831   1.647   9.032  0.4481 -0.2662 -0.0914
 9233SOL     OW39157   1.028   2.965   0.446  0.0479 -0.7073  0.6171
 9233SOL    HW139158   0.985   3.046   0.474  0.0673 -1.3847  2.6265
 9233SOL    HW239159   0.992   2.952   0.358  1.9116 -0.4569 -0.1838
 9234SOL     OW39160   4.692   1.737   9.034 -0.0109  0.2577 -0.7213
 9234SOL    HW139161   4.625   1.716   8.968 -0.8514 -0.2784  0.2882
 9234SOL    HW239162   4.714   1.827   9.011  1.1548 -0.0139 -0.6477
 9235SOL     OW39163   4.508   4.707  15.334  0.0727  0.3901  0.3963
 9235SOL    HW139164   4.569   0.034  15.388  2.2917 -0.3060 -1.4791
 9235SOL    HW239165   4.452   4.676  15.405 -1.9443  0.4246 -1.1806
 9236SOL     OW39166   1.425   3.930  14.811 -0.4254  0.4672 -0.1281
 9236SOL    HW139167   1.505   3.980  14.794 -0.4433  0.1009 -1.2614
 9236SOL    HW239168   1.454   3.865  14.875 -0.0991 -0.4177 -1.1793
 9237SOL     OW39169   2.199   1.036   3.796  0.1036  0.1655 -0.3927
 9237SOL    HW139170   2.219   1.092   3.872 -0.4175 -0.9115  0.5416
 9237SOL    HW239171   2.283   1.010   3.759 -1.1907 -0.2021 -3.0051
 9238SOL     OW39172   3.248   0.084   1.524  0.4751 -0.1851 -0.1682
 9238SOL    HW139173   3.237   4.715   1.504  2.1288  0.3982 -3.7413
 9238SOL    HW239174   3.321   0.096   1.464 -0.0394  1.2977 -0.5027
 9239SOL     OW39175   0.875   2.533   4.593 -0.2170 -0.3408 -0.1308
 9239SOL    HW139176   0.960   2.561   4.627  0.1422  0.3755 -1.6190
 9239SOL    HW239177   0.810   2.580   4.645 -0.2113  0.8568 -1.1980
 9240SOL     OW39178   2.573   0.668   6.606  0.1194 -0.2366  0.0793
 9240SOL    HW139179   2.497   0.710   6.565  0.1494  0.3550  0.6253
 9240SOL    HW239180   2.626   0.653   6.528 -1.6018 -1.0933 -0.9031
 9241SOL     OW39181   4.362   4.033  14.590 -0.4463 -0.6755  0.5560
 9241SOL    HW139182   4.330   3.982  14.516  0.6828 -0.1027 -0.3242
 9241SOL    HW239183   4.456   4.015  14.591  0.0140  1.6188 -2.8011
 9242SOL     OW39184   1.379   4.034   3.795 -0.1658  0.3901 -0.9560
 9242SOL    HW139185   1.411   4.118   3.828 -0.0913 -0.6156  1.4818
 9242SOL    HW239186   1.355   3.997   3.879  0.9118 -2.0860 -1.7538
 9243SOL     OW39187   3.759   2.708   2.685 -0.3701  0.7009 -1.1384
 9243SOL    HW139188   3.787   2.625   2.646 -0.4501  0.3206 -0.3817
 9243SOL    HW239189   3.827   2.763   2.645  1.1026 -0.5908 -0.4344
 9244SOL     OW39190   1.486   2.318   3.982  0.1333  0.7643 -0.0709
 9244SOL    HW139191   1.531   2.323   4.066 -0.8228 -0.6485  0.5168
 9244SOL    HW239192   1.558   2.283   3.930 -0.1034  1.0845 -0.6084
 9245SOL     OW39193   1.840   3.359  12.138 -0.3621 -0.4055 -0.3732
 9245SOL    HW139194   1.892   3.418  12.084 -0.1784 -0.4775 -0.2754
 9245SOL    HW239195   1.873   3.395  12.221 -0.9984 -0.6699 -0.0035
 9246SOL     OW39196   0.217   3.590  15.534 -0.4205  0.1452  0.2104
 9246SOL    HW139197   0.151   3.655  15.509  0.1009  0.0086 -1.4653
 9246SOL    HW239198   0.292   3.614  15.480  1.2864 -1.8495  1.6993
 9247SOL     OW39199   1.671   3.604  12.141 -0.5423  0.4475  0.1572
 9247SOL    HW139200   1.656   3.537  12.207 -1.3527 -0.7645 -1.2634
 9247SOL    HW239201   1.725   3.665  12.191  2.0239 -0.1492 -1.9297
 9248SOL     OW39202   4.133   1.117  11.056  0.2732  0.3452 -0.2714
 9248SOL    HW139203   4.054   1.161  11.088  0.4405  0.1696  0.3797
 9248SOL    HW239204   4.137   1.148  10.965  4.5124  1.2810  0.2622
 9249SOL     OW39205   2.018   2.713   9.574  0.1953 -0.5525  0.3221
 9249SOL    HW139206   2.109   2.706   9.603  0.5730  0.6306 -0.5642
 9249SOL    HW239207   1.956   2.722   9.647  0.3109 -2.9923  0.6944
 9250SOL     OW39208   4.665   0.618   5.207 -0.2174 -0.4750 -0.0134
 9250SOL    HW139209   4.582   0.664   5.219  1.1776  1.3745  2.6115
 9250SOL    HW239210   4.715   0.683   5.256 -0.4256 -0.6027  0.3628
 9251SOL     OW39211   0.096   1.689  10.627 -0.1689 -0.4348 -0.2401
 9251SOL    HW139212   0.129   1.723  10.710  0.6515  0.1361 -0.8064
 9251SOL    HW239213   0.169   1.717  10.572  0.3238 -0.6306  0.3134
 9252SOL     OW39214   3.766   1.991   9.184  0.0513 -0.4005  0.6462
 9252SOL    HW139215   3.818   1.949   9.252  1.7705  0.6727  0.0127
 9252SOL    HW239216   3.700   2.049   9.223  0.9857  0.3530  1.1272
 9253SOL     OW39217   0.923   3.618   3.586 -0.0962 -0.3158 -0.0619
 9253SOL    HW139218   0.945   3.528   3.561 -1.9788 -0.4563 -1.2337
 9253SOL    HW239219   0.837   3.606   3.627  0.0176 -0.9559 -0.0213
 9254SOL     OW39220   3.113   2.464   0.813 -0.2871 -0.8442  0.4012
 9254SOL    HW139221   3.197   2.488   0.773 -0.7907 -0.0266 -0.1571
 9254SOL    HW239222   3.132   2.375   0.845 -0.5588 -1.0305  0.0372
 9255SOL     OW39223   0.871   3.988   0.831  0.2228 -0.2210  0.1080
 9255SOL    HW139224   0.804   4.031   0.884  1.0855  0.8122  0.3711
 9255SOL    HW239225   0.822   3.969   0.751  1.9091 -1.0688 -0.7176
 9256SOL     OW39226   4.172   3.940  17.387  0.4197  0.3677  0.4843
 9256SOL    HW139227   4.225   4.001  17.335 -2.3062  1.2267 -1.3211
 9256SOL    HW239228   4.090   3.959  17.340 -0.2130  0.2584  1.5452
 9257SOL     OW39229   1.034   2.274   6.555 -0.0522 -0.0766 -0.2818
 9257SOL    HW139230   1.048   2.297   6.463  0.7162  0.3283 -0.0663
 9257SOL    HW239231   1.016   2.360   6.595  0.8862 -0.4842  1.0341
 9258SOL     OW39232   0.924   1.872   6.997  0.3658 -0.2192  0.2904
 9258SOL    HW139233   0.861   1.802   6.979 -0.6843  0.5283  1.0395
 9258SOL    HW239234   0.990   1.858   6.929 -0.2672 -1.3024 -0.1092
 9259SOL     OW39235   1.250   3.973  16.241  0.1283  0.3534 -0.5465
 9259SOL    HW139236   1.319   3.980  16.175  1.2798  1.0377  0.7457
 9259SOL    HW239237   1.275   3.890  16.280  1.6045 -0.0922 -2.4341
 9260SOL     OW39238   1.413   2.022   0.056 -0.4612 -0.4617  0.1438
 9260SOL    HW139239   1.486   1.993   0.000  0.0927  0.7365  0.2531
 9260SOL    HW239240   1.335   2.006   0.003  0.6666  3.4865 -2.6724
 9261SOL     OW39241   1.972   2.219   2.533  0.5142  0.2527  0.1231
 9261SOL    HW139242   1.931   2.302   2.557  1.8484  1.4050 -1.6461
 9261SOL    HW239243   1.945   2.217   2.441 -0.0133 -0.4236  0.2932
 9262SOL     OW39244   2.041   1.869   6.564 -0.5226  0.0592  0.2263
 9262SOL    HW139245   2.010   1.960   6.567  3.3724  1.3047  2.3459
 9262SOL    HW239246   2.090   1.872   6.482 -1.7208  0.3640 -0.4727
 9263SOL     OW39247   1.109   4.321   6.961 -0.6462 -0.1751  0.4380
 9263SOL    HW139248   1.037   4.309   6.899 -0.3704  1.4212 -0.1723
 9263SOL    HW239249   1.185   4.301   6.907  1.1915  3.3126  1.7577
 9264SOL     OW39250   4.541   2.135   6.541 -0.2821 -0.3951 -0.0821
 9264SOL    HW139251   4.462   2.089   6.515 -0.5540 -0.6887  1.2450
 9264SOL    HW239252   4.592   2.123   6.461 -2.7398 -1.1262 -1.5435
 9265SOL     OW39253   0.206   0.751   0.656 -0.5967 -0.1206 -0.2467
 9265SOL    HW139254   0.186   0.663   0.622  2.2636 -1.1400  0.6982
 9265SOL    HW239255   0.301   0.753   0.643 -0.8193 -0.0707 -1.8990
 9266SOL     OW39256   1.615   2.619   4.786  0.5419 -0.2967  0.7028
 9266SOL    HW139257   1.590   2.711   4.790  0.0838 -0.4153  0.6431
 9266SOL    HW239258   1.683   2.629   4.720  1.4456  0.8597  1.8163
 9267SOL     OW39259   2.287   1.686   1.648 -0.0962 -0.2235 -0.1444
 9267SOL    HW139260   2.344   1.669   1.573 -0.5199  0.2198 -0.5673
 9267SOL    HW239261   2.294   1.611   1.707 -1.0246  0.3779  0.7169
 9268SOL     OW39262   2.021   2.505   8.724  0.1373 -0.5789  0.1018
 9268SOL    HW139263   2.026   2.434   8.789 -2.4125  0.8769  1.8999
 9268SOL    HW239264   2.048   2.461   8.644  1.1766  3.0353 -1.5284
 9269SOL     OW39265   2.719   3.186   5.525  0.2057 -0.4415  0.5935
 9269SOL    HW139266   2.740   3.237   5.446  0.0741 -1.3819 -0.0499
 9269SOL    HW239267   2.779   3.225   5.588  0.3318  0.1623  0.0939
 9270SOL     OW39268   4.124   4.210  13.816  0.0805  0.3706 -0.0030
 9270SOL    HW139269   4.166   4.133  13.780 -0.6163 -0.8018  1.6747
 9270SOL    HW239270   4.184   4.226  13.889  3.3961 -0.1893 -2.6361
 9271SOL     OW39271   3.383   1.219   9.003  0.0039  0.6441 -0.3338
 9271SOL    HW139272   3.371   1.193   8.912 -4.5622  1.1165  0.1252
 9271SOL    HW239273   3.297   1.252   9.030  0.2007 -0.9700  2.3324
 9272SOL     OW39274   4.430   1.039   4.309 -0.3285 -0.6272  0.1802
 9272SOL    HW139275   4.464   1.002   4.390  0.2284  0.8347  0.5999
 9272SOL    HW239276   4.432   1.134   4.314  0.0922 -0.5515 -1.2794
 9273SOL     OW39277   2.196   1.009   2.847 -0.3990 -0.4869 -0.2981
 9273SOL    HW139278   2.191   0.919   2.814  1.1660 -0.5000 -0.4798
 9273SOL    HW239279   2.237   0.991   2.932 -1.9285 -2.9023 -0.0478
 9274SOL     OW39280   3.414   1.787   1.528  0.1537  0.3801  0.1922
 9274SOL    HW139281   3.488   1.743   1.568  0.7359 -0.8897 -2.3253
 9274SOL    HW239282   3.384   1.828   1.609 -2.5855  0.0232 -0.6218
 9275SOL     OW39283   3.275   0.268   9.254  0.1467  0.0094 -0.1150
 9275SOL    HW139284   3.197   0.284   9.200  0.2185  0.6052 -0.0446
 9275SOL    HW239285   3.313   0.197   9.202 -1.2219 -0.2915 -0.7127
 9276SOL     OW39286   2.454   3.698   5.240  0.1846  0.3065 -0.1008
 9276SOL    HW139287   2.485   3.773   5.292 -1.2557  0.3853  0.6524
 9276SOL    HW239288   2.502   3.625   5.281  0.9910  1.6489  1.3487
 9277SOL     OW39289   1.331   2.773  10.079  0.1779 -0.3272  0.0874
 9277SOL    HW139290   1.266   2.758  10.011 -1.6300 -1.3947  2.0373
 9277SOL    HW239291   1.311   2.692  10.126  0.8707 -0.1671  0.6626
 9278SOL     OW39292   1.255   1.796  13.419 -0.0363  0.5055  0.1665
 9278SOL    HW139293   1.327   1.743  13.385 -0.3968  0.9930 -1.3580
 9278SOL    HW239294   1.179   1.749  13.386  0.2942 -0.3742  0.6578
 9279SOL     OW39295   3.665   1.475   5.760  0.2750  0.2259 -0.0085
 9279SOL    HW139296   3.760   1.468   5.769  0.1988  0.1719  0.7214
 9279SOL    HW239297   3.643   1.522   5.840 -0.7916  0.3442 -0.3673
 9280SOL     OW39298   3.781   4.259   3.223 -0.4297 -0.3298  0.2646
 9280SOL    HW139299   3.750   4.169   3.215  1.0641 -0.8126 -0.0247
 9280SOL    HW239300   3.705   4.303   3.185  1.3250  2.7172  0.3067
 9281SOL     OW39301   1.556   4.381   5.467 -0.1529  0.5105  0.0451
 9281SOL    HW139302   1.509   4.315   5.417  1.7649 -1.4589  0.8386
 9281SOL    HW239303   1.641   4.338   5.466 -0.4778 -0.1250 -0.1053
 9282SOL     OW39304   2.202   3.917   1.162  0.3143 -1.0588 -0.3004
 9282SOL    HW139305   2.223   3.952   1.248 -1.8435  0.4222 -0.3841
 9282SOL    HW239306   2.118   3.872   1.173 -0.2468  0.2635  0.7268
 9283SOL     OW39307   2.376   1.337   2.801 -0.2811 -0.1174 -0.2601
 9283SOL    HW139308   2.337   1.370   2.720  1.2298 -0.6394 -1.2214
 9283SOL    HW239309   2.307   1.360   2.863 -0.9606 -0.9800 -0.6923
 9284SOL     OW39310   0.007   3.925   2.831  0.5148  0.4382  0.5110
 9284SOL    HW139311   4.708   3.832   2.835  2.2007  0.0938  1.9210
 9284SOL    HW239312   4.701   3.949   2.743 -3.2190  1.5086  2.0552
 9285SOL     OW39313   0.892   3.417   6.928  0.6350  0.6532  0.3670
 9285SOL    HW139314   0.820   3.411   6.865 -1.2758  0.2354  2.5956
 9285SOL    HW239315   0.959   3.471   6.886 -3.0814  3.2045 -2.2210
 9286SOL     OW39316   1.561   1.009  12.234  0.3616 -0.0103  0.1553
 9286SOL    HW139317   1.614   0.995  12.313  0.6186  1.0602  0.1748
 9286SOL    HW239318   1.545   0.917  12.213 -0.0849  0.7458 -2.8216
 9287SOL     OW39319   4.618   1.877   2.706  0.1494 -0.7435  0.0707
 9287SOL    HW139320   4.524   1.868   2.719 -0.1215  1.4466 -0.4628
 9287SOL    HW239321   4.634   1.971   2.714 -1.3782 -0.5554  0.9966
 9288SOL     OW39322   0.076   4.227   5.122 -0.6625 -0.0901  0.3528
 9288SOL    HW139323   0.058   4.163   5.191  0.5094 -2.0370 -1.1667
 9288SOL    HW239324   4.712   4.264   5.111 -0.5042  0.7126  1.7871
 9289SOL     OW39325   0.556   2.182   8.487 -0.0519 -0.6065 -0.8670
 9289SOL    HW139326   0.463   2.170   8.470 -0.1938 -2.5115  1.3231
 9289SOL    HW239327   0.566   2.114   8.553 -1.4814 -1.7245 -1.8175
 9290SOL     OW39328   3.559   0.856  10.241 -0.5787  0.3002 -0.3633
 9290SOL    HW139329   3.596   0.940  10.266 -2.4448  1.0337 -0.0715
 9290SOL    HW239330   3.482   0.870  10.296 -0.3685 -1.7818  0.4680
 9291SOL     OW39331   4.099   4.427   3.397  0.1906  0.3383 -0.6451
 9291SOL    HW139332   4.169   4.383   3.444 -0.0087  0.0921 -0.5793
 9291SOL    HW239333   4.138   4.514   3.405  3.2460 -1.1719  0.6921
 9292SOL     OW39334   0.882   3.460   1.742 -0.2942 -0.0368 -0.5764
 9292SOL    HW139335   0.850   3.431   1.657 -1.9901  0.1991 -0.0079
 9292SOL    HW239336   0.849   3.387   1.794 -1.7282  1.6852  0.8966
 9293SOL     OW39337   2.469   4.106  11.349 -0.3988 -0.5783  0.1548
 9293SOL    HW139338   2.469   4.083  11.441 -0.3586  1.7117  0.7244
 9293SOL    HW239339   2.494   4.199  11.353 -0.3610 -0.4508 -2.4627
 9294SOL     OW39340   1.283   1.978  17.476  0.3615 -0.0645  0.5622
 9294SOL    HW139341   1.236   2.061  17.485 -0.1402 -0.1651 -1.1220
 9294SOL    HW239342   1.219   1.916  17.441 -0.9684  2.1058 -0.8425
 9295SOL     OW39343   0.984   4.708   5.873  0.2171  0.6684  0.4177
 9295SOL    HW139344   1.003   0.004   5.965  0.0656  0.4076  0.5043
 9295SOL    HW239345   0.922   0.050   5.841 -0.0519  0.7137  1.0416
 9296SOL     OW39346   1.650   2.052  11.614 -0.1981 -0.4409  0.0624
 9296SOL    HW139347   1.735   2.089  11.589  0.1152 -2.0756 -1.3515
 9296SOL    HW239348   1.639   2.068  11.708  0.5835  0.4515  0.0007
 9297SOL     OW39349   0.263   2.004   6.467 -0.8581 -0.0150 -0.3192
 9297SOL    HW139350   0.251   1.923   6.517 -0.3959  0.1857  0.1171
 9297SOL    HW239351   0.354   1.996   6.439 -1.2049 -2.5324 -0.7655
 9298SOL     OW39352   4.495   4.153   0.306  0.1228  0.7932  0.3054
 9298SOL    HW139353   4.491   4.090   0.234 -0.6463  3.4576 -1.9987
 9298SOL    HW239354   4.586   4.178   0.291  0.3768  0.4234  1.2483
 9299SOL     OW39355   2.318   3.005   8.744 -0.4380 -0.1889  0.3578
 9299SOL    HW139356   2.317   3.097   8.715  1.9120  0.4076  2.0795
 9299SOL    HW239357   2.312   3.010   8.840  1.6269 -2.2151  0.5841
 9300SOL     OW39358   3.923   0.335   9.518  0.8507  0.2666  0.4981
 9300SOL    HW139359   3.860   0.364   9.583 -0.2127 -2.8505  0.8774
 9300SOL    HW239360   3.933   0.241   9.533 -1.7261  0.0659  0.8414
 9301SOL     OW39361   1.903   1.005   2.471 -0.2650  0.2493 -0.2984
 9301SOL    HW139362   1.944   0.919   2.458  0.4505  0.3528  1.3365
 9301SOL    HW239363   1.810   0.984   2.477 -0.6719  2.0448 -0.3248
 9302SOL     OW39364   1.368   3.765  11.713 -0.4581  0.5284 -0.3948
 9302SOL    HW139365   1.281   3.730  11.732 -0.0410 -1.0793 -1.3928
 9302SOL    HW239366   1.406   3.691  11.665  1.6940  1.2121  0.2648
 9303SOL     OW39367   1.470   2.152   6.130  0.2532  0.2686 -0.4316
 9303SOL    HW139368   1.449   2.144   6.223  0.7395  2.6289 -0.1158
 9303SOL    HW239369   1.386   2.173   6.089 -1.4193 -2.0485  1.7770
 9304SOL     OW39370   1.710   1.780  17.246  0.8031 -0.1052  0.5136
 9304SOL    HW139371   1.763   1.789  17.325  0.1519 -1.9447  1.1539
 9304SOL    HW239372   1.629   1.743  17.280 -0.4455 -1.0969 -3.5038
 9305SOL     OW39373   3.988   3.227   0.887  0.2014 -0.2093  0.3403
 9305SOL    HW139374   3.930   3.266   0.822  0.2858 -0.9038 -0.1557
 9305SOL    HW239375   4.053   3.183   0.832  0.2739  2.5375 -1.7634
 9306SOL     OW39376   2.947   4.156   8.409 -0.2955 -0.0332  0.2297
 9306SOL    HW139377   3.028   4.194   8.443 -0.4409 -0.8452  1.4947
 9306SOL    HW239378   2.902   4.134   8.491 -0.2755  1.1962  0.5775
 9307SOL     OW39379   0.080   2.284   5.795 -0.0914  0.0874 -0.4789
 9307SOL    HW139380   0.113   2.287   5.705  0.0928 -1.4576 -0.4686
 9307SOL    HW239381   0.004   2.340   5.782 -2.2060 -2.0213  2.9799
 9308SOL     OW39382   4.490   3.734   3.203 -0.6686 -0.2210 -0.6131
 9308SOL    HW139383   4.527   3.797   3.141 -1.6997  0.8688 -0.1155
 9308SOL    HW239384   4.400   3.732   3.171 -0.0029  0.9115 -2.5809
 9309SOL     OW39385   2.088   0.188   5.389 -0.3907 -0.4899  0.2047
 9309SOL    HW139386   2.016   0.189   5.326 -0.4719 -0.9393  0.2897
 9309SOL    HW239387   2.079   0.278   5.420  1.6869  0.1374 -1.0413
 9310SOL     OW39388   2.117   4.455   7.021  0.6962 -0.1371  0.6592
 9310SOL    HW139389   2.132   4.462   6.926  1.0745 -1.6699  0.6133
 9310SOL    HW239390   2.205   4.455   7.058  0.5045 -4.5087  1.0739
 9311SOL     OW39391   1.002   3.119   0.847 -0.2937 -0.3351 -0.0749
 9311SOL    HW139392   0.992   3.069   0.928 -1.0098 -0.9354 -0.5341
 9311SOL    HW239393   1.071   3.070   0.801 -1.1237 -0.5092 -1.1467
 9312SOL     OW39394   0.026   0.145   1.175 -0.3847 -0.6035  0.3478
 9312SOL    HW139395   4.690   0.090   1.226 -0.6788 -1.5253 -1.0015
 9312SOL    HW239396   4.685   0.208   1.145  0.6333 -0.3234 -1.2644
 9313SOL     OW39397   2.574   4.141   5.850 -0.3691  0.8069 -0.6901
 9313SOL    HW139398   2.521   4.124   5.772 -3.5564 -0.2369  1.7536
 9313SOL    HW239399   2.563   4.057   5.893 -2.1164  0.9738 -0.8329
 9314SOL     OW39400   3.789   0.784   2.339  0.2202  0.1352 -0.1600
 9314SOL    HW139401   3.822   0.866   2.303 -0.5232  1.2684  1.7148
 9314SOL    HW239402   3.712   0.777   2.283  0.4177 -0.4863 -0.3592
 9315SOL     OW39403   2.928   3.615  16.619  0.0486 -0.1288  0.6990
 9315SOL    HW139404   2.970   3.552  16.560  1.7854  2.4136 -0.8340
 9315SOL    HW239405   3.002   3.607  16.680  1.6126  0.7520 -1.0753
 9316SOL     OW39406   1.540   0.397   6.007  0.4673 -0.5282 -0.4638
 9316SOL    HW139407   1.622   0.369   5.965 -1.2062 -0.3001 -3.8574
 9316SOL    HW239408   1.544   0.493   6.004  0.5841 -0.5938 -2.5597
 9317SOL     OW39409   4.552   4.204   6.132 -0.2731 -0.5461 -0.2418
 9317SOL    HW139410   4.560   4.298   6.147 -3.9968 -0.2613 -0.1291
 9317SOL    HW239411   4.458   4.195   6.148 -0.1893 -1.4049 -0.2290
 9318SOL     OW39412   0.627   3.700   3.840 -0.6825 -0.1513 -0.1404
 9318SOL    HW139413   0.657   3.634   3.903  0.3847  2.1239  1.7402
 9318SOL    HW239414   0.543   3.661   3.817  1.3056 -2.8572 -2.7709
 9319SOL     OW39415   3.533   3.029   5.533  0.2419 -0.7548 -0.2300
 9319SOL    HW139416   3.503   3.087   5.602 -0.7674 -0.5313 -0.8587
 9319SOL    HW239417   3.526   2.945   5.579  0.3501 -0.6616 -0.0436
 9320SOL     OW39418   2.690   2.729   7.255 -0.3135  0.2692  0.5438
 9320SOL    HW139419   2.767   2.691   7.297  1.7528  1.8577 -1.7886
 9320SOL    HW239420   2.723   2.800   7.200  0.2528 -0.0059  0.5412
 9321SOL     OW39421   3.779   1.829   5.746 -0.2511  0.0908 -0.3923
 9321SOL    HW139422   3.756   1.917   5.773 -0.0516  0.0767 -0.1754
 9321SOL    HW239423   3.860   1.811   5.794 -1.5801  0.9337  2.1729
 9322SOL     OW39424   0.932   3.086   1.809 -0.0362 -0.3367 -0.4499
 9322SOL    HW139425   0.983   3.062   1.886 -0.1712 -3.6661 -1.4086
 9322SOL    HW239426   0.987   3.056   1.737  1.0541 -1.0254  0.6803
 9323SOL     OW39427   0.735   4.067   4.121 -0.2368 -0.7274  0.2570
 9323SOL    HW139428   0.763   4.103   4.037  1.2858 -3.3421 -0.3660
 9323SOL    HW239429   0.733   4.148   4.171  2.4124 -0.6213  0.1930
 9324SOL     OW39430   1.686   3.820   0.706 -0.4453 -0.1546 -0.1517
 9324SOL    HW139431   1.741   3.771   0.645 -1.4722 -1.0456 -0.3685
 9324SOL    HW239432   1.695   3.911   0.679 -1.4424  0.9844  3.3376
 9325SOL     OW39433   4.467   3.890   2.167 -0.2270 -0.2525  0.1570
 9325SOL    HW139434   4.558   3.876   2.194  0.1682  0.6727 -0.6543
 9325SOL    HW239435   4.452   3.815   2.109 -0.1771  0.5945 -0.9476
 9326SOL     OW39436   3.055   2.588   8.779  0.0714 -0.2408 -0.2007
 9326SOL    HW139437   3.055   2.684   8.783 -1.1320 -0.1404 -2.8281
 9326SOL    HW239438   3.072   2.572   8.686 -0.2958  0.3807 -0.3761
 9327SOL     OW39439   3.970   3.179   7.894 -0.3553  0.3716  0.1084
 9327SOL    HW139440   3.990   3.088   7.917  1.0229  1.1524  2.0894
 9327SOL    HW239441   4.053   3.222   7.917  1.0244 -1.4180 -1.5005
 9328SOL     OW39442   3.957   0.061   2.461 -0.1456  0.5868 -0.2971
 9328SOL    HW139443   3.893   4.713   2.459 -0.2965  0.7006  0.2922
 9328SOL    HW239444   4.025   0.016   2.411  0.1293 -0.7281  1.2315
 9329SOL     OW39445   4.408   2.619   3.237 -0.6207 -0.1710 -0.1788
 9329SOL    HW139446   4.490   2.663   3.259  1.9374 -3.6224 -2.8296
 9329SOL    HW239447   4.348   2.694   3.235 -0.3843  0.0562  1.2683
 9330SOL     OW39448   2.204   1.741  17.216  0.2231  0.0963 -0.0791
 9330SOL    HW139449   2.134   1.726  17.278 -0.2272  1.4488 -0.2648
 9330SOL    HW239450   2.200   1.836  17.207 -1.2770  0.1447  1.2725
 9331SOL     OW39451   0.055   2.236   2.135 -0.1710  0.1458  0.2257
 9331SOL    HW139452   4.692   2.234   2.176 -0.1963  0.7181  0.2075
 9331SOL    HW239453   0.036   2.250   2.042  0.6286 -0.6993 -0.0615
 9332SOL     OW39454   0.464   2.320   5.823  0.0176  0.0036 -0.0733
 9332SOL    HW139455   0.435   2.254   5.886  0.5018  0.5665  0.7434
 9332SOL    HW239456   0.396   2.317   5.755  0.7867 -2.7307 -0.7017
 9333SOL     OW39457   2.553   2.200   7.315  0.2091  0.5438  0.1550
 9333SOL    HW139458   2.577   2.291   7.330 -0.1594  0.7231 -0.3286
 9333SOL    HW239459   2.611   2.190   7.239 -1.2952 -0.6242 -0.8641
 9334SOL     OW39460   2.293   0.123   3.603 -0.1460 -0.1188  0.0044
 9334SOL    HW139461   2.367   0.110   3.543  0.5114  0.2809  0.7317
 9334SOL    HW239462   2.219   0.114   3.542  0.9848 -0.9670 -1.2391
 9335SOL     OW39463   0.592   3.208  12.967 -0.5503  0.7799 -0.1962
 9335SOL    HW139464   0.663   3.231  12.907 -0.1152  0.1505  0.0771
 9335SOL    HW239465   0.632   3.142  13.023 -1.4380  0.2369 -0.2118
 9336SOL     OW39466   3.683   2.448   3.051 -0.3402 -0.3390  0.2744
 9336SOL    HW139467   3.769   2.461   3.010 -0.0598 -2.7318  0.0673
 9336SOL    HW239468   3.627   2.498   2.992  0.2454  2.2365  1.9214
 9337SOL     OW39469   1.451   3.801   4.205 -0.5718 -0.3291 -0.0103
 9337SOL    HW139470   1.405   3.787   4.122 -0.9616  0.1819  0.1168
 9337SOL    HW239471   1.387   3.851   4.255 -0.0117 -0.3803  0.7461
 9338SOL     OW39472   0.702   2.834   6.120  0.2718  0.2430 -0.1215
 9338SOL    HW139473   0.664   2.895   6.057 -0.0228  0.2856  0.0995
 9338SOL    HW239474   0.797   2.842   6.115  0.1975  0.5545 -1.0375
 9339SOL     OW39475   4.320   2.996   4.919 -0.9030  0.1649  0.3015
 9339SOL    HW139476   4.285   2.958   4.839 -0.9628 -1.0109  0.8822
 9339SOL    HW239477   4.404   3.018   4.878  0.3197 -0.1958  2.6119
 9340SOL     OW39478   3.082   3.119   4.255 -0.3835  0.2735 -0.1692
 9340SOL    HW139479   3.042   3.040   4.291 -0.0887 -0.0841 -0.6341
 9340SOL    HW239480   3.014   3.184   4.273 -0.4794 -0.1459  1.0201
 9341SOL     OW39481   0.179   0.360   7.443 -0.3213  0.3123  0.0890
 9341SOL    HW139482   0.104   0.354   7.384  0.1655  0.9766 -0.6090
 9341SOL    HW239483   0.166   0.451   7.470  0.0903  0.6330 -0.7829
 9342SOL     OW39484   4.377   4.060  17.677 -0.0258  0.3800 -0.2150
 9342SOL    HW139485   4.470   4.037  17.684 -0.0153  0.0568 -1.3764
 9342SOL    HW239486   4.377   4.132  17.614 -0.3482 -1.2281 -2.0541
 9343SOL     OW39487   0.269   1.358   6.462 -0.0587 -0.5647 -0.2371
 9343SOL    HW139488   0.282   1.394   6.550 -2.9480 -0.1925  0.0311
 9343SOL    HW239489   0.320   1.423   6.413  1.0821 -1.3329 -0.0698
 9344SOL     OW39490   0.159   3.728  14.163  0.3990 -0.0364 -0.2189
 9344SOL    HW139491   0.120   3.811  14.133  0.0974  0.3138  1.1623
 9344SOL    HW239492   0.071   3.694  14.179  1.0407 -0.6163  2.0439
 9345SOL     OW39493   3.097   3.392   8.567 -0.2253 -0.3697  0.3036
 9345SOL    HW139494   3.087   3.488   8.568 -1.8967 -0.5865  2.8271
 9345SOL    HW239495   3.046   3.374   8.646  0.3113  1.1339  1.0038
 9346SOL     OW39496   3.573   3.144   2.711 -0.0526  0.0394 -0.4202
 9346SOL    HW139497   3.601   3.073   2.767  1.6037  0.4592 -0.7066
 9346SOL    HW239498   3.481   3.125   2.695 -0.0412 -1.0364  0.8531
 9347SOL     OW39499   3.150   0.944  12.750  0.4767 -0.0845  0.1308
 9347SOL    HW139500   3.208   0.998  12.804  1.2600  0.8190 -1.6324
 9347SOL    HW239501   3.196   0.860  12.744  1.7712  0.4408  2.7451
 9348SOL     OW39502   2.095   1.886   2.117 -0.3209 -0.3178 -0.6381
 9348SOL    HW139503   2.184   1.912   2.142  0.0980 -0.4248 -2.0362
 9348SOL    HW239504   2.090   1.921   2.028 -2.1311 -0.8606 -0.7316
 9349SOL     OW39505   3.420   2.788   7.804 -0.1078  0.2823  0.0134
 9349SOL    HW139506   3.467   2.866   7.775 -2.1916  0.6710 -2.3015
 9349SOL    HW239507   3.346   2.793   7.743  0.4905 -1.1734 -0.8101
 9350SOL     OW39508   4.058   1.904  10.813 -0.0034 -0.0430 -0.4196
 9350SOL    HW139509   4.042   1.906  10.907  0.4549 -0.3904 -0.3316
 9350SOL    HW239510   4.056   2.000  10.809  0.6293 -0.1052 -2.2269
 9351SOL     OW39511   4.684   3.794   9.865 -0.1863 -0.1525 -0.4250
 9351SOL    HW139512   0.017   3.869   9.846 -0.2491 -0.3511 -1.3843
 9351SOL    HW239513   4.628   3.784   9.788 -0.9564  0.3866  0.0560
 9352SOL     OW39514   1.126   0.974   5.007 -0.8278  0.3461  0.5674
 9352SOL    HW139515   1.044   0.993   5.053 -0.1669  1.9669  1.0437
 9352SOL    HW239516   1.188   1.012   5.068 -0.5344  0.5217  0.1543
 9353SOL     OW39517   3.252   3.041   1.030  0.2042  0.3995 -0.1542
 9353SOL    HW139518   3.160   3.032   1.005  0.4561 -1.5793 -0.3506
 9353SOL    HW239519   3.269   2.953   1.064 -0.9040 -0.1735 -1.0728
 9354SOL     OW39520   2.517   0.546   5.318  0.5295 -0.5708 -0.5525
 9354SOL    HW139521   2.435   0.579   5.281 -0.6212 -0.5779  1.9494
 9354SOL    HW239522   2.573   0.621   5.299 -0.3201  0.0822 -0.4943
 9355SOL     OW39523   1.220   3.092   2.195  0.6985  0.6823  0.6311
 9355SOL    HW139524   1.152   3.071   2.130  2.0991  0.8722 -0.8898
 9355SOL    HW239525   1.278   3.022   2.164 -0.9867 -0.0241 -0.9076
 9356SOL     OW39526   0.251   3.254   4.916 -0.2603 -0.0298 -0.0164
 9356SOL    HW139527   0.189   3.262   4.988  0.8078  1.3507  0.7519
 9356SOL    HW239528   0.205   3.296   4.845 -0.5563 -0.4469 -0.0729
 9357SOL     OW39529   3.251   0.731   8.733  0.1713 -0.6303  0.8350
 9357SOL    HW139530   3.271   0.824   8.736  0.0478 -0.5783 -0.1314
 9357SOL    HW239531   3.308   0.707   8.806  0.8220 -0.2572  0.4476
 9358SOL     OW39532   0.006   1.713   2.058 -0.3754 -0.0975  0.5974
 9358SOL    HW139533   0.051   1.796   2.050  2.2723 -1.8227 -1.9588
 9358SOL    HW239534   4.683   1.731   2.140 -1.1388  0.5028  0.0305
 9359SOL     OW39535   2.435   1.407   6.930  0.5046  0.2385 -0.3632
 9359SOL    HW139536   2.436   1.396   6.835 -0.8384 -1.0605 -0.2313
 9359SOL    HW239537   2.384   1.331   6.957  1.2897 -1.4029 -3.5534
 9360SOL     OW39538   3.493   1.404   4.033 -0.0568  0.0390  0.2105
 9360SOL    HW139539   3.501   1.318   3.993 -0.7739  0.6645 -1.2744
 9360SOL    HW239540   3.398   1.409   4.037  0.1389  3.3906  1.2426
 9361SOL     OW39541   4.028   0.251   9.254 -0.2974  0.2095 -0.5270
 9361SOL    HW139542   3.945   0.265   9.299  0.2386  1.5163  0.0566
 9361SOL    HW239543   4.091   0.293   9.313  0.1456  0.1937 -0.9850
 9362SOL     OW39544   2.511   3.241  15.331  0.1020 -0.2874 -0.4148
 9362SOL    HW139545   2.542   3.154  15.303  2.3869 -0.2045  1.7994
 9362SOL    HW239546   2.481   3.284  15.251 -1.5373 -0.8223 -0.0752
 9363SOL     OW39547   3.272   1.730   3.964 -0.2454 -0.0527 -0.5779
 9363SOL    HW139548   3.314   1.734   3.878  0.0247 -1.4424 -0.5016
 9363SOL    HW239549   3.309   1.648   3.996  2.2503  1.4445  0.3583
 9364SOL     OW39550   3.502   1.384   7.005  0.0832 -0.1763 -0.5454
 9364SOL    HW139551   3.505   1.421   7.093  1.5022  0.0364 -0.6892
 9364SOL    HW239552   3.593   1.363   6.988  0.8030  1.9389  0.6950
 9365SOL     OW39553   3.156   1.493   0.593  0.0036  0.3220  0.8872
 9365SOL    HW139554   3.064   1.477   0.612 -0.6649  1.8342 -1.0910
 9365SOL    HW239555   3.155   1.498   0.497 -0.2473 -0.0245  0.8725
 9366SOL     OW39556   3.112   2.151   5.398 -0.3570  0.2444 -0.7099
 9366SOL    HW139557   3.083   2.242   5.407  0.8697  0.6228 -0.5146
 9366SOL    HW239558   3.084   2.141   5.307  0.1505 -0.4738 -0.7894
 9367SOL     OW39559   0.876   1.856   3.037  0.3898  0.5219 -0.5354
 9367SOL    HW139560   0.936   1.901   2.978  0.8109  0.4899 -0.1344
 9367SOL    HW239561   0.936   1.796   3.082  0.2476  1.4470  0.9008
 9368SOL     OW39562   1.791   1.162   0.135 -0.2756 -0.0011  0.1129
 9368SOL    HW139563   1.818   1.248   0.168 -1.9871 -0.5133  2.9336
 9368SOL    HW239564   1.791   1.100   0.208  0.0684  0.2762  0.3511
 9369SOL     OW39565   1.076   4.600   6.942  0.1876 -0.1783 -0.2074
 9369SOL    HW139566   1.078   4.536   6.871  1.2247  0.4268 -0.7198
 9369SOL    HW239567   1.170   4.615   6.943  0.1937 -0.0869 -1.5111
 9370SOL     OW39568   2.502   0.189   3.089  0.0911 -0.4110 -0.2333
 9370SOL    HW139569   2.458   0.177   3.005  1.2051  1.0035 -1.0278
 9370SOL    HW239570   2.556   0.111   3.095  2.3765  1.0328 -1.7396
 9371SOL     OW39571   0.952   1.717  13.028  0.6192  0.3627 -0.2628
 9371SOL    HW139572   0.995   1.803  13.023 -1.2130  1.2970  0.1329
 9371SOL    HW239573   0.910   1.714  13.114  1.2964 -0.4121  0.0402
 9372SOL     OW39574   4.491   2.267   6.768  0.5539 -0.1897 -0.1618
 9372SOL    HW139575   4.417   2.213   6.794 -2.0824  1.5058 -3.9522
 9372SOL    HW239576   4.520   2.229   6.685  0.5139  1.1006 -0.7655
 9373SOL     OW39577   1.946   0.994   7.917 -1.2591 -0.0909 -0.0798
 9373SOL    HW139578   1.901   1.070   7.880  2.5638  2.2476 -0.0039
 9373SOL    HW239579   1.927   0.928   7.851 -0.2322  0.4559 -0.9219
 9374SOL     OW39580   3.139   4.320   4.356 -0.0959 -0.4811 -0.5816
 9374SOL    HW139581   3.163   4.244   4.302 -1.1929 -2.1448  1.2757
 9374SOL    HW239582   3.058   4.289   4.397 -0.9597 -0.4365 -2.2370
 9375SOL     OW39583   3.927   0.461   7.063  0.1741  0.2067 -0.0337
 9375SOL    HW139584   3.877   0.382   7.041  2.1199 -0.5291 -1.8477
 9375SOL    HW239585   3.931   0.494   6.973 -0.1365  0.5942  0.0930
 9376SOL     OW39586   2.650   3.921  15.942 -0.6468  0.2893  0.7654
 9376SOL    HW139587   2.674   3.914  16.035  0.8300 -1.2401  0.2616
 9376SOL    HW239588   2.658   3.828  15.923 -0.5539  0.5159 -0.2951
 9377SOL     OW39589   4.587   0.457   3.951 -0.6288 -0.0601 -0.1874
 9377SOL    HW139590   4.566   0.543   3.914  0.4979 -0.4030 -1.6293
 9377SOL    HW239591   4.638   0.414   3.882 -1.3173 -1.7818  0.3866
 9378SOL     OW39592   1.350   0.674   2.556  0.3681  0.4780  0.4995
 9378SOL    HW139593   1.418   0.646   2.618  0.1941  0.1748  0.5505
 9378SOL    HW239594   1.333   0.590   2.513 -0.3852  0.2098  1.3235
 9379SOL     OW39595   2.249   2.746   5.277 -0.2106 -0.1004 -0.4220
 9379SOL    HW139596   2.279   2.663   5.241  0.4779  0.8744 -2.0817
 9379SOL    HW239597   2.319   2.805   5.248  1.9805 -1.2798  2.4804
 9380SOL     OW39598   0.466   2.482  10.349  0.3755 -0.0189  0.4058
 9380SOL    HW139599   0.537   2.418  10.337 -0.9532 -1.3016 -0.5861
 9380SOL    HW239600   0.399   2.419  10.376  0.0775  0.3675  0.5630
 9381SOL     OW39601   1.631   4.125   8.874  0.2808  0.4453  0.3714
 9381SOL    HW139602   1.603   4.208   8.913  1.7327  2.0628 -1.9815
 9381SOL    HW239603   1.580   4.131   8.793  1.2377 -0.5275 -0.2996
 9382SOL     OW39604   4.188   2.613   6.199  0.4083 -0.1033 -0.1687
 9382SOL    HW139605   4.269   2.632   6.245  0.5776 -0.2208 -0.4128
 9382SOL    HW239606   4.159   2.537   6.250  2.0375 -0.2117  0.5655
 9383SOL     OW39607   1.044   1.251   7.032 -0.0021 -1.0542  0.0901
 9383SOL    HW139608   1.112   1.211   6.978 -0.2625 -3.5980  1.6327
 9383SOL    HW239609   1.096   1.288   7.104  0.3686 -2.8505  0.7358
 9384SOL     OW39610   1.615   1.655   9.960  0.0158 -0.2272  0.5090
 9384SOL    HW139611   1.648   1.580  10.010 -0.9952  0.1782  1.7680
 9384SOL    HW239612   1.524   1.627   9.959  0.1198 -0.5004 -0.9952
 9385SOL     OW39613   4.576   1.612   4.951  0.3785 -0.3255  0.4506
 9385SOL    HW139614   4.590   1.645   4.862 -1.0260 -0.7012  0.0991
 9385SOL    HW239615   4.497   1.662   4.970  0.0308 -1.1800  1.2403
 9386SOL     OW39616   4.408   1.088   6.744 -0.2521 -0.4559 -0.1725
 9386SOL    HW139617   4.354   1.029   6.692 -1.5690  0.9828 -0.4395
 9386SOL    HW239618   4.490   1.087   6.695  0.1695 -1.3043  0.5483
 9387SOL     OW39619   4.254   4.045   3.082  0.3377  0.1249  0.3021
 9387SOL    HW139620   4.170   4.084   3.059  0.2438 -0.0166  0.4166
 9387SOL    HW239621   4.229   4.001   3.163  2.1320  1.8475  1.7978
 9388SOL     OW39622   1.996   0.574   7.165 -0.4876  0.0355 -0.2243
 9388SOL    HW139623   2.024   0.514   7.096 -0.6847 -0.0979 -0.1891
 9388SOL    HW239624   1.987   0.662   7.129  2.6293  0.2247 -0.4889
 9389SOL     OW39625   1.421   3.423   8.651  0.5707  0.2871 -0.2913
 9389SOL    HW139626   1.439   3.449   8.560 -0.1773 -1.3342 -0.9132
 9389SOL    HW239627   1.369   3.500   8.674  0.2967  0.1423 -0.4203
 9390SOL     OW39628   3.156   4.280  14.145 -0.3664 -0.4953 -0.7118
 9390SOL    HW139629   3.193   4.200  14.108  2.6429  1.1603 -1.2676
 9390SOL    HW239630   3.208   4.348  14.101  1.1806 -0.9810  0.3820
 9391SOL     OW39631   2.641   3.743  12.924 -0.4685 -0.1481 -0.3136
 9391SOL    HW139632   2.559   3.697  12.942 -1.4916  1.4592 -0.9574
 9391SOL    HW239633   2.685   3.756  13.008 -0.3787 -0.4795 -0.3079
 9392SOL     OW39634   4.672   2.945   0.893  0.1947 -0.0115  0.3304
 9392SOL    HW139635   4.622   2.998   0.955  0.2563 -0.9718  1.1915
 9392SOL    HW239636   0.012   3.007   0.857  0.1148  0.1018  0.3835
 9393SOL     OW39637   0.716   1.953   6.420  0.4044 -0.9382  0.0961
 9393SOL    HW139638   0.713   1.963   6.324  1.2096 -0.5089  0.1141
 9393SOL    HW239639   0.691   1.862   6.436 -0.3740 -0.9447 -1.0947
 9394SOL     OW39640   2.111   0.427   4.146 -0.3179 -0.6397 -0.4822
 9394SOL    HW139641   2.048   0.412   4.076  0.0729  0.2818 -1.0398
 9394SOL    HW239642   2.114   0.523   4.152  1.1533 -0.6502 -0.8523
 9395SOL     OW39643   0.806   0.981   3.867 -0.4233  0.5269 -0.6882
 9395SOL    HW139644   0.851   0.998   3.950 -0.5784  0.5398 -0.6075
 9395SOL    HW239645   0.773   1.068   3.842  1.4321  1.3735 -0.1989
 9396SOL     OW39646   3.922   3.013   4.321 -0.1363  0.2584  0.0142
 9396SOL    HW139647   3.965   3.064   4.251 -0.2499 -1.9457 -1.6652
 9396SOL    HW239648   3.842   3.063   4.337  0.4223  0.8990  0.8441
 9397SOL     OW39649   2.924   1.274   1.397 -0.9112 -0.2149 -0.4473
 9397SOL    HW139650   2.877   1.196   1.369 -0.8668  0.5904 -2.7958
 9397SOL    HW239651   2.934   1.237   1.484  1.3746  0.1693 -0.5600
 9398SOL     OW39652   4.149   3.694  14.340 -0.7907 -0.3841  0.1119
 9398SOL    HW139653   4.169   3.691  14.247 -0.5617  1.0690  0.1193
 9398SOL    HW239654   4.230   3.738  14.365 -1.1943  0.6838 -0.4545
 9399SOL     OW39655   2.621   3.743   6.073  0.1933  0.1822  0.1522
 9399SOL    HW139656   2.630   3.686   5.997 -1.5235 -0.6891  0.6125
 9399SOL    HW239657   2.704   3.789   6.062  0.0676  0.3248 -0.2133
 9400SOL     OW39658   0.203   0.039   0.955 -0.3623 -0.3444  0.0914
 9400SOL    HW139659   0.108   0.032   0.950 -0.6190  2.3316  1.4012
 9400SOL    HW239660   0.221   0.000   1.040  0.7436 -0.3759 -0.1622
 9401SOL     OW39661   2.064   1.911  11.677  0.3384  0.3563  0.0690
 9401SOL    HW139662   2.010   1.839  11.646 -0.7505  1.3238 -0.2669
 9401SOL    HW239663   2.008   1.948  11.745  0.1155  1.4225 -0.6916
 9402SOL     OW39664   3.009   4.092   2.639  0.2198 -1.0866  0.4866
 9402SOL    HW139665   3.020   4.104   2.545  0.7148  1.6424  0.9101
 9402SOL    HW239666   3.043   4.002   2.645  0.7340 -0.8976  0.3596
 9403SOL     OW39667   0.414   1.801   2.358 -0.2911 -0.4761  0.2919
 9403SOL    HW139668   0.373   1.850   2.286  0.8287  1.0896  0.7193
 9403SOL    HW239669   0.470   1.740   2.310  1.1839  1.0195  0.1096
 9404SOL     OW39670   1.296   0.392   3.395  0.4971  0.3092 -0.6533
 9404SOL    HW139671   1.296   0.373   3.301  0.6678  2.0762 -1.0058
 9404SOL    HW239672   1.378   0.352   3.423  0.6101  0.9227 -0.0947
 9405SOL     OW39673   4.273   0.519  10.588  0.1780  0.8068  0.1421
 9405SOL    HW139674   4.298   0.506  10.497 -0.8487  0.4677 -0.0904
 9405SOL    HW239675   4.179   0.505  10.576  0.4268  1.9283 -3.0294
 9406SOL     OW39676   3.586   0.038   8.927  0.2535 -0.4010 -0.1643
 9406SOL    HW139677   3.594   0.091   8.847  0.4719  2.0869  1.5227
 9406SOL    HW239678   3.672   4.719   8.933  0.6880  0.6003  0.6701
 9407SOL     OW39679   0.471   2.899   5.710 -0.4643 -0.0436 -0.2546
 9407SOL    HW139680   0.556   2.865   5.737 -0.2309  0.4507 -0.3598
 9407SOL    HW239681   0.461   2.945   5.794  2.5484 -1.7919  1.0493
 9408SOL     OW39682   1.634   2.542  16.612 -0.2730  0.3075  0.4583
 9408SOL    HW139683   1.604   2.486  16.540  3.2181 -0.3642 -0.4532
 9408SOL    HW239684   1.708   2.497  16.653  1.2699  0.5548 -2.0429
 9409SOL     OW39685   1.557   1.236   6.075  0.5941 -0.1532  0.0753
 9409SOL    HW139686   1.511   1.207   6.153  0.3216  0.5200  0.1639
 9409SOL    HW239687   1.612   1.305   6.112 -0.5859  0.5349  0.5450
 9410SOL     OW39688   3.561   0.648  12.867  0.4125 -0.1139 -0.0508
 9410SOL    HW139689   3.619   0.704  12.917  1.9922 -0.3457 -1.5982
 9410SOL    HW239690   3.586   0.564  12.905 -0.6083 -0.4736 -0.1697
 9411SOL     OW39691   1.467   0.908   6.480  0.9112  0.3086  0.4296
 9411SOL    HW139692   1.374   0.902   6.457  1.1151  1.6021 -0.7396
 9411SOL    HW239693   1.458   0.870   6.567 -0.2772 -0.6846 -0.1224
 9412SOL     OW39694   1.014   0.535   3.009  0.1488 -0.1171 -0.2225
 9412SOL    HW139695   1.080   0.469   2.988  0.3707  0.8668 -2.6666
 9412SOL    HW239696   1.043   0.596   2.941  1.9837 -0.3333  0.3536
 9413SOL     OW39697   4.270   3.395  16.835 -0.0152 -0.3435 -1.0588
 9413SOL    HW139698   4.364   3.414  16.840  0.3091 -1.9035 -1.2901
 9413SOL    HW239699   4.270   3.353  16.749  0.8135 -0.9220 -0.7659
 9414SOL     OW39700   4.184   1.681   7.241 -0.2430 -0.4378  0.3746
 9414SOL    HW139701   4.224   1.624   7.175  1.1945  1.1316 -0.1023
 9414SOL    HW239702   4.220   1.768   7.222  4.9966 -2.4929  0.7258
 9415SOL     OW39703   1.981   2.878   6.987  0.3624  0.4783  0.2211
 9415SOL    HW139704   1.969   2.855   6.894  1.8793  0.6022 -0.0097
 9415SOL    HW239705   1.901   2.836   7.019  0.3132  0.8971  0.6473
 9416SOL     OW39706   2.625   2.598  17.612  0.3884  0.3931 -0.3759
 9416SOL    HW139707   2.628   2.673  17.672  0.8747  0.9165 -1.0644
 9416SOL    HW239708   2.716   2.585  17.586  0.6632 -0.2208  0.8663
 9417SOL     OW39709   1.151   1.610   3.403 -0.6414 -0.4240  0.0744
 9417SOL    HW139710   1.161   1.702   3.427 -0.2810 -0.4080 -0.1345
 9417SOL    HW239711   1.057   1.598   3.420 -0.8021  0.7518  0.0709
 9418SOL     OW39712   3.246   2.067   3.257  0.2575 -0.3409 -0.2081
 9418SOL    HW139713   3.202   1.985   3.237 -0.2683 -0.2022  0.3800
 9418SOL    HW239714   3.316   2.028   3.310  1.1220  0.9187 -0.4225
 9419SOL     OW39715   0.648   4.068   0.058 -0.1604  0.0054  0.3130
 9419SOL    HW139716   0.629   4.161   0.063  1.7951  0.3391  1.6868
 9419SOL    HW239717   0.606   4.041  17.673  0.8649 -1.5717  0.2920
 9420SOL     OW39718   0.847   2.987   8.728 -0.3785  0.4288  0.3500
 9420SOL    HW139719   0.813   2.906   8.767 -1.4027  0.6196 -0.1379
 9420SOL    HW239720   0.924   3.010   8.780 -1.8099  2.9780  1.3348
 9421SOL     OW39721   4.167   0.606   5.674 -0.2074  0.0449 -0.5470
 9421SOL    HW139722   4.227   0.615   5.600  0.5572  1.2568  0.2214
 9421SOL    HW239723   4.156   0.697   5.701 -1.7128  0.2126 -1.6849
 9422SOL     OW39724   1.455   4.217  17.301 -0.0690  0.4584 -0.4438
 9422SOL    HW139725   1.467   4.309  17.326  0.8827 -0.3850  2.1536
 9422SOL    HW239726   1.372   4.198  17.345 -0.8949  1.1650 -1.7007
 9423SOL     OW39727   2.014   2.484   9.926 -0.6128  0.1420 -0.0966
 9423SOL    HW139728   1.996   2.458   9.835  2.0800 -0.3322 -0.4874
 9423SOL    HW239729   2.107   2.493   9.905 -1.4202  0.4439 -3.6148
 9424SOL     OW39730   1.702   0.039   7.779 -0.2238  0.2963 -0.0645
 9424SOL    HW139731   1.643   0.007   7.847  0.7567 -2.6098 -0.6225
 9424SOL    HW239732   1.780   4.712   7.799 -0.8184 -0.6843 -0.2494
 9425SOL     OW39733   3.737   1.082   0.093  0.4170 -0.0818 -0.5798
 9425SOL    HW139734   3.755   1.165   0.048  0.1571 -0.6505 -1.7474
 9425SOL    HW239735   3.652   1.105   0.130 -0.2152 -2.1446 -0.7801
 9426SOL     OW39736   4.003   2.298  15.245  0.6681  0.3428  0.1582
 9426SOL    HW139737   4.029   2.378  15.200 -2.6536  0.0028 -2.3203
 9426SOL    HW239738   4.005   2.318  15.339 -1.9301 -0.1693  0.3108
 9427SOL     OW39739   3.566   0.340   4.056  0.2869 -0.3706  0.5370
 9427SOL    HW139740   3.503   0.338   4.127 -1.0456 -0.1563 -0.6473
 9427SOL    HW239741   3.647   0.324   4.106  0.0441  0.7318  1.2633
 9428SOL     OW39742   0.371   2.907  11.033  0.5899 -0.0559  0.8255
 9428SOL    HW139743   0.435   2.899  10.962 -1.0573  0.8822 -0.7682
 9428SOL    HW239744   0.352   2.815  11.050 -1.4529  0.1393 -0.3904
 9429SOL     OW39745   0.597   3.026  11.274  0.4635  0.6060  0.7745
 9429SOL    HW139746   0.569   3.090  11.339 -1.5338  1.4507 -0.9036
 9429SOL    HW239747   0.517   2.976  11.255 -0.5411  2.6053 -0.2465
 9430SOL     OW39748   1.829   0.270   5.152 -1.0834  0.0210 -0.1116
 9430SOL    HW139749   1.902   0.246   5.096 -0.5003 -0.1840  0.7436
 9430SOL    HW239750   1.840   0.364   5.133 -0.1372  0.1949  1.2823
 9431SOL     OW39751   0.538   0.287   2.841 -0.2129  0.6408  0.1969
 9431SOL    HW139752   0.492   0.342   2.778 -2.7173  0.0120  1.4890
 9431SOL    HW239753   0.480   0.211   2.842  2.8190 -1.6990 -0.9767
 9432SOL     OW39754   0.683   3.272   7.553 -0.2911  0.4356  0.3704
 9432SOL    HW139755   0.589   3.292   7.549 -0.5826 -0.8896  0.3442
 9432SOL    HW239756   0.707   3.253   7.643 -2.2092 -0.3587  0.7320
 9433SOL     OW39757   1.759   3.063   0.285 -0.2221  0.1921  0.2264
 9433SOL    HW139758   1.664   3.052   0.278 -0.0263 -1.0143 -0.4446
 9433SOL    HW239759   1.779   3.062   0.379 -0.9173  1.1471  0.3808
 9434SOL     OW39760   4.422   2.958   3.100  0.0381 -0.2398 -0.3366
 9434SOL    HW139761   4.439   2.913   3.017 -1.9100  0.1311 -0.9196
 9434SOL    HW239762   4.467   3.041   3.088  0.1944 -0.3011 -0.1712
 9435SOL     OW39763   3.692   3.885   5.632  0.5212 -0.4079 -0.0560
 9435SOL    HW139764   3.724   3.921   5.549  2.3874  0.5772  1.0670
 9435SOL    HW239765   3.604   3.920   5.626  0.8453  0.1379 -1.5337
 9436SOL     OW39766   2.801   3.415   6.784 -0.4377  0.1154 -0.4115
 9436SOL    HW139767   2.751   3.351   6.733 -1.3326  0.4595  0.0547
 9436SOL    HW239768   2.881   3.363   6.796  0.1617  1.5795  1.8494
 9437SOL     OW39769   3.393   4.148   8.047 -0.2245 -1.5013 -0.4619
 9437SOL    HW139770   3.356   4.185   7.967 -0.4171 -0.2991  0.1849
 9437SOL    HW239771   3.487   4.157   8.026 -0.4781 -0.1606 -1.0276
 9438SOL     OW39772   2.632   2.891   4.407  0.0482 -0.2132 -0.3587
 9438SOL    HW139773   2.602   2.802   4.424  0.0072  0.0154  0.7767
 9438SOL    HW239774   2.552   2.913   4.359  0.2521 -0.4470 -0.8035
 9439SOL     OW39775   0.814   3.933   2.411 -0.2231 -0.0101 -0.6376
 9439SOL    HW139776   0.722   3.941   2.388 -0.3429  4.5909  1.3211
 9439SOL    HW239777   0.842   3.879   2.337 -0.1849 -0.2122 -0.4753
 9440SOL     OW39778   1.639   3.491   3.011 -0.6911  0.6662 -0.3182
 9440SOL    HW139779   1.638   3.568   3.068  1.1463  0.8321 -0.5010
 9440SOL    HW239780   1.719   3.523   2.968 -0.3300 -1.9857 -1.6477
 9441SOL     OW39781   4.650   0.067   6.274 -0.0196  0.4027  0.3196
 9441SOL    HW139782   4.638   0.162   6.266  1.3231  0.6670  1.3956
 9441SOL    HW239783   4.580   0.058   6.338 -0.5385 -0.3394 -0.3547
 9442SOL     OW39784   0.072   4.444   9.610  0.0486  0.3892 -0.2270
 9442SOL    HW139785   0.003   4.419   9.672  0.0483 -1.2380 -0.8716
 9442SOL    HW239786   0.068   4.540   9.613 -1.2054  0.3143  0.4785
 9443SOL     OW39787   2.833   2.982  14.271 -0.0915  0.5279  0.0927
 9443SOL    HW139788   2.862   2.897  14.238  0.6169  0.2788  1.3480
 9443SOL    HW239789   2.841   3.035  14.192 -0.9192  0.0365 -0.3227
 9444SOL     OW39790   3.102   3.248   5.813 -0.2568 -0.3325 -0.1141
 9444SOL    HW139791   3.188   3.230   5.853 -1.0756  0.3237  1.9588
 9444SOL    HW239792   3.054   3.299   5.878  1.1385 -0.7531  1.2709
 9445SOL     OW39793   2.845   4.545   5.970  0.6234  0.0092  0.4875
 9445SOL    HW139794   2.873   4.546   6.061 -0.1106  1.8696  0.7092
 9445SOL    HW239795   2.917   4.598   5.935 -0.1009 -0.3974 -1.6544
 9446SOL     OW39796   2.822   1.645   2.411 -0.3013 -0.0798  0.2149
 9446SOL    HW139797   2.768   1.724   2.421 -1.5591 -0.5742 -2.5833
 9446SOL    HW239798   2.787   1.588   2.479  0.1578 -0.3338  0.2392
 9447SOL     OW39799   3.643   3.383  12.210 -0.4764 -0.0996 -0.8121
 9447SOL    HW139800   3.700   3.411  12.138  1.6093  1.0873  1.2898
 9447SOL    HW239801   3.682   3.302  12.244  1.8395  1.9156  1.3184
 9448SOL     OW39802   2.755   3.994   1.872  0.1072 -0.7408 -0.4230
 9448SOL    HW139803   2.719   3.906   1.865  1.2678 -1.2942  0.6740
 9448SOL    HW239804   2.746   4.022   1.781  2.3210 -0.8089 -0.6597
 9449SOL     OW39805   1.164   0.807   7.402 -0.8602  0.5965 -0.4808
 9449SOL    HW139806   1.087   0.758   7.372  1.9551 -3.7653 -0.4135
 9449SOL    HW239807   1.227   0.763   7.346  1.1675  2.5532  0.2731
 9450SOL     OW39808   3.748   3.796   7.177 -0.2102  0.2020  0.3406
 9450SOL    HW139809   3.656   3.785   7.202 -0.3260  0.6915  0.1150
 9450SOL    HW239810   3.781   3.830   7.260  1.6098  0.2015 -0.3735
 9451SOL     OW39811   4.581   2.511   4.045  0.0655  0.4883 -0.1743
 9451SOL    HW139812   4.554   2.589   3.997 -2.0708  0.4573  0.9694
 9451SOL    HW239813   4.673   2.520   4.021 -0.6330  0.5801 -2.8305
 9452SOL     OW39814   1.997   2.961   2.429 -0.5602  0.4596 -0.8340
 9452SOL    HW139815   1.922   2.904   2.409  1.1089 -1.7048 -0.8601
 9452SOL    HW239816   2.031   2.983   2.342 -1.3013 -0.0829 -1.2640
 9453SOL     OW39817   2.466   0.496   8.428  0.0492 -0.3027  0.2466
 9453SOL    HW139818   2.392   0.556   8.442 -1.5696 -2.9282  3.0231
 9453SOL    HW239819   2.503   0.527   8.346 -1.4821 -0.2275 -0.4141
 9454SOL     OW39820   0.197   3.608   3.649 -0.4423 -0.1691  0.0176
 9454SOL    HW139821   0.117   3.585   3.697 -1.8101  0.4929 -1.9015
 9454SOL    HW239822   0.195   3.554   3.569 -1.1691 -2.2620  1.4489
 9455SOL     OW39823   1.756   3.905   4.664  0.2795  0.3430  0.6967
 9455SOL    HW139824   1.742   3.903   4.569 -1.5190 -2.3537  1.0349
 9455SOL    HW239825   1.814   3.980   4.682 -1.0029  1.6260 -0.4532
 9456SOL     OW39826   4.646   1.109   1.001 -0.0979 -0.0742 -0.2957
 9456SOL    HW139827   4.691   1.125   1.084 -2.2170  1.2964  0.5805
 9456SOL    HW239828   4.666   1.184   0.946  2.0176  1.0940  2.0395
 9457SOL     OW39829   0.976   2.214   7.033  0.3937  0.0673  0.1956
 9457SOL    HW139830   0.917   2.287   7.054  0.7447  0.7199 -1.0700
 9457SOL    HW239831   0.921   2.140   7.010  0.4205 -0.0133  0.3913
 9458SOL     OW39832   1.929   4.512   8.442  0.1554 -0.4436 -0.0284
 9458SOL    HW139833   1.991   4.463   8.388  2.4101 -0.5070  2.6195
 9458SOL    HW239834   1.945   4.477   8.530 -0.4671 -0.9343 -0.1082
 9459SOL     OW39835   3.977   3.242   6.524  0.1868 -0.9132 -0.7581
 9459SOL    HW139836   4.021   3.310   6.473  0.1015 -0.7208 -0.5703
 9459SOL    HW239837   3.889   3.278   6.513  0.9589  1.0823 -0.3817
 9460SOL     OW39838   1.241   0.491  10.184  0.6949  0.0444  0.4582
 9460SOL    HW139839   1.241   0.484  10.279  1.0904  2.5107  0.6536
 9460SOL    HW239840   1.150   0.496  10.155  0.4901 -0.8532  0.9785
 9461SOL     OW39841   3.925   2.539   1.685 -0.5075  0.4429 -0.6437
 9461SOL    HW139842   3.845   2.563   1.637 -0.3907 -0.4578 -1.2749
 9461SOL    HW239843   3.965   2.626   1.674  1.3580 -0.4143 -0.5803
 9462SOL     OW39844   2.323   1.208   8.458 -0.1255 -0.4839 -0.2007
 9462SOL    HW139845   2.275   1.137   8.416  0.6433  0.0140 -1.8965
 9462SOL    HW239846   2.271   1.234   8.534 -1.6193 -0.7818 -1.1212
 9463SOL     OW39847   0.591   0.998   0.920  0.1580  0.0145  0.2575
 9463SOL    HW139848   0.657   1.014   0.853  0.6202 -2.9690  0.0252
 9463SOL    HW239849   0.641   0.971   0.997 -1.7830 -1.4674  1.0104
 9464SOL     OW39850   1.326   2.732   1.005 -0.2754  0.4478  0.6113
 9464SOL    HW139851   1.420   2.744   1.020 -0.3995 -0.9023  2.5961
 9464SOL    HW239852   1.296   2.702   1.091 -1.1555 -2.6100 -0.7458
 9465SOL     OW39853   0.465   3.925   3.125 -0.4859  0.1304  0.4724
 9465SOL    HW139854   0.375   3.918   3.093  0.1079  0.7474 -1.3177
 9465SOL    HW239855   0.452   3.897   3.215  1.4490 -0.2598  0.6284
 9466SOL     OW39856   0.366   2.912  16.919  0.4791  0.1071  0.5786
 9466SOL    HW139857   0.432   2.977  16.940  1.1878 -0.8434  1.2914
 9466SOL    HW239858   0.373   2.848  16.990  2.5699  0.3181  0.5607
 9467SOL     OW39859   3.209   3.126   8.580  0.2612  0.2318  0.2336
 9467SOL    HW139860   3.261   3.106   8.503 -0.1708  1.2833 -0.3350
 9467SOL    HW239861   3.232   3.216   8.605 -3.3628  1.2493 -0.1878
 9468SOL     OW39862   0.908   2.014   3.695  0.5676 -0.0649 -0.0226
 9468SOL    HW139863   0.921   2.036   3.788  3.7510 -0.9831 -0.2690
 9468SOL    HW239864   0.813   2.028   3.699  0.5523 -0.3519  0.8176
 9469SOL     OW39865   0.978   0.773  13.658  0.6480 -0.1035  0.7665
 9469SOL    HW139866   1.028   0.784  13.577 -1.0482  1.1889 -0.1348
 9469SOL    HW239867   0.982   0.679  13.675  0.9382 -0.2381 -0.0244
 9470SOL     OW39868   2.688   0.588   5.729 -0.5809  0.2597 -0.0118
 9470SOL    HW139869   2.709   0.582   5.822 -0.9007  2.2188  0.1730
 9470SOL    HW239870   2.594   0.567   5.733 -0.6396  0.6418  0.5868
 9471SOL     OW39871   3.905   0.480   8.788 -0.6917 -0.2078  0.4314
 9471SOL    HW139872   3.996   0.468   8.759 -0.4127  2.0406  0.3583
 9471SOL    HW239873   3.906   0.523   8.874  2.9587  0.9253 -0.1621
 9472SOL     OW39874   1.672   3.852   8.137 -0.7180 -0.0222  0.0918
 9472SOL    HW139875   1.756   3.879   8.173 -0.5747 -2.3708  1.4862
 9472SOL    HW239876   1.701   3.838   8.046  0.6248  1.5131  0.2826
 9473SOL     OW39877   2.833   4.568   8.126  0.0326 -0.0629 -0.1373
 9473SOL    HW139878   2.841   4.530   8.038  1.1260  0.1492 -0.1295
 9473SOL    HW239879   2.843   4.493   8.184 -1.9829 -0.7821 -0.7353
 9474SOL     OW39880   0.885   4.481   1.781  0.1684 -0.4861  0.0874
 9474SOL    HW139881   0.919   4.526   1.859 -0.9588  0.6279 -0.0563
 9474SOL    HW239882   0.794   4.510   1.783 -0.3968 -2.0161 -3.7387
 9475SOL     OW39883   3.778   1.355   6.965  0.3397  0.1386 -0.4686
 9475SOL    HW139884   3.869   1.326   6.959 -0.2477 -1.8774  0.4109
 9475SOL    HW239885   3.785   1.398   7.051 -0.8895 -0.3310 -0.1344
 9476SOL     OW39886   2.822   1.785   7.136 -0.4152 -0.0014  0.2731
 9476SOL    HW139887   2.859   1.704   7.173 -1.3721  0.1418  1.5430
 9476SOL    HW239888   2.892   1.816   7.078  0.6022  1.0609  2.0788
 9477SOL     OW39889   4.418   1.003  11.568 -0.0406 -0.1453  0.5616
 9477SOL    HW139890   4.491   0.970  11.517  0.1913 -0.3362  1.0188
 9477SOL    HW239891   4.430   1.097  11.581  0.1727 -0.1037  0.0489
 9478SOL     OW39892   0.306   3.279  11.146  0.0244  0.0465  0.1142
 9478SOL    HW139893   0.287   3.359  11.097  0.4184 -0.2745 -0.5608
 9478SOL    HW239894   0.303   3.214  11.076 -1.2235 -1.4760  1.5541
 9479SOL     OW39895   0.094   1.224   6.842 -0.1629  0.3155 -0.0686
 9479SOL    HW139896   0.032   1.179   6.899 -0.1277  0.3046 -0.0381
 9479SOL    HW239897   0.049   1.308   6.833 -0.7731 -0.2199 -1.8527
 9480SOL     OW39898   1.614   3.994   1.745 -0.1968  0.0997 -0.2361
 9480SOL    HW139899   1.566   4.072   1.719  0.9593  2.2217  3.9512
 9480SOL    HW239900   1.558   3.962   1.816  1.8444 -2.1641  0.3513
 9481SOL     OW39901   1.085   1.909   2.212  0.0108 -0.2744 -0.0727
 9481SOL    HW139902   1.066   1.816   2.204 -0.1420 -0.3653  1.3722
 9481SOL    HW239903   1.026   1.931   2.284  0.6467 -1.2715  0.7635
 9482SOL     OW39904   4.548   4.174  10.594  0.0244 -0.3978  0.2460
 9482SOL    HW139905   4.569   4.210  10.508 -2.9408  1.9945  0.5173
 9482SOL    HW239906   4.573   4.243  10.655 -0.7531  0.2931 -0.2176
 9483SOL     OW39907   1.609   1.487   5.892 -0.1185 -0.2481  0.1421
 9483SOL    HW139908   1.698   1.506   5.863  0.5194 -3.1054  0.1904
 9483SOL    HW239909   1.619   1.490   5.987  0.1487  0.1834  0.0996
 9484SOL     OW39910   0.851   3.410   5.421 -0.0288 -0.6126  0.4676
 9484SOL    HW139911   0.920   3.474   5.405 -1.6056  0.5093 -1.8425
 9484SOL    HW239912   0.806   3.407   5.337  1.8671 -0.6335 -0.5449
 9485SOL     OW39913   3.532   3.832  10.729 -0.8099  0.2650 -0.0742
 9485SOL    HW139914   3.511   3.852  10.638 -1.8093  1.0863  0.3370
 9485SOL    HW239915   3.456   3.778  10.748 -0.8400  0.4682  0.3863
 9486SOL     OW39916   4.591   3.906   4.057  0.8160  0.2156  0.0130
 9486SOL    HW139917   4.672   3.862   4.031  0.5033 -1.5984  2.1413
 9486SOL    HW239918   4.521   3.851   4.022 -0.0837 -1.6383  4.7724
 9487SOL     OW39919   2.770   2.101  17.390 -0.7081  0.3073  0.1559
 9487SOL    HW139920   2.736   2.149  17.314  1.3215  1.8288  0.2113
 9487SOL    HW239921   2.809   2.163  17.452 -0.4673 -1.0800  1.3950
 9488SOL     OW39922   1.975   2.073   8.770  0.2892 -0.0910  0.0347
 9488SOL    HW139923   1.961   1.989   8.815  0.4347  0.9428  2.0198
 9488SOL    HW239924   2.061   2.067   8.727  0.0442 -1.1278 -0.3237
 9489SOL     OW39925   4.248   3.458   2.287 -0.0077  0.7984 -0.1761
 9489SOL    HW139926   4.228   3.470   2.194  0.2807  0.6256 -0.2610
 9489SOL    HW239927   4.224   3.542   2.327 -0.5918 -0.9040  3.0385
 9490SOL     OW39928   0.844   4.558   5.696  0.1446  0.1477 -0.1241
 9490SOL    HW139929   0.885   4.603   5.622  1.9061  1.5789  1.7306
 9490SOL    HW239930   0.905   4.604   5.753  1.5700 -0.5487 -1.0704
 9491SOL     OW39931   1.782   2.735   2.655  0.0877 -0.0207  0.3271
 9491SOL    HW139932   1.850   2.779   2.705  0.0514  0.2893  0.1020
 9491SOL    HW239933   1.806   2.746   2.563 -0.7129  2.4501  0.4100
 9492SOL     OW39934   1.065   0.691   3.636 -0.1920 -0.1370  0.3802
 9492SOL    HW139935   1.017   0.670   3.716  0.0398 -1.5516  0.1435
 9492SOL    HW239936   1.030   0.779   3.620 -1.3269 -0.7604 -0.5852
 9493SOL     OW39937   2.183   2.956   6.116 -0.5373  0.4918 -0.3081
 9493SOL    HW139938   2.157   2.965   6.024  0.3343  0.6420 -0.5468
 9493SOL    HW239939   2.231   3.039   6.115  0.9609 -0.3473  0.7269
 9494SOL     OW39940   0.435   4.056   8.495  0.3783  0.2262 -0.4896
 9494SOL    HW139941   0.455   4.110   8.419  0.3589 -0.6201 -1.0926
 9494SOL    HW239942   0.339   4.063   8.492  0.4139  0.7928 -0.2967
 9495SOL     OW39943   2.209   3.018   2.590  0.1097  0.1912 -0.0720
 9495SOL    HW139944   2.198   3.080   2.518 -1.5635  0.9844  0.8811
 9495SOL    HW239945   2.124   2.976   2.576  0.1706 -0.0919  0.4171
 9496SOL     OW39946   2.223   4.718   2.337  0.0555  1.0963 -0.3539
 9496SOL    HW139947   2.216   4.717   2.242  1.0170  0.0616 -0.4169
 9496SOL    HW239948   2.276   4.640   2.355 -1.5527 -0.6830 -3.2973
 9497SOL     OW39949   3.128   1.281   7.424  0.1354  0.7754  0.4239
 9497SOL    HW139950   3.103   1.363   7.467 -2.2219 -0.0711  0.7141
 9497SOL    HW239951   3.133   1.222   7.499 -2.4945 -1.1300 -0.8743
 9498SOL     OW39952   3.937   2.789   0.960 -0.7108  0.0700  0.3947
 9498SOL    HW139953   3.902   2.795   0.871  0.3841  3.0372  0.1793
 9498SOL    HW239954   3.957   2.876   0.994  0.7606 -0.1284  0.0589
 9499SOL     OW39955   2.447   1.201   9.128 -0.8700  0.3529 -0.3754
 9499SOL    HW139956   2.408   1.149   9.057  1.0086  0.8942 -1.8020
 9499SOL    HW239957   2.422   1.143   9.200 -0.0287 -1.0803 -1.2370
 9500SOL     OW39958   0.327   0.598  17.272 -0.2765  0.1513  0.1862
 9500SOL    HW139959   0.250   0.550  17.244  0.6941 -0.8039 -0.8689
 9500SOL    HW239960   0.336   0.560  17.360  0.1998  0.7711  0.4044
 9501SOL     OW39961   0.609   2.602   0.405  0.3297  0.1665 -0.3326
 9501SOL    HW139962   0.603   2.533   0.339  1.1944 -0.2375  0.0174
 9501SOL    HW239963   0.515   2.618   0.414  0.1009 -1.2145 -0.2672
 9502SOL     OW39964   1.092   2.417   9.700 -0.4342 -0.7558  0.5253
 9502SOL    HW139965   1.046   2.484   9.750  0.0442  0.5405 -0.7585
 9502SOL    HW239966   1.170   2.404   9.753 -1.2676  1.0271  2.1467
 9503SOL     OW39967   3.216   3.141   5.056 -0.0217 -0.1003 -0.2081
 9503SOL    HW139968   3.286   3.085   5.023 -1.3259 -2.6549  1.4094
 9503SOL    HW239969   3.233   3.138   5.150  1.8577 -1.0274 -0.5759
 9504SOL     OW39970   1.382   2.556   7.389 -0.5018  0.6746  0.3570
 9504SOL    HW139971   1.299   2.507   7.385 -0.0391 -0.0432 -0.5716
 9504SOL    HW239972   1.413   2.542   7.478 -0.0552  0.4216  0.1606
 9505SOL     OW39973   2.201   1.889  14.945  0.1890 -0.2222 -0.8617
 9505SOL    HW139974   2.243   1.922  15.024 -0.3457  0.0167 -0.6781
 9505SOL    HW239975   2.182   1.966  14.891  1.1582 -0.3613 -1.4008
 9506SOL     OW39976   4.565   0.922   7.233  0.3189  0.2210  0.7317
 9506SOL    HW139977   4.489   0.954   7.184  0.1105  0.6073  1.3034
 9506SOL    HW239978   4.629   0.992   7.238  0.0352  0.4516  1.1683
 9507SOL     OW39979   2.958   1.589   9.289  0.0895  0.3266 -0.4699
 9507SOL    HW139980   2.911   1.555   9.365  0.3364  1.0997  0.0268
 9507SOL    HW239981   3.049   1.561   9.300  0.0786  0.3990 -0.2012
 9508SOL     OW39982   1.158   1.272   7.941 -0.5418  0.5416 -0.0682
 9508SOL    HW139983   1.161   1.180   7.967  0.8473  0.4997 -0.3600
 9508SOL    HW239984   1.149   1.313   8.026 -0.3621  1.5636 -0.5466
 9509SOL     OW39985   2.805   2.832   5.617  0.7343 -0.1555  0.3091
 9509SOL    HW139986   2.851   2.754   5.648  1.0440  0.3272  1.0877
 9509SOL    HW239987   2.796   2.890   5.693  0.5975  1.0478 -0.6170
 9510SOL     OW39988   1.766   0.853  16.212  0.3752 -0.4433  0.4265
 9510SOL    HW139989   1.697   0.898  16.164  1.2337 -1.3022 -1.5992
 9510SOL    HW239990   1.810   0.807  16.141  0.9339 -0.2818  0.6658
 9511SOL     OW39991   3.165   3.574   3.666 -0.2830  0.2191 -0.1704
 9511SOL    HW139992   3.127   3.647   3.617 -0.6889  0.7180  0.8832
 9511SOL    HW239993   3.124   3.497   3.627  0.4166 -0.7304  0.9453
 9512SOL     OW39994   0.902   0.504  16.215  0.0626  0.0804 -0.9073
 9512SOL    HW139995   0.838   0.448  16.173 -0.3341 -0.7880  0.8574
 9512SOL    HW239996   0.849   0.566  16.265 -0.5296 -1.7958  0.7691
 9513SOL     OW39997   0.460   4.517   3.363  0.1993 -0.4173 -0.5799
 9513SOL    HW139998   0.497   4.527   3.275 -0.2293 -0.4971 -0.7710
 9513SOL    HW239999   0.378   4.474   3.339 -0.7796  1.1244  0.0222
 9514SOL     OW40000   4.213   3.064   2.132 -0.1462 -1.1374  0.0719
 9514SOL    HW140001   4.225   3.022   2.047  0.3938  0.6298 -0.7221
 9514SOL    HW240002   4.146   3.127   2.107  0.6629 -0.3437 -0.0579
 9515SOL     OW40003   1.211   1.336   7.495  0.2448  0.0553 -0.5408
 9515SOL    HW140004   1.138   1.319   7.554  0.4127 -2.6184 -1.0641
 9515SOL    HW240005   1.286   1.282   7.522 -0.2954 -0.1104  0.6265
 9516SOL     OW40006   2.842   0.955   6.129  0.0293  0.3001  0.0000
 9516SOL    HW140007   2.804   1.036   6.163 -1.2196 -0.5813  0.6851
 9516SOL    HW240008   2.909   0.937   6.195 -0.9511  0.4101  1.0051
 9517SOL     OW40009   0.508   4.459  12.326 -0.0334 -0.2692 -0.7289
 9517SOL    HW140010   0.485   4.371  12.357  2.4163 -0.9421 -0.7968
 9517SOL    HW240011   0.594   4.456  12.368  0.2683  1.2146 -1.2255
 9518SOL     OW40012   2.627   2.603   4.465  0.3559  0.1756  0.1850
 9518SOL    HW140013   2.543   2.601   4.511  0.1557 -1.1503 -0.2410
 9518SOL    HW240014   2.620   2.524   4.413 -2.1362  1.1055 -0.8866
 9519SOL     OW40015   2.909   1.413   0.679 -0.6493  0.9692 -0.1784
 9519SOL    HW140016   2.893   1.329   0.722  2.2618 -0.1486 -1.2376
 9519SOL    HW240017   2.816   1.422   0.661 -0.9964  2.1796  2.2776
 9520SOL     OW40018   3.320   3.092   3.545  0.5562 -0.0038  0.5197
 9520SOL    HW140019   3.277   3.068   3.628  0.2933 -0.4245  0.2637
 9520SOL    HW240020   3.291   3.027   3.481 -1.0046 -0.5537  1.7542
 9521SOL     OW40021   4.323   0.343  11.769  0.2570 -0.6716  0.2757
 9521SOL    HW140022   4.362   0.415  11.818 -0.6616 -0.4780  0.7414
 9521SOL    HW240023   4.237   0.340  11.812  1.3545  1.7947  2.6207
 9522SOL     OW40024   2.678   3.802  13.213 -0.2970  0.2349  0.0223
 9522SOL    HW140025   2.709   3.727  13.264  1.9548  1.0920 -0.1017
 9522SOL    HW240026   2.761   3.849  13.209  0.5053 -0.9703  2.3349
 9523SOL     OW40027   0.555   4.014   7.383  0.0393  0.2540  0.1968
 9523SOL    HW140028   0.631   4.052   7.426  1.3017 -1.9526 -0.0969
 9523SOL    HW240029   0.562   4.050   7.295  1.4872  0.2420  0.3004
 9524SOL     OW40030   1.060   3.906   2.803 -0.5078 -0.2279 -0.2214
 9524SOL    HW140031   1.136   3.849   2.813 -1.5415 -1.3091  1.4755
 9524SOL    HW240032   1.007   3.862   2.871 -0.8542 -1.0268 -0.9987
 9525SOL     OW40033   4.045   0.717   7.773 -0.7218 -0.2457 -0.0702
 9525SOL    HW140034   4.087   0.660   7.838 -2.8420 -0.5488  1.0677
 9525SOL    HW240035   4.069   0.673   7.691  1.4426 -0.7863  0.8582
 9526SOL     OW40036   1.739   2.746   5.229 -0.4715  0.2955 -0.6602
 9526SOL    HW140037   1.654   2.725   5.269 -1.1003  0.6768 -1.7762
 9526SOL    HW240038   1.708   2.763   5.140  1.5066 -2.3853 -1.8451
 9527SOL     OW40039   0.595   3.431   2.998  0.1444  0.2327 -0.0560
 9527SOL    HW140040   0.553   3.454   2.916 -0.4602  0.9515  0.4560
 9527SOL    HW240041   0.681   3.469   2.982 -0.4633  0.6910 -2.2031
 9528SOL     OW40042   0.074   4.640   1.764  0.3069  0.1721 -0.7450
 9528SOL    HW140043   0.093   4.563   1.710 -0.0769  0.8457 -1.8405
 9528SOL    HW240044   0.051   4.702   1.695  0.8929  1.1046 -0.1015
 9529SOL     OW40045   3.894   1.095   6.627 -1.1384 -0.2689  0.1032
 9529SOL    HW140046   3.929   1.184   6.625  1.0324 -1.1200 -0.3880
 9529SOL    HW240047   3.959   1.039   6.671 -0.5710 -1.2980 -2.0535
 9530SOL     OW40048   0.145   4.579   2.535  0.2617 -0.3389 -0.0111
 9530SOL    HW140049   0.238   4.574   2.512  0.5453  0.8266  0.8589
 9530SOL    HW240050   0.117   4.500   2.581 -1.4914 -1.1839 -2.5209
 9531SOL     OW40051   3.827   2.634   9.163 -0.0827  0.1943  0.3673
 9531SOL    HW140052   3.821   2.543   9.136 -1.1706  0.0675  1.0281
 9531SOL    HW240053   3.902   2.654   9.108  1.4901  0.1573  2.5081
 9532SOL     OW40054   4.575   2.269   3.521 -0.4239 -0.3900 -0.0714
 9532SOL    HW140055   4.502   2.313   3.477  0.6305  0.8628 -0.5907
 9532SOL    HW240056   4.539   2.263   3.609 -1.6244 -2.1857 -0.7099
 9533SOL     OW40057   3.488   1.521   7.288 -0.7705  0.7391  0.3109
 9533SOL    HW140058   3.556   1.564   7.236 -1.2242 -2.4816 -2.9591
 9533SOL    HW240059   3.415   1.576   7.261 -1.3617 -0.8109 -1.2547
 9534SOL     OW40060   0.241   3.673   2.849 -0.2985 -0.2464  0.1284
 9534SOL    HW140061   0.208   3.714   2.929 -0.4576 -0.1478  0.0122
 9534SOL    HW240062   0.333   3.698   2.856 -0.8988  1.3593  2.0984
 9535SOL     OW40063   1.881   2.891   0.071 -0.4155  0.4254  0.1277
 9535SOL    HW140064   1.947   2.952   0.105 -0.3267  0.6692 -0.4879
 9535SOL    HW240065   1.802   2.930   0.110 -0.6508  0.3852 -0.3130
 9536SOL     OW40066   3.428   1.185   3.884 -0.1905 -0.5343  0.0301
 9536SOL    HW140067   3.380   1.103   3.870  1.8963 -1.9487  1.1726
 9536SOL    HW240068   3.504   1.141   3.921  0.9402 -0.2354 -1.9703
 9537SOL     OW40069   1.804   1.178   6.578 -0.4537  0.1425 -0.7890
 9537SOL    HW140070   1.825   1.109   6.514  0.1237  2.8743 -3.5426
 9537SOL    HW240071   1.710   1.168   6.565 -0.2221 -0.5927 -1.8650
 9538SOL     OW40072   0.500   2.845  11.658 -0.2609  0.5040 -0.0140
 9538SOL    HW140073   0.538   2.931  11.677 -0.7500  0.4728  1.1104
 9538SOL    HW240074   0.412   2.875  11.636  0.6986  1.4898 -2.5688
 9539SOL     OW40075   0.370   1.155   8.264  0.1734  0.1937 -0.6420
 9539SOL    HW140076   0.293   1.105   8.240 -1.6486  2.0389  1.3698
 9539SOL    HW240077   0.361   1.242   8.228  0.9007  1.3286  1.9007
 9540SOL     OW40078   1.298   4.354   8.096  0.5216 -0.1503  0.6412
 9540SOL    HW140079   1.333   4.358   8.007  0.2752  0.5937  0.5825
 9540SOL    HW240080   1.360   4.414   8.138  0.5096 -1.5360  2.6908
 9541SOL     OW40081   2.848   1.892  16.844  0.5179  0.5115  0.0302
 9541SOL    HW140082   2.878   1.806  16.813 -1.2256  0.1778 -0.7506
 9541SOL    HW240083   2.919   1.912  16.905  0.8652 -0.3787 -0.0771
 9542SOL     OW40084   2.939   1.601  12.957 -0.1032 -0.5864  0.6181
 9542SOL    HW140085   2.987   1.535  12.908  0.8581  1.6684 -1.4524
 9542SOL    HW240086   2.896   1.550  13.025  0.5104 -1.6271  0.2106
 9543SOL     OW40087   4.710   2.105   4.073 -0.2299 -0.0530  0.4738
 9543SOL    HW140088   4.676   2.109   4.163 -0.3779 -2.8736  0.5594
 9543SOL    HW240089   0.056   2.042   4.092 -0.8296 -0.9452 -0.3139
 9544SOL     OW40090   1.578   3.708   4.491 -0.2635 -0.5522  0.4569
 9544SOL    HW140091   1.649   3.664   4.445  0.6611  1.0283  0.3401
 9544SOL    HW240092   1.537   3.746   4.413  0.0034 -2.6745 -0.6980
 9545SOL     OW40093   1.587   0.062   3.392 -0.4254  0.8494 -0.3795
 9545SOL    HW140094   1.629   4.699   3.389 -1.3836  0.4148 -1.1801
 9545SOL    HW240095   1.525   0.044   3.322  0.1648 -0.8358 -0.4723
 9546SOL     OW40096   0.237   1.049   5.682 -0.2447  0.6363 -0.2031
 9546SOL    HW140097   0.141   1.051   5.691 -0.4232  1.1657 -2.2342
 9546SOL    HW240098   0.249   0.967   5.634 -0.1297  1.4102 -1.4997
 9547SOL     OW40099   0.621   2.158  13.906 -0.5771  0.1723 -0.1435
 9547SOL    HW140100   0.671   2.160  13.825 -0.3282  1.6024  0.0517
 9547SOL    HW240101   0.630   2.063  13.916  0.6267  0.1048 -1.9783
 9548SOL     OW40102   1.786   2.780   9.744  0.2679 -0.0512 -0.7903
 9548SOL    HW140103   1.739   2.780   9.661 -2.0629  0.1620  0.5063
 9548SOL    HW240104   1.725   2.824   9.804  2.5127 -1.9089  2.8547
 9549SOL     OW40105   3.252   4.122   0.270  0.0908 -0.3874  0.4273
 9549SOL    HW140106   3.252   4.033   0.305 -2.9349 -1.8194 -3.1480
 9549SOL    HW240107   3.327   4.162   0.314  2.7259 -2.3774 -2.2749
 9550SOL     OW40108   0.211   1.557   5.565  0.4251 -0.2371 -0.1710
 9550SOL    HW140109   0.173   1.576   5.479  0.5299  0.0343 -0.1574
 9550SOL    HW240110   0.270   1.632   5.573 -0.6827  0.3500  2.6550
 9551SOL     OW40111   4.316   4.460   6.131 -0.9407 -0.0216  0.6493
 9551SOL    HW140112   4.279   4.397   6.193 -1.7673  1.7710  1.9728
 9551SOL    HW240113   4.296   4.411   6.051  0.9162  1.4771 -0.7235
 9552SOL     OW40114   0.318   1.938   8.825  0.0659 -0.3984  0.2242
 9552SOL    HW140115   0.368   1.977   8.753 -3.0790  1.0290 -1.2075
 9552SOL    HW240116   0.346   1.991   8.899 -0.4093  0.0584  0.0771
 9553SOL     OW40117   4.035   3.344  14.495  0.0294 -0.1691  0.0184
 9553SOL    HW140118   4.097   3.337  14.422 -2.7104  2.1448 -2.5317
 9553SOL    HW240119   3.958   3.329  14.439  1.2531  0.2435 -1.7766
 9554SOL     OW40120   0.279   4.693  14.395 -0.5092  0.8055  0.2892
 9554SOL    HW140121   0.238   0.019  14.465 -2.9590 -0.1423 -0.4794
 9554SOL    HW240122   0.366   0.010  14.396 -0.5399  0.8940 -1.0668
 9555SOL     OW40123   2.487   1.904   6.597  0.1961  0.2856 -0.4760
 9555SOL    HW140124   2.473   1.815   6.565  4.3554 -1.0699  1.5094
 9555SOL    HW240125   2.490   1.948   6.512  1.2397  1.7142  0.3087
 9556SOL     OW40126   3.050   1.510   7.602 -0.4623  0.1060 -0.0487
 9556SOL    HW140127   3.017   1.491   7.690 -0.8291 -2.2021 -0.6851
 9556SOL    HW240128   2.993   1.580   7.572 -0.1697 -0.0034 -0.8553
 9557SOL     OW40129   2.469   3.601   3.503 -0.4433  0.2848  0.2910
 9557SOL    HW140130   2.544   3.598   3.443 -1.3785  1.7713 -0.9320
 9557SOL    HW240131   2.429   3.516   3.482 -0.0409  0.0858  0.3251
 9558SOL     OW40132   0.812   4.067   7.488 -0.6198 -0.4290  0.1967
 9558SOL    HW140133   0.875   4.013   7.440 -1.5277 -1.1286 -0.2145
 9558SOL    HW240134   0.850   4.153   7.471  0.3318 -1.4936 -3.0507
 9559SOL     OW40135   2.948   3.455   5.993  0.3745  0.1699  0.6032
 9559SOL    HW140136   2.946   3.508   6.073  0.2650  0.0328  0.6903
 9559SOL    HW240137   2.950   3.518   5.921  0.3861  0.5254  0.9165
 9560SOL     OW40138   2.637   1.242   5.908  0.1892 -0.3951 -0.1110
 9560SOL    HW140139   2.652   1.162   5.857 -1.7180 -2.5045  2.6391
 9560SOL    HW240140   2.545   1.262   5.895 -0.4106 -2.2425  1.1616
 9561SOL     OW40141   3.667   4.509   8.638 -0.1324  0.0969 -0.0154
 9561SOL    HW140142   3.658   4.429   8.586 -1.5855  0.2561 -0.0134
 9561SOL    HW240143   3.601   4.481   8.701  0.6585 -0.6216  0.4884
 9562SOL     OW40144   1.777   1.932   2.212 -0.1336 -0.0419 -0.0060
 9562SOL    HW140145   1.840   1.962   2.146  0.2988 -2.1249 -0.5362
 9562SOL    HW240146   1.705   1.995   2.207  0.2352  0.2769 -1.4433
 9563SOL     OW40147   3.514   3.412   7.588  0.1016  0.0513  0.1066
 9563SOL    HW140148   3.444   3.358   7.626 -2.0041  1.5129 -1.7021
 9563SOL    HW240149   3.545   3.361   7.513  0.5660  0.1165  0.2580
 9564SOL     OW40150   0.197   1.342  10.169 -0.1195  0.2996  0.3885
 9564SOL    HW140151   0.257   1.404  10.212 -1.0854  0.5992  1.3076
 9564SOL    HW240152   0.246   1.263  10.193  2.2747  1.7209  0.2364
 9565SOL     OW40153   2.057   1.837   6.207  0.4433  0.0026  0.2844
 9565SOL    HW140154   1.989   1.858   6.143 -0.3473  0.3068  1.2258
 9565SOL    HW240155   2.119   1.786   6.155  2.4593  1.1707  1.5750
   4.72378   4.72378  17.69685
