Membrane in water
40155
    1TCq1    O1    1   1.805   1.868  10.348 -0.2363  0.4545  0.4248
    1TCq1    C1    2   1.902   1.928  10.420  0.3454 -0.0744 -0.6516
    1TCq1    O2    3   2.013   1.884  10.450 -0.2346  0.2579  0.5945
    1TCq1    C2    4   1.823   1.969  10.528  0.2041  0.6663  0.6664
    1TCq1    C3    5   1.748   2.076  10.502 -0.3934 -0.3108  0.7920
    1TCq1    C4    6   1.668   2.118  10.601  1.5058  0.1168 -0.4297
    1TCq1    C5    7   1.668   2.055  10.729  0.0908  0.1504 -0.3522
    1TCq1    C6    8   1.735   1.943  10.746  0.0828  0.1541 -0.6802
    1TCq1    C7    9   1.824   1.897  10.644 -0.3040  0.3250 -0.3855
    1TCq1    C8   10   1.720   1.874  10.872  0.3907  0.1627  0.2693
    1TCq1    O4   11   1.628   1.916  10.945  0.1736 -0.0569  0.1954
    1TCq1    C9   12   1.563   2.216  10.569  0.0275 -0.8166  0.0999
    1TCq1    O5   13   1.546   2.240  10.446  0.1925  0.0008 -0.3542
    1TCq1    O6   14   1.471   2.230  10.659  0.2581 -0.2959  0.0953
    1TCq1    H1   15   1.717   1.913  10.350 -1.7879 -2.5756  0.3721
    1TCq1    H2   16   1.748   2.130  10.408 -0.6015 -1.3802  0.1808
    1TCq1    H3   17   1.599   2.079  10.809 -0.9361  1.1119 -1.5258
    1TCq1    H4   18   1.886   1.807  10.646  0.6318  0.9917  0.9202
    2MPD2     C   19   1.841   1.536  11.235 -0.6569  0.3626 -0.0635
    2MPD2    C1   20   1.767   1.649  11.241  0.7090  0.3638  0.8148
    2MPD2    C2   21   1.748   1.724  11.126  0.2978  0.1576  0.4113
    2MPD2    C3   22   1.805   1.687  11.010  0.7009  0.5590  0.1896
    2MPD2    C4   23   1.863   1.561  10.997 -0.1212 -0.7528  0.4383
    2MPD2    C5   24   1.880   1.490  11.114 -0.0611 -0.8663 -0.0299
    2MPD2     H   25   1.687   1.813  11.134  0.0661  0.0271  0.0977
    2MPD2    H1   26   1.882   1.516  10.901 -0.2904  1.0115 -0.4304
    2MPD2    H2   27   1.870   1.471  11.317  2.4830  4.0656  1.7765
    2MPD2    H3   28   1.929   1.394  11.111  0.9631 -0.2868 -1.4870
    2MPD2     N   29   1.795   1.759  10.886 -0.0785  0.2996  0.5773
    2MPD2    H5   30   1.847   1.726  10.806 -0.8483  2.0449 -0.6461
    2MPD2    N1   31   1.694   1.687  11.357 -0.5921 -0.7639  0.0211
    2MPD2    H7   32   1.624   1.759  11.342 -1.6295 -2.0890 -1.4597
    3TCq1    O1   33   1.183   3.054  10.119  0.0301 -0.4184  0.1402
    3TCq1    C1   34   1.130   3.075  10.238  0.4421  0.1420  0.3178
    3TCq1    O2   35   1.105   3.188  10.288  0.2839  0.0419  0.2255
    3TCq1    C2   36   1.078   2.951  10.291 -0.4043 -0.2617 -0.0587
    3TCq1    C3   37   1.150   2.838  10.275  0.3466  0.0211 -0.3431
    3TCq1    C4   38   1.089   2.722  10.300 -0.2156 -0.1642 -0.1116
    3TCq1    C5   39   0.960   2.715  10.342 -0.5416  0.3501 -0.2508
    3TCq1    C6   40   0.896   2.834  10.371  0.5267  0.0751  0.1712
    3TCq1    C7   41   0.955   2.956  10.337 -0.2422 -0.4858  0.3695
    3TCq1    C8   42   0.751   2.842  10.372  0.5509 -0.5734 -0.1011
    3TCq1    O4   43   0.690   2.755  10.313  0.3212  0.0796  0.3013
    3TCq1    C9   44   1.148   2.598  10.247 -0.6288 -0.0400 -0.6014
    3TCq1    O5   45   1.080   2.488  10.249  0.3516 -0.0244 -0.0812
    3TCq1    O6   46   1.259   2.606  10.186  0.3200 -0.2247  0.0351
    3TCq1    H1   47   1.164   2.966  10.080  1.0240 -0.1167 -1.0268
    3TCq1    H2   48   1.247   2.836  10.227  0.8245 -0.0810  0.6263
    3TCq1    H3   49   0.905   2.622  10.349 -0.7962  0.5450  0.3566
    3TCq1    H4   50   0.896   3.047  10.332 -1.5086 -1.3172  0.1768
    4MPD2     C   51   0.340   3.142  10.452  0.1412  0.2530 -0.1039
    4MPD2    C1   52   0.449   3.195  10.518 -0.3701 -0.3014  0.0205
    4MPD2    C2   53   0.568   3.132  10.512  0.4394  0.0854 -0.6677
    4MPD2    C3   54   0.580   3.016  10.436  0.8683 -0.3970  0.0877
    4MPD2    C4   55   0.473   2.960  10.368  0.1095 -0.3822  0.6204
    4MPD2    C5   56   0.358   3.030  10.373 -0.0053 -0.7440  0.6800
    4MPD2     H   57   0.651   3.164  10.574  2.3086 -0.6935 -2.7880
    4MPD2    H1   58   0.484   2.870  10.309 -1.4838  0.0482 -0.3354
    4MPD2    H2   59   0.248   3.199  10.442 -1.4790 -2.1371  1.5466
    4MPD2    H3   60   0.270   2.984  10.329  0.4255  0.5004 -1.5004
    4MPD2     N   61   0.706   2.955  10.438 -0.7783  0.6586 -0.2130
    4MPD2    H5   62   0.781   2.997  10.493  0.0474  1.0991 -1.6828
    4MPD2    N1   63   0.442   3.307  10.606 -0.0923  0.3458 -0.4065
    4MPD2    H7   64   0.530   3.333  10.650 -0.6534 -0.5126  1.2114
    5TCq1    O1   65   1.758   0.088  11.362 -0.1929  0.3702 -0.9902
    5TCq1    C1   66   1.667   0.172  11.306  0.7963  0.3573  0.2803
    5TCq1    O2   67   1.698   0.270  11.241 -0.6355  0.1803  0.4941
    5TCq1    C2   68   1.550   0.090  11.268  0.3015  0.4754  1.0055
    5TCq1    C3   69   1.476   0.036  11.369 -0.4475 -0.3531 -0.1228
    5TCq1    C4   70   1.344   4.724  11.339  0.0789 -0.3053 -0.2857
    5TCq1    C5   71   1.280   0.019  11.224  0.2086  0.0228 -0.3102
    5TCq1    C6   72   1.352   0.086  11.127  0.6877 -0.0670 -0.1905
    5TCq1    C7   73   1.490   0.119  11.153  0.5084 -0.0302 -0.0311
    5TCq1    C8   74   1.320   0.055  10.988 -0.4366 -0.9038 -0.3392
    5TCq1    O4   75   1.413   0.038  10.911  0.1599 -0.2810  0.1760
    5TCq1    C9   76   1.264   4.650  11.435 -0.6542 -0.5304 -0.0405
    5TCq1    O5   77   1.151   4.610  11.397  0.0525 -0.3225 -0.8976
    5TCq1    O6   78   1.328   4.597  11.528  0.3971  0.2217 -0.4855
    5TCq1    H1   79   1.724   4.725  11.387  1.7141 -0.2837 -0.6851
    5TCq1    H2   80   1.516   0.028  11.470  1.2171  2.4085 -0.5754
    5TCq1    H3   81   1.183   4.699  11.203 -0.6410  1.2860  0.9108
    5TCq1    H4   82   1.556   0.178  11.090  0.1264 -0.0592 -0.4648
    6MPD2     C   83   0.986   0.057  10.828  0.0776 -0.3653 -0.1500
    6MPD2    C1   84   1.121   0.024  10.839 -0.4674 -0.0350 -0.6222
    6MPD2    C2   85   1.181   4.690  10.732  0.6584 -0.0380  0.2153
    6MPD2    C3   86   1.111   4.643  10.624  0.1628  0.0422 -0.2559
    6MPD2    C4   87   0.976   4.665  10.621 -0.0193 -0.5728  0.5845
    6MPD2    C5   88   0.919   0.014  10.719  0.3449 -0.5208  0.2971
    6MPD2     H   89   1.288   4.672  10.737  0.7414 -0.1438 -2.1450
    6MPD2    H1   90   0.915   4.630  10.538 -0.0310 -1.7036  1.0546
    6MPD2    H2   91   0.926   0.098  10.908  1.2621  0.8105  0.1152
    6MPD2    H3   92   0.812   0.032  10.720  0.3880 -0.2198 -0.3314
    6MPD2     N   93   1.184   4.564  10.528  0.0664 -0.4202 -0.2391
    6MPD2    H5   94   1.281   4.545  10.550  0.0446 -0.3367 -0.0739
    6MPD2    N1   95   1.184   0.063  10.959  0.2147  0.7575 -0.0261
    6MPD2    H7   96   1.116   0.095  11.027  0.4440  2.3275 -0.5434
    7TCq1    O1   97   3.295   4.413  12.789  0.3460  0.1543  0.0197
    7TCq1    C1   98   3.362   4.520  12.749 -0.0126 -0.4192  0.5215
    7TCq1    O2   99   3.317   4.613  12.687 -0.3424 -0.3145  0.8711
    7TCq1    C2  100   3.480   4.525  12.832  0.0081 -0.2285 -0.3997
    7TCq1    C3  101   3.502   4.631  12.912  0.1792 -0.7361 -0.1070
    7TCq1    C4  102   3.622   4.644  12.972  0.2975 -0.2250  0.5650
    7TCq1    C5  103   3.713   4.549  12.978  0.7410 -0.4781  0.0940
    7TCq1    C6  104   3.693   4.446  12.890 -0.3270 -1.1401  0.0507
    7TCq1    C7  105   3.578   4.434  12.820 -0.2889  0.2774 -0.6992
    7TCq1    C8  106   3.760   4.316  12.906 -0.7618 -0.8635  0.7514
    7TCq1    O4  107   3.691   4.223  12.861 -0.7141 -0.2317 -0.2917
    7TCq1    C9  108   3.633   0.030  13.068  0.7755 -0.1641  0.6251
    7TCq1    O5  109   3.532   0.101  13.089  0.7101 -0.4751  0.5869
    7TCq1    O6  110   3.753   0.053  13.101 -0.1994 -0.1318 -0.3150
    7TCq1    H1  111   3.345   4.369  12.860  1.9435 -0.6612 -1.6204
    7TCq1    H2  112   3.424   4.696  12.950  1.9899  1.0347  0.5596
    7TCq1    H3  113   3.807   4.563  13.031  0.6004  3.2296 -0.6609
    7TCq1    H4  114   3.562   4.358  12.744  0.9639 -1.5487  0.8648
    8MPD2     C  115   4.155   4.005  12.993 -0.0652  0.5278 -0.3028
    8MPD2    C1  116   4.038   3.985  12.930 -0.2689 -0.4719  0.4188
    8MPD2    C2  117   3.950   4.087  12.916  0.7343  0.3720  0.0756
    8MPD2    C3  118   3.977   4.215  12.960  0.3245 -0.5564 -0.3133
    8MPD2    C4  119   4.094   4.234  13.026  0.6736  0.6455  0.5702
    8MPD2    C5  120   4.188   4.131  13.028  0.2028 -0.1918 -0.6614
    8MPD2     H  121   3.863   4.073  12.854  0.4279  1.1038  0.3330
    8MPD2    H1  122   4.137   4.329  13.056 -0.7100  0.4712  3.0676
    8MPD2    H2  123   4.238   3.936  13.003 -0.0770  0.3449 -1.4373
    8MPD2    H3  124   4.293   4.139  13.057 -0.1234  1.4162  0.1030
    8MPD2     N  125   3.891   4.324  12.946  0.0531  0.6242  0.2648
    8MPD2    H5  126   3.930   4.414  12.970  1.7147 -0.2949  0.9792
    8MPD2    N1  127   4.012   3.849  12.904  0.0787 -0.1330 -0.4250
    8MPD2    H7  128   4.090   3.785  12.911  0.1137 -0.3164 -2.4301
    9TCq1    O1  129   1.765   2.430  10.402 -0.1242 -0.2827  0.1813
    9TCq1    C1  130   1.799   2.558  10.422 -0.6323  0.5173 -0.3793
    9TCq1    O2  131   1.911   2.601  10.440 -0.2072 -0.8606  0.2221
    9TCq1    C2  132   1.673   2.613  10.481  0.0461  0.3127  0.5012
    9TCq1    C3  133   1.548   2.550  10.475 -0.6758  0.5772 -0.2312
    9TCq1    C4  134   1.454   2.596  10.572  0.5953 -1.1931 -0.5844
    9TCq1    C5  135   1.486   2.707  10.653  0.1414  0.0337 -0.0142
    9TCq1    C6  136   1.603   2.771  10.644 -0.1611  0.0055  0.0330
    9TCq1    C7  137   1.697   2.727  10.555 -0.0120  0.6755  0.4687
    9TCq1    C8  138   1.622   2.896  10.717  0.2556  0.3729  0.3016
    9TCq1    O4  139   1.685   2.979  10.653  0.8623 -0.1157 -0.5259
    9TCq1    C9  140   1.319   2.532  10.582  0.6833  0.3190  0.0304
    9TCq1    O5  141   1.292   2.442  10.496  0.0093 -0.7603 -0.0253
    9TCq1    O6  142   1.247   2.566  10.683 -0.5200  0.2524 -0.6677
    9TCq1    H1  143   1.671   2.410  10.384  0.3065 -2.3398  0.1697
    9TCq1    H2  144   1.530   2.461  10.417  0.2094  0.0174  0.3600
    9TCq1    H3  145   1.405   2.745  10.714  1.0622 -0.7425  1.7009
    9TCq1    H4  146   1.798   2.767  10.549  0.2243  0.1875  1.2444
   10MPD2     C  147   1.695   3.092  10.948 -0.3697  0.4592  0.4193
   10MPD2    C1  148   1.602   2.992  10.943 -0.7020 -0.0441 -0.1245
   10MPD2    C2  149   1.541   2.962  11.070  0.3088 -0.2848  0.0940
   10MPD2    C3  150   1.584   3.031  11.186  0.4605 -0.8165  0.4562
   10MPD2    C4  151   1.667   3.142  11.173 -0.0208  0.3413  0.3155
   10MPD2    C5  152   1.734   3.161  11.060  0.2622 -0.9506 -0.4216
   10MPD2     H  153   1.487   2.869  11.083 -1.5173  0.9128  1.0836
   10MPD2    H1  154   1.695   3.199  11.261  0.0432 -1.2862  1.3354
   10MPD2    H2  155   1.750   3.117  10.858 -3.2004  1.6797 -0.9519
   10MPD2    H3  156   1.817   3.231  11.056 -0.0471 -0.5665 -0.1796
   10MPD2     N  157   1.535   3.007  11.315  0.4327 -0.5691  0.2544
   10MPD2    H5  158   1.556   3.076  11.386 -0.6447  0.9212 -0.8538
   10MPD2    N1  159   1.567   2.901  10.840 -0.7402  0.4719 -0.1836
   10MPD2    H7  160   1.507   2.823  10.865  1.2508 -2.0693 -3.1611
   11TCq1    O1  161   2.820   3.002  14.187 -0.1896 -0.1088 -0.3114
   11TCq1    C1  162   2.804   2.890  14.261  0.3637 -0.5258  0.6394
   11TCq1    O2  163   2.849   2.867  14.374 -0.2871  0.4301 -0.3721
   11TCq1    C2  164   2.685   2.821  14.215  0.1212  0.2795  0.2056
   11TCq1    C3  165   2.605   2.755  14.305  0.3641  0.7203 -0.4476
   11TCq1    C4  166   2.492   2.689  14.260  0.3098 -0.2407  0.0465
   11TCq1    C5  167   2.461   2.695  14.128 -0.0722 -0.1739 -0.3558
   11TCq1    C6  168   2.536   2.770  14.045 -0.3677  0.1084 -0.2537
   11TCq1    C7  169   2.658   2.825  14.078  0.3265  0.0173 -0.3759
   11TCq1    C8  170   2.512   2.764  13.903  0.5668  0.2163 -0.7895
   11TCq1    O4  171   2.552   2.844  13.825  0.8621  1.0461 -0.4899
   11TCq1    C9  172   2.405   2.603  14.337  0.3803  0.0772 -0.5907
   11TCq1    O5  173   2.455   2.554  14.444 -0.3013 -0.3123  0.5155
   11TCq1    O6  174   2.314   2.547  14.276  0.1132  0.4148  0.2447
   11TCq1    H1  175   2.766   3.024  14.108  0.8121  3.5234  0.0197
   11TCq1    H2  176   2.631   2.781  14.407  3.3851 -1.8520 -0.5881
   11TCq1    H3  177   2.372   2.644  14.093 -0.7169  0.6929  0.0200
   11TCq1    H4  178   2.727   2.878  14.014  1.5248  1.4638  2.1059
   12MPD2     C  179   2.320   2.716  13.675 -0.4550 -0.3043  0.1367
   12MPD2    C1  180   2.372   2.616  13.759  0.3155 -1.4047  0.0474
   12MPD2    C2  181   2.320   2.486  13.751 -0.2938  0.4109  0.8986
   12MPD2    C3  182   2.225   2.458  13.660  0.2663  0.0466 -0.6942
   12MPD2    C4  183   2.172   2.559  13.581  0.1184 -0.6405 -0.5830
   12MPD2    C5  184   2.218   2.688  13.590  0.1283 -0.4214  0.0982
   12MPD2     H  185   2.369   2.408  13.808 -0.0187 -0.1154 -0.0761
   12MPD2    H1  186   2.093   2.543  13.509 -0.8191 -2.0403  0.7504
   12MPD2    H2  187   2.356   2.818  13.678  0.0172 -0.4807  0.4909
   12MPD2    H3  188   2.183   2.766  13.523 -1.6305  0.8029  2.4485
   12MPD2     N  189   2.173   2.334  13.639 -0.3560 -0.2530  0.0170
   12MPD2    H5  190   2.096   2.323  13.573 -0.6243 -0.4737  0.3662
   12MPD2    N1  191   2.458   2.646  13.871 -0.1916  0.5646 -0.2415
   12MPD2    H7  192   2.469   2.574  13.941  2.5777  0.3731 -0.8628
   13TCq1    O1  193   2.176   3.251  11.670  0.7828  0.1184 -0.2829
   13TCq1    C1  194   2.145   3.212  11.551 -1.4695  0.7277 -0.9089
   13TCq1    O2  195   2.100   3.277  11.460 -0.6180 -0.5456  0.3682
   13TCq1    C2  196   2.143   3.073  11.569  0.6902  0.3713  0.4031
   13TCq1    C3  197   2.245   3.008  11.630 -0.1539  0.2982 -0.3572
   13TCq1    C4  198   2.250   2.873  11.626 -0.2686 -0.3129 -0.2904
   13TCq1    C5  199   2.151   2.805  11.561  0.1981 -0.4731 -0.3444
   13TCq1    C6  200   2.048   2.876  11.504 -0.1364 -0.5580  0.1852
   13TCq1    C7  201   2.037   3.011  11.521  0.2073  0.0841  0.0499
   13TCq1    C8  202   1.930   2.816  11.450  0.5692 -0.3923 -0.4644
   13TCq1    O4  203   1.837   2.893  11.427  0.4558 -0.4798  0.3734
   13TCq1    C9  204   2.366   2.804  11.671 -0.0691 -0.2363  0.7517
   13TCq1    O5  205   2.465   2.881  11.682 -0.0915 -0.1008 -0.3035
   13TCq1    O6  206   2.367   2.679  11.654 -0.0100  0.3781 -0.3014
   13TCq1    H1  207   2.177   3.178  11.735  0.1524 -0.6236 -1.1104
   13TCq1    H2  208   2.330   3.063  11.669 -1.5681  1.9712  0.3466
   13TCq1    H3  209   2.159   2.698  11.542 -0.4405 -0.8893  1.7068
   13TCq1    H4  210   1.957   3.067  11.474  1.3833  0.9770 -0.9145
   14MPD2     C  211   1.913   2.472  11.335 -0.2850 -0.3328 -0.0724
   14MPD2    C1  212   1.860   2.589  11.368 -0.1793 -0.6961  0.6333
   14MPD2    C2  213   1.721   2.614  11.350  0.1265 -0.1069  0.0146
   14MPD2    C3  214   1.641   2.507  11.320 -0.1644 -0.0621  0.3922
   14MPD2    C4  215   1.692   2.385  11.295  0.5176  0.4077 -0.4244
   14MPD2    C5  216   1.833   2.368  11.307 -0.0013  0.4085 -0.0554
   14MPD2     H  217   1.674   2.708  11.377  1.6829  1.3185 -2.2817
   14MPD2    H1  218   1.635   2.299  11.264  0.8754 -0.5263  1.4838
   14MPD2    H2  219   2.021   2.455  11.335 -0.5892 -2.2771 -0.4081
   14MPD2    H3  220   1.884   2.276  11.284 -0.7656 -0.2688  0.9460
   14MPD2     N  221   1.504   2.531  11.292 -0.0883  0.1212 -0.0252
   14MPD2    H5  222   1.477   2.629  11.287 -3.9326 -0.7992  3.2210
   14MPD2    N1  223   1.953   2.685  11.418  0.1731  0.3599 -0.4375
   14MPD2    H7  224   2.048   2.651  11.428 -0.5170 -1.1285  1.1248
   15TCq1    O1  225   3.269   1.295   2.543 -0.0289 -0.0247  0.1708
   15TCq1    C1  226   3.144   1.351   2.523 -0.2112 -0.1934  0.5172
   15TCq1    O2  227   3.095   1.425   2.607 -0.0099 -0.6203 -0.2795
   15TCq1    C2  228   3.105   1.354   2.376 -0.5742  0.2734  0.2166
   15TCq1    C3  229   2.984   1.414   2.360  0.3050 -0.1435 -0.6006
   15TCq1    C4  230   2.934   1.422   2.235  0.6035 -0.5119 -0.0226
   15TCq1    C5  231   2.995   1.352   2.134  0.3598  0.2819 -0.0981
   15TCq1    C6  232   3.121   1.302   2.155  0.0522 -0.8447  0.0777
   15TCq1    C7  233   3.185   1.296   2.276 -0.2758 -0.3456  0.3387
   15TCq1    C8  234   3.200   1.254   2.042 -0.8256 -0.6172 -0.1951
   15TCq1    O4  235   3.306   1.204   2.061  0.2099 -0.3595  0.0280
   15TCq1    C9  236   2.811   1.491   2.209 -0.5901  0.2116 -0.1360
   15TCq1    O5  237   2.779   1.582   2.291  0.1962 -0.3638  0.0126
   15TCq1    O6  238   2.764   1.471   2.093  0.1086  0.0700  0.2638
   15TCq1    H1  239   3.288   1.228   2.474  0.8017 -0.4507  0.8160
   15TCq1    H2  240   2.930   1.469   2.436 -0.2165  0.3009 -1.2849
   15TCq1    H3  241   2.937   1.355   2.043  1.4672 -0.1365 -0.8095
   15TCq1    H4  242   3.286   1.259   2.289  0.4967  1.3278 -0.8033
   16MPD2     C  243   3.059   1.159   1.717  0.1535 -0.0079  0.8136
   16MPD2    C1  244   3.156   1.189   1.804  0.1499 -0.3462 -0.4137
   16MPD2    C2  245   3.284   1.141   1.780 -0.1338  0.5745 -0.2215
   16MPD2    C3  246   3.317   1.066   1.672 -0.3280 -0.2269  0.2335
   16MPD2    C4  247   3.220   1.030   1.584 -0.4822  0.2761  0.9014
   16MPD2    C5  248   3.094   1.077   1.610 -0.1647 -0.5619 -0.2481
   16MPD2     H  249   3.364   1.167   1.848  2.2171  0.5661 -2.9744
   16MPD2    H1  250   3.226   0.970   1.494  0.3651  0.9244  0.5258
   16MPD2    H2  251   2.956   1.183   1.737 -0.1039 -1.6452  1.5107
   16MPD2    H3  252   3.015   1.066   1.537 -0.8176  1.0009  0.2049
   16MPD2     N  253   3.451   1.028   1.649 -0.4914 -0.0831 -0.2338
   16MPD2    H5  254   3.517   1.057   1.721  0.1925 -0.9081 -0.5299
   16MPD2    N1  255   3.123   1.256   1.927 -0.5617 -0.4279 -0.4995
   16MPD2    H7  256   3.029   1.292   1.937 -0.6289 -0.7182 -0.0993
   17TCq1    O1  257   1.345   1.773  10.896  0.1416 -0.1032 -0.0202
   17TCq1    C1  258   1.371   1.664  10.827  0.0438  0.1308 -0.2765
   17TCq1    O2  259   1.372   1.551  10.874  0.5709  0.3275  0.1636
   17TCq1    C2  260   1.445   1.693  10.708  0.6591  0.6907  0.6232
   17TCq1    C3  261   1.410   1.792  10.619  0.4112 -0.1067 -0.1369
   17TCq1    C4  262   1.478   1.802  10.501 -0.4096  0.1890 -0.2704
   17TCq1    C5  263   1.560   1.698  10.457  0.0788 -0.2931 -0.4918
   17TCq1    C6  264   1.591   1.605  10.555 -0.2868  0.0272 -0.5526
   17TCq1    C7  265   1.535   1.595  10.676 -0.3226  0.1093 -0.3455
   17TCq1    C8  266   1.699   1.506  10.531 -0.3149 -0.0384 -0.3507
   17TCq1    O4  267   1.715   1.408  10.607  0.3343 -0.2596  0.5452
   17TCq1    C9  268   1.455   1.912  10.417 -0.3195 -0.1216 -0.6673
   17TCq1    O5  269   1.358   1.985  10.444  0.7358 -0.9036  0.4298
   17TCq1    O6  270   1.548   1.943  10.337  0.0106 -0.1758 -0.0923
   17TCq1    H1  271   1.365   1.850  10.838  0.5627  0.4159  0.8175
   17TCq1    H2  272   1.331   1.861  10.647  0.5453  0.5478 -1.3539
   17TCq1    H3  273   1.598   1.697  10.355  0.6735 -0.1417 -0.2724
   17TCq1    H4  274   1.582   1.539  10.756  2.0261  0.2360 -1.6288
   18MPD2     C  275   1.936   1.349  10.424  0.3532  1.0755 -0.1598
   18MPD2    C1  276   1.915   1.485  10.413  0.3424  0.0157 -0.7655
   18MPD2    C2  277   2.017   1.553  10.359  0.2297  0.3484  0.0720
   18MPD2    C3  278   2.149   1.493  10.346  0.0318  0.5090 -0.0358
   18MPD2    C4  279   2.164   1.357  10.367 -0.6696 -0.1178  0.3457
   18MPD2    C5  280   2.052   1.287  10.401 -0.0083 -0.3015  0.3404
   18MPD2     H  281   2.010   1.660  10.340  0.6319  0.5003  0.7724
   18MPD2    H1  282   2.262   1.311  10.364 -0.3176  0.5049  1.8498
   18MPD2    H2  283   1.855   1.290  10.465 -0.3101  1.6015 -0.7073
   18MPD2    H3  284   2.072   1.182  10.421  0.6509 -0.5175 -1.5199
   18MPD2     N  285   2.252   1.578  10.300 -0.1818 -0.1244 -0.4487
   18MPD2    H5  286   2.231   1.677  10.286  1.3154  0.2816  0.1969
   18MPD2    N1  287   1.794   1.553  10.447 -0.5966 -0.1045 -0.7992
   18MPD2    H7  288   1.793   1.647  10.409 -0.1857 -0.1163 -0.8439
   19TMC2    C1  289   3.244   2.288  14.189  0.2307  0.2295 -0.1572
   19TMC2    C2  290   3.217   2.336  14.062  0.7590  0.0699  0.4376
   19TMC2    C3  291   3.094   2.306  14.009 -0.0620 -0.5619  0.1959
   19TMC2    C4  292   3.163   2.198  14.248  0.0543  0.9040 -0.2795
   19TMC2    C5  293   3.052   2.164  14.179 -0.3358 -0.5532 -0.0138
   19TMC2    C6  294   3.015   2.210  14.058 -0.1754  0.3049  0.7198
   19TMC2     C  295   3.351   2.353  14.253 -0.4161  0.0574 -0.4946
   19TMC2     O  296   3.415   2.432  14.184 -0.0017  0.5479 -0.5333
   19TMC2     H  297   3.273   2.414  14.013  1.0725 -0.1566  0.4330
   19TMC2    H1  298   3.193   2.152  14.341  2.3343  1.4954 -0.7177
   19TMC2    H2  299   2.913   2.184  14.030 -0.8304  2.8677  0.7072
   19TMC2    C7  300   2.963   2.077  14.250  0.7545 -0.1170  0.1029
   19TMC2    C8  301   3.076   2.357  13.877  0.8117 -0.0204 -0.1446
   19TMC2    O1  302   2.969   2.080  14.371  0.1201  0.0792 -0.2276
   19TMC2    O2  303   3.124   2.458  13.827 -0.3041 -0.8341 -0.1726
   19TMC2    O5  304   2.973   2.284  13.818  0.1411  0.6039 -0.5770
   19TMC2    H5  305   2.957   2.192  13.847 -1.6898  1.9581  2.8205
   20MPD2     C  306   3.619   2.361  14.387 -0.1597  0.9294 -0.0571
   20MPD2    C1  307   3.505   2.333  14.452  0.0377  0.8270 -0.4852
   20MPD2    C2  308   3.506   2.302  14.584 -0.2104 -0.0782  0.0919
   20MPD2    C3  309   3.624   2.321  14.653 -0.5360 -0.3059 -0.3629
   20MPD2    C4  310   3.738   2.361  14.591  0.6233 -0.3528  0.4891
   20MPD2    C5  311   3.737   2.392  14.458 -0.3974 -0.4775  0.5443
   20MPD2     H  312   3.420   2.273  14.643  0.4078 -2.4060 -0.1493
   20MPD2    H1  313   3.825   2.376  14.653  0.9930 -0.7900  0.0765
   20MPD2    H2  314   3.619   2.380  14.280 -0.8301 -0.2693 -0.2736
   20MPD2    H3  315   3.832   2.414  14.410 -0.8142  0.8211  0.2946
   20MPD2     N  316   3.637   2.301  14.795 -0.2748 -0.1009 -0.1158
   20MPD2    H5  317   3.731   2.301  14.832 -0.8430 -0.3119  1.3254
   20MPD2    N1  318   3.377   2.314  14.383  0.3244  0.5689  0.3001
   20MPD2    H7  319   3.299   2.263  14.423 -0.0391  0.7753 -0.1368
   21MPD2     C  320   0.870   2.451  13.904 -0.2617 -0.5512  0.0771
   21MPD2    C1  321   0.927   2.364  13.993  0.2657  0.4268 -0.5231
   21MPD2    C2  322   0.891   2.365  14.124 -0.2919  0.9984 -0.2605
   21MPD2    C3  323   0.811   2.463  14.172 -0.1719 -0.5117 -0.2692
   21MPD2    C4  324   0.766   2.559  14.086  0.0025 -0.1432 -0.5591
   21MPD2    C5  325   0.776   2.538  13.949 -0.3410  0.0911  0.6842
   21MPD2     H  326   0.934   2.283  14.180  0.5247 -1.0562 -3.9301
   21MPD2    H1  327   0.700   2.638  14.119 -0.0073 -0.8212  1.0700
   21MPD2    H2  328   0.885   2.445  13.797  1.5064  0.5435  0.2613
   21MPD2    H3  329   0.743   2.619  13.885  0.0751 -0.0314  0.3130
   21MPD2     N  330   0.773   2.465  14.311  0.4005  0.1413 -0.1812
   21MPD2    H5  331   0.716   2.544  14.339 -2.1763 -0.7882 -2.8363
   21MPD2    N1  332   1.005   2.251  13.953  0.6282 -0.5040  0.7499
   21MPD2    H7  333   1.031   2.186  14.026 -2.1248 -1.3879  0.9382
   22TCq2    C1  334   0.803   2.368  14.405  0.6680 -0.0470  0.0318
   22TCq2    O2  335   0.878   2.271  14.397  0.0890  0.2864  0.5647
   22TCq2    C2  336   0.797   2.425  14.542  0.4780 -0.0660  0.0366
   22TCq2    C3  337   0.885   2.401  14.640  1.0052 -0.3682 -0.2980
   22TCq2    C4  338   0.878   2.458  14.763 -0.6418  0.7983 -0.9863
   22TCq2    C5  339   0.790   2.553  14.789  0.6405  0.7191 -0.0921
   22TCq2    C6  340   0.698   2.585  14.687  0.1664  0.0654 -0.1456
   22TCq2    C7  341   0.706   2.524  14.564 -0.0603 -0.4844  0.2040
   22TCq2    C8  342   0.570   2.623  14.737  0.1135 -0.4610  0.3216
   22TCq2    O4  343   0.560   2.603  14.857  0.6962 -0.6552 -0.4406
   22TCq2    C9  344   0.970   2.414  14.861 -0.4371  0.4603  0.1317
   22TCq2    O5  345   1.033   2.309  14.842 -0.3620  0.0138 -0.5228
   22TCq2    O6  346   0.957   2.465  14.975 -0.3412  0.5359 -0.3773
   22TCq2    H2  347   0.957   2.323  14.616  2.0514  0.9013 -1.2757
   22TCq2    H3  348   0.782   2.596  14.888 -1.6096 -0.0191  0.0495
   22TCq2    H4  349   0.627   2.536  14.491  0.7012  0.7607 -0.4183
   23MPD2     C  350   2.397   3.549  14.840 -0.0455 -0.9505 -0.5759
   23MPD2    C1  351   2.349   3.426  14.849  0.3981  0.0075 -0.5266
   23MPD2    C2  352   2.295   3.370  14.734 -0.3652 -0.0153 -0.3710
   23MPD2    C3  353   2.300   3.436  14.616 -0.4414 -0.3347 -0.7139
   23MPD2    C4  354   2.351   3.565  14.612 -0.3223  0.3785 -0.5405
   23MPD2    C5  355   2.398   3.624  14.722 -0.3639  0.5262  0.3118
   23MPD2     H  356   2.240   3.277  14.743 -1.0906  0.4054 -0.4500
   23MPD2    H1  357   2.346   3.628  14.524  0.9175  0.6806 -0.3969
   23MPD2    H2  358   2.433   3.608  14.923 -0.5000 -1.2612 -0.1590
   23MPD2    H3  359   2.437   3.725  14.726  0.8816  0.1142 -1.8377
   23MPD2     N  360   2.247   3.384  14.491  0.5457 -0.3069 -0.1970
   23MPD2    H5  361   2.270   3.443  14.412  3.1208 -3.0637 -1.5314
   23MPD2    N1  362   2.332   3.355  14.970 -0.0791 -0.3576  0.0787
   23MPD2    H7  363   2.287   3.265  14.958 -1.5709  0.5677 -1.1644
   24TCq2    C1  364   2.155   3.281  14.478  0.3495  0.3897  0.4771
   24TCq2    O2  365   2.095   3.229  14.565 -0.4480 -0.3278  0.7798
   24TCq2    C2  366   2.103   3.273  14.341  0.2778 -0.5695 -0.2696
   24TCq2    C3  367   2.167   3.338  14.244 -0.7076 -0.3861  0.4632
   24TCq2    C4  368   2.099   3.384  14.135  0.0903 -0.0196 -0.3115
   24TCq2    C5  369   1.965   3.362  14.114  0.1198 -0.2521 -0.2925
   24TCq2    C6  370   1.903   3.298  14.218 -0.1587 -0.1933 -0.2465
   24TCq2    C7  371   1.973   3.254  14.335 -0.3306  0.0509 -0.2100
   24TCq2    C8  372   1.775   3.231  14.193 -0.7337 -0.4151  0.1177
   24TCq2    O4  373   1.759   3.123  14.249 -0.3190 -0.4507  0.2281
   24TCq2    C9  374   2.170   3.450  14.032 -0.4988 -0.2903  0.0347
   24TCq2    O5  375   2.103   3.491  13.934 -0.1293 -0.0240 -0.9208
   24TCq2    O6  376   2.293   3.489  14.056  0.3440 -0.0844  0.2343
   24TCq2    H2  377   2.273   3.361  14.250 -0.8929  0.8595 -1.2746
   24TCq2    H3  378   1.915   3.388  14.022  1.3372  1.9819 -0.3053
   24TCq2    H4  379   1.915   3.207  14.413 -0.3783 -0.2996 -0.4569
   25TMC2    C1  380   1.571   0.688  11.318  0.0783  0.5050 -0.7934
   25TMC2    C2  381   1.692   0.752  11.347  0.1496  0.8917 -0.0706
   25TMC2    C3  382   1.701   0.816  11.462  0.2812 -0.2277  0.3659
   25TMC2    C4  383   1.465   0.685  11.403  0.6184  0.6679 -0.0909
   25TMC2    C5  384   1.482   0.761  11.525 -0.1731 -0.1834 -0.2690
   25TMC2    C6  385   1.598   0.827  11.554 -0.7130  0.7740 -0.2896
   25TMC2     C  386   1.557   0.621  11.189 -0.2250 -0.3231 -0.2596
   25TMC2     O  387   1.651   0.630  11.112  0.0721  0.1880  0.2908
   25TMC2     H  388   1.778   0.758  11.282  0.5601 -2.1751  0.1990
   25TMC2    H1  389   1.374   0.626  11.391  0.2571  1.2019  0.0062
   25TMC2    H2  390   1.605   0.873  11.652 -0.2387 -0.3410  0.1993
   25TMC2    C7  391   1.403   0.726  11.636 -0.8981 -0.2079  0.0937
   25TMC2    C8  392   1.808   0.913  11.472  0.2206 -0.0576 -0.1026
   25TMC2    O1  393   1.453   0.729  11.747 -0.3558 -0.0926  0.0860
   25TMC2    O2  394   1.884   0.948  11.381  0.2862  0.5183 -0.3384
   25TMC2    O5  395   1.828   0.937  11.600  0.4118 -0.2537 -0.6747
   25TMC2    H5  396   1.781   0.884  11.668  1.5579 -0.7899 -0.3009
   26MPD2     C  397   1.311   0.374  10.837  0.1123 -1.1527 -0.0223
   26MPD2    C1  398   1.215   0.416  10.929  0.2675 -0.1859  0.2442
   26MPD2    C2  399   1.256   0.495  11.031 -0.6181 -0.5042 -0.3242
   26MPD2    C3  400   1.393   0.518  11.043  0.7389 -0.5658 -0.1934
   26MPD2    C4  401   1.489   0.457  10.959 -0.6801  0.0652  0.3203
   26MPD2    C5  402   1.444   0.385  10.851  0.9895 -0.0463 -0.5621
   26MPD2     H  403   1.195   0.546  11.105 -0.7110  0.1968 -0.8731
   26MPD2    H1  404   1.595   0.472  10.974 -0.4465 -2.1002  0.7424
   26MPD2    H2  405   1.275   0.298  10.768  0.6056 -0.9149 -0.5398
   26MPD2    H3  406   1.511   0.322  10.794 -0.1194 -1.0834 -0.7025
   26MPD2     N  407   1.428   0.577  11.161 -0.3554 -0.2565 -0.4763
   26MPD2    H5  408   1.353   0.605  11.224 -0.5843 -0.1203 -0.8149
   26MPD2    N1  409   1.076   0.392  10.905 -0.4547  0.2681  0.7212
   26MPD2    H7  410   1.047   0.339  10.823 -1.7001  0.4767  1.0280
   27TMC2    C1  411   4.437   3.014  11.486 -0.9815  0.1521  0.4380
   27TMC2    C2  412   4.357   3.056  11.383 -0.1196 -0.5039  0.0912
   27TMC2    C3  413   4.346   3.192  11.376 -0.4605  0.4970  0.1137
   27TMC2    C4  414   4.506   3.090  11.568  0.1370 -0.8744  0.1410
   27TMC2    C5  415   4.493   3.228  11.556 -0.1694 -0.2451  1.2802
   27TMC2    C6  416   4.411   3.276  11.459 -0.4402  0.0655 -0.1319
   27TMC2     C  417   4.375   2.912  11.568  0.5123 -0.4534  0.1275
   27TMC2     O  418   4.361   2.799  11.518  0.3266  0.2934 -0.2744
   27TMC2     H  419   4.289   2.989  11.334  0.1410 -0.4297 -0.3713
   27TMC2    H1  420   4.570   3.044  11.642  2.1027  3.0401  0.8854
   27TMC2    H2  421   4.387   3.382  11.459  0.7780  0.3385 -2.4683
   27TMC2    C7  422   4.491   3.292  11.685 -0.5151  0.2811  0.3815
   27TMC2    C8  423   4.276   3.238  11.254 -0.8142  0.2757 -0.4238
   27TMC2    O1  424   4.462   3.209  11.768  0.4408  0.6977 -0.2283
   27TMC2    O2  425   4.160   3.278  11.250  0.1953  0.5937  0.0606
   27TMC2    O5  426   4.356   3.183  11.160  0.0810  0.2081  0.5104
   27TMC2    H5  427   4.449   3.183  11.190  0.8769 -0.6703 -2.0053
   28MPD2     C  428   4.209   2.741  12.018 -0.6910  0.3310  0.6554
   28MPD2    C1  429   4.210   2.879  12.021 -0.1210  0.5902  0.2009
   28MPD2    C2  430   4.246   2.947  11.907  0.3002 -0.0156  0.2125
   28MPD2    C3  431   4.284   2.880  11.791  0.0927  0.2004  0.7542
   28MPD2    C4  432   4.278   2.738  11.788 -0.0047  0.6347  0.3132
   28MPD2    C5  433   4.242   2.673  11.904 -0.4875  0.4975  0.2201
   28MPD2     H  434   4.259   3.055  11.904 -1.3839  0.1513 -1.1521
   28MPD2    H1  435   4.314   2.681  11.703  0.2118  1.6855 -0.2986
   28MPD2    H2  436   4.188   2.682  12.106 -0.7770 -0.6391 -0.0099
   28MPD2    H3  437   4.239   2.565  11.905  0.9579  0.4609  1.8367
   28MPD2     N  438   4.327   2.959  11.687 -0.7501 -0.2639  0.0909
   28MPD2    H5  439   4.344   3.059  11.696 -0.0149 -0.5084  1.4632
   28MPD2    N1  440   4.144   2.938  12.133 -0.4682  0.0068 -0.8402
   28MPD2    H7  441   4.107   2.875  12.204  1.3120 -0.9517 -0.7629
   29MPD2     C  442   4.212   0.744  13.890  0.1288 -0.0353  0.7563
   29MPD2    C1  443   4.158   0.727  14.012 -0.7834  0.0449  0.5745
   29MPD2    C2  444   4.068   0.817  14.066  0.9631  0.2733  0.2177
   29MPD2    C3  445   4.053   0.942  14.001  0.5549  0.7387 -0.4223
   29MPD2    C4  446   4.119   0.967  13.882  0.1634  0.0457  0.4060
   29MPD2    C5  447   4.190   0.869  13.827 -0.0364  0.6565 -0.3640
   29MPD2     H  448   4.035   0.803  14.168 -0.1852 -1.3457 -0.3660
   29MPD2    H1  449   4.092   1.063  13.841  0.2045 -0.4576 -0.8295
   29MPD2    H2  450   4.276   0.671  13.843  0.5255 -0.3989  1.8682
   29MPD2    H3  451   4.235   0.887  13.730 -2.6040  0.3864 -1.6015
   29MPD2     N  452   3.973   1.052  14.051 -0.2675  0.4521 -0.2465
   29MPD2    H5  453   3.971   1.144  14.007  0.3560  0.3513 -0.4795
   29MPD2    N1  454   4.185   0.609  14.093  0.4264  0.0550  0.0870
   29MPD2    H7  455   4.144   0.606  14.186  0.2042  0.3559 -0.0016
   30TCq2    C1  456   3.881   1.038  14.153  0.0490  0.1507  0.3943
   30TCq2    O2  457   3.836   0.930  14.198  0.6606 -0.4950  0.2543
   30TCq2    C2  458   3.816   1.168  14.173 -0.8705  0.1844  0.0152
   30TCq2    C3  459   3.684   1.163  14.202 -0.4510 -0.4816 -0.1870
   30TCq2    C4  460   3.621   1.283  14.217  0.6584 -0.2531 -0.2547
   30TCq2    C5  461   3.689   1.401  14.230 -0.6718 -0.2292 -0.0356
   30TCq2    C6  462   3.824   1.401  14.206  0.1267  0.1548  0.2660
   30TCq2    C7  463   3.886   1.286  14.170 -0.8854 -0.4545  0.2908
   30TCq2    C8  464   3.892   1.528  14.228 -0.1561  0.2796 -0.0957
   30TCq2    O4  465   3.826   1.630  14.220  0.8952 -0.1163 -0.5498
   30TCq2    C9  466   3.482   1.274  14.268  0.6010 -0.9912  0.1637
   30TCq2    O5  467   3.424   1.383  14.295  0.1227  0.0292  0.9372
   30TCq2    O6  468   3.445   1.160  14.299  0.0326 -0.3559  0.4436
   30TCq2    H2  469   3.632   1.068  14.208 -0.4397 -0.1051  5.9932
   30TCq2    H3  470   3.635   1.490  14.260 -2.1034 -0.3211 -2.3192
   30TCq2    H4  471   3.990   1.295  14.142 -1.2121 -0.6944 -0.9711
   31MPD2     C  472   2.197   4.270  15.045 -0.3403  0.0654  0.0339
   31MPD2    C1  473   2.086   4.349  15.040 -0.2308  0.1508 -0.0243
   31MPD2    C2  474   1.983   4.318  15.132  0.0684 -0.1963  0.0448
   31MPD2    C3  475   1.979   4.207  15.203 -0.7271  0.6540 -0.0981
   31MPD2    C4  476   2.090   4.122  15.200 -0.3521  0.2931 -0.0226
   31MPD2    C5  477   2.193   4.156  15.122  0.0304  0.5613  0.4739
   31MPD2     H  478   1.899   4.386  15.133  1.1248  1.0916  1.8516
   31MPD2    H1  479   2.089   4.035  15.265  3.9127 -0.2324 -0.6780
   31MPD2    H2  480   2.283   4.296  14.984  1.0775 -0.6067  1.7763
   31MPD2    H3  481   2.276   4.086  15.126  0.7533  1.3302 -0.8084
   31MPD2     N  482   1.867   4.169  15.290  0.1523 -0.2723  0.1180
   31MPD2    H5  483   1.881   4.084  15.345 -2.3568 -0.2909  0.7175
   31MPD2    N1  484   2.087   4.458  14.951  0.5829 -0.5562 -0.0095
   31MPD2    H7  485   2.175   4.474  14.903  1.6254 -1.3544  1.6084
   32TCq2    C1  486   1.749   4.233  15.298 -0.5662 -0.1000  0.1481
   32TCq2    O2  487   1.701   4.319  15.228 -0.1563 -0.1505  0.5684
   32TCq2    C2  488   1.665   4.192  15.410  0.2422 -0.1288  0.5961
   32TCq2    C3  489   1.533   4.239  15.410 -0.0957  0.2514 -0.4808
   32TCq2    C4  490   1.459   4.237  15.524 -0.3256 -0.5303 -0.3412
   32TCq2    C5  491   1.515   4.189  15.637 -0.4559 -0.4283  0.0350
   32TCq2    C6  492   1.642   4.140  15.636 -0.9058 -0.8605  0.1185
   32TCq2    C7  493   1.723   4.156  15.534  0.5582 -0.2092  0.1517
   32TCq2    C8  494   1.703   4.093  15.756 -0.1146  0.1811 -0.7048
   32TCq2    O4  495   1.796   4.013  15.741 -0.6565 -0.3686 -0.3153
   32TCq2    C9  496   1.323   4.287  15.528  0.2784 -0.5056  0.0450
   32TCq2    O5  497   1.264   4.264  15.636  0.1039 -0.4753 -0.5421
   32TCq2    O6  498   1.274   4.349  15.429  0.2858  0.2109 -0.4850
   32TCq2    H2  499   1.495   4.287  15.321  0.8738  1.1190 -0.4314
   32TCq2    H3  500   1.455   4.182  15.728  0.3169 -0.8799  0.5081
   32TCq2    H4  501   1.828   4.131  15.535  0.4826 -0.4816  1.1403
   33MPD2     C  502   2.242   2.132  10.567  0.5998 -0.3750  0.1259
   33MPD2    C1  503   2.280   2.103  10.434 -0.1217 -0.2199  0.0239
   33MPD2    C2  504   2.204   2.153  10.328 -0.1857  0.1851  0.4732
   33MPD2    C3  505   2.089   2.233  10.356 -0.2788 -0.2198 -0.8629
   33MPD2    C4  506   2.047   2.236  10.487  0.5191  0.4015 -0.2726
   33MPD2    C5  507   2.126   2.193  10.596  0.3091  0.1668  0.4273
   33MPD2     H  508   2.237   2.148  10.225  0.1029  0.3853  0.5540
   33MPD2    H1  509   1.962   2.297  10.515 -0.5760 -0.5502 -1.5013
   33MPD2    H2  510   2.305   2.103  10.650  0.4630 -1.6346 -0.2142
   33MPD2    H3  511   2.100   2.208  10.700 -0.2363 -2.9228  0.7277
   33MPD2     N  512   2.015   2.300  10.257 -0.1626 -0.2581  0.7328
   33MPD2    H5  513   1.921   2.325  10.286 -0.1908  0.6841 -0.1593
   33MPD2    N1  514   2.397   2.031  10.413 -0.0458 -0.4803  0.1535
   33MPD2    H7  515   2.439   1.975  10.487 -0.6297  0.5831  1.2912
   34TCq2    C1  516   2.050   2.327  10.130  0.1294 -1.1382  0.6230
   34TCq2    O2  517   2.165   2.329  10.090 -0.6190 -0.9398 -0.3463
   34TCq2    C2  518   1.946   2.398  10.056  0.1309  0.3319  0.4562
   34TCq2    C3  519   1.820   2.391  10.101  0.2070 -0.6354  0.0652
   34TCq2    C4  520   1.724   2.459  10.042 -0.4599 -0.0583 -0.3549
   34TCq2    C5  521   1.751   2.536   9.936  0.4313 -0.3915  0.0954
   34TCq2    C6  522   1.877   2.538   9.881 -0.1986  0.2103  0.0312
   34TCq2    C7  523   1.978   2.464   9.940 -0.4371 -0.3726 -0.4325
   34TCq2    C8  524   1.911   2.629   9.775 -0.2383 -0.1284 -0.0862
   34TCq2    O4  525   2.024   2.674   9.780  0.1439  0.4487 -0.0934
   34TCq2    C9  526   1.595   2.462  10.097  0.0097  0.6095 -0.4900
   34TCq2    O5  527   1.581   2.392  10.203  0.0608 -0.0172  0.5560
   34TCq2    O6  528   1.506   2.512  10.022  0.7739 -0.4935 -0.3506
   34TCq2    H2  529   1.805   2.315  10.177 -0.8527 -0.3785  0.1057
   34TCq2    H3  530   1.667   2.590   9.893  1.3120 -0.4214 -1.6856
   34TCq2    H4  531   2.074   2.466   9.890  0.2388  1.5364  0.9391
   35MPD2     C  532   3.587   3.851  11.665 -0.5807  0.8986 -0.0622
   35MPD2    C1  533   3.575   3.716  11.655 -0.6824  0.4003  0.4395
   35MPD2    C2  534   3.522   3.670  11.533 -0.0033 -0.3070 -0.0269
   35MPD2    C3  535   3.473   3.756  11.440  0.4859  0.1782 -0.2663
   35MPD2    C4  536   3.496   3.894  11.455 -0.9985  0.0453  0.4380
   35MPD2    C5  537   3.560   3.939  11.567 -0.3386  0.3858  0.4057
   35MPD2     H  538   3.514   3.565  11.509 -1.6158  0.1295 -1.4030
   35MPD2    H1  539   3.471   3.973  11.385  1.7263  0.0865 -0.5180
   35MPD2    H2  540   3.627   3.894  11.757 -0.9530  2.3757 -0.6037
   35MPD2    H3  541   3.576   4.045  11.581 -0.3021  0.5206 -0.6060
   35MPD2     N  542   3.400   3.708  11.332 -0.6922  0.1296  0.5853
   35MPD2    H5  543   3.376   3.771  11.257 -0.4252 -0.5015 -0.0281
   35MPD2    N1  544   3.612   3.626  11.765 -0.5766  0.0794 -0.1665
   35MPD2    H7  545   3.657   3.657  11.850 -1.6345  0.0022  0.4167
   36TCq2    C1  546   3.335   3.586  11.329 -0.4692 -0.5602 -0.1252
   36TCq2    O2  547   3.314   3.500  11.414  0.7387 -1.0919  0.3922
   36TCq2    C2  548   3.245   3.582  11.217 -0.2684  0.5777 -0.1098
   36TCq2    C3  549   3.258   3.666  11.108 -0.4639  0.1948  1.0210
   36TCq2    C4  550   3.190   3.640  10.998 -0.2112 -0.0354 -0.3332
   36TCq2    C5  551   3.112   3.540  10.982  0.0820  0.5051 -0.1801
   36TCq2    C6  552   3.092   3.457  11.088 -0.1677  0.3614  0.5543
   36TCq2    C7  553   3.161   3.476  11.209  0.4584  0.0116  0.0976
   36TCq2    C8  554   3.027   3.328  11.068  0.3307 -0.1986 -0.0260
   36TCq2    O4  555   3.049   3.235  11.143 -0.3742  0.0619 -0.4030
   36TCq2    C9  556   3.198   3.730  10.886  0.4949 -0.0781 -0.0401
   36TCq2    O5  557   3.299   3.798  10.881 -0.4722 -0.3120  0.2804
   36TCq2    O6  558   3.090   3.763  10.828 -0.4590  0.3969 -0.2759
   36TCq2    H2  559   3.330   3.745  11.093 -1.2765  0.7977  0.3395
   36TCq2    H3  560   3.057   3.543  10.889  1.2215 -2.0062 -0.9184
   36TCq2    H4  561   3.145   3.404  11.289  1.0244  1.3698  1.4491
   37TMC2    C1  562   0.747   3.189  11.872 -1.0421 -0.3232 -0.2704
   37TMC2    C2  563   0.739   3.199  11.740  0.0527 -0.0413 -0.0755
   37TMC2    C3  564   0.836   3.250  11.663 -0.5124 -0.0885  0.2173
   37TMC2    C4  565   0.849   3.256  11.936  0.7862  0.0293  0.3673
   37TMC2    C5  566   0.942   3.311  11.852 -1.0489 -0.3731  0.8074
   37TMC2    C6  567   0.948   3.303  11.718 -0.3123  0.3534 -0.3763
   37TMC2     C  568   0.624   3.144  11.939 -0.0589 -0.3136 -0.4642
   37TMC2     O  569   0.521   3.125  11.882  1.1426  0.3274  0.0068
   37TMC2     H  570   0.652   3.156  11.692  1.3616  0.2292 -2.7275
   37TMC2    H1  571   0.840   3.269  12.043  0.1841 -0.8341  0.4208
   37TMC2    H2  572   1.012   3.362  11.654  3.6941 -1.0974  2.3063
   37TMC2    C7  573   1.066   3.360  11.925 -0.8589 -0.1087 -0.0805
   37TMC2    C8  574   0.801   3.278  11.523  1.0143 -0.6871 -0.6432
   37TMC2    O1  575   1.061   3.328  12.041  0.7245 -0.6543 -0.4401
   37TMC2    O2  576   0.691   3.314  11.475 -0.6418 -0.7435 -0.2377
   37TMC2    O5  577   0.923   3.268  11.465  0.4328  0.0124 -0.3645
   37TMC2    H5  578   0.997   3.226  11.513 -0.0024 -0.4761 -0.1100
   38MPD2     C  579   0.397   2.993  12.389  0.0674  0.0568 -0.0981
   38MPD2    C1  580   0.530   2.995  12.408  0.0008  0.4076 -0.4419
   38MPD2    C2  581   0.611   3.039  12.307 -0.2930 -0.6527  0.2426
   38MPD2    C3  582   0.561   3.078  12.178  0.3553 -0.3860 -0.4425
   38MPD2    C4  583   0.428   3.080  12.156 -0.1001  0.1200  0.5527
   38MPD2    C5  584   0.349   3.041  12.264 -0.4294 -0.0541 -0.2115
   38MPD2     H  585   0.717   3.045  12.329  0.0180 -0.8251 -1.2202
   38MPD2    H1  586   0.375   3.115  12.068  1.0775 -0.6524 -0.4771
   38MPD2    H2  587   0.333   2.957  12.468  0.9813 -2.5546 -0.5319
   38MPD2    H3  588   0.241   3.040  12.255 -0.4136  0.7734 -0.5466
   38MPD2     N  589   0.651   3.115  12.077  0.0065 -0.5975 -0.1115
   38MPD2    H5  590   0.750   3.130  12.096 -0.0325 -1.6792  0.9254
   38MPD2    N1  591   0.595   2.974  12.530 -0.2344 -0.5384  0.3892
   38MPD2    H7  592   0.695   2.989  12.536 -0.6109  1.2610  1.8671
   39MPD2     C  593   3.930   0.626   1.692 -0.0868 -0.6325  0.0295
   39MPD2    C1  594   3.895   0.727   1.775  0.1926  0.6498  0.1068
   39MPD2    C2  595   3.768   0.733   1.819 -0.0614  0.0113 -0.2890
   39MPD2    C3  596   3.679   0.632   1.787  0.2130  0.0721  0.2204
   39MPD2    C4  597   3.713   0.533   1.706  0.6787  0.0507  0.7241
   39MPD2    C5  598   3.838   0.532   1.657 -0.2519 -0.1511 -0.3913
   39MPD2     H  599   3.729   0.821   1.869  0.1580 -1.3768  2.3542
   39MPD2    H1  600   3.646   0.448   1.692  2.0141 -0.6915 -1.1076
   39MPD2    H2  601   4.033   0.605   1.667  0.2231  0.5991  0.2670
   39MPD2    H3  602   3.877   0.449   1.600  0.7136 -1.3942  2.1048
   39MPD2     N  603   3.541   0.644   1.803  0.5309 -0.4050 -0.3273
   39MPD2    H5  604   3.486   0.576   1.752 -1.7223  1.7252 -0.7032
   39MPD2    N1  605   3.996   0.819   1.817  0.2176  1.1049 -0.4426
   39MPD2    H7  606   4.089   0.816   1.776  0.5575  0.4215  0.3675
   40TCq2    C1  607   3.978   0.916   1.915 -0.2729 -0.3085 -0.3505
   40TCq2    O2  608   3.879   0.949   1.988  0.2494  0.2716  0.0094
   40TCq2    C2  609   4.106   0.962   1.965 -0.7873 -0.5984  0.2086
   40TCq2    C3  610   4.113   1.003   2.099 -0.0637 -0.1069  0.4871
   40TCq2    C4  611   4.231   1.017   2.162  0.3243 -0.2413  0.0155
   40TCq2    C5  612   4.343   0.988   2.098 -0.0504  0.6128  0.3425
   40TCq2    C6  613   4.342   0.964   1.967 -0.3662  0.0401  0.1389
   40TCq2    C7  614   4.222   0.941   1.901 -0.9594  0.6570 -0.4179
   40TCq2    C8  615   4.460   0.916   1.889  0.8165 -1.1147  0.3265
   40TCq2    O4  616   4.445   0.871   1.775  0.4093 -0.0273  0.6530
   40TCq2    C9  617   4.232   1.055   2.307  0.1596 -0.7749  0.4963
   40TCq2    O5  618   4.333   1.118   2.356 -0.0889 -0.0155 -0.7063
   40TCq2    O6  619   4.119   1.070   2.366 -0.0702 -0.0175 -0.2312
   40TCq2    H2  620   4.021   1.030   2.149  0.9619  2.7387  0.8421
   40TCq2    H3  621   4.432   0.991   2.159  1.6031  1.9084 -2.1285
   40TCq2    H4  622   4.226   0.939   1.793  1.4265 -2.4103 -0.2554
   41TMC2    C1  623   2.876   3.523  13.170 -0.2760  0.0290 -0.6651
   41TMC2    C2  624   2.936   3.643  13.136  0.4134 -0.8999  0.2110
   41TMC2    C3  625   2.898   3.699  13.015 -0.4255 -0.2344  0.3022
   41TMC2    C4  626   2.773   3.477  13.091 -0.5358  0.9992  0.0784
   41TMC2    C5  627   2.737   3.539  12.976  0.0773 -0.0215 -0.4145
   41TMC2    C6  628   2.791   3.656  12.936  0.5837 -0.1903 -0.8396
   41TMC2     C  629   2.937   3.422  13.256 -0.0834 -0.3423  0.9072
   41TMC2     O  630   2.904   3.303  13.244 -0.0420 -0.4946 -0.5751
   41TMC2     H  631   3.021   3.683  13.190  1.1571 -0.7804 -1.0436
   41TMC2    H1  632   2.722   3.383  13.106  0.7806  0.3164  0.2266
   41TMC2    H2  633   2.771   3.700  12.838  1.0908 -3.4866 -2.4379
   41TMC2    C7  634   2.608   3.481  12.927 -0.1943 -0.1050  0.4400
   41TMC2    C8  635   2.963   3.828  12.982 -0.5839 -0.3793  0.1089
   41TMC2    O1  636   2.525   3.433  13.003 -0.2178  0.2378  0.3189
   41TMC2    O2  637   3.073   3.844  13.032 -0.1504 -0.8733  0.3012
   41TMC2    O5  638   2.862   3.916  12.986 -0.1666  0.6135  0.3983
   41TMC2    H5  639   2.774   3.879  12.962 -1.1196  1.3972  2.6570
   42MPD2     C  640   3.105   3.263  13.439 -0.2747  0.3389  0.2186
   42MPD2    C1  641   3.087   3.401  13.449  0.5044 -0.3253  0.0251
   42MPD2    C2  642   3.133   3.465  13.555 -0.3301 -0.0228  0.1741
   42MPD2    C3  643   3.206   3.398  13.661  0.1386 -0.7703 -0.0280
   42MPD2    C4  644   3.219   3.264  13.652 -0.4293 -0.2063 -0.6554
   42MPD2    C5  645   3.166   3.198  13.541  0.3241  0.6581 -0.9768
   42MPD2     H  646   3.119   3.572  13.552  0.4500  0.1508  2.6152
   42MPD2    H1  647   3.275   3.207  13.726 -1.0936 -1.4287 -1.1052
   42MPD2    H2  648   3.073   3.213  13.349  1.3450 -0.6066  0.1661
   42MPD2    H3  649   3.192   3.093  13.540  1.5847  0.9632 -1.2460
   42MPD2     N  650   3.258   3.461  13.777  0.0366 -0.2530  0.6736
   42MPD2    H5  651   3.312   3.400  13.839  1.1886  0.9671  0.8763
   42MPD2    N1  652   3.017   3.472  13.352 -0.0307  0.2085 -0.8040
   42MPD2    H7  653   3.012   3.573  13.362  0.1006  0.2917 -1.5649
   43MPD2     C  654   4.288   1.893   0.659 -0.0374  0.3323  0.2967
   43MPD2    C1  655   4.361   1.837   0.764 -0.1108 -0.6966  0.3589
   43MPD2    C2  656   4.290   1.792   0.871 -0.7490 -0.5062  0.5831
   43MPD2    C3  657   4.148   1.797   0.884 -0.2855 -0.2931  0.3376
   43MPD2    C4  658   4.076   1.849   0.780  0.5675  1.3012 -0.6386
   43MPD2    C5  659   4.149   1.901   0.666 -0.1707  0.1143 -0.5953
   43MPD2     H  660   4.352   1.746   0.947  0.6993  2.0175  0.9279
   43MPD2    H1  661   3.970   1.867   0.788  0.6409  1.0014  1.1189
   43MPD2    H2  662   4.338   1.940   0.575 -0.0480 -1.8305 -0.9279
   43MPD2    H3  663   4.104   1.943   0.577  0.1537  1.1837 -0.2563
   43MPD2     N  664   4.081   1.740   0.995 -0.0101 -0.4628  0.4638
   43MPD2    H5  665   3.980   1.746   0.990 -0.0845 -1.4180  0.9432
   43MPD2    N1  666   4.503   1.813   0.756  0.2113  0.0113  0.0842
   43MPD2    H7  667   4.542   1.755   0.829 -0.0435 -0.8014 -0.4165
   44TCq2    C1  668   4.120   1.645   1.581  0.0897  0.3137  0.4697
   44TCq2    O2  669   4.237   1.661   1.566  0.3644  0.7677 -0.2401
   44TCq2    C2  670   4.038   1.653   1.459  0.2207  0.6389 -0.2428
   44TCq2    C3  671   3.909   1.696   1.452 -0.2553 -0.6988  0.6889
   44TCq2    C4  672   3.848   1.714   1.331 -0.1397 -1.0759 -0.1354
   44TCq2    C5  673   3.921   1.713   1.217 -0.3165 -0.0207 -0.9761
   44TCq2    C6  674   4.052   1.673   1.223 -0.1242  0.0218  0.6971
   44TCq2    C7  675   4.108   1.636   1.342 -0.2727  0.5665  0.0145
   44TCq2    C8  676   4.139   1.676   1.101  0.7475  0.0980 -0.4197
   44TCq2    O4  677   4.261   1.664   1.127  0.4429 -0.0033  0.9121
   44TCq2    C9  678   3.706   1.745   1.318 -0.5253 -0.0366  0.0330
   44TCq2    O5  679   3.655   1.760   1.203  0.3117 -0.0907 -0.0954
   44TCq2    O6  680   3.641   1.772   1.427  0.0660 -0.0216 -0.0532
   44TCq2    H2  681   3.857   1.680   1.546  0.0059 -2.0389  0.6026
   44TCq2    H3  682   3.874   1.733   1.122  2.5774 -0.9327 -2.6063
   44TCq2    H4  683   4.216   1.622   1.349 -0.3033 -0.3052 -1.3271
   45TMC2    C1  684   4.601   3.832   9.108  0.2599  0.4259 -0.0437
   45TMC2    C2  685   0.016   3.827   9.088  0.3660  0.4934  0.0308
   45TMC2    C3  686   0.086   3.951   9.105  0.1962  0.4263 -0.4432
   45TMC2    C4  687   4.536   3.947   9.139 -0.2087 -0.8454  0.3774
   45TMC2    C5  688   4.608   4.063   9.168 -0.1776 -0.3396 -0.6528
   45TMC2    C6  689   0.023   4.072   9.157  0.1735  0.6836 -0.4065
   45TMC2     C  690   4.533   3.706   9.095 -0.2411 -0.8496 -0.2627
   45TMC2     O  691   4.611   3.611   9.088 -0.2343  0.3899 -0.3968
   45TMC2     H  692   0.066   3.737   9.054  1.8742  0.7774  1.5228
   45TMC2    H1  693   4.431   3.953   9.165 -0.4614  1.9929 -1.2908
   45TMC2    H2  694   0.072   4.167   9.176  0.4029  0.7538 -1.3601
   45TMC2    C7  695   4.532   4.171   9.222  0.9413 -0.2445 -0.3232
   45TMC2    C8  696   0.233   3.963   9.098  0.0533 -0.0407 -0.5190
   45TMC2    O1  697   4.423   4.189   9.181  0.1621 -0.0427  0.2513
   45TMC2    O2  698   0.298   4.029   9.179 -0.8771 -0.2638 -0.0999
   45TMC2    O5  699   0.274   3.914   8.981  0.5076 -0.9118  0.3017
   45TMC2    H5  700   0.193   3.888   8.932  0.0888 -1.2583  1.1721
   46MPD2     C  701   4.369   3.456   9.104 -0.3315 -0.0560  0.5306
   46MPD2    C1  702   4.315   3.586   9.096 -0.4630  0.4720  0.0890
   46MPD2    C2  703   4.176   3.604   9.090  0.5469 -0.2357  0.4584
   46MPD2    C3  704   4.089   3.496   9.094 -0.1801  0.3165 -0.2433
   46MPD2    C4  705   4.139   3.366   9.100  0.6619 -0.3569 -0.1670
   46MPD2    C5  706   4.280   3.351   9.102 -0.3351 -0.4588 -0.1908
   46MPD2     H  707   4.148   3.708   9.073 -1.9676 -1.1416 -0.9435
   46MPD2    H1  708   4.078   3.276   9.109 -0.3217  0.2482 -0.7596
   46MPD2    H2  709   4.474   3.431   9.114 -1.1020 -3.3851  0.3218
   46MPD2    H3  710   4.329   3.256   9.122 -1.0052 -0.4310  1.5837
   46MPD2     N  711   3.957   3.526   9.100 -0.7693  0.4273 -0.6611
   46MPD2    H5  712   3.930   3.624   9.094 -0.8552  0.4809  0.6605
   46MPD2    N1  713   4.397   3.704   9.076  0.1688 -0.0183 -0.0459
   46MPD2    H7  714   4.348   3.793   9.082 -2.3159 -1.3382 -0.7552
   47TMC2    C1  715   2.130   0.117   9.116 -0.2198  0.6985 -0.0247
   47TMC2    C2  716   2.138   0.042   9.000 -0.4365  0.2638 -0.3136
   47TMC2    C3  717   2.035   0.050   8.917 -0.2282  0.5136  0.2758
   47TMC2    C4  718   2.043   0.220   9.129 -0.0202 -0.3822  0.9970
   47TMC2    C5  719   1.934   0.216   9.051  0.1831 -0.7181  0.9030
   47TMC2    C6  720   1.931   0.131   8.942 -0.3959  0.2893 -1.1615
   47TMC2     C  721   2.244   0.120   9.205 -0.0429 -0.2321 -0.5240
   47TMC2     O  722   2.269   0.219   9.273  0.1234  0.7374  0.7684
   47TMC2     H  723   2.204   4.681   8.994 -1.3747 -0.4212 -0.6332
   47TMC2    H1  724   2.034   0.276   9.222  0.8621 -2.1606  2.1617
   47TMC2    H2  725   1.848   0.138   8.873 -1.2017 -2.2850 -0.4556
   47TMC2    C7  726   1.811   0.250   9.127  0.2355 -0.4791 -0.4746
   47TMC2    C8  727   2.047   4.712   8.785 -0.3077  0.2409  1.0145
   47TMC2    O1  728   1.804   0.358   9.179 -0.0572 -0.6566 -0.0813
   47TMC2    O2  729   1.960   4.711   8.700  0.1267 -0.3144  0.2464
   47TMC2    O5  730   2.174   4.688   8.748 -0.2841 -0.3963  0.1651
   47TMC2    H5  731   2.247   0.002   8.800 -0.3368  0.6639 -0.5707
   48MPD2     C  732   2.505   0.064   9.301 -0.0902  0.2177  0.3019
   48MPD2    C1  733   2.416   4.690   9.278 -0.9115 -0.4687  0.2986
   48MPD2    C2  734   2.450   4.557   9.311  0.2291 -0.6119  0.0716
   48MPD2    C3  735   2.575   4.514   9.355 -0.4765 -0.8065  0.4657
   48MPD2    C4  736   2.664   4.617   9.381 -0.0586 -0.5362 -1.0755
   48MPD2    C5  737   2.625   0.021   9.351  0.4809  0.3390  0.0859
   48MPD2     H  738   2.377   4.478   9.297 -1.2882  1.0173 -1.2941
   48MPD2    H1  739   2.769   4.600   9.404 -1.3188 -4.3909  1.8520
   48MPD2    H2  740   2.489   0.168   9.275 -2.6358 -0.4814 -0.9455
   48MPD2    H3  741   2.696   0.103   9.360  0.7820  0.2615 -1.6792
   48MPD2     N  742   2.595   4.375   9.376 -0.4776 -0.2566  0.1585
   48MPD2    H5  743   2.520   4.318   9.338  0.7314 -0.8216 -1.4129
   48MPD2    N1  744   2.293   4.719   9.221 -0.0283 -0.6043  0.0383
   48MPD2    H7  745   2.235   4.642   9.190  2.2153 -2.1906 -0.1837
   49MPD2     C  746   1.228   1.721   9.954 -0.3200 -0.4217  0.0753
   49MPD2    C1  747   1.121   1.661  10.018 -0.2199 -0.3164  0.1238
   49MPD2    C2  748   1.099   1.690  10.148 -0.1539  0.4847 -0.1003
   49MPD2    C3  749   1.170   1.787  10.214  0.3214 -0.0408  0.0589
   49MPD2    C4  750   1.266   1.853  10.143 -0.8786  0.2281  0.9667
   49MPD2    C5  751   1.299   1.813  10.017 -0.0536  0.6562 -0.3267
   49MPD2     H  752   1.002   1.668  10.193  0.3159  0.3774  0.8558
   49MPD2    H1  753   1.321   1.930  10.196 -0.8790  1.1848 -0.4351
   49MPD2    H2  754   1.252   1.700   9.850 -1.5882  1.6570 -0.6530
   49MPD2    H3  755   1.381   1.857   9.961  1.5218 -2.2971 -0.3719
   49MPD2     N  756   1.142   1.829  10.344  0.5845 -0.1625  0.7945
   49MPD2    H5  757   1.198   1.909  10.372  0.7283  0.3758 -0.9764
   49MPD2    N1  758   1.040   1.565   9.951  0.3367 -0.0958  0.3085
   49MPD2    H7  759   0.973   1.516  10.009 -0.6709  1.7329  0.6979
   50TCq2    C1  760   1.039   1.548   9.809 -0.1183 -0.6570  0.4924
   50TCq2    O2  761   1.092   1.610   9.721 -0.0459 -0.2827 -0.5811
   50TCq2    C2  762   0.946   1.444   9.769 -0.1284  0.0707  0.2896
   50TCq2    C3  763   0.941   1.429   9.630 -0.3273  0.5977  0.2213
   50TCq2    C4  764   0.865   1.321   9.583  0.2097 -0.2798 -0.2160
   50TCq2    C5  765   0.822   1.219   9.669  0.2535 -0.4112  0.3808
   50TCq2    C6  766   0.821   1.242   9.801 -0.4199  0.2630 -0.7760
   50TCq2    C7  767   0.888   1.356   9.852 -1.3002 -0.0321 -1.4190
   50TCq2    C8  768   0.748   1.147   9.879  0.2948  0.0139  0.0832
   50TCq2    O4  769   0.675   1.070   9.818 -0.2811  0.2786 -0.1729
   50TCq2    C9  770   0.852   1.296   9.443  0.0541  0.4392 -0.2355
   50TCq2    O5  771   0.913   1.372   9.364  0.1766 -0.1930 -0.4162
   50TCq2    O6  772   0.796   1.184   9.409  0.0823  0.0157 -0.4994
   50TCq2    H2  773   0.983   1.491   9.553  3.6219  1.1490  2.8474
   50TCq2    H3  774   0.762   1.141   9.624  2.6585 -0.8811 -2.0107
   50TCq2    H4  775   0.895   1.367   9.960 -2.0664  0.0565 -1.3836
   51MPD2     C  776   1.333   0.392   1.100 -0.5839 -0.2452  0.4577
   51MPD2    C1  777   1.329   0.263   1.146 -0.2238  0.4259  0.9104
   51MPD2    C2  778   1.306   0.235   1.281 -0.0396  0.2765  0.1575
   51MPD2    C3  779   1.296   0.343   1.372  0.4861  0.1640  0.2696
   51MPD2    C4  780   1.303   0.469   1.322 -0.0375 -0.8738 -0.1288
   51MPD2    C5  781   1.324   0.491   1.187 -0.8294  0.5387 -0.3465
   51MPD2     H  782   1.287   0.132   1.309  0.4478  0.3900  0.9004
   51MPD2    H1  783   1.297   0.555   1.388  1.3581 -1.5985  0.9434
   51MPD2    H2  784   1.334   0.422   0.996 -0.7213 -0.0824  0.5041
   51MPD2    H3  785   1.332   0.595   1.157 -2.3432  0.3749 -1.3280
   51MPD2     N  786   1.252   0.321   1.506 -0.0006 -0.5167  0.3154
   51MPD2    H5  787   1.230   0.397   1.570 -2.3935 -1.9720  1.2236
   51MPD2    N1  788   1.340   0.153   1.064  0.0221  0.1484  1.2953
   51MPD2    H7  789   1.328   0.062   1.107  0.7915 -0.2819  0.5849
   52TCq2    C1  790   1.262   0.201   1.565 -0.4865 -0.4416 -0.9247
   52TCq2    O2  791   1.340   0.112   1.535 -0.6099 -0.1019  0.1074
   52TCq2    C2  792   1.216   0.199   1.707 -0.1619 -0.3284 -0.6354
   52TCq2    C3  793   1.272   0.101   1.781  0.4015  0.1924  0.4507
   52TCq2    C4  794   1.260   0.105   1.915  0.1207  0.1577 -0.0706
   52TCq2    C5  795   1.180   0.201   1.973  0.5074 -0.0591  0.0436
   52TCq2    C6  796   1.121   0.300   1.891 -0.1560  0.0475 -0.7741
   52TCq2    C7  797   1.147   0.303   1.759  0.6104 -0.1303 -0.6132
   52TCq2    C8  798   1.082   0.430   1.954  0.1618 -0.3846 -0.2940
   52TCq2    O4  799   1.125   0.446   2.067 -0.2131  0.3732  0.3239
   52TCq2    C9  800   1.320   0.004   1.996 -0.6057 -0.3442 -0.6651
   52TCq2    O5  801   1.275   4.715   2.115  0.2792 -0.5676 -0.9110
   52TCq2    O6  802   1.403   4.650   1.938 -0.0589 -1.0964 -0.5587
   52TCq2    H2  803   1.328   0.018   1.739 -0.7697 -0.4127  0.0850
   52TCq2    H3  804   1.174   0.200   2.081 -1.3464 -0.2928 -0.0679
   52TCq2    H4  805   1.111   0.388   1.701  1.4822 -1.2537 -2.7992
   53TMC2    C1  806   1.683   3.345  12.319  0.8278 -0.0258  0.1836
   53TMC2    C2  807   1.778   3.395  12.403  0.2861 -1.1541  0.6189
   53TMC2    C3  808   1.761   3.393  12.532  0.2589  0.5209 -0.2412
   53TMC2    C4  809   1.568   3.283  12.370 -0.4250  0.3044  0.0514
   53TMC2    C5  810   1.551   3.286  12.504  0.3492  0.7257 -0.0664
   53TMC2    C6  811   1.646   3.346  12.587  0.5563 -0.8443  0.2392
   53TMC2     C  812   1.652   3.439  12.216  0.4535 -0.6702  0.1917
   53TMC2     O  813   1.745   3.504  12.164 -0.7673 -0.0094 -0.3438
   53TMC2     H  814   1.870   3.443  12.371  0.9118 -0.0588  4.0459
   53TMC2    H1  815   1.498   3.226  12.309 -1.2394 -1.3102  2.4965
   53TMC2    H2  816   1.644   3.360  12.694  1.2271 -5.5541  0.8344
   53TMC2    C7  817   1.409   3.297  12.531  0.5469 -0.2929  0.3750
   53TMC2    C8  818   1.869   3.411  12.615  0.4205 -0.2062  0.3618
   53TMC2    O1  819   1.354   3.341  12.433  0.2716 -0.6812  0.2247
   53TMC2    O2  820   1.963   3.476  12.575 -0.4674 -0.0847  0.4114
   53TMC2    O5  821   1.875   3.310  12.705 -0.1056 -0.4610 -0.5660
   53TMC2    H5  822   1.801   3.247  12.690 -0.8813  0.3753 -0.2512
   54MPD2     C  823   1.513   3.596  12.018  0.4238 -0.6351 -0.3641
   54MPD2    C1  824   1.451   3.495  12.080 -0.2840  0.1803 -0.0533
   54MPD2    C2  825   1.332   3.444  12.028 -0.0491 -0.8398 -0.4461
   54MPD2    C3  826   1.267   3.499  11.917  0.7569 -0.0735  0.5711
   54MPD2    C4  827   1.326   3.608  11.855 -0.9204 -0.4849  0.1233
   54MPD2    C5  828   1.447   3.654  11.908  0.4140  0.1830 -0.0048
   54MPD2     H  829   1.287   3.357  12.075  0.9468 -1.2258 -0.1959
   54MPD2    H1  830   1.291   3.661  11.767  0.2542 -2.0990 -1.3179
   54MPD2    H2  831   1.612   3.629  12.048 -0.5930  1.4233  0.7698
   54MPD2    H3  832   1.495   3.735  11.857  1.2347 -1.3491 -1.6635
   54MPD2     N  833   1.149   3.448  11.855  0.4370 -0.1941  0.0881
   54MPD2    H5  834   1.123   3.474  11.760 -2.0488 -1.5219  0.3903
   54MPD2    N1  835   1.517   3.433  12.181 -0.6843 -0.2562  0.4254
   54MPD2    H7  836   1.452   3.375  12.235  1.1406 -1.7122  1.0579
   55MPD2     C  837   2.535   1.238   0.659  0.5489  0.5321  0.6509
   55MPD2    C1  838   2.446   1.139   0.644  0.1741  0.4099  0.2194
   55MPD2    C2  839   2.312   1.155   0.690  0.2329 -0.1849  0.2430
   55MPD2    C3  840   2.282   1.273   0.751 -0.1371  0.7770  0.1096
   55MPD2    C4  841   2.374   1.373   0.766 -0.1414  0.2757  0.5759
   55MPD2    C5  842   2.505   1.364   0.712 -0.3073  0.1394  0.2509
   55MPD2     H  843   2.236   1.077   0.693 -0.8258  0.8334  0.0818
   55MPD2    H1  844   2.345   1.464   0.816 -4.6691 -1.8550  1.8340
   55MPD2    H2  845   2.635   1.219   0.621  0.4283  2.7584 -0.7915
   55MPD2    H3  846   2.576   1.445   0.719  0.6582 -0.8320  1.5951
   55MPD2     N  847   2.151   1.280   0.802  0.0287  0.1109 -0.4987
   55MPD2    H5  848   2.093   1.197   0.809  0.1240 -0.0504 -1.5479
   55MPD2    N1  849   2.490   1.014   0.589 -0.5460  0.2459  0.5376
   55MPD2    H7  850   2.589   1.004   0.573 -0.5895 -3.0715  2.4781
   56TCq2    C1  851   2.407   0.919   0.534 -0.3241  0.1308 -0.2096
   56TCq2    O2  852   2.288   0.913   0.514  0.3273 -0.3903 -0.1854
   56TCq2    C2  853   2.484   0.813   0.473 -0.1741  0.9785  0.3868
   56TCq2    C3  854   2.620   0.820   0.451 -0.1318 -0.7329  0.7057
   56TCq2    C4  855   2.688   0.710   0.392 -0.3123 -0.1906  0.3647
   56TCq2    C5  856   2.626   0.600   0.347  0.0130  0.6632 -0.2576
   56TCq2    C6  857   2.494   0.590   0.382  0.0122 -0.5157 -0.5364
   56TCq2    C7  858   2.422   0.698   0.435  0.2927 -0.0003 -0.0030
   56TCq2    C8  859   2.430   0.457   0.361  1.1428 -0.1547 -0.0413
   56TCq2    O4  860   2.477   0.378   0.282 -0.8989 -0.2294 -0.8438
   56TCq2    C9  861   2.831   0.707   0.383  0.0088  0.2169 -0.0413
   56TCq2    O5  862   2.891   0.815   0.385 -1.2232 -0.3804 -0.4661
   56TCq2    O6  863   2.874   0.599   0.332  0.1151  0.1668 -0.5018
   56TCq2    H2  864   2.685   0.898   0.487 -0.4783 -0.3735  0.5489
   56TCq2    H3  865   2.684   0.512   0.318  0.3352  1.1986 -1.2411
   56TCq2    H4  866   2.317   0.687   0.456  0.1378  2.6288  0.5663
   57TMC2    C1  867   1.465   2.450  13.569  0.5552  0.2011  0.0116
   57TMC2    C2  868   1.598   2.454  13.605 -0.1344 -0.0193  0.4915
   57TMC2    C3  869   1.690   2.419  13.502  0.2720  0.6923  0.6390
   57TMC2    C4  870   1.426   2.428  13.433 -0.0276 -0.1147 -0.1220
   57TMC2    C5  871   1.522   2.380  13.344  0.6781  0.8022 -0.6163
   57TMC2    C6  872   1.657   2.379  13.375  0.0238  0.0963  0.7549
   57TMC2     C  873   1.382   2.543  13.633  0.0433  0.1614  0.1325
   57TMC2     O  874   1.297   2.596  13.561 -0.3979  0.2470  0.0968
   57TMC2     H  875   1.630   2.467  13.708  0.6657 -1.1189  0.3778
   57TMC2    H1  876   1.320   2.437  13.414  0.1475 -0.2986 -1.1612
   57TMC2    H2  877   1.728   2.359  13.295  0.3514 -0.3268  1.1516
   57TMC2    C7  878   1.469   2.279  13.253  0.2190 -0.2462 -0.2699
   57TMC2    C8  879   1.830   2.413  13.543 -1.0949  0.3284  0.5309
   57TMC2    O1  880   1.348   2.288  13.227  1.2060  0.0645  0.0972
   57TMC2    O2  881   1.915   2.345  13.480 -0.1178  0.2154 -0.2008
   57TMC2    O5  882   1.850   2.532  13.600 -0.6683  0.3847 -0.0351
   57TMC2    H5  883   1.770   2.587  13.587 -0.4956  0.5329 -0.4893
   58MPD2     C  884   1.097   2.664  14.048  0.1511  0.1023  0.5070
   58MPD2    C1  885   1.090   2.701  13.914 -0.6617 -0.1744  0.2079
   58MPD2    C2  886   1.179   2.647  13.821 -0.6243 -0.3893  0.9889
   58MPD2    C3  887   1.282   2.552  13.853  0.5315 -0.2273 -0.5378
   58MPD2    C4  888   1.284   2.516  13.989  0.0441  0.1305 -0.5212
   58MPD2    C5  889   1.193   2.568  14.078 -0.1062 -0.1348  0.4462
   58MPD2     H  890   1.169   2.685  13.720  2.1164  1.4386  1.4208
   58MPD2    H1  891   1.363   2.453  14.028  0.1989  0.7214  0.1156
   58MPD2    H2  892   1.031   2.706  14.123 -0.0487  0.2286  0.2613
   58MPD2    H3  893   1.209   2.541  14.182 -4.2218 -1.8160  0.6147
   58MPD2     N  894   1.375   2.503  13.764 -0.6110 -0.4845 -0.4882
   58MPD2    H5  895   1.443   2.434  13.795  1.0098  0.5392 -1.7675
   58MPD2    N1  896   1.003   2.797  13.866  0.4329 -0.6127 -0.5743
   58MPD2    H7  897   1.017   2.804  13.766 -0.9119  1.4835 -0.6251
   59MPD2     C  898   3.655   2.614  13.047 -0.3178 -1.0225 -0.2751
   59MPD2    C1  899   3.772   2.606  12.975  0.6506 -0.0538 -0.1213
   59MPD2    C2  900   3.896   2.623  13.045  0.6103  0.4005  0.2509
   59MPD2    C3  901   3.909   2.665  13.174  0.3196 -0.1936  0.3129
   59MPD2    C4  902   3.787   2.683  13.241 -1.1277  0.4589  0.2342
   59MPD2    C5  903   3.665   2.649  13.179  0.0400  0.0819 -0.2119
   59MPD2     H  904   3.984   2.587  12.994 -0.4771  1.0924 -2.1342
   59MPD2    H1  905   3.790   2.713  13.346  0.8876 -1.0364  0.5896
   59MPD2    H2  906   3.558   2.591  13.005 -1.2794  0.0350  1.3660
   59MPD2    H3  907   3.585   2.665  13.250  0.4570 -0.8018  0.4604
   59MPD2     N  908   4.031   2.681  13.249  0.0978  0.6100 -0.2344
   59MPD2    H5  909   4.041   2.695  13.349 -3.1720  1.2625 -0.0091
   59MPD2    N1  910   3.763   2.557  12.846 -0.0873  0.0419 -0.1337
   59MPD2    H7  911   3.673   2.527  12.809 -0.9339  0.6630  1.4377
   60TCq2    C1  912   3.868   2.565  12.759  0.5913  0.2592 -0.0547
   60TCq2    O2  913   3.976   2.620  12.768 -0.0229 -0.4285  0.3745
   60TCq2    C2  914   3.833   2.496  12.631 -0.8429 -0.7003  0.4176
   60TCq2    C3  915   3.749   2.393  12.645  0.8908 -0.6378  0.1684
   60TCq2    C4  916   3.713   2.331  12.528  0.5228 -0.5075 -0.4529
   60TCq2    C5  917   3.763   2.368  12.408 -0.3691 -0.2235 -0.1622
   60TCq2    C6  918   3.852   2.470  12.399 -0.0254 -0.3842  0.2713
   60TCq2    C7  919   3.892   2.538  12.513 -0.4387  0.1788 -0.0293
   60TCq2    C8  920   3.863   2.511  12.252  0.1274 -0.2356 -0.1431
   60TCq2    O4  921   3.901   2.429  12.169  0.1926  0.0940 -0.3076
   60TCq2    C9  922   3.627   2.217  12.542  0.1380  0.2644  0.0129
   60TCq2    O5  923   3.540   2.217  12.634 -0.2079 -0.3505 -0.4732
   60TCq2    O6  924   3.648   2.120  12.465  0.6926  0.0922 -0.1261
   60TCq2    H2  925   3.721   2.354  12.742 -2.1259  0.1204 -0.3811
   60TCq2    H3  926   3.742   2.308  12.321 -0.4621  0.0673 -0.3382
   60TCq2    H4  927   3.956   2.624  12.497 -0.4246  1.0207  4.4717
   61MPD2     C  928   3.390   3.951  15.124 -0.6691  0.3100 -0.3765
   61MPD2    C1  929   3.434   4.089  15.142  0.9728 -0.5397  0.6386
   61MPD2    C2  930   3.570   4.121  15.098 -0.5545  0.8565 -0.2970
   61MPD2    C3  931   3.653   4.024  15.048  0.7046 -0.4083  0.1515
   61MPD2    C4  932   3.608   3.895  15.045  0.2472  0.4305  0.6025
   61MPD2    C5  933   3.485   3.858  15.078  0.6203 -0.4768  0.4611
   61MPD2     H  934   3.599   4.225  15.105 -2.2918  1.2802  0.5283
   61MPD2    H1  935   3.682   3.826  15.005  1.7022  2.4792 -0.2446
   61MPD2    H2  936   3.288   3.917  15.132 -0.4494 -0.6433 -1.5340
   61MPD2    H3  937   3.457   3.753  15.082 -0.1691 -0.4220 -3.5646
   61MPD2     N  938   3.786   4.052  14.999 -0.1651 -0.1592  0.0781
   61MPD2    H5  939   3.844   3.970  14.984 -1.1000 -0.7364 -0.3596
   61MPD2    N1  940   3.352   4.190  15.191  0.1676 -0.0989 -0.6212
   61MPD2    H7  941   3.395   4.281  15.201  1.5083 -0.7324 -0.6915
   62TCq2    C1  942   3.218   4.172  15.228  0.2064  0.1723 -0.9515
   62TCq2    O2  943   3.156   4.066  15.239  0.2590 -0.0944 -0.2456
   62TCq2    C2  944   3.167   4.294  15.289 -0.1326 -0.0492 -1.0153
   62TCq2    C3  945   3.055   4.290  15.364 -0.5074  0.3496 -0.7639
   62TCq2    C4  946   2.999   4.397  15.416  0.1784  0.5780  0.0441
   62TCq2    C5  947   3.059   4.518  15.392 -0.4063  0.7395 -0.4073
   62TCq2    C6  948   3.164   4.527  15.308  0.7323 -0.0900 -0.7616
   62TCq2    C7  949   3.224   4.417  15.259 -0.7154  0.4013 -0.2506
   62TCq2    C8  950   3.235   4.654  15.303 -0.8801 -0.4801 -0.4899
   62TCq2    O4  951   3.314   4.673  15.210  0.0891  0.1469  1.2004
   62TCq2    C9  952   2.874   4.397  15.499  0.2927  0.1878  0.2131
   62TCq2    O5  953   2.793   4.301  15.478 -0.5587  0.0182  0.3824
   62TCq2    O6  954   2.865   4.491  15.579 -0.1650 -0.3480  0.3033
   62TCq2    H2  955   3.009   4.194  15.385 -0.2983  0.2500 -0.7581
   62TCq2    H3  956   3.000   4.603  15.424 -0.4746 -0.1209  1.7695
   62TCq2    H4  957   3.307   4.440  15.193  1.7857 -1.1943  2.3472
   63TMC2    C1  958   2.358   3.923  10.907 -0.1259 -1.0021 -0.6977
   63TMC2    C2  959   2.450   3.891  10.997  0.6111  0.4868  0.5307
   63TMC2    C3  960   2.575   3.951  10.986  0.1601 -0.9315 -1.0077
   63TMC2    C4  961   2.392   3.995  10.790 -0.3998 -0.1339  0.3092
   63TMC2    C5  962   2.519   4.044  10.782  0.2204  0.7091 -0.3494
   63TMC2    C6  963   2.616   4.020  10.872 -0.3054 -0.0757 -0.2172
   63TMC2     C  964   2.259   3.821  10.870 -0.6406 -0.1797  0.0340
   63TMC2     O  965   2.192   3.764  10.955 -0.3707  0.1715  0.2384
   63TMC2     H  966   2.429   3.811  11.068  4.3258 -1.5919 -0.6873
   63TMC2    H1  967   2.322   4.029  10.715 -0.8523 -1.4866  0.1246
   63TMC2    H2  968   2.719   4.046  10.853 -0.0986 -0.7041  0.0215
   63TMC2    C7  969   2.543   4.081  10.649  0.9667 -0.3620 -0.7805
   63TMC2    C8  970   2.650   3.935  11.109  0.1210  0.6284 -0.1059
   63TMC2    O1  971   2.477   4.017  10.569  0.6892 -0.0452 -0.0285
   63TMC2    O2  972   2.596   3.906  11.217 -0.4202  0.7111 -0.2171
   63TMC2    O5  973   2.780   3.974  11.093 -0.2632  0.2872  0.2814
   63TMC2    H5  974   2.817   3.960  11.003 -1.0385  0.9825 -0.1377
   64MPD2     C  975   2.107   3.465  10.531  0.3169  0.2875 -0.3993
   64MPD2    C1  976   2.208   3.539  10.476  0.4558 -0.3583 -0.2925
   64MPD2    C2  977   2.258   3.642  10.544  0.5266  0.5769  0.6168
   64MPD2    C3  978   2.214   3.677  10.669  0.4643  0.0477  0.0980
   64MPD2    C4  979   2.118   3.599  10.730  0.3130 -0.2888  0.0223
   64MPD2    C5  980   2.064   3.495  10.661 -1.1126  0.5717  0.1423
   64MPD2     H  981   2.341   3.701  10.506  1.0210 -0.8889 -0.5663
   64MPD2    H1  982   2.059   3.627  10.817 -0.0113 -1.9546  0.3406
   64MPD2    H2  983   2.043   3.393  10.481  1.5397 -0.0272 -1.5286
   64MPD2    H3  984   1.979   3.443  10.704 -0.5906  0.4710  1.0619
   64MPD2     N  985   2.276   3.791  10.735  0.0469 -0.2061  0.0347
   64MPD2    H5  986   2.348   3.841  10.684 -0.2324  0.0557 -0.1065
   64MPD2    N1  987   2.273   3.499  10.359 -0.5715  0.0877 -0.4328
   64MPD2    H7  988   2.356   3.551  10.333 -0.5707  0.0484 -0.5098
   65MPD2     C  989   4.303   3.713  15.598  0.6663 -0.3649  0.5231
   65MPD2    C1  990   4.307   3.708  15.461 -0.7351  0.0918 -0.8140
   65MPD2    C2  991   4.287   3.588  15.392 -0.0133  0.3349  0.4635
   65MPD2    C3  992   4.261   3.475  15.469  0.4216 -0.1598 -0.0747
   65MPD2    C4  993   4.259   3.480  15.609  0.0525  0.1005  0.4984
   65MPD2    C5  994   4.285   3.597  15.672  0.1259 -0.1047  0.6248
   65MPD2     H  995   4.278   3.599  15.284  0.3627 -1.6850  0.2336
   65MPD2    H1  996   4.227   3.396  15.670  1.3318 -1.0309 -0.3514
   65MPD2    H2  997   4.328   3.806  15.648 -0.5653  1.5089 -2.3095
   65MPD2    H3  998   4.285   3.597  15.780  1.5023 -1.3932  0.6294
   65MPD2     N  999   4.222   3.351  15.413  0.3113 -0.8085 -0.0766
   65MPD2    H5 1000   4.202   3.279  15.482 -0.8282  0.4428  0.9353
   65MPD2    N1 1001   4.340   3.820  15.378 -0.2825  0.0795  0.0980
   65MPD2    H7 1002   4.355   3.801  15.279  1.3673 -0.9788  0.5491
   66TCq2    C1 1003   4.328   3.951  15.410  0.0179  0.2959  0.2177
   66TCq2    O2 1004   4.301   4.005  15.519  0.2492  0.4454 -0.0696
   66TCq2    C2 1005   4.344   4.033  15.290 -0.0514 -0.3046  0.4459
   66TCq2    C3 1006   4.333   3.969  15.168  0.4482  0.9130 -0.2315
   66TCq2    C4 1007   4.345   4.044  15.054 -0.2589 -0.3549 -0.2511
   66TCq2    C5 1008   4.358   4.177  15.055 -0.1444  0.2729 -0.4803
   66TCq2    C6 1009   4.366   4.232  15.180  0.1006 -0.6525  1.0477
   66TCq2    C7 1010   4.363   4.165  15.299 -0.8313  0.2272 -0.4221
   66TCq2    C8 1011   4.337   4.376  15.178 -0.5331  0.0904  0.1187
   66TCq2    O4 1012   4.355   4.438  15.073  0.1301 -0.1188  0.2622
   66TCq2    C9 1013   4.364   3.967  14.929  0.9589 -0.1169  0.2810
   66TCq2    O5 1014   4.331   3.847  14.927 -0.2438 -0.0921  0.7306
   66TCq2    O6 1015   4.433   4.023  14.842  0.3776 -0.2551  0.5260
   66TCq2    H2 1016   4.290   3.871  15.151  0.9475  0.5046  0.7938
   66TCq2    H3 1017   4.375   4.235  14.965 -1.0267  1.0440 -0.1545
   66TCq2    H4 1018   4.392   4.215  15.391  0.7962 -0.7596 -0.4064
   67MPD2     C 1019   3.753   2.959  13.790 -0.1210  0.0973 -0.3532
   67MPD2    C1 1020   3.786   3.095  13.812 -0.5677  0.3866 -0.2017
   67MPD2    C2 1021   3.731   3.183  13.726  0.5272  0.0822 -0.3433
   67MPD2    C3 1022   3.648   3.151  13.617 -0.5963 -0.1520 -0.2924
   67MPD2    C4 1023   3.613   3.016  13.602 -1.6179  1.0820  0.2004
   67MPD2    C5 1024   3.660   2.925  13.692  0.5413 -0.6621  0.0019
   67MPD2     H 1025   3.766   3.284  13.745 -0.5470 -0.2784  3.5847
   67MPD2    H1 1026   3.557   2.981  13.516 -0.0088 -0.7627 -0.0885
   67MPD2    H2 1027   3.785   2.882  13.860 -1.4689  0.0696  0.2300
   67MPD2    H3 1028   3.624   2.823  13.684 -1.0753 -0.0289 -0.7143
   67MPD2     N 1029   3.606   3.253  13.521  0.1122  0.5207 -0.0823
   67MPD2    H5 1030   3.551   3.213  13.446 -0.8989 -1.2225  1.5796
   67MPD2    N1 1031   3.873   3.147  13.912  0.0958 -0.1686 -0.0065
   67MPD2    H7 1032   3.886   3.247  13.919  1.7031 -0.2977 -1.2937
   68TCq2    C1 1033   3.930   3.059  14.002  0.0314  0.2935  0.5575
   68TCq2    O2 1034   3.931   2.938  14.001  0.6770 -0.0257  0.0269
   68TCq2    C2 1035   4.016   3.120  14.096  0.7698  0.4261  0.1902
   68TCq2    C3 1036   4.003   3.253  14.133  0.0599 -0.8722 -0.7528
   68TCq2    C4 1037   4.072   3.302  14.241 -0.0307 -0.2486  0.6697
   68TCq2    C5 1038   4.157   3.230  14.309  0.1809 -0.9772  0.1341
   68TCq2    C6 1039   4.166   3.095  14.277  0.0818  0.1913  0.7034
   68TCq2    C7 1040   4.094   3.039  14.174 -0.6112  0.3328 -0.2821
   68TCq2    C8 1041   4.237   3.004  14.364 -0.0778  0.2384  0.4375
   68TCq2    O4 1042   4.246   2.886  14.338 -0.1656 -0.0238  0.0851
   68TCq2    C9 1043   4.064   3.445  14.279  0.0664  0.0140 -0.4511
   68TCq2    O5 1044   4.089   3.475  14.396 -0.3625 -0.3477 -1.1262
   68TCq2    O6 1045   4.013   3.525  14.193 -0.3261  0.0618  0.1163
   68TCq2    H2 1046   3.928   3.320  14.094  0.9057 -0.1670 -1.1559
   68TCq2    H3 1047   4.223   3.283  14.376  1.7491 -3.6169  0.6723
   68TCq2    H4 1048   4.099   2.934  14.150  0.2680  0.5063 -0.8317
   69TMC2    C1 1049   0.405   3.820  12.035  0.8581 -0.2640  0.7912
   69TMC2    C2 1050   0.277   3.835  12.006  0.0885  0.4569 -1.0740
   69TMC2    C3 1051   0.235   3.901  11.888  0.9146  0.4768 -0.3615
   69TMC2    C4 1052   0.499   3.872  11.947  0.0561  0.4961  0.7496
   69TMC2    C5 1053   0.460   3.942  11.835 -0.1075 -0.5633  0.2366
   69TMC2    C6 1054   0.325   3.962  11.802 -0.3215 -0.2574  0.2197
   69TMC2     C 1055   0.438   3.801  12.173 -0.4322  0.1243 -0.6265
   69TMC2     O 1056   0.352   3.754  12.251  0.6041 -0.0033  0.7311
   69TMC2     H 1057   0.212   3.783  12.075  2.8300 -0.1116  1.0773
   69TMC2    H1 1058   0.602   3.843  11.962 -0.4078 -0.7375  1.5256
   69TMC2    H2 1059   0.294   4.014  11.712 -0.4389  0.2562  0.5599
   69TMC2    C7 1060   0.571   3.987  11.751  0.2331  0.4979  0.0160
   69TMC2    C8 1061   0.091   3.932  11.872  0.0460  0.3122 -0.0142
   69TMC2    O1 1062   0.689   3.975  11.798 -0.2421 -0.2194  0.4716
   69TMC2    O2 1063   0.048   4.045  11.849 -0.2627 -0.3034 -0.1999
   69TMC2    O5 1064   0.020   3.844  11.947 -0.0836 -0.2689 -0.0376
   69TMC2    H5 1065   0.064   3.757  11.940  0.1799 -0.2170  0.8799
   70MPD2     C 1066   0.733   3.943  12.341  0.6771  0.4876 -0.6453
   70MPD2    C1 1067   0.621   3.867  12.334 -0.0834  0.0386 -0.5708
   70MPD2    C2 1068   0.585   3.780  12.440  0.7531 -0.8783  0.0529
   70MPD2    C3 1069   0.660   3.772  12.557 -0.4445 -0.4256  0.6710
   70MPD2    C4 1070   0.782   3.843  12.554 -0.2915  0.0982 -0.4851
   70MPD2    C5 1071   0.812   3.935  12.452 -0.1094  0.5251  0.4692
   70MPD2     H 1072   0.494   3.723  12.427 -0.3832  0.9786 -0.1655
   70MPD2    H1 1073   0.851   3.827  12.636 -0.5972  1.1630 -0.0212
   70MPD2    H2 1074   0.762   4.009  12.259 -1.6294  3.0612  0.6195
   70MPD2    H3 1075   0.903   3.991  12.468  0.9545 -1.4427  1.3037
   70MPD2     N 1076   0.631   3.693  12.669  0.1951  0.0445  0.5237
   70MPD2    H5 1077   0.696   3.696  12.746 -1.2698  0.6438  1.7209
   70MPD2    N1 1078   0.550   3.871  12.210  0.1246  0.1586  0.3319
   70MPD2    H7 1079   0.592   3.932  12.140 -0.7761  0.4825  0.0762
   71TMC2    C1 1080   3.814   0.594   2.123 -0.0278  0.3703  0.3232
   71TMC2    C2 1081   3.785   0.722   2.171  0.0335  0.1290  0.6674
   71TMC2    C3 1082   3.648   0.751   2.194  0.3993  0.1897  0.5399
   71TMC2    C4 1083   3.724   0.493   2.110  0.6827 -0.5829 -0.0668
   71TMC2    C5 1084   3.590   0.521   2.131  0.2256 -0.3132  0.2858
   71TMC2    C6 1085   3.552   0.650   2.173  0.8007  0.6571 -0.1143
   71TMC2     C 1086   3.952   0.562   2.086 -0.4941  0.1978  0.9693
   71TMC2     O 1087   3.978   0.463   2.015 -0.3377  0.3579  0.0714
   71TMC2     H 1088   3.863   0.796   2.164  1.1909 -1.3367 -2.1440
   71TMC2    H1 1089   3.762   0.395   2.083 -1.7779 -1.2176 -1.2483
   71TMC2    H2 1090   3.449   0.671   2.197  0.8762  0.8406  0.0516
   71TMC2    C7 1091   3.497   0.442   2.052  0.1823 -0.6650  0.5836
   71TMC2    C8 1092   3.598   0.886   2.208  0.2663 -0.6507 -0.1237
   71TMC2    O1 1093   3.549   0.349   1.988  0.1430 -0.0995 -0.5782
   71TMC2    O2 1094   3.498   0.909   2.277 -0.7215 -0.3587 -0.0136
   71TMC2    O5 1095   3.704   0.964   2.192 -0.6410 -0.5863  0.0440
   71TMC2    H5 1096   3.764   0.933   2.120  0.5612 -0.6689  1.0805
   72MPD2     C 1097   4.445   0.619   2.108 -0.3648  0.0627  0.1372
   72MPD2    C1 1098   4.370   0.578   2.007 -0.8418 -0.1672  0.4467
   72MPD2    C2 1099   4.237   0.601   2.015  0.9527  0.4588 -0.5118
   72MPD2    C3 1100   4.180   0.641   2.136  0.4295  0.8901  0.1559
   72MPD2    C4 1101   4.251   0.697   2.239 -0.5118 -0.2322  0.6490
   72MPD2    C5 1102   4.388   0.672   2.222 -0.5677 -0.1012  0.6041
   72MPD2     H 1103   4.162   0.582   1.939  0.9756  1.1245 -0.6977
   72MPD2    H1 1104   4.209   0.741   2.329 -0.4092  1.3657 -0.0911
   72MPD2    H2 1105   4.553   0.609   2.101 -0.6395 -3.0045  0.5024
   72MPD2    H3 1106   4.451   0.707   2.303  0.0428  1.1654 -0.4226
   72MPD2     N 1107   4.043   0.641   2.155  0.2053 -0.6500 -0.3471
   72MPD2    H5 1108   4.009   0.695   2.234  0.6464 -0.4201 -0.3174
   72MPD2    N1 1109   4.418   0.512   1.895  0.1869 -0.0579 -0.8106
   72MPD2    H7 1110   4.355   0.491   1.818 -0.0103  4.6657 -1.9370
   73TMC2    C1 1111   3.642   1.901  14.313 -0.3309  0.4945  0.0946
   73TMC2    C2 1112   3.579   1.933  14.430 -0.4438  0.4861  0.2759
   73TMC2    C3 1113   3.653   2.006  14.518  0.0622 -0.8100  0.4332
   73TMC2    C4 1114   3.772   1.940  14.285 -0.2475  0.3746 -0.4951
   73TMC2    C5 1115   3.838   2.021  14.373 -0.1324  0.4216 -0.1931
   73TMC2    C6 1116   3.779   2.047  14.496 -0.7181 -0.0987  0.7470
   73TMC2     C 1117   3.555   1.936  14.202  0.6010 -0.7985 -0.7129
   73TMC2     O 1118   3.620   1.998  14.115  0.1304 -0.2158 -0.5268
   73TMC2     H 1119   3.480   1.899  14.457 -0.9371  0.8182 -1.1264
   73TMC2    H1 1120   3.817   1.917  14.189 -0.2797  0.6356 -0.5726
   73TMC2    H2 1121   3.832   2.106  14.570  0.3604 -1.3896  1.0019
   73TMC2    C7 1122   3.905   2.138  14.310  0.3919  0.4079  0.3105
   73TMC2    C8 1123   3.610   1.995  14.656  0.7128  0.4655  0.3927
   73TMC2    O1 1124   3.983   2.206  14.372 -0.1664  0.4875  0.1271
   73TMC2    O2 1125   3.490   1.982  14.680  0.1349  0.1435 -0.2701
   73TMC2    O5 1126   3.707   1.936  14.728  0.1575 -0.5725 -0.2659
   73TMC2    H5 1127   3.793   1.938  14.682  0.6110 -3.6207  0.4171
   74MPD2     C 1128   3.210   1.884  13.847 -0.3247  0.1925  0.3110
   74MPD2    C1 1129   3.293   1.993  13.858  0.2830  0.7411 -0.7543
   74MPD2    C2 1130   3.371   1.998  13.970 -0.4080 -0.2926 -0.1187
   74MPD2    C3 1131   3.343   1.908  14.074 -0.0031  0.3697 -0.9809
   74MPD2    C4 1132   3.250   1.812  14.061 -0.0260 -0.4595  0.3432
   74MPD2    C5 1133   3.190   1.796  13.941  0.1529 -0.7188  0.0889
   74MPD2     H 1134   3.446   2.075  13.983 -1.7096  0.9914 -0.2353
   74MPD2    H1 1135   3.234   1.732  14.132 -0.0198 -1.4407 -0.7675
   74MPD2    H2 1136   3.170   1.858  13.750 -1.4118  1.9748  0.2682
   74MPD2    H3 1137   3.139   1.702  13.921 -0.4792  0.2790 -2.9433
   74MPD2     N 1138   3.428   1.896  14.191  0.0967 -0.1863  0.8698
   74MPD2    H5 1139   3.402   1.845  14.275  0.3197 -0.1735  0.9470
   74MPD2    N1 1140   3.308   2.086  13.757 -0.8413 -0.1476  0.4503
   74MPD2    H7 1141   3.250   2.069  13.676 -1.6881 -0.6236  1.1446
   75TCq2    C1 1142   3.605   3.390  13.544 -0.3260  0.6400  0.8646
   75TCq2    O2 1143   3.644   3.451  13.645 -0.7158  0.3318  0.1826
   75TCq2    C2 1144   3.546   3.477  13.432  0.3555  0.2736  0.6666
   75TCq2    C3 1145   3.505   3.602  13.479  0.2696  0.0618  0.0332
   75TCq2    C4 1146   3.408   3.667  13.409  0.1121 -0.2460  0.0697
   75TCq2    C5 1147   3.353   3.616  13.296 -0.3159 -0.8202  0.1582
   75TCq2    C6 1148   3.402   3.487  13.250 -0.1094 -0.4738 -0.4356
   75TCq2    C7 1149   3.493   3.418  13.322 -0.1719 -0.6769  1.1803
   75TCq2    C8 1150   3.326   3.427  13.140 -0.1468 -0.0059  0.5164
   75TCq2    O4 1151   3.329   3.302  13.136 -0.7531 -0.0554  0.8659
   75TCq2    C9 1152   3.353   3.784  13.461  0.2552  0.7450 -0.4433
   75TCq2    O5 1153   3.407   3.843  13.559  0.0286 -0.0382  0.0265
   75TCq2    O6 1154   3.249   3.837  13.412 -0.0145  1.1268  0.0950
   75TCq2    H2 1155   3.543   3.649  13.569  2.1465 -1.3121 -0.0518
   75TCq2    H3 1156   3.271   3.673  13.256 -0.7340 -0.6051  1.3353
   75TCq2    H4 1157   3.522   3.325  13.275  0.1331  0.5451 -1.0378
   76MPD2     C 1158   1.636   3.587  11.537  0.2885  0.2583  0.3087
   76MPD2    C1 1159   1.647   3.657  11.422  0.1281 -0.1138  0.5325
   76MPD2    C2 1160   1.761   3.630  11.339 -0.5267  0.5351 -0.2295
   76MPD2    C3 1161   1.856   3.533  11.370 -0.0154  0.0903  1.0540
   76MPD2    C4 1162   1.848   3.475  11.494 -0.1690 -0.0831 -0.4445
   76MPD2    C5 1163   1.737   3.498  11.566 -0.5162 -0.2149 -0.5423
   76MPD2     H 1164   1.769   3.686  11.247 -1.9109 -0.4365 -0.9380
   76MPD2    H1 1165   1.912   3.397  11.533  0.1780  0.3910 -0.0629
   76MPD2    H2 1166   1.562   3.603  11.615  0.8118 -0.9723  1.0735
   76MPD2    H3 1167   1.718   3.448  11.660  0.7566 -1.2762 -0.8408
   76MPD2     N 1168   1.964   3.493  11.286 -0.4262  0.1983  0.5064
   76MPD2    H5 1169   2.023   3.425  11.332  1.4906  1.2024 -0.4626
   76MPD2    N1 1170   1.552   3.760  11.382  0.0575  0.5018  0.1900
   76MPD2    H7 1171   1.562   3.799  11.289 -0.7660 -0.7956 -0.4360
   77TCq2    C1 1172   1.986   3.516  11.158 -0.0770 -0.5523  0.2238
   77TCq2    O2 1173   1.921   3.588  11.086 -0.2636  0.0930  1.0402
   77TCq2    C2 1174   2.095   3.445  11.098 -0.4102  0.0891 -0.0698
   77TCq2    C3 1175   2.071   3.365  10.994  0.1123 -0.8193 -0.3392
   77TCq2    C4 1176   2.149   3.256  10.973  0.3368  0.4116 -0.1365
   77TCq2    C5 1177   2.258   3.229  11.049  0.0269 -0.0763 -0.5827
   77TCq2    C6 1178   2.276   3.316  11.157  0.0145  0.1853 -0.6862
   77TCq2    C7 1179   2.196   3.423  11.185  0.0369 -0.0940 -0.1542
   77TCq2    C8 1180   2.374   3.269  11.249  0.6243  0.2435 -0.1338
   77TCq2    O4 1181   2.407   3.151  11.243  0.2815 -0.4506 -0.1155
   77TCq2    C9 1182   2.115   3.165  10.865 -0.4674  0.6705 -0.1971
   77TCq2    O5 1183   1.998   3.151  10.829  0.0174  0.1559  0.7486
   77TCq2    O6 1184   2.204   3.083  10.823  0.0719  0.3905 -0.1645
   77TCq2    H2 1185   1.975   3.374  10.944  0.5977 -2.7947 -1.6450
   77TCq2    H3 1186   2.303   3.131  11.043  2.3071  0.8878  0.8128
   77TCq2    H4 1187   2.205   3.487  11.272 -2.4215 -0.7499  0.5985
   78MPD1     C 1188   3.454   0.300   2.416  0.8447 -0.1256 -0.2758
   78MPD1    C1 1189   3.534   0.405   2.462  0.1583 -0.1068 -0.5668
   78MPD1    C2 1190   3.670   0.383   2.442  0.4249  0.0758 -0.1623
   78MPD1    C3 1191   3.730   0.293   2.360 -0.5574 -0.8579 -0.0594
   78MPD1    C4 1192   3.645   0.209   2.288 -0.3388  0.2982 -0.4826
   78MPD1    C5 1193   3.510   0.209   2.325  0.0054  0.3433  0.0719
   78MPD1     H 1194   3.728   0.460   2.492  0.4646 -0.8350  1.2135
   78MPD1    H1 1195   3.683   0.128   2.227 -4.3519 -1.5742 -0.5506
   78MPD1    H2 1196   3.351   0.290   2.447  0.8615  0.6302  0.0132
   78MPD1    H3 1197   3.453   0.120   2.299 -1.3983  1.8077 -1.8265
   78MPD1     N 1198   3.870   0.300   2.330 -0.0449 -0.8178  0.5359
   78MPD1    H5 1199   3.910   0.232   2.266  0.0776 -1.2362  1.0645
   78MPD1    N1 1200   3.487   0.496   2.562  0.2329 -0.5428 -0.3251
   78MPD1    H6 1201   3.555   0.570   2.579  0.1802 -0.8046  1.0368
   78MPD1    H7 1202   3.403   0.542   2.530  1.3883 -0.1374 -2.7859
   79TCq2    C1 1203   3.959   0.372   2.405  0.2064 -0.1779 -0.0195
   79TCq2    O2 1204   3.956   0.433   2.508  0.4751  0.1113 -0.3206
   79TCq2    C2 1205   4.093   0.359   2.352 -0.5203  0.0110 -0.6282
   79TCq2    C3 1206   4.199   0.404   2.425 -0.2070 -0.2281 -0.0118
   79TCq2    C4 1207   4.324   0.366   2.392 -0.5155 -0.3429  0.0938
   79TCq2    C5 1208   4.343   0.285   2.286  0.6374 -0.2358 -0.1630
   79TCq2    C6 1209   4.243   0.266   2.194  0.8599  0.0139 -0.3671
   79TCq2    C7 1210   4.116   0.294   2.231  0.6137 -0.2079 -1.0191
   79TCq2    C8 1211   4.270   0.214   2.057 -0.5439  0.1015 -0.0635
   79TCq2    O4 1212   4.362   0.140   2.049 -0.8965  0.2654  0.2058
   79TCq2    C9 1213   4.437   0.404   2.459 -1.0872  0.1869  0.5143
   79TCq2    O5 1214   4.427   0.454   2.574  0.5862  0.4743  0.0799
   79TCq2    O6 1215   4.545   0.360   2.400 -0.3621  0.1557 -0.2228
   79TCq2    H2 1216   4.180   0.460   2.516 -0.8776 -1.9636  0.9104
   79TCq2    H3 1217   4.438   0.254   2.244  1.3699 -0.7073  1.8717
   79TCq2    H4 1218   4.037   0.271   2.162 -0.0131  0.4367 -0.5151
   80MPD2     C 1219   1.391   2.937  12.382  0.5019  0.1504 -0.0030
   80MPD2    C1 1220   1.263   2.976  12.336 -0.5320  0.9780 -0.2161
   80MPD2    C2 1221   1.159   2.976  12.433 -0.0952  0.1704  0.5589
   80MPD2    C3 1222   1.176   2.939  12.565  0.1997 -0.1744  0.4797
   80MPD2    C4 1223   1.302   2.900  12.600  0.7024 -0.2585 -0.3041
   80MPD2    C5 1224   1.414   2.912  12.519  0.5041  0.2247 -0.3957
   80MPD2     H 1225   1.063   2.992  12.383  0.5237 -1.6781 -1.2495
   80MPD2    H1 1226   1.322   2.877  12.704  2.4486  1.4100 -0.2727
   80MPD2    H2 1227   1.477   2.931  12.317  0.4107 -0.9631 -0.0161
   80MPD2    H3 1228   1.513   2.897  12.561  0.5393  1.2697 -0.0914
   80MPD2     N 1229   1.075   2.929  12.664 -0.3487 -0.5296  0.1142
   80MPD2    H5 1230   1.106   2.920  12.760 -0.0921 -1.6290 -0.0640
   80MPD2    N1 1231   1.231   3.006  12.200  0.6895 -0.0674  0.2185
   80MPD2    H7 1232   1.136   3.033  12.177  1.5391  1.8364 -1.1148
   81TCq2    C1 1233   1.315   3.031  12.096  0.0515 -0.3261 -0.4924
   81TCq2    O2 1234   1.435   3.051  12.102  0.2337  0.2247 -0.2151
   81TCq2    C2 1235   1.246   3.012  11.967  0.0868 -1.0027  0.4896
   81TCq2    C3 1236   1.286   3.076  11.859 -0.5298  0.5152 -0.0066
   81TCq2    C4 1237   1.203   3.068  11.751  0.2213  0.5564 -0.6025
   81TCq2    C5 1238   1.099   2.986  11.738  0.3482 -0.2323 -0.3368
   81TCq2    C6 1239   1.067   2.921  11.849  0.2203  0.6535 -0.3977
   81TCq2    C7 1240   1.135   2.934  11.965  0.4984 -0.1029 -0.9837
   81TCq2    C8 1241   0.937   2.858  11.851 -0.6441  0.1315 -0.1383
   81TCq2    O4 1242   0.854   2.894  11.767  0.5684 -0.1294 -0.3623
   81TCq2    C9 1243   1.229   3.155  11.638 -0.2760  0.5004  0.0617
   81TCq2    O5 1244   1.137   3.155  11.548 -0.4331  0.1102  0.1040
   81TCq2    O6 1245   1.341   3.205  11.633  0.7990 -0.0104  0.0413
   81TCq2    H2 1246   1.378   3.135  11.856 -0.0349 -0.2277  0.7302
   81TCq2    H3 1247   1.041   2.982  11.647 -0.7918  3.6002  0.2343
   81TCq2    H4 1248   1.088   2.885  12.049  2.3459  1.4772  0.9664
   82MPD2     C 1249   4.512   3.251  10.676 -0.1794 -0.1643 -0.4635
   82MPD2    C1 1250   4.450   3.136  10.622 -0.3116  0.1655 -0.5405
   82MPD2    C2 1251   4.524   3.022  10.604  0.9039 -0.3501 -0.8866
   82MPD2    C3 1252   4.651   3.015  10.649  0.3357  0.1952 -0.2305
   82MPD2    C4 1253   4.717   3.128  10.690 -0.0536 -0.4080  0.5446
   82MPD2    C5 1254   4.646   3.246  10.701  0.3272 -0.2575  0.3236
   82MPD2     H 1255   4.476   2.936  10.560 -2.4821  0.1521  1.8973
   82MPD2    H1 1256   0.097   3.131  10.712 -0.3442 -0.2443  1.9551
   82MPD2    H2 1257   4.456   3.342  10.691  0.1600  0.1823 -1.2916
   82MPD2    H3 1258   4.693   3.339  10.732 -0.8061  0.6022 -0.5369
   82MPD2     N 1259   0.005   2.899  10.639 -0.0690  0.3950 -0.8340
   82MPD2    H5 1260   0.105   2.906  10.652 -0.3949 -1.0250  2.3499
   82MPD2    N1 1261   4.314   3.143  10.592 -0.4661 -0.3631 -0.0210
   82MPD2    H7 1262   4.272   3.235  10.604  0.8234  0.2311 -0.0509
   83TCq2    C1 1263   4.677   2.769  10.624  0.4904  0.1732  0.4345
   83TCq2    O2 1264   4.560   2.726  10.631 -0.3566  0.4253  0.2259
   83TCq2    C2 1265   0.058   2.675  10.619  0.3765 -0.2024  0.4180
   83TCq2    C3 1266   0.189   2.713  10.628  0.4009  0.3478 -0.4732
   83TCq2    C4 1267   0.284   2.624  10.661 -0.5474  0.6804  0.1935
   83TCq2    C5 1268   0.262   2.492  10.685  0.7010 -0.2931 -0.1228
   83TCq2    C6 1269   0.132   2.454  10.672  0.4752  0.4258 -0.2710
   83TCq2    C7 1270   0.027   2.539  10.648 -0.3415  0.1162 -0.0108
   83TCq2    C8 1271   0.093   2.329  10.742 -0.3657 -0.3737  0.1285
   83TCq2    O4 1272   0.194   2.272  10.787  0.0635  0.1420 -0.0566
   83TCq2    C9 1273   0.422   2.658  10.666  0.0727 -0.1159  0.3811
   83TCq2    O5 1274   0.446   2.768  10.725 -0.0309  0.3558 -0.0209
   83TCq2    O6 1275   0.499   2.558  10.666  0.2460 -0.1893 -0.3699
   83TCq2    H2 1276   0.214   2.808  10.581  1.4077 -0.3795 -1.4089
   83TCq2    H3 1277   0.344   2.421  10.695 -1.1414 -2.0267  2.6293
   83TCq2    H4 1278   4.655   2.501  10.619 -0.5248 -0.0554  0.8162
   84TCq2    C1 1279   1.055   1.759  10.426 -0.5329 -0.0014 -0.0545
   84TCq2    O2 1280   0.995   1.658  10.410  0.0756  0.2297 -0.5839
   84TCq2    C2 1281   1.039   1.819  10.554 -0.4778 -0.2906  0.1247
   84TCq2    C3 1282   1.052   1.954  10.566  0.4194  0.2757 -0.8243
   84TCq2    C4 1283   1.004   2.013  10.681  0.1114  0.1739 -0.7857
   84TCq2    C5 1284   0.946   1.939  10.780 -0.3703 -0.0474 -0.1171
   84TCq2    C6 1285   0.947   1.806  10.765  0.2157 -0.0093  0.2474
   84TCq2    C7 1286   0.979   1.746  10.652  0.2006 -0.2129 -0.4041
   84TCq2    C8 1287   0.962   1.727  10.892  0.9243  0.0857  0.3930
   84TCq2    O4 1288   1.027   1.625  10.872  0.1962  0.0919  0.3258
   84TCq2    C9 1289   1.028   2.158  10.701  0.3062 -0.3257 -0.1718
   84TCq2    O5 1290   0.970   2.210  10.801  0.3829  0.0732  0.0434
   84TCq2    O6 1291   1.094   2.219  10.617 -0.3051  0.1983  0.0827
   84TCq2    H2 1292   1.087   2.017  10.485  0.7724  2.7870  1.2515
   84TCq2    H3 1293   0.912   1.989  10.871  1.6782  1.8315 -0.3925
   84TCq2    H4 1294   0.977   1.639  10.642 -0.2403 -0.3509  1.1354
   85MPD2     C 1295   1.282   4.311  16.112  0.4774 -0.0536 -0.4787
   85MPD2    C1 1296   1.272   4.324  15.979  0.3278 -0.2273 -0.7054
   85MPD2    C2 1297   1.310   4.440  15.923 -0.8511  0.0283 -0.2445
   85MPD2    C3 1298   1.352   4.554  16.000  0.3740  0.3672 -0.8382
   85MPD2    C4 1299   1.354   4.540  16.137  0.2942  0.1439  0.4201
   85MPD2    C5 1300   1.318   4.418  16.190 -0.3860  0.2615  0.2096
   85MPD2     H 1301   1.301   4.449  15.815  0.5659 -3.3666 -0.6169
   85MPD2    H1 1302   1.371   4.620  16.207 -1.4191 -0.3462  1.4003
   85MPD2    H2 1303   1.240   4.228  16.168  2.1510  0.2856  1.2833
   85MPD2    H3 1304   1.328   4.413  16.298  1.7107  0.0912  0.0081
   85MPD2     N 1305   1.374   4.674  15.930 -0.1980 -0.2395  0.3649
   85MPD2    H5 1306   1.374   4.675  15.828  1.0052 -2.5331  0.3570
   85MPD2    N1 1307   1.248   4.220  15.889 -0.0601 -0.4017 -0.4212
   85MPD2    H7 1308   1.252   4.241  15.790 -2.1891 -1.2495 -0.6888
   86TCq2    C1 1309   1.381   0.071  15.995  0.5149  0.6412  0.9251
   86TCq2    O2 1310   1.346   0.103  16.108 -0.2884  0.6545  0.2860
   86TCq2    C2 1311   1.435   0.178  15.914 -0.5601 -0.8394  0.2109
   86TCq2    C3 1312   1.400   0.304  15.954 -0.3076 -0.0264 -0.2479
   86TCq2    C4 1313   1.483   0.400  15.932  0.3818  0.3327 -0.1802
   86TCq2    C5 1314   1.599   0.381  15.861 -0.0121 -0.3193 -0.1367
   86TCq2    C6 1315   1.634   0.251  15.820 -0.7291 -0.4502 -0.1247
   86TCq2    C7 1316   1.545   0.146  15.845  0.9332 -0.4601  0.2508
   86TCq2    C8 1317   1.717   0.243  15.701 -0.1148  0.1646  0.8596
   86TCq2    O4 1318   1.759   0.130  15.687  0.1004  0.0728 -0.1557
   86TCq2    C9 1319   1.443   0.532  15.972 -0.1576 -0.1271  0.3903
   86TCq2    O5 1320   1.518   0.625  15.939  0.1776 -0.5061 -0.1810
   86TCq2    O6 1321   1.325   0.542  16.027 -0.2165  0.7274 -0.2298
   86TCq2    H2 1322   1.304   0.313  16.005  0.4863 -2.7819  1.7623
   86TCq2    H3 1323   1.668   0.462  15.843  0.6136 -0.2245  2.6384
   86TCq2    H4 1324   1.583   0.049  15.815 -1.6858 -1.0238 -1.2263
   87MPD2     C 1325   3.015   3.133   0.855 -0.3475 -0.2552 -0.9667
   87MPD2    C1 1326   3.052   3.065   0.744 -0.1021  0.3032  0.8840
   87MPD2    C2 1327   3.028   3.111   0.616 -0.3486  0.4048 -0.4692
   87MPD2    C3 1328   2.972   3.234   0.600 -0.6736 -0.4072  0.2783
   87MPD2    C4 1329   2.931   3.309   0.709 -0.0027  0.5297  0.2950
   87MPD2    C5 1330   2.948   3.253   0.835  0.5286  0.6307 -0.0647
   87MPD2     H 1331   3.053   3.050   0.530 -0.3254 -0.3476  0.0692
   87MPD2    H1 1332   2.870   3.399   0.707  1.9394  1.7619 -3.2412
   87MPD2    H2 1333   3.037   3.108   0.958 -0.2573  2.2871 -0.3717
   87MPD2    H3 1334   2.922   3.317   0.919  0.0666  2.0488 -1.2792
   87MPD2     N 1335   2.934   3.284   0.475 -0.6618 -0.2647 -0.1212
   87MPD2    H5 1336   2.909   3.383   0.470  1.3539  0.3530  2.5521
   87MPD2    N1 1337   3.116   2.944   0.760 -0.4270  0.0247 -0.3043
   87MPD2    H7 1338   3.110   2.897   0.850  1.1542  1.0093  0.3291
   88TCq2    C1 1339   3.202   2.886   0.667 -0.3032 -0.0704 -0.3597
   88TCq2    O2 1340   3.249   2.929   0.562  0.6117  0.1058 -0.1920
   88TCq2    C2 1341   3.257   2.751   0.700  0.2250  0.9107  0.4996
   88TCq2    C3 1342   3.242   2.714   0.826  0.0471 -0.0420 -0.5249
   88TCq2    C4 1343   3.301   2.597   0.863  0.7453  1.0380  0.6738
   88TCq2    C5 1344   3.381   2.525   0.780 -0.4729 -0.0349 -0.0200
   88TCq2    C6 1345   3.390   2.572   0.654  0.0224  0.0382 -0.1277
   88TCq2    C7 1346   3.332   2.690   0.607 -0.7534  0.0221 -0.7881
   88TCq2    C8 1347   3.486   2.511   0.561 -0.3510  0.0761 -0.2361
   88TCq2    O4 1348   3.526   2.585   0.475  0.4773 -0.2476 -0.5394
   88TCq2    C9 1349   3.276   2.546   0.997 -0.2665  1.1495 -0.3351
   88TCq2    O5 1350   3.353   2.452   1.038 -0.5200  0.0269 -0.6583
   88TCq2    O6 1351   3.167   2.574   1.053 -0.8432 -0.4230  0.1683
   88TCq2    H2 1352   3.192   2.771   0.904 -0.7508 -0.6819 -0.5616
   88TCq2    H3 1353   3.431   2.435   0.811  0.5752 -0.7759 -3.8723
   88TCq2    H4 1354   3.340   2.722   0.504 -0.0169  0.8962 -0.4609
   89MPD2     C 1355   4.717   0.810   1.802  0.3879 -0.2197 -0.0973
   89MPD2    C1 1356   4.705   0.915   1.893  0.0638  0.6245 -0.5496
   89MPD2    C2 1357   0.094   0.983   1.946  0.0737 -0.7380  0.3053
   89MPD2    C3 1358   0.219   0.939   1.910 -0.2622  1.2971  0.2781
   89MPD2    C4 1359   0.231   0.831   1.823 -0.0972  0.8331 -0.8609
   89MPD2    C5 1360   0.125   0.777   1.764 -0.2030 -0.3655 -0.1721
   89MPD2     H 1361   0.084   1.065   2.016  0.4121  0.6523 -1.2929
   89MPD2    H1 1362   0.328   0.799   1.787  0.6421  1.3798  0.6490
   89MPD2    H2 1363   4.641   0.744   1.760 -1.9191  1.6959  1.0757
   89MPD2    H3 1364   0.142   0.707   1.684 -0.2049 -0.1918 -0.3246
   89MPD2     N 1365   0.340   1.003   1.957  0.3701  0.0233 -0.2652
   89MPD2    H5 1366   0.323   1.097   1.991  0.4747  0.1179 -0.4767
   89MPD2    N1 1367   4.579   0.954   1.943 -0.1662  0.0167 -0.2908
   89MPD2    H7 1368   4.565   1.024   2.016  1.4882 -1.1053  1.0960
   90TCq2    C1 1369   0.460   0.941   1.961 -0.1027  0.4739  0.5663
   90TCq2    O2 1370   0.488   0.819   1.969  0.5010  0.6060  0.3549
   90TCq2    C2 1371   0.565   1.025   2.021 -0.0768 -0.4422 -0.2850
   90TCq2    C3 1372   0.605   0.988   2.147 -0.3319  0.4862 -0.5827
   90TCq2    C4 1373   0.636   1.084   2.242 -0.6078  0.1807 -0.2703
   90TCq2    C5 1374   0.620   1.213   2.208  0.2171 -0.0580 -0.4429
   90TCq2    C6 1375   0.584   1.252   2.081  0.0934 -0.3227  0.1811
   90TCq2    C7 1376   0.564   1.157   1.986 -0.3726  0.5448 -0.1913
   90TCq2    C8 1377   0.529   1.383   2.057  0.4369  0.2099 -0.2906
   90TCq2    O4 1378   0.452   1.425   2.144  0.6478 -0.2851  0.2067
   90TCq2    C9 1379   0.679   1.048   2.381  0.6257  0.1111  0.1269
   90TCq2    O5 1380   0.693   1.144   2.462  0.9867  0.2217 -0.4964
   90TCq2    O6 1381   0.730   0.932   2.392  0.1234  0.1283  0.1554
   90TCq2    H2 1382   0.628   0.886   2.175 -0.1739 -0.0035 -2.4484
   90TCq2    H3 1383   0.622   1.287   2.287  0.0677 -0.5119 -0.0124
   90TCq2    H4 1384   0.515   1.184   1.893  0.0863  0.5803 -0.4228
   91TMC2    C1 1385   1.401   0.588  16.621  0.1514 -0.5205 -0.0235
   91TMC2    C2 1386   1.476   0.580  16.737 -0.3109 -0.2728  0.2468
   91TMC2    C3 1387   1.429   0.627  16.853 -0.1232  0.0874 -0.2093
   91TMC2    C4 1388   1.274   0.635  16.618 -0.3220  0.2305 -0.1402
   91TMC2    C5 1389   1.224   0.673  16.742  0.1288 -0.1162  0.0026
   91TMC2    C6 1390   1.303   0.673  16.856  0.0819 -0.3661  0.0658
   91TMC2     C 1391   1.447   0.514  16.509  0.5263  0.7120  0.1438
   91TMC2     O 1392   1.373   0.507  16.411  0.3091 -0.7574 -0.5653
   91TMC2     H 1393   1.574   0.536  16.752 -0.0521  0.1798 -0.1123
   91TMC2    H1 1394   1.211   0.639  16.529  1.3271 -1.2988 -1.3527
   91TMC2    H2 1395   1.262   0.702  16.953 -1.4818 -2.2318 -0.0336
   91TMC2    C7 1396   1.112   0.758  16.749  0.1110 -0.1887 -0.2604
   91TMC2    C8 1397   1.529   0.644  16.960 -0.0088  0.1461 -0.3884
   91TMC2    O1 1398   1.061   0.773  16.857 -0.3776  0.4907  0.2492
   91TMC2    O2 1399   1.641   0.591  16.963 -0.0287 -0.0975 -0.1935
   91TMC2    O5 1400   1.477   0.724  17.051 -0.3498 -0.1495 -0.7312
   91TMC2    H5 1401   1.407   0.779  17.009  1.3988  1.1538 -1.9232
   92MPD2     C 1402   1.596   0.333  16.329  0.1688 -0.1658  0.3934
   92MPD2    C1 1403   1.652   0.402  16.433  0.0845 -0.0776  0.7929
   92MPD2    C2 1404   1.792   0.410  16.439  0.1394  0.3661  0.3213
   92MPD2    C3 1405   1.861   0.372  16.328 -0.2555  0.1674  0.6046
   92MPD2    C4 1406   1.804   0.312  16.223  0.5848 -0.0743  0.3981
   92MPD2    C5 1407   1.669   0.286  16.223  0.0219 -0.3344  0.7704
   92MPD2     H 1408   1.847   0.470  16.511  1.6098 -1.1693  0.4720
   92MPD2    H1 1409   1.859   0.276  16.136  1.7041 -0.8463  1.4252
   92MPD2    H2 1410   1.491   0.312  16.317 -0.4667  1.2970  3.4396
   92MPD2    H3 1411   1.623   0.246  16.133 -1.2843  2.0062  0.4255
   92MPD2     N 1412   2.003   0.396  16.338  0.1027  0.2829  0.4132
   92MPD2    H5 1413   2.035   0.428  16.429 -0.8061  1.2717  0.3985
   92MPD2    N1 1414   1.575   0.472  16.527 -0.1917  0.1742  0.0662
   92MPD2    H7 1415   1.623   0.497  16.613  0.5715 -0.9990 -0.0140
   93MPD2     C 1416   3.203   0.721  13.542 -0.2324  0.1946 -0.1292
   93MPD2    C1 1417   3.167   0.742  13.672 -0.3827 -0.1260 -0.1704
   93MPD2    C2 1418   3.036   0.721  13.713 -0.4471 -0.1455  0.3056
   93MPD2    C3 1419   2.941   0.679  13.622  0.4748  0.3868  0.3502
   93MPD2    C4 1420   2.973   0.659  13.491 -0.0597  0.1264  0.2107
   93MPD2    C5 1421   3.106   0.686  13.452  0.0875  0.3807 -0.3002
   93MPD2     H 1422   3.003   0.748  13.812  1.0364 -1.0337  1.0626
   93MPD2    H1 1423   2.901   0.627  13.416  0.2303 -0.8940  0.3563
   93MPD2    H2 1424   3.301   0.739  13.498  0.5834 -0.7880  1.2987
   93MPD2    H3 1425   3.133   0.674  13.348 -1.3110  0.1605 -0.6389
   93MPD2     N 1426   2.804   0.684  13.654  0.0329  0.8877 -0.0613
   93MPD2    H5 1427   2.737   0.674  13.578  1.8428 -1.2193 -1.3663
   93MPD2    N1 1428   3.261   0.785  13.769 -0.7622  0.2593  0.4935
   93MPD2    H7 1429   3.222   0.809  13.859 -0.2599 -0.7042  0.9603
   94TCq2    C1 1430   3.394   0.814  13.744  0.1711  0.1909  0.5028
   94TCq2    O2 1431   3.460   0.812  13.640 -0.3763  0.2210  0.4633
   94TCq2    C2 1432   3.444   0.913  13.839  0.1866  0.3327 -0.5297
   94TCq2    C3 1433   3.360   1.006  13.894 -0.2995  0.0689 -0.0736
   94TCq2    C4 1434   3.410   1.131  13.921  0.5808 -0.7245  0.4264
   94TCq2    C5 1435   3.543   1.161  13.913 -0.0700  0.1611  0.0643
   94TCq2    C6 1436   3.625   1.063  13.860 -0.2779 -0.6484 -0.1270
   94TCq2    C7 1437   3.575   0.942  13.825  0.0999 -0.1179  0.2596
   94TCq2    C8 1438   3.754   1.103  13.802  1.0880 -0.2660 -0.3746
   94TCq2    O4 1439   3.820   1.007  13.762  0.2961  0.6607 -0.2638
   94TCq2    C9 1440   3.322   1.238  13.957  0.1836 -0.4181  0.1497
   94TCq2    O5 1441   3.361   1.352  13.922  0.0346 -0.5973  0.0925
   94TCq2    O6 1442   3.204   1.199  13.986  0.1997  0.2404 -0.0251
   94TCq2    H2 1443   3.263   0.978  13.935 -0.1715  0.3181  0.3990
   94TCq2    H3 1444   3.571   1.258  13.952  3.9627 -0.9193 -0.0752
   94TCq2    H4 1445   3.649   0.868  13.796  0.7040 -0.0740  1.6654
   95TMC2    C1 1446   3.380   3.142  15.913 -0.2446 -1.4178  0.1032
   95TMC2    C2 1447   3.426   3.077  16.030  0.5801 -0.1911  0.4716
   95TMC2    C3 1448   3.398   3.140  16.144  0.0924  0.0875 -0.5128
   95TMC2    C4 1449   3.313   3.262  15.917 -0.1446  0.1920  0.1453
   95TMC2    C5 1450   3.295   3.322  16.040  0.4165 -0.1485 -0.0298
   95TMC2    C6 1451   3.337   3.264  16.153 -0.6726  0.1387 -0.5083
   95TMC2     C 1452   3.440   3.096  15.785  0.7913 -0.9987  0.5409
   95TMC2     O 1453   3.544   3.031  15.789  0.1054 -0.5033 -0.6168
   95TMC2     H 1454   3.484   2.986  16.020 -1.2232 -1.4177  1.0611
   95TMC2    H1 1455   3.282   3.313  15.826 -1.8181 -1.0812  0.0044
   95TMC2    H2 1456   3.332   3.313  16.249  1.9250  1.8454 -1.2317
   95TMC2    C7 1457   3.225   3.448  16.041 -0.4708 -0.2482  0.4827
   95TMC2    C8 1458   3.426   3.079  16.274 -0.2050  0.4086  0.9743
   95TMC2    O1 1459   3.190   3.489  15.932  0.3035 -0.0456 -0.7353
   95TMC2    O2 1460   3.393   3.139  16.375 -0.0398 -0.9535 -0.1016
   95TMC2    O5 1461   3.389   2.948  16.246 -0.0753  0.6755  0.5110
   95TMC2    H5 1462   3.400   2.912  16.156  1.9428 -2.2164  1.9180
   96MPD2     C 1463   3.455   3.103  15.270  0.0381 -0.1038 -0.0228
   96MPD2    C1 1464   3.559   3.114  15.356 -0.8439 -0.1865  0.6115
   96MPD2    C2 1465   3.529   3.123  15.492 -0.9657  0.0457  0.4779
   96MPD2    C3 1466   3.399   3.118  15.539  0.4867 -0.1771 -0.3585
   96MPD2    C4 1467   3.292   3.120  15.451  0.0899 -0.2629 -0.4027
   96MPD2    C5 1468   3.323   3.105  15.317 -0.1973  0.1231 -0.0970
   96MPD2     H 1469   3.612   3.117  15.561  1.4849  0.5496 -2.3928
   96MPD2    H1 1470   3.187   3.106  15.472  0.2945 -1.1609  0.0385
   96MPD2    H2 1471   3.481   3.093  15.165  0.2190 -1.0814  0.1171
   96MPD2    H3 1472   3.237   3.099  15.252  0.9444 -0.1573 -1.5990
   96MPD2     N 1473   3.365   3.128  15.673  0.5236 -0.2818  0.6815
   96MPD2    H5 1474   3.264   3.133  15.684  0.5367 -1.5550  1.4321
   96MPD2    N1 1475   3.684   3.110  15.298 -0.0166  0.3482 -0.5499
   96MPD2    H7 1476   3.679   3.114  15.197  0.4134  2.1012 -0.5142
   97MPD2     C 1477   0.313   0.165   0.725  0.1267  0.0770  0.4976
   97MPD2    C1 1478   0.446   0.174   0.741 -0.7279 -0.7898 -0.7751
   97MPD2    C2 1479   0.535   0.157   0.629  0.3893  0.2379  0.1012
   97MPD2    C3 1480   0.476   0.147   0.506  0.4098 -0.2111  0.4511
   97MPD2    C4 1481   0.334   0.148   0.491 -0.0229  0.3053 -0.7418
   97MPD2    C5 1482   0.259   0.163   0.605  0.4776 -0.1748 -0.0847
   97MPD2     H 1483   0.641   0.164   0.651 -0.1559  0.6560  2.5726
   97MPD2    H1 1484   0.289   0.129   0.395  0.6785  0.3200 -1.0759
   97MPD2    H2 1485   0.240   0.164   0.805  0.9313  0.5106  1.2343
   97MPD2    H3 1486   0.152   0.159   0.586  0.7379 -0.5320 -1.4450
   97MPD2     N 1487   0.553   0.129   0.390  0.5158 -0.2018 -0.5268
   97MPD2    H5 1488   0.500   0.113   0.305  0.6870  0.3703 -0.7382
   97MPD2    N1 1489   0.473   0.204   0.875  0.1205  0.8877 -0.3335
   97MPD2    H7 1490   0.396   0.202   0.942  0.8673  1.5349  0.5434
   98TCq2    C1 1491   0.689   0.144   0.382  0.0900 -0.2948 -0.3455
   98TCq2    O2 1492   0.765   0.185   0.464 -0.1608  0.5022 -0.0499
   98TCq2    C2 1493   0.724   0.138   0.240  0.2053 -0.2348  0.4312
   98TCq2    C3 1494   0.652   0.071   0.149  0.5606 -0.2313  0.2849
   98TCq2    C4 1495   0.689   0.065   0.017  0.5149  0.3355 -0.7105
   98TCq2    C5 1496   0.797   0.136  17.673  0.1057  0.2517  0.6068
   98TCq2    C6 1497   0.876   0.193   0.067  0.1570  0.5485 -0.3824
   98TCq2    C7 1498   0.842   0.196   0.205 -0.2648 -0.1359 -0.3290
   98TCq2    C8 1499   0.944   0.308   0.030  0.3097 -0.1689  0.0288
   98TCq2    O4 1500   1.030   0.352   0.102  0.0320 -0.3375  0.3882
   98TCq2    C9 1501   0.620   4.707  17.627  0.0478 -0.0053  0.1873
   98TCq2    O5 1502   0.647   0.006  17.505 -0.1099 -0.6724  0.1059
   98TCq2    O6 1503   0.515   4.648  17.657  0.7919 -0.2055  0.4231
   98TCq2    H2 1504   0.565   0.010   0.170  1.1523 -1.1405  0.1209
   98TCq2    H3 1505   0.822   0.131  17.568  0.5313  2.0730  0.6281
   98TCq2    H4 1506   0.897   0.251   0.281 -0.5261 -2.3468  1.4732
   99MPD2     C 1507   4.212   1.660   2.087 -0.8662  0.1067 -0.5715
   99MPD2    C1 1508   4.081   1.652   2.062 -0.1366 -0.3658 -0.2560
   99MPD2    C2 1509   4.034   1.641   1.932 -0.1391  0.4388  0.0068
   99MPD2    C3 1510   4.112   1.662   1.829  0.2373 -0.5069  0.1698
   99MPD2    C4 1511   4.245   1.676   1.854 -0.0499  0.2429 -0.1518
   99MPD2    C5 1512   4.296   1.673   1.978  0.3698  0.1544  0.1992
   99MPD2     H 1513   3.929   1.618   1.914  0.5365 -1.3416 -1.6612
   99MPD2    H1 1514   4.319   1.675   1.775  1.1794  2.8724  0.9650
   99MPD2    H2 1515   4.261   1.668   2.183  1.3828 -1.3023 -1.6065
   99MPD2    H3 1516   4.400   1.692   1.998  0.6999 -1.3411 -0.0955
   99MPD2     N 1517   4.047   1.653   1.699  0.0616  0.0756 -0.0210
   99MPD2    H5 1518   3.947   1.643   1.691  0.3576 -2.2552 -0.9006
   99MPD2    N1 1519   3.982   1.656   2.171 -0.2047 -0.1026 -0.0436
   99MPD2    H7 1520   3.888   1.636   2.137 -1.1359  1.0656  1.8332
  100TCq2    C1 1521   4.016   1.656   2.308  0.8003  0.3953  0.7748
  100TCq2    O2 1522   4.125   1.668   2.359  0.2360  0.6336 -0.1947
  100TCq2    C2 1523   3.912   1.611   2.393 -0.8282  0.3597 -0.5211
  100TCq2    C3 1524   3.943   1.586   2.525 -0.1812  0.3875  0.0496
  100TCq2    C4 1525   3.849   1.569   2.621 -0.1767 -1.1835  0.2256
  100TCq2    C5 1526   3.720   1.585   2.588  0.2900  0.0100  0.5540
  100TCq2    C6 1527   3.688   1.620   2.457 -0.2874 -0.2338  0.1612
  100TCq2    C7 1528   3.780   1.630   2.357 -0.4687 -0.0757 -0.4564
  100TCq2    C8 1529   3.546   1.636   2.428  0.6511  0.0630  0.2829
  100TCq2    O4 1530   3.470   1.637   2.524  0.0971  0.1105  0.5895
  100TCq2    C9 1531   3.886   1.538   2.756 -0.0538 -0.3377  0.7134
  100TCq2    O5 1532   4.004   1.505   2.774 -0.3112  0.4755 -0.7292
  100TCq2    O6 1533   3.794   1.517   2.838  0.1037 -0.4492  0.1304
  100TCq2    H2 1534   4.044   1.597   2.564 -0.8205 -0.5589  1.9541
  100TCq2    H3 1535   3.641   1.586   2.662 -0.4594  2.0842 -0.2725
  100TCq2    H4 1536   3.758   1.655   2.253 -0.9653 -2.1121 -0.8393
  101MPD2     C 1537   0.143   3.082  13.215  0.2592  0.2850 -0.1849
  101MPD2    C1 1538   0.009   3.116  13.211  0.0420 -0.2801 -0.0434
  101MPD2    C2 1539   4.634   3.016  13.228 -0.0189 -1.1547 -0.2396
  101MPD2    C3 1540   4.676   2.887  13.237  0.1275 -0.1230 -0.0485
  101MPD2    C4 1541   0.081   2.848  13.227 -0.7947  0.3924  0.9566
  101MPD2    C5 1542   0.175   2.946  13.209 -0.0798 -0.0913  0.2934
  101MPD2     H 1543   4.531   3.040  13.250  0.4452  1.0393 -0.4168
  101MPD2    H1 1544   0.121   2.747  13.230 -1.4957  0.1571  2.3875
  101MPD2    H2 1545   0.227   3.149  13.206 -0.1326  0.7590 -0.3401
  101MPD2    H3 1546   0.279   2.921  13.193 -0.0783 -0.2644  0.5821
  101MPD2     N 1547   4.579   2.790  13.256 -0.0329 -0.6519  0.0022
  101MPD2    H5 1548   4.484   2.825  13.260  0.7148  1.3708 -0.0542
  101MPD2    N1 1549   4.696   3.251  13.184 -0.1066  0.0813  0.2671
  101MPD2    H7 1550   0.047   3.317  13.172  0.6567 -0.7388  0.5977
  102TCq2    C1 1551   4.680   3.481  12.752 -0.6755 -0.6723 -0.1321
  102TCq2    O2 1552   0.052   3.409  12.756  0.6302 -0.1684 -0.1670
  102TCq2    C2 1553   4.596   3.486  12.867  0.0950  0.6321 -0.5819
  102TCq2    C3 1554   4.485   3.572  12.875 -0.4956 -0.4279  0.8502
  102TCq2    C4 1555   4.402   3.562  12.985 -0.4757  0.5617 -0.6402
  102TCq2    C5 1556   4.420   3.473  13.080  0.1202  0.1032  0.1482
  102TCq2    C6 1557   4.540   3.397  13.084  0.1996  0.6202  0.6053
  102TCq2    C7 1558   4.625   3.407  12.975 -0.2976  0.1051 -0.8142
  102TCq2    C8 1559   4.564   3.290  13.171  0.5786 -0.0491 -0.0120
  102TCq2    O4 1560   4.465   3.239  13.219  0.0292 -0.1845 -0.1242
  102TCq2    C9 1561   4.286   3.653  13.002  0.0021  0.2309 -0.2175
  102TCq2    O5 1562   4.223   3.650  13.114 -0.2755  0.3774  0.3161
  102TCq2    O6 1563   4.246   3.705  12.889 -0.2167 -0.1836  0.1336
  102TCq2    H2 1564   4.453   3.640  12.797 -0.1162  0.3203  1.3460
  102TCq2    H3 1565   4.350   3.460  13.162  0.8209  0.2621  0.7700
  102TCq2    H4 1566   4.711   3.340  12.973  1.0600  1.8498 -0.6225
  103TMC2    C1 1567   2.419   3.649  11.948 -0.6487  0.6053 -0.5653
  103TMC2    C2 1568   2.307   3.725  11.974  0.6731  0.4017 -0.6028
  103TMC2    C3 1569   2.246   3.722  12.093  0.6523  0.5020  0.1786
  103TMC2    C4 1570   2.481   3.591  12.051  0.1595 -1.2803 -0.4588
  103TMC2    C5 1571   2.425   3.601  12.176  0.5032 -0.1872 -0.1511
  103TMC2    C6 1572   2.301   3.658  12.200  0.7572 -0.0416 -0.0191
  103TMC2     C 1573   2.428   3.593  11.820 -0.0999 -0.2342 -0.0101
  103TMC2     O 1574   2.364   3.646  11.731 -0.5811 -0.0330  0.2967
  103TMC2     H 1575   2.256   3.772  11.890 -0.7352 -1.5270 -0.8559
  103TMC2    H1 1576   2.581   3.550  12.040  1.1986  1.9705 -3.0729
  103TMC2    H2 1577   2.262   3.668  12.300 -0.8935 -0.4775 -0.6300
  103TMC2    C7 1578   2.481   3.528  12.286 -0.2469 -0.3056  0.2631
  103TMC2    C8 1579   2.107   3.758  12.105 -0.1770 -0.0218 -0.5061
  103TMC2    O1 1580   2.601   3.540  12.309 -0.1755  0.4295 -0.0424
  103TMC2    O2 1581   2.056   3.837  12.024 -0.1604  0.2144 -0.2829
  103TMC2    O5 1582   2.051   3.637  12.136 -0.0110  0.4867  0.3637
  103TMC2    H5 1583   2.120   3.570  12.153 -1.3449 -0.7629  0.7559
  104MPD2     C 1584   2.580   3.280  11.727  0.7046 -0.2152 -0.3524
  104MPD2    C1 1585   2.518   3.402  11.698 -0.6349  0.0491 -0.5339
  104MPD2    C2 1586   2.473   3.425  11.569 -0.2382  0.1142  0.6755
  104MPD2    C3 1587   2.469   3.323  11.469  0.2739  0.1666 -0.1630
  104MPD2    C4 1588   2.529   3.205  11.503  0.9792 -0.0107  0.7267
  104MPD2    C5 1589   2.582   3.183  11.628 -0.0116 -0.5708  0.5635
  104MPD2     H 1590   2.432   3.522  11.545 -1.2011 -0.8327 -1.5424
  104MPD2    H1 1591   2.533   3.120  11.436 -1.0317  1.5560 -1.3786
  104MPD2    H2 1592   2.619   3.242  11.821 -0.0832 -0.0928  0.0233
  104MPD2    H3 1593   2.647   3.099  11.648 -0.6399 -1.4087 -0.9208
  104MPD2     N 1594   2.393   3.354  11.355  0.2969  0.1497  0.0136
  104MPD2    H5 1595   2.349   3.445  11.347  1.4314  0.6196 -0.8966
  104MPD2    N1 1596   2.499   3.484  11.812 -0.7020 -0.5437 -1.1517
  104MPD2    H7 1597   2.545   3.454  11.897 -0.5314 -2.6403 -1.9764
  105MPD2     C 1598   4.653   2.354  17.225  0.1320  0.5932 -0.0866
  105MPD2    C1 1599   4.586   2.473  17.238  0.1581  0.3368 -0.2419
  105MPD2    C2 1600   4.469   2.481  17.312 -0.6796  0.3234 -0.0419
  105MPD2    C3 1601   4.412   2.360  17.346 -0.2559 -0.6619  0.2951
  105MPD2    C4 1602   4.468   2.241  17.310  0.0807 -0.0466  0.2434
  105MPD2    C5 1603   4.596   2.237  17.260  0.3144  0.8813 -0.2700
  105MPD2     H 1604   4.426   2.573  17.348  0.1094  0.4387  0.6120
  105MPD2    H1 1605   4.415   2.147  17.325  1.1095 -0.8594 -1.2298
  105MPD2    H2 1606   0.013   2.341  17.159  0.6428  3.6957 -0.0329
  105MPD2    H3 1607   4.632   2.141  17.224 -3.8065 -0.3864 -1.0348
  105MPD2     N 1608   4.298   2.364  17.427  0.2699 -0.0897 -0.2686
  105MPD2    H5 1609   4.275   2.455  17.466  3.0168  0.8186 -0.7582
  105MPD2    N1 1610   4.635   2.588  17.171  0.0587 -0.5991  0.1949
  105MPD2    H7 1611   4.573   2.668  17.158 -1.1736 -1.4891  0.6425
  106TCq2    C1 1612   4.205   2.266  17.447 -0.2017 -0.7610 -0.6673
  106TCq2    O2 1613   4.205   2.148  17.418 -0.1109 -0.6665 -0.0203
  106TCq2    C2 1614   4.087   2.315  17.520  0.0435 -1.1788 -0.8414
  106TCq2    C3 1615   4.048   2.443  17.492  0.1906 -0.7094  0.3194
  106TCq2    C4 1616   3.946   2.493  17.569 -0.3577  0.0711  0.1700
  106TCq2    C5 1617   3.879   2.415  17.658  0.8605  0.2115 -0.1814
  106TCq2    C6 1618   3.922   2.285  17.683 -0.7991 -0.8878 -0.4032
  106TCq2    C7 1619   4.025   2.234  17.607 -0.7141  0.8812  0.6303
  106TCq2    C8 1620   3.890   2.213   0.103 -0.5868  0.2237  0.0341
  106TCq2    O4 1621   3.934   2.099   0.112  0.1661 -0.2349 -0.2808
  106TCq2    C9 1622   3.907   2.635  17.550 -0.3880  0.7258  0.5681
  106TCq2    O5 1623   3.817   2.676  17.624  0.2162  0.2183 -0.4046
  106TCq2    O6 1624   3.963   2.702  17.461  0.2621  0.5203  0.4875
  106TCq2    H2 1625   4.098   2.513  17.425 -0.4281 -0.4141  0.1636
  106TCq2    H3 1626   3.802   2.464   0.014  0.7434 -1.2459  0.8701
  106TCq2    H4 1627   4.058   2.131  17.618  0.4725  1.4837  2.7033
  107TMC2    C1 1628   0.555   1.780  11.766 -0.5050  0.4930  0.3738
  107TMC2    C2 1629   0.594   1.767  11.899  0.1205 -0.3003 -0.4769
  107TMC2    C3 1630   0.728   1.780  11.923  0.4049 -0.2176 -0.2568
  107TMC2    C4 1631   0.641   1.809  11.662 -0.2798 -0.8366  0.5643
  107TMC2    C5 1632   0.769   1.838  11.696 -0.1686  0.8977  0.4845
  107TMC2    C6 1633   0.812   1.807  11.825  0.6543  0.8707  0.5171
  107TMC2     C 1634   0.417   1.810  11.743 -0.6425 -0.0648 -0.1504
  107TMC2     O 1635   0.335   1.769  11.827  0.1688 -0.5256  1.0104
  107TMC2     H 1636   0.521   1.761  11.979  0.8109 -0.2540  0.1536
  107TMC2    H1 1637   0.606   1.808  11.559  0.8040  1.4844  0.1859
  107TMC2    H2 1638   0.917   1.810  11.849  0.8869  1.6684 -0.5809
  107TMC2    C7 1639   0.878   1.858  11.598  0.2453  0.6310 -0.4729
  107TMC2    C8 1640   0.789   1.766  12.051  0.2357 -0.2739  0.4280
  107TMC2    O1 1641   0.991   1.866  11.637  0.0080  0.3851  0.5523
  107TMC2    O2 1642   0.908   1.776  12.072 -0.4365 -0.6097 -0.2016
  107TMC2    O5 1643   0.714   1.675  12.117 -0.2039 -0.0038 -0.0663
  107TMC2    H5 1644   0.623   1.670  12.079 -0.7377 -2.4931  1.5667
  108MPD2     C 1645   0.294   2.075  11.521 -0.2480  0.4093 -0.5054
  108MPD2    C1 1646   0.290   1.985  11.621 -0.9596 -0.3961 -0.0791
  108MPD2    C2 1647   0.181   1.994  11.713 -0.1440  0.0297  0.4112
  108MPD2    C3 1648   0.078   2.088  11.698 -0.3296  0.5207 -0.5161
  108MPD2    C4 1649   0.080   2.164  11.580  0.5621 -0.5846  0.7039
  108MPD2    C5 1650   0.187   2.155  11.495 -0.1382  0.3605 -0.2841
  108MPD2     H 1651   0.177   1.920  11.791  1.2047 -0.6514 -0.1503
  108MPD2    H1 1652   0.003   2.238  11.563  0.6317 -0.9863 -1.2943
  108MPD2    H2 1653   0.377   2.077  11.452  0.1778  1.3870  0.0281
  108MPD2    H3 1654   0.185   2.212  11.403  1.9215  0.1850 -0.4272
  108MPD2     N 1655   4.714   2.117  11.797  0.3499  0.4352 -0.6849
  108MPD2    H5 1656   4.647   2.190  11.777 -0.1019 -0.0155 -0.8192
  108MPD2    N1 1657   0.403   1.894  11.633  0.0042  0.4426  0.2419
  108MPD2    H7 1658   0.481   1.906  11.569 -0.3498 -0.7902 -0.4311
  109MPD2     C 1659   0.060   4.134   1.944  0.5787  0.5310 -0.3525
  109MPD2    C1 1660   0.103   4.216   1.837  0.0811  0.2634  1.0485
  109MPD2    C2 1661   0.237   4.251   1.824 -0.1509  0.4227 -0.3830
  109MPD2    C3 1662   0.325   4.216   1.927 -0.9215  0.1695  0.2852
  109MPD2    C4 1663   0.274   4.151   2.037  0.2279 -0.4929 -0.9236
  109MPD2    C5 1664   0.146   4.103   2.039 -0.3256 -0.5074  0.4991
  109MPD2     H 1665   0.269   4.320   1.746 -2.7071  0.3729 -1.4766
  109MPD2    H1 1666   0.334   4.123   2.123 -0.0274 -2.4304 -1.3745
  109MPD2    H2 1667   4.688   4.087   1.953  0.8338  0.1008  0.1067
  109MPD2    H3 1668   0.121   4.059   2.135 -0.0401 -0.8951  0.3971
  109MPD2     N 1669   0.458   4.259   1.913 -0.1058 -1.1559 -0.3817
  109MPD2    H5 1670   0.476   4.302   1.823  0.2788 -0.8439 -0.1509
  109MPD2    N1 1671   0.013   4.233   1.740  0.1710 -0.9038  0.0380
  109MPD2    H7 1672   4.644   4.212   1.772  0.3843 -1.6291  0.1927
  110TCq2    C1 1673   0.556   4.241   2.006  0.0340  0.2907  0.2764
  110TCq2    O2 1674   0.560   4.179   2.113 -0.4220 -0.4830 -0.1396
  110TCq2    C2 1675   0.682   4.298   1.970  0.2972  0.3318  0.0636
  110TCq2    C3 1676   0.787   4.271   2.052  0.1163  0.7222 -0.3567
  110TCq2    C4 1677   0.908   4.338   2.020 -0.2225 -0.8446  0.1332
  110TCq2    C5 1678   0.925   4.420   1.909  0.2443 -0.5861 -0.4597
  110TCq2    C6 1679   0.821   4.434   1.826 -0.6256  0.6225 -0.0645
  110TCq2    C7 1680   0.692   4.379   1.857  0.2586  0.0810 -0.3414
  110TCq2    C8 1681   0.826   4.524   1.709  0.2141 -0.1411 -0.7561
  110TCq2    O4 1682   0.722   4.546   1.643 -0.8331 -0.9343 -0.0422
  110TCq2    C9 1683   1.025   4.313   2.102  0.0531 -0.0604  0.1423
  110TCq2    O5 1684   1.006   4.252   2.210 -0.2676 -0.3865  0.1969
  110TCq2    O6 1685   1.137   4.363   2.071 -0.2889 -0.1906 -0.5667
  110TCq2    H2 1686   0.786   4.210   2.141  1.3423  1.6934  0.3261
  110TCq2    H3 1687   1.024   4.458   1.885 -0.1562  0.8706  0.2360
  110TCq2    H4 1688   0.625   4.389   1.772 -0.1365  1.1281  0.0926
  111TMC2    C1 1689   0.563   3.826  11.384 -0.0595 -0.0000 -0.6388
  111TMC2    C2 1690   0.651   3.877  11.293 -0.5218  0.1622  0.3490
  111TMC2    C3 1691   0.788   3.853  11.313  0.0403 -0.5646 -0.3983
  111TMC2    C4 1692   0.607   3.745  11.491 -0.3604 -0.3198 -0.3214
  111TMC2    C5 1693   0.741   3.739  11.514  0.5324 -0.7018 -0.2509
  111TMC2    C6 1694   0.835   3.796  11.434  0.2914  0.5211 -0.5514
  111TMC2     C 1695   0.427   3.889  11.389  0.2002  0.7098 -0.5015
  111TMC2     O 1696   0.371   3.875  11.495 -0.3825 -0.2785  0.3061
  111TMC2     H 1697   0.627   3.959  11.226 -1.6727 -0.4352  0.0337
  111TMC2    H1 1698   0.540   3.718  11.572 -1.0917  3.5028  0.3528
  111TMC2    H2 1699   0.937   3.762  11.444  0.8112  2.3896  0.4754
  111TMC2    C7 1700   0.779   3.680  11.641 -0.7739  0.1468 -0.0045
  111TMC2    C8 1701   0.884   3.899  11.211  0.2019  0.6533  0.3781
  111TMC2    O1 1702   0.708   3.594  11.694  0.3407 -0.0988  0.1229
  111TMC2    O2 1703   1.005   3.900  11.230 -0.1818  0.5231 -0.8509
  111TMC2    O5 1704   0.835   3.861  11.095  0.0302  0.4962 -0.7435
  111TMC2    H5 1705   0.749   3.814  11.107 -0.3946  1.3652 -0.4333
  112MPD2     C 1706   0.033   4.174  11.240 -0.2518 -0.3402  0.5667
  112MPD2    C1 1707   0.093   4.129  11.131  0.1487  0.0178  0.2261
  112MPD2    C2 1708   0.216   4.058  11.138  0.4996  0.3458 -0.6374
  112MPD2    C3 1709   0.258   4.022  11.263  0.1709 -1.1430 -0.3222
  112MPD2    C4 1710   0.201   4.077  11.374 -0.8311 -0.2011 -0.3447
  112MPD2    C5 1711   0.083   4.149  11.366 -0.0058 -0.1672 -0.5170
  112MPD2     H 1712   0.275   4.026  11.053 -0.1487 -0.1294 -0.9023
  112MPD2    H1 1713   0.241   4.067  11.475  0.8979 -1.9459 -1.2212
  112MPD2    H2 1714   4.658   4.215  11.236 -0.4640 -0.9352 -0.1787
  112MPD2    H3 1715   0.046   4.189  11.460 -1.4374 -4.6637  0.8045
  112MPD2     N 1716   0.384   3.951  11.274 -0.1191 -0.5230 -0.4995
  112MPD2    H5 1717   0.420   3.924  11.183 -1.6727  1.5470 -1.7705
  112MPD2    N1 1718   0.037   4.149  11.001  0.1032 -0.0677  0.6550
  112MPD2    H7 1719   0.084   4.102  10.925 -0.6163 -0.6969  0.5956
  113MPD2     C 1720   3.027   1.559   1.111  0.5170  0.2487  0.4926
  113MPD2    C1 1721   2.950   1.669   1.103  1.1848  0.6331  0.2436
  113MPD2    C2 1722   2.812   1.653   1.113  0.5768  0.0853  0.7810
  113MPD2    C3 1723   2.753   1.536   1.147  0.1790 -0.1293  0.0777
  113MPD2    C4 1724   2.834   1.425   1.169  0.4084  0.3044  0.5349
  113MPD2    C5 1725   2.971   1.439   1.149 -0.4352  0.2918  0.9578
  113MPD2     H 1726   2.752   1.739   1.088  0.1396 -0.0125  1.4848
  113MPD2    H1 1727   2.789   1.327   1.184  2.1559 -0.3251  1.6254
  113MPD2    H2 1728   3.135   1.563   1.099  0.4620  1.5245  0.3964
  113MPD2    H3 1729   3.029   1.348   1.155  1.7600  1.6197 -0.0024
  113MPD2     N 1730   2.615   1.518   1.160  0.6288 -0.0546  0.0138
  113MPD2    H5 1731   2.581   1.433   1.203 -2.0910  0.6649 -0.7178
  113MPD2    N1 1732   3.002   1.797   1.070 -0.0777 -0.2427  0.5680
  113MPD2    H7 1733   2.938   1.861   1.023 -0.5221 -1.2384 -0.1740
  114TCq2    C1 1734   2.521   1.603   1.117  0.1978 -0.2229 -0.7286
  114TCq2    O2 1735   2.545   1.696   1.042  0.3668 -0.3743 -0.3023
  114TCq2    C2 1736   2.381   1.570   1.143 -0.4093  0.3590  0.5067
  114TCq2    C3 1737   2.297   1.658   1.074 -0.6193 -0.2966  0.0422
  114TCq2    C4 1738   2.165   1.647   1.099  0.2971 -0.7385  0.4834
  114TCq2    C5 1739   2.115   1.548   1.174 -0.2899  0.3065 -0.4233
  114TCq2    C6 1740   2.203   1.465   1.241  0.0702 -0.3710 -0.1577
  114TCq2    C7 1741   2.338   1.477   1.234  0.8008  0.9837 -0.3232
  114TCq2    C8 1742   2.134   1.381   1.336 -0.5659 -0.0082 -0.1556
  114TCq2    O4 1743   2.025   1.337   1.299 -0.0106  0.1796  0.7529
  114TCq2    C9 1744   2.070   1.733   1.035 -0.3168 -0.5869 -0.1683
  114TCq2    O5 1745   2.118   1.837   0.977 -0.0014 -0.1962 -0.2460
  114TCq2    O6 1746   1.958   1.738   1.096 -0.1544  0.7041 -0.3438
  114TCq2    H2 1747   2.327   1.732   1.002 -3.4319  0.7301 -0.0631
  114TCq2    H3 1748   2.008   1.529   1.164 -0.2912 -0.1825  0.5295
  114TCq2    H4 1749   2.397   1.401   1.285 -0.7387 -0.0304 -0.0583
  115TMC2    C1 1750   3.893   0.074  16.849  0.2205  0.1415 -0.1204
  115TMC2    C2 1751   3.875   0.118  16.719  0.4363 -0.0549 -0.5649
  115TMC2    C3 1752   3.921   0.239  16.685 -0.5808 -0.5213  0.3827
  115TMC2    C4 1753   3.959   0.148  16.944  0.5324 -0.5164  0.0786
  115TMC2    C5 1754   4.011   0.266  16.898 -0.1616  0.2027  0.3281
  115TMC2    C6 1755   3.989   0.317  16.773  0.0052 -0.0948 -1.3336
  115TMC2     C 1756   3.837   4.671  16.879  0.2017 -0.1340 -0.4518
  115TMC2     O 1757   3.835   4.589  16.784 -0.5913  0.5406  0.3243
  115TMC2     H 1758   3.820   0.055  16.652 -1.8249  1.3789 -0.0557
  115TMC2    H1 1759   3.983   0.114  17.044  1.7929  0.3625  0.0743
  115TMC2    H2 1760   4.047   0.396  16.727  0.0115 -0.0839 -1.3071
  115TMC2    C7 1761   4.043   0.364  17.007 -0.3294 -0.3191  0.2204
  115TMC2    C8 1762   3.851   0.299  16.571  0.1184 -0.2914  0.0017
  115TMC2    O1 1763   4.052   0.320  17.126  0.1340 -0.3247 -0.2167
  115TMC2    O2 1764   3.793   0.240  16.481  0.3799  0.0696  0.2171
  115TMC2    O5 1765   3.885   0.431  16.555 -0.5236 -0.4790 -0.3448
  115TMC2    H5 1766   3.908   0.490  16.630 -0.1786 -2.9343  1.4675
  116MPD2     C 1767   3.759   4.275  17.202  0.4377  0.4317  0.1347
  116MPD2    C1 1768   3.713   4.290  17.067  0.1134  0.1431  0.2350
  116MPD2    C2 1769   3.736   4.407  17.002  0.8128  1.2122  0.5222
  116MPD2    C3 1770   3.793   4.516  17.067  0.0932 -0.3632 -0.3922
  116MPD2    C4 1771   3.829   4.505  17.202  0.0114 -0.2743 -0.6559
  116MPD2    C5 1772   3.823   4.384  17.262  0.6675 -0.1074 -0.0879
  116MPD2     H 1773   3.696   4.413  16.901 -0.4719  1.1631  1.0332
  116MPD2    H1 1774   3.878   4.583  17.258 -0.8123 -0.2885  0.0871
  116MPD2    H2 1775   3.748   4.183  17.259  1.7245 -0.1316 -0.5146
  116MPD2    H3 1776   3.858   4.386  17.364 -0.3338  1.6389  0.2129
  116MPD2     N 1777   3.821   4.644  17.010 -0.6737  0.1242  0.3339
  116MPD2    H5 1778   3.858   4.719  17.068  2.4118 -0.3031 -1.0819
  116MPD2    N1 1779   3.641   4.189  17.009 -0.4345  0.1900  0.6494
  116MPD2    H7 1780   3.644   4.099  17.055 -1.4147  0.1428  0.6214
  117TMC2    C1 1781   2.678   1.217  13.862  0.5815  0.9332 -0.0673
  117TMC2    C2 1782   2.769   1.125  13.826 -0.6212 -0.1641  0.0307
  117TMC2    C3 1783   2.900   1.157  13.836  0.7767 -0.1958 -0.1801
  117TMC2    C4 1784   2.710   1.331  13.925 -0.0149 -0.5207  0.2570
  117TMC2    C5 1785   2.842   1.353  13.935 -0.5848 -0.2230 -0.4039
  117TMC2    C6 1786   2.939   1.274  13.888 -0.1078 -0.3509 -0.0362
  117TMC2     C 1787   2.538   1.183  13.833 -0.1713  0.2549  0.2972
  117TMC2     O 1788   2.512   1.071  13.795  0.0384 -0.5635  0.3974
  117TMC2     H 1789   2.739   1.033  13.776 -1.5473  0.6862 -0.9743
  117TMC2    H1 1790   2.639   1.411  13.946 -1.7102 -2.3649  1.5631
  117TMC2    H2 1791   3.036   1.323  13.893 -0.3463  0.0285  0.8723
  117TMC2    C7 1792   2.873   1.487  13.983 -0.1425 -0.4270 -0.2558
  117TMC2    C8 1793   2.981   1.088  13.742 -0.5148  0.4742  0.1571
  117TMC2    O1 1794   2.966   1.551  13.942  0.1941 -0.0746 -0.1730
  117TMC2    O2 1795   2.926   1.026  13.654  0.0429  0.7509 -0.5108
  117TMC2    O5 1796   3.107   1.139  13.737  0.0975 -0.1209 -0.2978
  117TMC2    H5 1797   3.131   1.172  13.827 -0.7556 -0.7207  0.1463
  118MPD2     C 1798   2.752   1.618  14.301 -0.5409  0.6924 -0.2207
  118MPD2    C1 1799   2.799   1.625  14.175  0.4518  0.3359 -0.1220
  118MPD2    C2 1800   2.842   1.747  14.121 -0.3388 -0.4780 -0.5961
  118MPD2    C3 1801   2.854   1.856  14.202 -0.0958  0.8839  0.3766
  118MPD2    C4 1802   2.791   1.855  14.332 -0.6033  0.5544 -0.4351
  118MPD2    C5 1803   2.746   1.735  14.373  0.0359 -0.2818  0.0293
  118MPD2     H 1804   2.879   1.757  14.019  0.1216  1.9518 -0.1928
  118MPD2    H1 1805   2.770   1.951  14.376 -0.5526  1.4234 -2.3151
  118MPD2    H2 1806   2.723   1.527  14.353 -0.3103  0.6125 -0.2287
  118MPD2    H3 1807   2.701   1.735  14.472  0.2033  0.8788  0.1039
  118MPD2     N 1808   2.918   1.977  14.163  0.2271  0.1482 -0.5640
  118MPD2    H5 1809   2.952   1.981  14.067  0.6135  1.2113 -0.3828
  118MPD2    N1 1810   2.800   1.511  14.099 -0.1576  0.5648 -0.1897
  118MPD2    H7 1811   2.740   1.439  14.139  1.8890 -0.5015  0.9661
  119MPD2     C 1812   1.205   2.943  13.387 -0.6566  0.2177  0.1995
  119MPD2    C1 1813   1.068   2.916  13.390  0.3721  0.1522 -0.4042
  119MPD2    C2 1814   1.015   2.821  13.303  0.2770  0.2529 -0.0685
  119MPD2    C3 1815   1.097   2.741  13.230 -0.2914  0.7732  0.3928
  119MPD2    C4 1816   1.230   2.760  13.232  0.6766 -0.6606  1.1333
  119MPD2    C5 1817   1.282   2.863  13.311  0.7048 -0.2652 -0.4379
  119MPD2     H 1818   0.908   2.811  13.299  0.3099  0.4645 -1.4941
  119MPD2    H1 1819   1.299   2.695  13.180 -0.4257 -0.1338 -0.9762
  119MPD2    H2 1820   1.255   3.016  13.450 -0.6312  0.7966 -0.4984
  119MPD2    H3 1821   1.389   2.878  13.300  0.5503  0.9414 -0.2936
  119MPD2     N 1822   1.047   2.634  13.147  1.0388  0.4448 -0.6437
  119MPD2    H5 1823   1.118   2.572  13.110  0.1583 -0.9200 -0.0412
  119MPD2    N1 1824   0.989   2.994  13.482  0.3287  0.1007  0.3683
  119MPD2    H7 1825   1.037   3.056  13.546  1.5848 -0.1855 -0.3127
  120TCq2    C1 1826   0.914   2.600  13.142 -0.1740  0.5319  0.3776
  120TCq2    O2 1827   0.812   2.665  13.170  0.6701  0.2010  0.2688
  120TCq2    C2 1828   0.902   2.458  13.097 -0.7136 -0.6773 -0.0514
  120TCq2    C3 1829   1.000   2.395  13.034 -0.1635  0.2228 -0.4078
  120TCq2    C4 1830   0.993   2.263  13.014  0.3894 -0.1442  0.2170
  120TCq2    C5 1831   0.891   2.194  13.067  0.2088 -0.4213 -0.7111
  120TCq2    C6 1832   0.795   2.258  13.144 -0.0101  0.5262 -0.5100
  120TCq2    C7 1833   0.802   2.393  13.157 -0.4545 -0.0660  0.4557
  120TCq2    C8 1834   0.680   2.178  13.185 -0.0752 -0.1344 -0.0161
  120TCq2    O4 1835   0.667   2.062  13.158 -0.4434  0.3478  0.0480
  120TCq2    C9 1836   1.090   2.196  12.928 -0.0324  0.2433 -0.0304
  120TCq2    O5 1837   1.181   2.262  12.871  0.4384 -0.3105  0.6891
  120TCq2    O6 1838   1.074   2.072  12.903  0.0767  0.1867 -0.2890
  120TCq2    H2 1839   1.084   2.454  12.999  0.7567  0.9633  3.0728
  120TCq2    H3 1840   0.880   2.089  13.040 -2.8864  0.0213 -1.1732
  120TCq2    H4 1841   0.724   2.452  13.202  0.3752  0.5999  1.0209
  121TMC2    C1 1842   2.502   4.626  14.292 -0.3399 -0.1597 -0.0746
  121TMC2    C2 1843   2.414   4.722  14.248  0.0752  0.4099 -0.0706
  121TMC2    C3 1844   2.277   4.702  14.269  0.2805 -0.4397  0.0895
  121TMC2    C4 1845   2.455   4.514  14.361 -0.2963  0.4630 -0.3436
  121TMC2    C5 1846   2.318   4.498  14.372  0.6912 -0.3208 -0.5474
  121TMC2    C6 1847   2.225   4.594  14.333  0.6229  0.1348  0.1950
  121TMC2     C 1848   2.620   4.602  14.215 -0.4782 -0.7989 -0.4027
  121TMC2     O 1849   2.698   4.518  14.251 -0.1681 -0.1129 -0.1227
  121TMC2     H 1850   2.451   0.094  14.219  0.4536  0.1578 -0.4355
  121TMC2    H1 1851   2.524   4.431  14.372  1.9843  2.2091 -1.4894
  121TMC2    H2 1852   2.121   4.589  14.364  0.1380 -0.0878 -1.4458
  121TMC2    C7 1853   2.280   4.359  14.339  0.1213  0.3348 -0.8075
  121TMC2    C8 1854   2.198   0.100  14.262 -0.2874 -0.5478 -0.6657
  121TMC2    O1 1855   2.358   4.268  14.357  0.1113  0.3079 -0.2161
  121TMC2    O2 1856   2.244   0.211  14.268 -0.5987 -0.0111  0.3773
  121TMC2    O5 1857   2.068   0.073  14.251 -0.3337 -0.0954  0.2411
  121TMC2    H5 1858   2.050   4.706  14.223  2.0980 -0.1448 -1.2577
  122MPD2     C 1859   2.791   4.552  13.984  0.0918  0.6497  0.4831
  122MPD2    C1 1860   2.702   4.659  13.989 -0.2194  0.6619 -0.0686
  122MPD2    C2 1861   2.681   0.016  13.882  0.4684 -0.1178  0.4794
  122MPD2    C3 1862   2.744   4.712  13.762 -0.8352  0.0592 -0.3616
  122MPD2    C4 1863   2.825   4.607  13.756  0.1344  0.5085 -0.0218
  122MPD2    C5 1864   2.863   4.540  13.863 -0.7461  0.2218 -0.7685
  122MPD2     H 1865   2.615   0.100  13.901 -1.0122 -0.9029 -1.1527
  122MPD2    H1 1866   2.882   4.596  13.664  1.2952 -0.8321  0.8643
  122MPD2    H2 1867   2.811   4.486  14.067  0.3446 -1.4002 -1.2039
  122MPD2    H3 1868   2.941   4.466  13.863 -0.3646  0.6151  0.4775
  122MPD2     N 1869   2.729   0.056  13.638 -0.3864  0.2331 -0.4221
  122MPD2    H5 1870   2.772   0.002  13.564  1.3535  0.1446  0.6431
  122MPD2    N1 1871   2.617   4.677  14.099  0.0101 -0.3395  0.3667
  122MPD2    H7 1872   2.529   0.000  14.090  0.2499  0.0777  0.2724
  123MPD2     C 1873   0.450   2.162  10.108  0.4684 -0.3754 -0.2564
  123MPD2    C1 1874   0.409   2.180   9.977  0.8099 -0.1050 -0.4059
  123MPD2    C2 1875   0.488   2.243   9.879 -0.7622  0.2501  0.0426
  123MPD2    C3 1876   0.613   2.281   9.912 -0.3116  0.1581  0.9496
  123MPD2    C4 1877   0.657   2.243  10.038  0.2069 -0.1370 -0.5548
  123MPD2    C5 1878   0.578   2.195  10.134 -0.0296  0.0075 -0.4268
  123MPD2     H 1879   0.451   2.266   9.780 -0.4669 -1.6199 -0.5012
  123MPD2    H1 1880   0.758   2.265  10.071 -0.0739  0.5627 -0.1749
  123MPD2    H2 1881   0.386   2.109  10.177  1.0190  0.6577  1.0674
  123MPD2    H3 1882   0.625   2.176  10.229  1.8795  0.6534 -1.2371
  123MPD2     N 1883   0.694   2.344   9.818 -0.4275  0.1160  0.1614
  123MPD2    H5 1884   0.651   2.378   9.733  0.1801  3.3507  1.1082
  123MPD2    N1 1885   0.270   2.153   9.948  0.3161  0.5548 -0.3988
  123MPD2    H7 1886   0.209   2.148  10.029  0.7518  0.9893 -0.0411
  124TCq2    C1 1887   0.827   2.383   9.834  0.5891 -0.3850  0.3829
  124TCq2    O2 1888   0.912   2.372   9.922  0.6249  0.1353 -0.0911
  124TCq2    C2 1889   0.877   2.463   9.724 -0.0616 -0.2329 -0.0595
  124TCq2    C3 1890   0.991   2.530   9.750 -0.2412 -0.4902  0.1891
  124TCq2    C4 1891   1.086   2.548   9.652  0.1890  0.1660  0.4410
  124TCq2    C5 1892   1.063   2.505   9.521  0.4312  0.4945 -0.1160
  124TCq2    C6 1893   0.949   2.437   9.502  0.3759 -0.4991 -0.1247
  124TCq2    C7 1894   0.850   2.419   9.596 -0.7226 -0.1036 -0.3518
  124TCq2    C8 1895   0.921   2.415   9.360  0.5467  0.3359 -0.4307
  124TCq2    O4 1896   0.958   2.505   9.288 -0.1273 -0.6690 -1.0445
  124TCq2    C9 1897   1.217   2.602   9.685 -0.3220  0.0324 -0.0838
  124TCq2    O5 1898   1.234   2.670   9.792  0.1555  0.2763 -0.2356
  124TCq2    O6 1899   1.298   2.605   9.591  0.4445  0.1448  0.4030
  124TCq2    H2 1900   1.013   2.567   9.850 -1.6664 -0.1701  0.3767
  124TCq2    H3 1901   1.128   2.527   9.437  0.5683  0.8263  0.0758
  124TCq2    H4 1902   0.764   2.358   9.574 -0.8682 -0.5563  1.4170
  125TMC2    C1 1903   1.072   4.207   9.276  0.1457 -0.6882 -1.0307
  125TMC2    C2 1904   1.155   4.124   9.207  0.0254  0.5375 -0.2288
  125TMC2    C3 1905   1.266   4.189   9.154 -0.1547 -0.6076 -0.6047
  125TMC2    C4 1906   1.098   4.340   9.307  0.1519  0.4675 -0.3596
  125TMC2    C5 1907   1.205   4.400   9.246 -0.8028 -0.5871 -0.9734
  125TMC2    C6 1908   1.293   4.318   9.175 -0.4893  0.0755  0.2843
  125TMC2     C 1909   0.976   4.131   9.353 -0.0135  0.0520 -0.1702
  125TMC2     O 1910   1.008   4.018   9.384 -0.4392  0.1017  0.4111
  125TMC2     H 1911   1.132   4.023   9.178  2.0487  0.4136 -1.4066
  125TMC2    H1 1912   1.030   4.401   9.365  1.3149  0.0848  1.4191
  125TMC2    H2 1913   1.384   4.357   9.132 -1.3337  0.3638 -1.2745
  125TMC2    C7 1914   1.238   4.539   9.276 -0.0068 -0.0294 -0.8308
  125TMC2    C8 1915   1.342   4.113   9.064 -0.1062  0.2286  0.5576
  125TMC2    O1 1916   1.166   4.601   9.353 -0.0399 -0.4010  0.0827
  125TMC2    O2 1917   1.456   4.076   9.087 -0.0803  0.7136 -0.2283
  125TMC2    O5 1918   1.254   4.058   8.978  0.3931 -0.2338 -0.3090
  125TMC2    H5 1919   1.166   4.102   8.978  0.5476  0.0757  1.7522
  126MPD1     C 1920   0.568   4.100   9.654  0.2141 -0.0115 -0.0672
  126MPD1    C1 1921   0.539   4.202   9.564  0.0874 -0.3434 -0.3109
  126MPD1    C2 1922   0.641   4.241   9.472 -0.0784  0.5243  0.3823
  126MPD1    C3 1923   0.758   4.163   9.460  0.3600  0.1882  1.2544
  126MPD1    C4 1924   0.767   4.051   9.545  0.3145  0.1205 -0.9942
  126MPD1    C5 1925   0.675   4.015   9.640  0.6028  0.4244  0.1419
  126MPD1     H 1926   0.629   4.335   9.420 -1.4802  0.5895  0.8276
  126MPD1    H1 1927   0.857   3.991   9.553 -0.1793 -0.5014 -0.1916
  126MPD1    H2 1928   0.511   4.080   9.744  1.1760  0.9990  0.7721
  126MPD1    H3 1929   0.688   3.954   9.729 -0.9163  4.2475  2.9439
  126MPD1     N 1930   0.859   4.205   9.373  0.0545 -0.3680  0.5180
  126MPD1    H5 1931   0.848   4.290   9.319  0.4058 -1.1133 -0.7277
  126MPD1    N1 1932   0.421   4.280   9.575 -0.0778  0.5058  0.3492
  126MPD1    H6 1933   0.355   4.246   9.644  0.7614  0.3193  1.0646
  126MPD1    H7 1934   0.378   4.304   9.485  0.7980  0.9492  0.0449
  127MPD2     C 1935   2.388   3.520   8.961  0.5136  0.1101  0.3813
  127MPD2    C1 1936   2.449   3.479   9.080  0.2934 -0.0087  0.1428
  127MPD2    C2 1937   2.520   3.576   9.150 -0.0798 -0.6688 -0.4547
  127MPD2    C3 1938   2.528   3.708   9.107 -0.1365  0.2649  0.4484
  127MPD2    C4 1939   2.461   3.750   8.996 -0.6691  0.2152  0.6031
  127MPD2    C5 1940   2.393   3.654   8.924 -0.4622  0.1863  0.1719
  127MPD2     H 1941   2.570   3.551   9.243  2.2076  0.7620 -1.2895
  127MPD2    H1 1942   2.461   3.852   8.958 -0.9504  0.4471  1.2174
  127MPD2    H2 1943   2.335   3.449   8.899 -2.0796  2.5773 -0.1860
  127MPD2    H3 1944   2.341   3.692   8.837  0.4062  1.3742  0.1843
  127MPD2     N 1945   2.596   3.792   9.199  0.1397 -0.6619  0.0474
  127MPD2    H5 1946   2.633   3.745   9.281 -0.7454  0.2948  0.9866
  127MPD2    N1 1947   2.439   3.344   9.131  0.5438  0.1546  0.3931
  127MPD2    H7 1948   2.379   3.282   9.078 -0.1959  0.2690  1.0962
  128TCq2    C1 1949   2.493   3.295   9.249 -0.4062  0.4609 -0.0015
  128TCq2    O2 1950   2.562   3.349   9.335  0.2405 -0.2798 -0.1972
  128TCq2    C2 1951   2.448   3.160   9.269  0.1993  0.0600 -0.4558
  128TCq2    C3 1952   2.523   3.081   9.349 -0.3921  1.0586 -0.1848
  128TCq2    C4 1953   2.482   2.956   9.372 -0.4534 -0.7055  0.0283
  128TCq2    C5 1954   2.364   2.911   9.322  0.6216 -0.4246 -0.2233
  128TCq2    C6 1955   2.280   2.994   9.254  0.5369 -0.3351  0.1301
  128TCq2    C7 1956   2.324   3.121   9.223  0.5465 -0.1947 -0.3383
  128TCq2    C8 1957   2.134   2.970   9.261 -0.1488 -0.3570 -0.5635
  128TCq2    O4 1958   2.063   3.044   9.194 -0.0057 -0.2935 -0.2567
  128TCq2    C9 1959   2.563   2.867   9.449 -0.6161 -0.1068 -0.4606
  128TCq2    O5 1960   2.528   2.751   9.463 -0.0554  0.1321  0.2338
  128TCq2    O6 1961   2.658   2.921   9.510 -0.4473 -0.3155  1.0011
  128TCq2    H2 1962   2.607   3.121   9.406  2.0941 -1.4838 -2.0829
  128TCq2    H3 1963   2.328   2.812   9.349 -2.1484  0.5809 -0.2460
  128TCq2    H4 1964   2.247   3.181   9.176  0.5530  0.8927  1.0395
  129MPD2     C 1965   0.634   4.482   1.182  0.0272  0.1512  0.4827
  129MPD2    C1 1966   0.744   4.432   1.241  1.1049  0.5189  0.2619
  129MPD2    C2 1967   0.862   4.448   1.166 -0.1692  0.2092 -0.0423
  129MPD2    C3 1968   0.869   4.520   1.046 -0.5092 -0.1081  0.0013
  129MPD2    C4 1969   0.755   4.585   1.005  0.1714 -0.1727 -0.1235
  129MPD2    C5 1970   0.642   4.569   1.078 -0.2676  0.5931  0.9048
  129MPD2     H 1971   0.949   4.398   1.207 -0.0197  1.0181  0.6190
  129MPD2    H1 1972   0.746   4.648   0.917 -0.8762 -0.1725 -0.0163
  129MPD2    H2 1973   0.539   4.460   1.229  0.2665 -1.0571  0.4045
  129MPD2    H3 1974   0.552   4.608   1.031  1.5107  4.6403  0.8407
  129MPD2     N 1975   0.990   4.519   0.984  0.8153  0.1180  0.1341
  129MPD2    H5 1976   1.066   4.492   1.044 -1.5538 -1.2066  2.5121
  129MPD2    N1 1977   0.750   4.344   1.352  0.1094  0.4349  0.1668
  129MPD2    H7 1978   0.839   4.298   1.368 -0.3598 -1.0269 -1.4532
  130TCq2    C1 1979   0.645   4.311   1.429  0.1904 -0.7021 -0.2450
  130TCq2    O2 1980   0.524   4.333   1.415  0.0904 -0.2248  0.5436
  130TCq2    C2 1981   0.689   4.206   1.517  0.5735 -0.3594 -0.3637
  130TCq2    C3 1982   0.816   4.199   1.568 -0.0613 -0.3679  0.3979
  130TCq2    C4 1983   0.855   4.097   1.655 -0.8237 -0.0311 -0.4909
  130TCq2    C5 1984   0.757   4.004   1.689 -0.3653 -0.2763  0.1404
  130TCq2    C6 1985   0.629   4.020   1.648 -0.1414 -0.2525 -0.1915
  130TCq2    C7 1986   0.594   4.116   1.556 -0.4552  0.3200 -0.6925
  130TCq2    C8 1987   0.529   3.921   1.685 -0.3781 -0.2116 -0.1384
  130TCq2    O4 1988   0.421   3.930   1.627  0.0199  0.2443 -0.5290
  130TCq2    C9 1989   0.982   4.092   1.718  0.1214 -0.4115  0.5903
  130TCq2    O5 1990   0.987   4.012   1.815  0.7713  0.1961  0.3589
  130TCq2    O6 1991   1.056   4.192   1.698  0.4500  0.0248  0.6983
  130TCq2    H2 1992   0.889   4.274   1.541 -0.3424 -0.7141 -1.3029
  130TCq2    H3 1993   0.786   3.915   1.744 -1.2562 -0.5843  0.1017
  130TCq2    H4 1994   0.491   4.131   1.526 -0.6688  0.3516  0.0580
  131MPD2     C 1995   4.622   2.901   9.508  0.3520 -0.0666  0.4109
  131MPD2    C1 1996   0.012   2.863   9.560  0.3781  0.5819  0.1441
  131MPD2    C2 1997   0.020   2.736   9.616 -0.3260 -0.0481 -0.7345
  131MPD2    C3 1998   4.631   2.660   9.623  0.3155  0.8706  0.0442
  131MPD2    C4 1999   4.514   2.707   9.583  0.2937  0.7868 -0.7223
  131MPD2    C5 2000   4.509   2.829   9.522  0.7255 -0.0687  0.1455
  131MPD2     H 2001   0.115   2.692   9.644  0.0701  0.2601 -1.6053
  131MPD2    H1 2002   4.424   2.646   9.584 -0.9634  2.5902 -2.3899
  131MPD2    H2 2003   4.610   3.006   9.484  1.0508 -0.3876 -1.3672
  131MPD2    H3 2004   4.408   2.859   9.494  0.5762  0.1111  0.8545
  131MPD2     N 2005   4.639   2.527   9.678 -0.2697 -0.3461  0.1000
  131MPD2    H5 2006   0.007   2.506   9.711  0.1820 -0.4741 -1.2619
  131MPD2    N1 2007   0.114   2.954   9.567 -0.0316  0.3764  0.4855
  131MPD2    H7 2008   0.102   3.046   9.526  0.1554  0.4606  0.6200
  132TCq2    C1 2009   0.634   3.189   9.727 -0.2212  0.5906 -0.4499
  132TCq2    O2 2010   0.693   3.088   9.690  0.8312 -0.1335  0.1133
  132TCq2    C2 2011   0.488   3.197   9.702 -0.2276  0.0208 -0.0463
  132TCq2    C3 2012   0.421   3.317   9.671 -0.7729 -0.1655 -0.2780
  132TCq2    C4 2013   0.293   3.311   9.630  0.2760  0.3664 -0.3257
  132TCq2    C5 2014   0.230   3.189   9.608 -0.2040 -0.1025  0.1392
  132TCq2    C6 2015   0.302   3.077   9.627  0.1883  0.9931  0.6194
  132TCq2    C7 2016   0.432   3.083   9.676 -0.9156  0.0800  0.3344
  132TCq2    C8 2017   0.235   2.945   9.628 -0.0835  0.4706 -0.3538
  132TCq2    O4 2018   0.301   2.850   9.673  0.5639 -0.1970 -0.3419
  132TCq2    C9 2019   0.221   3.433   9.605 -0.5139  0.0388  0.0832
  132TCq2    O5 2020   0.103   3.425   9.561 -0.2971 -0.2503  0.2705
  132TCq2    O6 2021   0.292   3.535   9.599  0.1260 -0.8900  0.0703
  132TCq2    H2 2022   0.461   3.413   9.704 -0.3534 -0.6649  0.6762
  132TCq2    H3 2023   0.131   3.187   9.563  0.2291  1.2106 -0.8447
  132TCq2    H4 2024   0.473   2.986   9.700 -1.4377 -0.1621  0.2681
  133MPD2     C 2025   3.368   4.226   8.778 -0.1137 -0.2826 -1.0175
  133MPD2    C1 2026   3.467   4.208   8.872 -0.2585  0.5443 -0.2989
  133MPD2    C2 2027   3.487   4.076   8.920  0.4961 -0.6990 -0.8529
  133MPD2    C3 2028   3.406   3.972   8.879 -0.0245 -0.0622 -0.3513
  133MPD2    C4 2029   3.303   3.996   8.793  0.4085  0.2325  0.0572
  133MPD2    C5 2030   3.292   4.122   8.744  0.2915 -0.3270  0.2280
  133MPD2     H 2031   3.565   4.058   8.993  0.1745  0.6239 -0.1888
  133MPD2    H1 2032   3.241   3.912   8.765 -1.0402  0.8408  1.4002
  133MPD2    H2 2033   3.343   4.327   8.746  0.1286  0.5959  1.5414
  133MPD2    H3 2034   3.213   4.142   8.672  1.5600  1.1121 -0.7742
  133MPD2     N 2035   3.439   3.842   8.916  0.1444  0.6322 -0.4727
  133MPD2    H5 2036   3.373   3.770   8.888  2.0767 -0.7365 -1.5255
  133MPD2    N1 2037   3.535   4.325   8.927 -0.2611  0.4081 -0.1497
  133MPD2    H7 2038   3.484   4.411   8.910 -1.5000 -0.5989 -1.4782
  134TCq2    C1 2039   3.638   4.317   9.017 -0.9044 -0.0772 -1.0169
  134TCq2    O2 2040   3.727   4.235   9.038  0.1294 -0.0465  0.4633
  134TCq2    C2 2041   3.670   4.455   9.043  0.2336  0.7863  0.5605
  134TCq2    C3 2042   3.609   4.563   8.982  0.6877 -0.0281  0.8996
  134TCq2    C4 2043   3.652   4.691   9.012  0.2044  0.2091 -0.1791
  134TCq2    C5 2044   3.760   4.708   9.091 -0.5230 -0.9715  0.5339
  134TCq2    C6 2045   3.826   4.596   9.145  0.4488 -0.3905  0.0985
  134TCq2    C7 2046   3.769   4.471   9.132  0.0200 -1.2944 -0.3534
  134TCq2    C8 2047   3.903   4.619   9.270  0.0785 -0.2506 -0.0884
  134TCq2    O4 2048   3.902   4.543   9.370 -0.0323  0.1526  0.3594
  134TCq2    C9 2049   3.579   0.083   8.966  0.1931 -0.4433 -0.0012
  134TCq2    O5 2050   3.492   0.057   8.880  0.1932  0.2716 -0.3043
  134TCq2    O6 2051   3.649   0.190   8.967 -0.2566 -0.5176 -0.1186
  134TCq2    H2 2052   3.527   4.562   8.911  0.9195 -0.3617  0.6388
  134TCq2    H3 2053   3.777   0.081   9.135  1.8264 -1.6567  1.1797
  134TCq2    H4 2054   3.795   4.393   9.203 -0.6530 -1.2455 -0.0571
  135MPD2     C 2055   1.947   0.762   9.459 -0.1197  0.7598  0.2111
  135MPD2    C1 2056   1.976   0.637   9.404  0.2708  0.6390  0.3028
  135MPD2    C2 2057   2.093   0.631   9.335 -0.1293  0.2453  0.5231
  135MPD2    C3 2058   2.177   0.732   9.313  0.3373 -0.1117  0.5921
  135MPD2    C4 2059   2.147   0.845   9.382  0.0363 -0.4339 -0.1845
  135MPD2    C5 2060   2.026   0.872   9.445 -0.1432 -0.3941 -0.6122
  135MPD2     H 2061   2.118   0.530   9.304  1.8870  1.1152 -0.6919
  135MPD2    H1 2062   2.222   0.924   9.383  1.9358 -2.2242 -0.7770
  135MPD2    H2 2063   1.851   0.778   9.507  0.3906  0.5994  1.2807
  135MPD2    H3 2064   2.001   0.971   9.479 -0.5011  0.4995 -3.4882
  135MPD2     N 2065   2.304   0.705   9.256  0.2149 -0.2698 -0.6521
  135MPD2    H5 2066   2.368   0.784   9.253 -0.9356  0.6555 -0.6186
  135MPD2    N1 2067   1.897   0.523   9.429 -0.2094  0.2658 -0.9290
  135MPD2    H7 2068   1.930   0.437   9.387  2.4695  1.2492 -0.8517
  136TCq2    C1 2069   1.784   0.515   9.500  0.1675  0.4936 -0.2347
  136TCq2    O2 2070   1.719   0.608   9.547  0.3292 -0.3806  0.1987
  136TCq2    C2 2071   1.718   0.383   9.493  0.0320  0.1050 -0.1916
  136TCq2    C3 2072   1.587   0.372   9.538  0.8053 -0.0579  1.0555
  136TCq2    C4 2073   1.547   0.248   9.576 -0.0171 -0.0152  0.1896
  136TCq2    C5 2074   1.623   0.135   9.556  0.1281 -0.2537  0.4048
  136TCq2    C6 2075   1.744   0.147   9.501 -0.2027  0.5670  0.0835
  136TCq2    C7 2076   1.795   0.269   9.472  0.2602 -0.2386  1.0145
  136TCq2    C8 2077   1.828   0.030   9.469  0.7262  0.3630 -0.1753
  136TCq2    O4 2078   1.915   0.031   9.383 -0.4584  0.0309  0.0913
  136TCq2    C9 2079   1.417   0.229   9.639 -0.5862 -0.0533  0.1814
  136TCq2    O5 2080   1.386   0.123   9.695  0.4276 -0.0021  0.2996
  136TCq2    O6 2081   1.344   0.330   9.640 -0.2617  0.2288  0.2878
  136TCq2    H2 2082   1.526   0.456   9.569 -1.7373 -2.3361  2.2237
  136TCq2    H3 2083   1.600   0.036   9.593 -0.8697  0.4821  1.7583
  136TCq2    H4 2084   1.888   0.264   9.417 -0.2055 -1.1413  0.3067
  137MPD2     C 2085   1.678   3.575   9.069  0.2600 -0.5475 -0.0309
  137MPD2    C1 2086   1.754   3.637   9.163 -0.8838  0.5870  0.3105
  137MPD2    C2 2087   1.794   3.560   9.269 -0.3211  0.2016  0.1089
  137MPD2    C3 2088   1.756   3.426   9.285  0.5376 -0.0538 -0.3678
  137MPD2    C4 2089   1.682   3.364   9.183 -0.1503 -0.0820  0.6442
  137MPD2    C5 2090   1.631   3.447   9.089 -0.1445 -0.3956  0.0301
  137MPD2     H 2091   1.853   3.610   9.345 -1.2621 -2.8714  2.8749
  137MPD2    H1 2092   1.636   3.265   9.181 -1.4344  0.5777 -1.7342
  137MPD2    H2 2093   1.664   3.622   8.972 -0.8671 -0.1999  0.3024
  137MPD2    H3 2094   1.559   3.407   9.018  2.7906 -0.4217 -2.9161
  137MPD2     N 2095   1.795   3.350   9.397  0.0282 -0.4147 -0.0109
  137MPD2    H5 2096   1.861   3.396   9.459 -0.7839  0.3137  0.3007
  137MPD2    N1 2097   1.784   3.771   9.139 -0.0825 -1.0255 -0.2692
  137MPD2    H7 2098   1.764   3.808   9.046 -1.6825  1.4285  1.0357
  138TCq2    C1 2099   1.821   3.858   9.238  0.8502  0.9892  0.2084
  138TCq2    O2 2100   1.803   3.847   9.359 -0.8794  0.0653 -0.0136
  138TCq2    C2 2101   1.824   3.993   9.188 -0.5936  0.3435 -0.5255
  138TCq2    C3 2102   1.854   4.015   9.051  0.6792 -0.4638  0.4529
  138TCq2    C4 2103   1.819   4.131   8.993  0.5357  0.4028  0.3053
  138TCq2    C5 2104   1.755   4.227   9.072  0.3741 -0.0006  0.0968
  138TCq2    C6 2105   1.735   4.209   9.201  0.0965 -0.8613 -0.8712
  138TCq2    C7 2106   1.774   4.100   9.265 -0.3840  0.2260 -0.7191
  138TCq2    C8 2107   1.658   4.304   9.274  0.2748  0.1941 -0.1034
  138TCq2    O4 2108   1.650   4.421   9.237  0.5907 -0.3152  0.3135
  138TCq2    C9 2109   1.835   4.152   8.852 -0.3082  0.1222  0.1196
  138TCq2    O5 2110   1.829   4.272   8.821 -0.0393 -0.0043  0.7752
  138TCq2    O6 2111   1.914   4.075   8.793  0.0785  0.1609 -0.3570
  138TCq2    H2 2112   1.912   3.944   8.993 -0.4702 -1.4276  0.4784
  138TCq2    H3 2113   1.720   4.319   9.027  1.8191  1.3564  1.7586
  138TCq2    H4 2114   1.774   4.093   9.373 -1.6180  1.0299 -0.6686
  139TMC2    C1 2115   2.196   2.145  13.178  0.4434 -0.5506 -0.0960
  139TMC2    C2 2116   2.150   2.081  13.066  0.7504  0.0686  0.4536
  139TMC2    C3 2117   2.047   2.136  12.996 -0.6121  0.2886  0.3221
  139TMC2    C4 2118   2.156   2.270  13.221 -0.8225  0.8524 -0.3250
  139TMC2    C5 2119   2.059   2.325  13.144  0.5560 -0.0322 -0.1898
  139TMC2    C6 2120   2.003   2.260  13.039  0.2611 -0.0271 -0.7880
  139TMC2     C 2121   2.315   2.088  13.237  0.3299 -0.2292 -0.3689
  139TMC2     O 2122   2.330   1.969  13.219  0.3201  0.3347 -0.1920
  139TMC2     H 2123   2.192   1.983  13.046  0.6816 -0.0220  0.7488
  139TMC2    H1 2124   2.178   2.317  13.316  0.8207 -0.5996  0.0184
  139TMC2    H2 2125   1.931   2.312  12.978 -2.9985 -1.4984  1.7826
  139TMC2    C7 2126   2.008   2.456  13.175 -0.2864  0.3623 -0.0858
  139TMC2    C8 2127   1.994   2.079  12.872 -0.4859 -0.0400 -0.7106
  139TMC2    O1 2128   1.888   2.482  13.157  0.1782 -0.0062 -0.3216
  139TMC2    O2 2129   2.029   1.963  12.844 -0.0036 -0.2877 -0.4513
  139TMC2    O5 2130   1.876   2.123  12.843 -0.0304 -0.3700 -0.5667
  139TMC2    H5 2131   1.843   2.211  12.869  0.8924 -0.0683 -0.4328
  140MPD2     C 2132   2.573   2.264  13.428 -0.1695  0.0486  0.0257
  140MPD2    C1 2133   2.509   2.159  13.370 -0.5181 -0.1767 -1.0972
  140MPD2    C2 2134   2.564   2.033  13.392 -0.2138  0.4054 -0.3720
  140MPD2    C3 2135   2.678   2.015  13.468  1.0964  0.1068  0.2750
  140MPD2    C4 2136   2.735   2.116  13.537 -0.1739  0.0521  0.0091
  140MPD2    C5 2137   2.680   2.234  13.502 -0.1418  0.1901  0.1345
  140MPD2     H 2138   2.517   1.945  13.348 -2.1036  1.1494  0.1736
  140MPD2    H1 2139   2.827   2.101  13.592 -1.1534  0.1008  1.6663
  140MPD2    H2 2140   2.549   2.369  13.415  0.2382  0.1741  0.2660
  140MPD2    H3 2141   2.722   2.325  13.543 -0.9016 -0.3893  2.1531
  140MPD2     N 2142   2.724   1.885  13.475 -0.1184 -0.4074 -0.1809
  140MPD2    H5 2143   2.664   1.821  13.425 -1.9979  0.1406  1.3817
  140MPD2    N1 2144   2.388   2.181  13.303 -0.2908 -0.1425 -0.1822
  140MPD2    H7 2145   2.364   2.280  13.301 -0.9574 -0.3075 -0.2813
  141TCq2    C1 2146   3.257   3.598  13.801 -0.2598  0.3743  0.3634
  141TCq2    O2 2147   3.212   3.690  13.731  0.0042 -0.3891  0.6638
  141TCq2    C2 2148   3.301   3.631  13.942 -0.3347  0.1418  0.8456
  141TCq2    C3 2149   3.284   3.544  14.048  0.1743  0.6136  1.1656
  141TCq2    C4 2150   3.329   3.581  14.165 -0.2732  0.6374  0.3504
  141TCq2    C5 2151   3.389   3.703  14.182 -0.1114  0.1982  0.1521
  141TCq2    C6 2152   3.412   3.785  14.074  0.6583 -0.5932  0.1971
  141TCq2    C7 2153   3.366   3.746  13.948  0.0893 -0.0783 -0.6156
  141TCq2    C8 2154   3.501   3.903  14.073  0.4728 -0.4646 -0.7603
  141TCq2    O4 2155   3.481   3.988  13.986 -0.7663  0.0154 -0.5747
  141TCq2    C9 2156   3.310   3.501  14.281  0.0970 -0.3999 -1.1476
  141TCq2    O5 2157   3.375   3.532  14.385 -0.1514  0.2587 -0.3918
  141TCq2    O6 2158   3.224   3.404  14.278 -0.3865  0.3983 -0.0745
  141TCq2    H2 2159   3.233   3.450  14.027  1.0310  0.5027 -0.3968
  141TCq2    H3 2160   3.430   3.731  14.278 -1.2344  0.5255  0.5408
  141TCq2    H4 2161   3.381   3.805  13.858 -0.0586  0.5036 -0.2601
  142MPD2     C 2162   0.592   1.746  10.619 -0.0476 -0.3253  0.4416
  142MPD2    C1 2163   0.598   1.695  10.490  0.0134  0.1780 -0.0412
  142MPD2    C2 2164   0.654   1.777  10.392 -0.3813  0.5226 -0.4050
  142MPD2    C3 2165   0.699   1.908  10.411 -0.0480 -0.2070  0.5247
  142MPD2    C4 2166   0.690   1.962  10.544  0.0851 -0.2676 -0.3307
  142MPD2    C5 2167   0.633   1.877  10.638  0.2571  0.8879  0.0607
  142MPD2     H 2168   0.667   1.736  10.292 -0.9137  1.1516 -0.7263
  142MPD2    H1 2169   0.726   2.059  10.577 -0.6769  0.4771 -1.6593
  142MPD2    H2 2170   0.543   1.687  10.696 -1.7471  1.1606  0.5202
  142MPD2    H3 2171   0.608   1.908  10.739  0.0817  0.1081  0.2602
  142MPD2     N 2172   0.782   1.983  10.329 -0.5792 -0.4236  0.5511
  142MPD2    H5 2173   0.824   2.067  10.368  3.2009 -1.6421 -0.9598
  142MPD2    N1 2174   0.548   1.571  10.460 -0.1413  0.3492  0.1019
  142MPD2    H7 2175   0.524   1.516  10.542 -0.5060  0.0601 -0.1953
  143TCq2    C1 2176   0.812   1.948  10.196  0.3654 -0.7687 -0.0323
  143TCq2    O2 2177   0.763   1.863  10.123  0.3101  0.1053  0.6659
  143TCq2    C2 2178   0.915   2.036  10.132  0.0640 -0.0116 -0.4852
  143TCq2    C3 2179   1.021   2.085  10.207  0.0939 -0.7391 -0.2149
  143TCq2    C4 2180   1.132   2.128  10.136  0.0121  0.1466 -0.5194
  143TCq2    C5 2181   1.144   2.110   9.998 -0.7454  0.1544 -0.0091
  143TCq2    C6 2182   1.033   2.070   9.928  0.0421  0.8055 -0.6190
  143TCq2    C7 2183   0.920   2.024   9.996  0.4895  0.8624  0.4356
  143TCq2    C8 2184   1.032   2.091   9.784 -0.1769 -0.1890 -0.2570
  143TCq2    O4 2185   1.109   2.174   9.741  0.4792  0.6611  0.1075
  143TCq2    C9 2186   1.245   2.177  10.213 -0.3014 -0.0395 -0.1762
  143TCq2    O5 2187   1.221   2.228  10.329  0.1183  0.0210 -0.1946
  143TCq2    O6 2188   1.360   2.194  10.155  0.1984  0.0242 -0.0545
  143TCq2    H2 2189   1.026   2.091  10.315 -0.6993  1.1003 -0.2899
  143TCq2    H3 2190   1.236   2.140   9.948  0.3210 -1.2216  1.1231
  143TCq2    H4 2191   0.824   2.000   9.950  0.2001 -1.1558  2.0648
  144MPD2     C 2192   2.917   1.263   0.538  0.4648  0.0171 -0.1458
  144MPD2    C1 2193   2.913   1.131   0.510 -0.4041  0.5007 -0.4840
  144MPD2    C2 2194   2.980   1.038   0.581 -0.6503  0.9350  0.2659
  144MPD2    C3 2195   3.066   1.079   0.683 -0.8581  0.5729 -0.2950
  144MPD2    C4 2196   3.067   1.211   0.713  0.3415  0.7710 -1.0031
  144MPD2    C5 2197   2.999   1.304   0.644  0.0357 -0.7999  0.3631
  144MPD2     H 2198   2.972   0.933   0.553  2.2392  0.9935 -0.7411
  144MPD2    H1 2199   3.132   1.248   0.792 -0.2912 -1.2545  0.4658
  144MPD2    H2 2200   2.860   1.340   0.487 -0.2210  0.0110  0.6187
  144MPD2    H3 2201   2.994   1.408   0.676  3.1926 -1.0084  1.5516
  144MPD2     N 2202   3.159   0.995   0.747  0.1136 -0.9784 -0.0401
  144MPD2    H5 2203   3.217   1.027   0.824 -0.7691 -1.4787  0.8261
  144MPD2    N1 2204   2.842   1.085   0.399 -0.1552 -0.7108  0.1079
  144MPD2    H7 2205   2.847   0.987   0.375 -0.2441 -0.3995 -1.1831
  145TCq2    C1 2206   3.207   0.872   0.690  0.8504  0.0410 -0.2444
  145TCq2    O2 2207   3.162   0.811   0.593 -0.4381  0.1569  0.4402
  145TCq2    C2 2208   3.333   0.828   0.752 -0.1203 -0.3239  0.2584
  145TCq2    C3 2209   3.380   0.706   0.713  0.0060 -0.3630  0.5075
  145TCq2    C4 2210   3.502   0.658   0.760  0.0479  0.8656  0.0016
  145TCq2    C5 2211   3.574   0.730   0.852  0.4665 -0.4344 -0.4045
  145TCq2    C6 2212   3.530   0.858   0.889 -0.1006  0.0439 -0.4504
  145TCq2    C7 2213   3.407   0.907   0.834 -0.6155  0.1544 -1.0700
  145TCq2    C8 2214   3.617   0.946   0.971 -0.5120  0.1755  0.6234
  145TCq2    O4 2215   3.738   0.934   0.963 -0.3713 -0.0579  0.0521
  145TCq2    C9 2216   3.545   0.522   0.709 -0.3657 -0.6642 -0.5411
  145TCq2    O5 2217   3.644   0.466   0.767  0.2165  0.7600  0.1267
  145TCq2    O6 2218   3.452   0.457   0.662 -0.0608 -0.5276  0.2297
  145TCq2    H2 2219   3.335   0.644   0.637  1.4141  1.5496 -1.8812
  145TCq2    H3 2220   3.664   0.688   0.895  0.4923  0.1130  0.0664
  145TCq2    H4 2221   3.384   1.011   0.858 -0.8685  0.5319 -2.9429
  146TMC2    C1 2222   4.051   0.165  12.617 -0.0463  0.1317  0.0596
  146TMC2    C2 2223   3.984   0.255  12.545  0.4441 -0.4324  0.0129
  146TMC2    C3 2224   3.947   0.216  12.419 -0.2459 -0.6872  0.1572
  146TMC2    C4 2225   4.101   0.049  12.568  0.5042  0.3219  1.1251
  146TMC2    C5 2226   4.067   0.015  12.437 -0.2914 -0.3095 -0.0045
  146TMC2    C6 2227   3.991   0.099  12.359 -0.7136 -0.1511 -0.7902
  146TMC2     C 2228   4.096   0.206  12.751  0.0041  0.1635 -0.2623
  146TMC2     O 2229   4.028   0.282  12.816  0.1727  0.2933  0.1737
  146TMC2     H 2230   3.952   0.346  12.595 -0.2796 -1.4113  1.3531
  146TMC2    H1 2231   4.158   4.705  12.629  0.0422 -1.2496 -0.2247
  146TMC2    H2 2232   3.940   0.059  12.272 -0.3144 -0.0840 -1.0591
  146TMC2    C7 2233   4.116   4.620  12.374 -0.1962  0.3786 -0.3163
  146TMC2    C8 2234   3.818   0.270  12.373  0.3074  0.6187 -0.3887
  146TMC2    O1 2235   4.066   4.591  12.267  0.0039 -0.3340  0.3241
  146TMC2    O2 2236   3.741   0.217  12.289 -0.6323  0.0078 -0.0615
  146TMC2    O5 2237   3.820   0.402  12.405 -0.9490 -0.4838  0.3741
  146TMC2    H5 2238   3.908   0.441  12.424 -0.5023 -1.3371  0.0426
  147MPD2     C 2239   4.422   4.218  12.338  0.6834 -0.3176 -0.1799
  147MPD2    C1 2240   4.482   4.311  12.421 -0.2619  0.1021 -0.0873
  147MPD2    C2 2241   4.414   4.430  12.451 -0.2668 -0.1189  0.5443
  147MPD2    C3 2242   4.293   4.455  12.392  0.6831 -0.1623  0.0870
  147MPD2    C4 2243   4.240   4.367  12.302  0.1210 -0.2044 -0.0878
  147MPD2    C5 2244   4.296   4.244  12.283 -0.4614  0.7039 -0.2870
  147MPD2     H 2245   4.464   4.504  12.513 -1.9247  2.3559 -1.0610
  147MPD2    H1 2246   4.143   4.372  12.255 -0.4312  0.8066  1.1469
  147MPD2    H2 2247   4.481   4.132  12.311  3.7157  1.7574 -0.2417
  147MPD2    H3 2248   4.255   4.170  12.215  1.7701 -1.8749  1.1549
  147MPD2     N 2249   4.228   4.568  12.442  0.1264  1.0551 -0.1794
  147MPD2    H5 2250   4.273   4.620  12.517 -3.2921  1.2538  1.7391
  147MPD2    N1 2251   4.612   4.288  12.462  0.3320 -0.2959 -0.7029
  147MPD2    H7 2252   4.659   4.212  12.415 -1.9359 -3.7438  2.6118
  148MPD2     C 2253   0.151   3.762  10.450 -0.9822  0.7412 -0.1287
  148MPD2    C1 2254   0.217   3.647  10.417  0.1428 -0.2890 -0.0873
  148MPD2    C2 2255   0.151   3.531  10.397  0.4672  0.2736  0.0927
  148MPD2    C3 2256   0.016   3.527  10.398 -0.0262  0.1568 -0.8452
  148MPD2    C4 2257   4.677   3.638  10.445  0.1057  0.4973 -0.3669
  148MPD2    C5 2258   0.019   3.754  10.472 -0.1042  0.4871 -0.7313
  148MPD2     H 2259   0.201   3.438  10.376  0.8429  0.6420 -0.6531
  148MPD2    H1 2260   4.573   3.635  10.476  0.3337  0.9594  0.4455
  148MPD2    H2 2261   0.212   3.849  10.472  0.3118  0.0193 -0.8905
  148MPD2    H3 2262   4.691   3.844  10.500  0.7408  0.4175  1.1145
  148MPD2     N 2263   4.659   3.414  10.370 -0.3434  0.2230 -0.3316
  148MPD2    H5 2264   4.558   3.416  10.376 -0.3010  2.0747 -0.4282
  148MPD2    N1 2265   0.353   3.644  10.405 -0.2299 -0.3498  0.3383
  148MPD2    H7 2266   0.390   3.554  10.379  1.2497  0.4753 -0.4273
  149TCq2    C1 2267   0.443   3.743  10.436  0.2736 -0.1242  0.5980
  149TCq2    O2 2268   0.428   3.843  10.502  0.0642  0.2069  0.0418
  149TCq2    C2 2269   0.579   3.694  10.417  0.1978  0.1581  0.4588
  149TCq2    C3 2270   0.661   3.752  10.504 -0.2889 -0.0913  0.3073
  149TCq2    C4 2271   0.775   3.678  10.536 -0.0008  0.4968  0.7026
  149TCq2    C5 2272   0.804   3.554  10.481 -1.0412  0.3867 -0.1037
  149TCq2    C6 2273   0.714   3.503  10.393 -0.4776  0.2918  0.5157
  149TCq2    C7 2274   0.595   3.566  10.367  0.3567  0.3228  0.0149
  149TCq2    C8 2275   0.753   3.376  10.327 -0.7023  0.7735  0.2958
  149TCq2    O4 2276   0.855   3.322  10.375 -0.1777  0.4044  0.0968
  149TCq2    C9 2277   0.856   3.731  10.651 -1.1423  0.1180  0.4278
  149TCq2    O5 2278   0.814   3.832  10.711 -0.0128  0.5264  0.6323
  149TCq2    O6 2279   0.944   3.650  10.697 -0.6438  0.3790 -0.5580
  149TCq2    H2 2280   0.642   3.848  10.551 -1.1127  0.0170 -0.2367
  149TCq2    H3 2281   0.900   3.507  10.498  0.0358  1.5242 -3.1270
  149TCq2    H4 2282   0.521   3.523  10.301  0.1081  3.3015 -1.6287
  150MPD2     C 2283   1.927   2.517  11.769  0.4191 -0.3764 -0.4644
  150MPD2    C1 2284   1.866   2.640  11.784  0.3687  0.2818 -1.0223
  150MPD2    C2 2285   1.929   2.732  11.857  0.2945 -0.3307 -0.0497
  150MPD2    C3 2286   2.056   2.710  11.918  0.2723 -0.5096 -0.1871
  150MPD2    C4 2287   2.114   2.589  11.904 -0.0908 -0.0278  0.6657
  150MPD2    C5 2288   2.045   2.491  11.831  0.8003 -0.2510  0.8103
  150MPD2     H 2289   1.891   2.831  11.880  0.0162 -0.2061 -1.0270
  150MPD2    H1 2290   2.214   2.572  11.940 -0.2675 -1.2981  0.5680
  150MPD2    H2 2291   1.886   2.437  11.709 -1.6960 -0.3396  0.9279
  150MPD2    H3 2292   2.091   2.392  11.826  0.4527 -0.4814  2.2944
  150MPD2     N 2293   2.127   2.830  11.967 -0.0140  0.3285  0.1358
  150MPD2    H5 2294   2.089   2.919  11.937  0.8376  0.4572 -0.5544
  150MPD2    N1 2295   1.745   2.666  11.715 -0.1292  0.5902  0.0511
  150MPD2    H7 2296   1.700   2.590  11.665  2.6319 -0.5132 -0.7895
  151TCq2    C1 2297   2.252   2.832  12.026  0.0489  0.1720  0.2746
  151TCq2    O2 2298   2.323   2.744  12.070 -0.0849 -0.0643 -0.1778
  151TCq2    C2 2299   2.288   2.961  12.076  0.4545  0.4675  0.3468
  151TCq2    C3 2300   2.193   3.051  12.105  0.8213  0.5264  0.0491
  151TCq2    C4 2301   2.228   3.184  12.119 -1.1434  0.2804 -0.3713
  151TCq2    C5 2302   2.354   3.226  12.102 -0.2410 -0.6924 -0.7843
  151TCq2    C6 2303   2.450   3.132  12.082  0.3408 -0.5297 -0.5566
  151TCq2    C7 2304   2.421   2.998  12.069  0.3721  0.1917 -0.1889
  151TCq2    C8 2305   2.587   3.178  12.077 -0.3204  0.5115  0.1961
  151TCq2    O4 2306   2.612   3.299  12.061 -0.5359  0.9417  0.3500
  151TCq2    C9 2307   2.122   3.279  12.141  0.7727 -0.6615 -0.0174
  151TCq2    O5 2308   2.148   3.402  12.159 -0.0313 -0.1025 -0.2249
  151TCq2    O6 2309   2.002   3.244  12.114  0.8142  0.3009 -0.2968
  151TCq2    H2 2310   2.090   3.022  12.120 -0.4314  3.6516 -2.6189
  151TCq2    H3 2311   2.381   3.328  12.128 -2.0021 -0.7962  1.4408
  151TCq2    H4 2312   2.492   2.922  12.039  0.3475 -0.0866  0.4567
  152MPD2     C 2313   1.723   1.965  12.239 -0.0057  0.0251 -0.0555
  152MPD2    C1 2314   1.680   2.092  12.234  0.0712 -0.3159  0.0174
  152MPD2    C2 2315   1.543   2.115  12.251  0.1980  0.2914 -0.0206
  152MPD2    C3 2316   1.454   2.006  12.283 -0.2215 -0.4725  0.5635
  152MPD2    C4 2317   1.509   1.882  12.305 -0.0219  0.9403 -0.2951
  152MPD2    C5 2318   1.644   1.861  12.282  0.2965  0.2079 -0.4599
  152MPD2     H 2319   1.507   2.217  12.245  1.8568  0.7958 -1.3141
  152MPD2    H1 2320   1.456   1.793  12.336  0.0992  0.3374 -1.8039
  152MPD2    H2 2321   1.829   1.949  12.251 -0.6356 -2.0194  2.9324
  152MPD2    H3 2322   1.675   1.758  12.292  1.6908  0.6987  0.2203
  152MPD2     N 2323   1.316   2.033  12.300  0.2228 -0.2827 -0.2145
  152MPD2    H5 2324   1.292   2.131  12.287  1.2648 -0.0737 -0.5940
  152MPD2    N1 2325   1.771   2.202  12.205 -0.7355 -0.1791 -0.3174
  152MPD2    H7 2326   1.867   2.174  12.186 -0.5111  1.0061 -0.9527
  153TCq2    C1 2327   1.742   2.337  12.193  0.0654 -0.6659 -0.3114
  153TCq2    O2 2328   1.648   2.393  12.251 -0.3338  0.2537  0.3841
  153TCq2    C2 2329   1.861   2.415  12.167  0.5244 -0.3159 -0.8889
  153TCq2    C3 2330   1.972   2.340  12.136 -0.1423 -0.5137 -0.9101
  153TCq2    C4 2331   2.094   2.400  12.164 -0.3515  0.0952 -0.1127
  153TCq2    C5 2332   2.110   2.522  12.228  0.3670  0.4237  0.1289
  153TCq2    C6 2333   1.992   2.597  12.256 -1.1540  0.0414  0.4997
  153TCq2    C7 2334   1.869   2.532  12.238 -0.6690  0.3308 -0.2951
  153TCq2    C8 2335   1.995   2.718  12.335 -0.2039 -0.2955 -0.1365
  153TCq2    O4 2336   1.891   2.763  12.383  0.4175 -0.1518  0.0588
  153TCq2    C9 2337   2.216   2.334  12.115  0.3073 -0.2857 -0.5292
  153TCq2    O5 2338   2.204   2.207  12.094  0.0319 -0.0085  0.2527
  153TCq2    O6 2339   2.326   2.393  12.143  0.0524  0.6612  0.1192
  153TCq2    H2 2340   1.962   2.260  12.063 -1.4175  0.3044 -1.6446
  153TCq2    H3 2341   2.210   2.556  12.252  0.6834 -0.3711 -0.0992
  153TCq2    H4 2342   1.781   2.590  12.262  0.9646  2.2683  1.0020
  154MPD2     C 2343   3.838   1.791   0.020 -0.7131 -0.0229 -0.4384
  154MPD2    C1 2344   3.747   1.801   0.121  0.3555  0.0574 -0.2226
  154MPD2    C2 2345   3.646   1.895   0.111 -0.3356  0.5256  0.1067
  154MPD2    C3 2346   3.638   1.977   0.001  0.4178 -0.0911 -0.6802
  154MPD2    C4 2347   3.734   1.968  17.607 -0.2925  0.2252 -0.7298
  154MPD2    C5 2348   3.821   1.861  17.607  0.0538  0.1132  0.7039
  154MPD2     H 2349   3.581   1.911   0.196 -1.0967  1.3404 -0.6326
  154MPD2    H1 2350   3.742   2.034  17.521  0.5223 -0.1239 -0.9280
  154MPD2    H2 2351   3.926   1.729   0.031 -0.0211  1.0003 -0.1781
  154MPD2    H3 2352   3.890   1.849  17.524 -1.5855 -0.9168 -0.5011
  154MPD2     N 2353   3.536   2.076   0.004 -0.4855 -0.2636  0.3550
  154MPD2    H5 2354   3.482   2.073   0.089 -0.7244 -1.6266  0.1472
  154MPD2    N1 2355   3.778   1.732   0.240 -0.1505  0.2885  0.3933
  154MPD2    H7 2356   3.875   1.710   0.259  0.5390  1.2459 -2.0339
  155TCq2    C1 2357   3.691   1.712   0.347  0.1199 -0.4391  0.4635
  155TCq2    O2 2358   3.569   1.732   0.351  0.3372  0.3596  0.2020
  155TCq2    C2 2359   3.757   1.645   0.463 -0.1740  0.8143  0.4701
  155TCq2    C3 2360   3.701   1.668   0.586 -0.1216  0.2660  0.6191
  155TCq2    C4 2361   3.770   1.622   0.697  0.1217  0.2369 -0.3232
  155TCq2    C5 2362   3.896   1.578   0.690 -0.0059  0.7619  0.9143
  155TCq2    C6 2363   3.953   1.567   0.563  0.7157  0.0265  0.0488
  155TCq2    C7 2364   3.875   1.583   0.449 -0.1375 -0.0358 -0.2911
  155TCq2    C8 2365   4.080   1.502   0.549 -0.4488 -0.2537 -0.4052
  155TCq2    O4 2366   4.095   1.443   0.443 -0.0523 -0.7197  0.4236
  155TCq2    C9 2367   3.722   1.674   0.819  1.0508 -0.3518  0.0342
  155TCq2    O5 2368   3.610   1.734   0.828 -0.0594 -0.4980  0.5826
  155TCq2    O6 2369   3.809   1.693   0.909 -0.3763 -0.3641  0.0094
  155TCq2    H2 2370   3.602   1.710   0.598 -0.4078 -0.0216 -0.7488
  155TCq2    H3 2371   3.950   1.563   0.783  0.2334 -0.1982  0.6213
  155TCq2    H4 2372   3.908   1.536   0.357  0.6278  1.0520 -0.5624
  156MPD2     C 2373   2.589   4.353  12.159  0.1914  0.1998 -0.3786
  156MPD2    C1 2374   2.505   4.374  12.052  0.5895 -0.1673  0.6605
  156MPD2    C2 2375   2.379   4.405  12.090 -0.8099  1.1282 -0.3518
  156MPD2    C3 2376   2.325   4.403  12.218  0.1061 -0.8063 -0.9418
  156MPD2    C4 2377   2.410   4.379  12.322 -0.3996  0.5320 -0.4585
  156MPD2    C5 2378   2.540   4.358  12.292  0.2029 -0.7349  0.7514
  156MPD2     H 2379   2.310   4.448  12.018 -0.2270  1.1763 -0.8785
  156MPD2    H1 2380   2.377   4.377  12.425  0.8253  0.3383 -0.0623
  156MPD2    H2 2381   2.694   4.331  12.149  0.1295 -0.9278  1.3956
  156MPD2    H3 2382   2.611   4.356  12.373 -0.5565  2.2189  1.5155
  156MPD2     N 2383   2.190   4.443  12.228  0.1953  0.7846  0.2319
  156MPD2    H5 2384   2.145   4.454  12.138 -1.7111  0.1101  1.0912
  156MPD2    N1 2385   2.555   4.383  11.925 -0.7343  0.4189 -0.1352
  156MPD2    H7 2386   2.656   4.385  11.914 -0.6045 -1.9757  0.6326
  157TCq2    C1 2387   2.473   4.378  11.814  0.4486  0.0767 -0.2338
  157TCq2    O2 2388   2.352   4.350  11.815 -0.8237  0.5025 -0.0661
  157TCq2    C2 2389   2.532   4.428  11.691  0.5625 -0.2975  0.0635
  157TCq2    C3 2390   2.654   4.489  11.693 -0.0712 -0.1693 -0.3820
  157TCq2    C4 2391   2.677   4.575  11.591 -0.6256  0.6873  0.0638
  157TCq2    C5 2392   2.600   4.586  11.486 -0.3158  0.3843  0.0760
  157TCq2    C6 2393   2.481   4.516  11.477  0.2956  0.0914 -0.4973
  157TCq2    C7 2394   2.444   4.440  11.584 -0.6760 -0.1267 -0.2834
  157TCq2    C8 2395   2.385   4.549  11.366 -0.4959  1.1852 -0.0649
  157TCq2    O4 2396   2.420   4.633  11.284  0.0444 -0.2863 -0.0576
  157TCq2    C9 2397   2.796   4.667  11.604 -0.5318 -0.0279  0.2110
  157TCq2    O5 2398   2.878   4.640  11.693 -0.2462 -0.4347 -0.4608
  157TCq2    O6 2399   2.817   0.022  11.512 -0.2637 -0.4604 -0.0367
  157TCq2    H2 2400   2.724   4.495  11.776  1.1180  0.5541 -1.4195
  157TCq2    H3 2401   2.630   4.651  11.405 -0.6389 -1.2137 -1.3303
  157TCq2    H4 2402   2.339   4.415  11.589 -0.5681 -0.8076 -1.2570
  158TMC2    C1 2403   2.160   3.735  12.900 -0.3804  0.3048 -0.1802
  158TMC2    C2 2404   2.189   3.787  12.784 -0.0927  0.3127  0.7635
  158TMC2    C3 2405   2.095   3.793  12.681  0.1210  0.7340  0.3083
  158TMC2    C4 2406   2.037   3.676  12.917 -0.9081 -0.0617  0.0257
  158TMC2    C5 2407   1.948   3.680  12.808 -0.2497 -0.4437 -0.6093
  158TMC2    C6 2408   1.965   3.751  12.694  1.0659 -0.5360  0.3427
  158TMC2     C 2409   2.261   3.725  12.999  0.0121 -0.5235  0.3128
  158TMC2     O 2410   2.337   3.818  12.995  0.5335 -0.1953  0.5507
  158TMC2     H 2411   2.290   3.819  12.759  0.4600 -2.8504 -1.1388
  158TMC2    H1 2412   2.015   3.633  13.014 -3.4085  0.4522 -0.2964
  158TMC2    H2 2413   1.891   3.773  12.618  0.6609  0.2337  0.9560
  158TMC2    C7 2414   1.811   3.637  12.827  0.4932 -0.6190  0.2370
  158TMC2    C8 2415   2.141   3.791  12.542  0.0016  0.2514 -0.1355
  158TMC2    O1 2416   1.724   3.706  12.777  0.5054 -0.1115 -0.5950
  158TMC2    O2 2417   2.235   3.854  12.508  0.3146 -0.0911  0.2737
  158TMC2    O5 2418   2.078   3.693  12.466 -0.1932 -0.5902  0.6256
  158TMC2    H5 2419   2.030   3.634  12.529  0.4408 -0.6917  1.0256
  159MPD2     C 2420   2.443   3.548  13.452  0.4479 -0.4654  0.1078
  159MPD2    C1 2421   2.336   3.471  13.409 -0.2941 -0.1686 -0.7867
  159MPD2    C2 2422   2.268   3.506  13.294 -0.2529 -0.2358  0.0577
  159MPD2    C3 2423   2.319   3.609  13.211  0.3519 -0.7622  0.1483
  159MPD2    C4 2424   2.418   3.692  13.260 -0.8508  0.2100  0.2280
  159MPD2    C5 2425   2.478   3.658  13.378  0.6568  0.1231 -0.1777
  159MPD2     H 2426   2.177   3.450  13.270 -0.8511 -0.8865  3.8110
  159MPD2    H1 2427   2.456   3.777  13.203 -1.1482  0.4421  0.3742
  159MPD2    H2 2428   2.480   3.535  13.553 -0.0848  2.2054  0.6290
  159MPD2    H3 2429   2.554   3.725  13.418 -0.3648  0.1819  1.6856
  159MPD2     N 2430   2.246   3.625  13.089 -0.1131  0.2759 -0.4136
  159MPD2    H5 2431   2.172   3.558  13.072  1.1166 -1.7429  2.2208
  159MPD2    N1 2432   2.300   3.365  13.497 -0.3503 -0.2889  0.7600
  159MPD2    H7 2433   2.347   3.362  13.587  0.3293  0.9726  0.4402
  160TMC2    C1 2434   1.307   2.017   1.138  0.2630  0.7766 -0.5277
  160TMC2    C2 2435   1.295   1.927   1.241 -0.4431  0.2243  0.5004
  160TMC2    C3 2436   1.403   1.898   1.321 -0.6189  0.0411 -0.1675
  160TMC2    C4 2437   1.422   2.081   1.111  0.1969  0.2281  0.8329
  160TMC2    C5 2438   1.528   2.050   1.198  0.0997  0.1226  0.3201
  160TMC2    C6 2439   1.520   1.971   1.306  0.6600 -0.4110 -0.4329
  160TMC2     C 2440   1.190   2.037   1.047 -0.3213  0.8366 -0.8659
  160TMC2     O 2441   1.214   2.055   0.932 -0.9988 -0.2439  0.1830
  160TMC2     H 2442   1.201   1.875   1.260 -0.7928  0.3917 -0.7781
  160TMC2    H1 2443   1.427   2.137   1.018 -1.4552  1.3874  1.4272
  160TMC2    H2 2444   1.606   1.949   1.369 -0.2169 -0.6221  0.6976
  160TMC2    C7 2445   1.666   2.079   1.158  0.6906  0.8989 -0.2210
  160TMC2    C8 2446   1.392   1.800   1.430 -0.1304 -0.1855 -0.7698
  160TMC2    O1 2447   1.749   2.009   1.209 -0.5495 -0.6778 -0.3503
  160TMC2    O2 2448   1.418   1.833   1.546  0.5976  0.3362  0.7765
  160TMC2    O5 2449   1.373   1.676   1.376 -0.5894 -0.3899 -0.0897
  160TMC2    H5 2450   1.387   1.682   1.279 -0.4420  1.1653  0.0283
  161MPD2     C 2451   0.920   2.149   0.947  1.2587 -0.5654  1.0294
  161MPD2    C1 2452   0.947   2.101   1.076  0.4875 -0.0055  0.2549
  161MPD2    C2 2453   0.844   2.121   1.166 -0.1414 -0.4044  0.1079
  161MPD2    C3 2454   0.718   2.172   1.134 -0.3111 -0.3654 -0.6729
  161MPD2    C4 2455   0.693   2.191   1.001 -0.1189 -0.1246 -0.3236
  161MPD2    C5 2456   0.791   2.182   0.909 -0.2055  0.3630 -0.6865
  161MPD2     H 2457   0.872   2.098   1.268  1.4975 -1.3690 -0.5559
  161MPD2    H1 2458   0.595   2.226   0.968 -1.1018 -1.2150  1.4616
  161MPD2    H2 2459   0.999   2.149   0.872  0.6304 -1.5040  0.3673
  161MPD2    H3 2460   0.769   2.210   0.807  0.6594 -1.0254 -1.2608
  161MPD2     N 2461   0.621   2.196   1.233 -0.0840  0.2077 -0.0750
  161MPD2    H5 2462   0.529   2.228   1.205 -0.1991  0.2152  0.3191
  161MPD2    N1 2463   1.069   2.052   1.121  0.5211  0.1646  0.3186
  161MPD2    H7 2464   1.079   2.031   1.220  0.6186  2.4989  0.8057
  162TMC2    C1 2465   0.026   4.108   0.799  0.3199 -0.4034 -0.2730
  162TMC2    C2 2466   4.725   4.244   0.789 -0.6887 -0.3888 -0.5203
  162TMC2    C3 2467   4.605   4.293   0.833 -1.1462 -0.3467  0.3852
  162TMC2    C4 2468   4.671   4.024   0.866 -0.1212  0.5728  0.2068
  162TMC2    C5 2469   4.547   4.074   0.896 -0.6379 -0.0679  0.1692
  162TMC2    C6 2470   4.513   4.205   0.891 -0.0634 -0.4839 -0.5176
  162TMC2     C 2471   0.105   4.040   0.698  0.7913  0.1979 -1.1643
  162TMC2     O 2472   0.129   3.922   0.719  0.3692  0.4674 -0.2422
  162TMC2     H 2473   0.073   4.318   0.757 -0.4226 -0.9803 -1.2819
  162TMC2    H1 2474   4.692   3.917   0.872 -1.1298  0.2952 -1.3822
  162TMC2    H2 2475   4.413   4.233   0.922 -0.3002 -1.2093 -0.6123
  162TMC2    C7 2476   4.449   3.987   0.952 -0.4123 -0.4437  0.0093
  162TMC2    C8 2477   4.544   4.421   0.803  0.0053  0.3237  0.1220
  162TMC2    O1 2478   4.337   4.023   0.928  0.3975 -0.2927  0.2089
  162TMC2    O2 2479   4.470   4.476   0.883 -0.2213 -0.2133 -0.4077
  162TMC2    O5 2480   4.600   4.487   0.698  0.0004  0.1378 -0.2724
  162TMC2    H5 2481   4.652   4.432   0.636  1.9264  0.9566  0.6021
  163MPD2     C 2482   0.247   3.990   0.210  0.5363 -0.6226 -0.0096
  163MPD2    C1 2483   0.220   3.892   0.304  0.1213  0.2333  0.1263
  163MPD2    C2 2484   0.186   3.938   0.432 -0.0031  0.1602  0.1231
  163MPD2    C3 2485   0.194   4.074   0.469  0.1497 -0.4944 -0.3638
  163MPD2    C4 2486   0.233   4.170   0.374  0.3582  0.2389  0.7844
  163MPD2    C5 2487   0.253   4.121   0.244 -0.1313  0.3092 -0.0009
  163MPD2     H 2488   0.158   3.868   0.510  2.5496 -1.1280 -0.1174
  163MPD2    H1 2489   0.247   4.276   0.392  2.7213  0.1121 -0.2563
  163MPD2    H2 2490   0.264   3.967   0.105  1.2849 -0.1979  0.0151
  163MPD2    H3 2491   0.283   4.188   0.164 -1.3430 -0.7819 -1.3779
  163MPD2     N 2492   0.163   4.122   0.598 -0.1283  0.0753  0.1031
  163MPD2    H5 2493   0.156   4.223   0.607 -1.4421 -0.2381  2.7360
  163MPD2    N1 2494   0.207   3.760   0.257 -0.7605  0.3641  0.0813
  163MPD2    H7 2495   0.222   3.744   0.158 -0.5316 -0.5979  0.2710
  164TCq2    C1 2496   0.326   3.372  10.652 -0.1370  0.0855  0.0392
  164TCq2    O2 2497   0.212   3.334  10.628  0.4240 -0.0342  0.3611
  164TCq2    C2 2498   0.339   3.477  10.752  0.3427  0.1970 -0.5779
  164TCq2    C3 2499   0.465   3.505  10.805  0.0870 -0.4060 -0.7154
  164TCq2    C4 2500   0.484   3.586  10.911  0.0850  1.0881 -0.1119
  164TCq2    C5 2501   0.370   3.633  10.985 -0.7268  0.5246  0.5118
  164TCq2    C6 2502   0.242   3.582  10.944  0.5667 -0.3586 -0.4236
  164TCq2    C7 2503   0.228   3.513  10.825  0.1662 -0.0906  0.5407
  164TCq2    C8 2504   0.124   3.621  11.013 -0.0486  0.0894  0.0923
  164TCq2    O4 2505   0.021   3.619  10.948 -0.1636 -0.6934 -0.3614
  164TCq2    C9 2506   0.615   3.634  10.945 -0.0583  0.0366  0.2261
  164TCq2    O5 2507   0.713   3.565  10.918 -0.6446 -0.0898  0.4800
  164TCq2    O6 2508   0.629   3.729  11.033  0.6040  0.1839  0.4966
  164TCq2    H2 2509   0.559   3.473  10.760  0.2143 -1.2484  0.1397
  164TCq2    H3 2510   0.386   3.692  11.074  0.4713  1.1939 -0.1481
  164TCq2    H4 2511   0.131   3.477  10.791  1.0766 -1.1255 -0.9330
  165MPD2     C 2512   0.847   0.687   1.856 -0.4446 -0.1996 -0.1534
  165MPD2    C1 2513   0.958   0.634   1.917  0.7979 -0.3598  0.2307
  165MPD2    C2 2514   1.019   0.714   2.012  0.2482  0.3826 -0.0506
  165MPD2    C3 2515   0.981   0.845   2.035 -0.5306 -0.2481 -0.3065
  165MPD2    C4 2516   0.871   0.901   1.967 -0.8558 -0.0658  0.8317
  165MPD2    C5 2517   0.802   0.817   1.882  0.1239  0.8722  0.9116
  165MPD2     H 2518   1.096   0.672   2.076  0.9553  1.0186 -0.4764
  165MPD2    H1 2519   0.831   1.001   1.981  0.7053  0.3793  2.0786
  165MPD2    H2 2520   0.795   0.629   1.780  1.9981  0.3333 -2.2121
  165MPD2    H3 2521   0.710   0.837   1.829 -0.8344 -0.5569  2.0322
  165MPD2     N 2522   1.046   0.922   2.132 -0.4585  0.5022  0.3013
  165MPD2    H5 2523   1.003   1.010   2.159  2.0650  1.6491  0.5715
  165MPD2    N1 2524   0.989   0.501   1.882  0.5716  0.6373 -0.2589
  165MPD2    H7 2525   0.942   0.451   1.808 -1.2922 -0.4280  1.6520
  166TCq2    C1 2526   1.177   0.897   2.177 -0.5576  0.2123 -0.2754
  166TCq2    O2 2527   1.261   0.822   2.127  0.1118 -0.3518  0.0755
  166TCq2    C2 2528   1.213   0.997   2.278 -0.3792  0.2209  0.6787
  166TCq2    C3 2529   1.129   1.034   2.381  0.1742 -0.2915 -0.8467
  166TCq2    C4 2530   1.187   1.106   2.483 -0.3630  0.2656 -0.0041
  166TCq2    C5 2531   1.322   1.145   2.487 -0.3843 -0.3305  0.9415
  166TCq2    C6 2532   1.399   1.107   2.378  0.2228 -0.2393  0.0274
  166TCq2    C7 2533   1.344   1.035   2.276 -0.8683  0.7187  0.0024
  166TCq2    C8 2534   1.522   1.176   2.350 -0.0304 -0.0311 -0.1464
  166TCq2    O4 2535   1.595   1.142   2.259 -0.1630  0.3691  0.2048
  166TCq2    C9 2536   1.112   1.131   2.608 -0.4757 -0.3325  0.5684
  166TCq2    O5 2537   1.168   1.180   2.708 -0.1676 -0.2603  0.3315
  166TCq2    O6 2538   0.982   1.133   2.592  0.5472  0.3875 -0.3159
  166TCq2    H2 2539   1.030   0.994   2.396  0.5399  0.3111  3.0937
  166TCq2    H3 2540   1.352   1.194   2.579  1.6178 -0.5388  0.4035
  166TCq2    H4 2541   1.414   0.996   2.203 -2.9665  2.2635 -2.8046
  167TMC2    C1 2542   4.266   3.376  12.372 -0.0760 -0.6491  0.1000
  167TMC2    C2 2543   4.226   3.416  12.500  0.3361 -0.1225 -0.1708
  167TMC2    C3 2544   4.234   3.325  12.605 -0.3774 -0.0567  0.3724
  167TMC2    C4 2545   4.317   3.248  12.350  0.7004 -0.4951 -0.1068
  167TMC2    C5 2546   4.333   3.165  12.458  0.3314 -0.1541  0.8248
  167TMC2    C6 2547   4.285   3.201  12.583  0.7754  0.1524  0.7557
  167TMC2     C 2548   4.292   3.481  12.273  0.9371 -0.1228  0.1826
  167TMC2     O 2549   4.252   3.592  12.299 -0.1840 -0.0080  0.0307
  167TMC2     H 2550   4.170   3.509  12.502 -0.2525 -0.4816 -0.0136
  167TMC2    H1 2551   4.347   3.210  12.253 -0.1048 -0.0741 -0.5224
  167TMC2    H2 2552   4.299   3.140  12.672  0.2376 -3.3287 -1.5559
  167TMC2    C7 2553   4.376   3.028  12.450 -0.2519 -0.2262  0.6085
  167TMC2    C8 2554   4.161   3.346  12.722  1.6121 -0.2374  0.8517
  167TMC2    O1 2555   4.354   2.960  12.551  0.0492 -0.8924  0.5483
  167TMC2    O2 2556   4.119   3.250  12.789  0.7185 -0.0621  0.3980
  167TMC2    O5 2557   4.100   3.465  12.719  0.5749 -0.6070  0.8217
  167TMC2    H5 2558   4.132   3.542  12.668 -0.2324 -0.4750  0.5178
  168MPD2     C 2559   4.384   3.649  12.036 -0.7170  0.6090  0.3027
  168MPD2    C1 2560   4.392   3.508  12.045 -0.3191  0.5310 -0.7130
  168MPD2    C2 2561   4.423   3.444  11.928  0.1813  0.0274  0.3766
  168MPD2    C3 2562   4.460   3.500  11.809 -0.3862 -0.3840  0.9158
  168MPD2    C4 2563   4.451   3.637  11.797  0.9619 -0.3732  0.2415
  168MPD2    C5 2564   4.414   3.695  11.913 -0.1358 -0.6268  0.2226
  168MPD2     H 2565   4.417   3.337  11.946 -1.5528  0.1319  0.3599
  168MPD2    H1 2566   4.478   3.690  11.706 -1.6919  0.0421 -0.2973
  168MPD2    H2 2567   4.346   3.712  12.115  0.6904  0.5370  1.0289
  168MPD2    H3 2568   4.406   3.803  11.911  0.0306 -0.5618  3.1271
  168MPD2     N 2569   4.491   3.431  11.692  0.1703  0.1648 -0.3655
  168MPD2    H5 2570   4.522   3.477  11.607  1.9464  1.0139  0.7488
  168MPD2    N1 2571   4.352   3.431  12.161  0.7002 -0.7442  0.7209
  168MPD2    H7 2572   4.356   3.330  12.151  1.4940 -0.7496  1.0730
  169MPD1     C 2573   1.990   2.690   9.009  0.1367 -0.8450 -0.0027
  169MPD1    C1 2574   2.064   2.607   9.089  0.2476  0.1666 -0.8112
  169MPD1    C2 2575   2.200   2.611   9.070 -0.0722  0.4483 -0.1714
  169MPD1    C3 2576   2.259   2.719   9.000  0.6916 -0.6103  0.3398
  169MPD1    C4 2577   2.179   2.814   8.944  0.3732 -0.3080 -0.4159
  169MPD1    C5 2578   2.047   2.788   8.934 -0.5442  0.0125  1.0811
  169MPD1     H 2579   2.256   2.524   9.102  0.8183  0.6515 -1.1650
  169MPD1    H1 2580   2.211   2.899   8.885 -0.3571 -1.3319 -2.2865
  169MPD1    H2 2581   1.882   2.688   9.009  0.1384 -0.7348  0.8011
  169MPD1    H3 2582   1.990   2.863   8.880  0.6958  1.2990  1.5448
  169MPD1     N 2583   2.399   2.736   9.008 -0.4920  0.0142  0.7828
  169MPD1    H5 2584   2.451   2.664   9.057 -0.1605 -0.5661 -0.4311
  169MPD1    N1 2585   2.008   2.501   9.163  0.1599 -0.3219  0.8983
  169MPD1    H6 2586   1.927   2.540   9.213  0.1531 -3.1949  3.1314
  169MPD1    H7 2587   2.075   2.458   9.227  0.4317  0.0104  0.8362
  170MPD1     C 2588   1.808   1.210  13.187  0.1453  0.3082 -0.5416
  170MPD1    C1 2589   1.746   1.150  13.291 -0.3373  0.3822 -0.0226
  170MPD1    C2 2590   1.620   1.090  13.275  0.0841  0.1496 -0.0778
  170MPD1    C3 2591   1.566   1.078  13.148  0.7281 -0.1159 -0.6220
  170MPD1    C4 2592   1.646   1.107  13.041 -1.0496 -0.2798  0.2225
  170MPD1    C5 2593   1.764   1.183  13.064  0.3089 -0.3647  0.4507
  170MPD1     H 2594   1.564   1.038  13.351  1.4747 -0.5677  0.4501
  170MPD1    H1 2595   1.617   1.098  12.937 -0.7321 -0.0793  0.1174
  170MPD1    H2 2596   1.901   1.265  13.196  0.0680  0.0352  1.8299
  170MPD1    H3 2597   1.816   1.215  12.975 -1.5461  1.0331 -0.1295
  170MPD1     N 2598   1.440   1.015  13.137  0.0718 -0.1701 -0.3066
  170MPD1    H5 2599   1.387   0.996  13.222  2.6145 -3.8271  0.4667
  170MPD1    N1 2600   1.790   1.168  13.424  0.1670 -0.3207 -0.4593
  170MPD1    H6 2601   1.755   1.098  13.489 -0.1204 -0.2386 -0.5240
  170MPD1    H7 2602   1.883   1.204  13.446 -1.2283  1.8915  1.8004
  171MPD1     C 2603   4.696   2.397  15.380 -0.2857  0.3608  0.2842
  171MPD1    C1 2604   0.048   2.321  15.466 -0.1152  0.4400  0.0690
  171MPD1    C2 2605   0.066   2.179  15.451 -0.5647  0.2116 -0.7472
  171MPD1    C3 2606   4.702   2.123  15.368 -0.7741  0.2713 -0.3076
  171MPD1    C4 2607   4.621   2.194  15.283 -0.5558 -0.3136  0.3275
  171MPD1    C5 2608   4.617   2.334  15.290  0.6192 -0.1289 -0.3595
  171MPD1     H 2609   0.126   2.117  15.518 -2.3938 -1.5615 -0.7582
  171MPD1    H1 2610   4.562   2.142  15.209  0.1743  0.2802 -0.6667
  171MPD1    H2 2611   4.699   2.505  15.389  0.2211  0.3447  0.2929
  171MPD1    H3 2612   4.561   2.387  15.213 -1.0453 -0.0855  0.8804
  171MPD1     N 2613   4.680   1.984  15.375 -0.1033 -0.3979 -0.3081
  171MPD1    H5 2614   4.615   1.954  15.303  3.0397 -0.6526 -3.0717
  171MPD1    N1 2615   0.127   2.398  15.555 -1.0694  0.4799 -0.0570
  171MPD1    H6 2616   0.076   2.480  15.589 -1.4431  0.0904  0.3387
  171MPD1    H7 2617   0.154   2.348  15.639 -1.0594 -0.9878 -0.9356
  172MPD1     C 2618   3.634   0.720   0.401  0.2658 -0.1762  0.3011
  172MPD1    C1 2619   3.523   0.726   0.319 -0.0268 -0.5101 -0.2493
  172MPD1    C2 2620   3.434   0.830   0.329  0.2608  0.6593 -0.3020
  172MPD1    C3 2621   3.460   0.939   0.408 -0.0089 -0.8081  1.0643
  172MPD1    C4 2622   3.579   0.937   0.482 -1.0931  0.1337 -0.5155
  172MPD1    C5 2623   3.655   0.825   0.484 -0.2214 -0.7219  0.1793
  172MPD1     H 2624   3.349   0.837   0.263 -0.4343  0.4857  0.5789
  172MPD1    H1 2625   3.602   1.016   0.552 -0.0995  1.0775 -1.9247
  172MPD1    H2 2626   3.706   0.639   0.399  0.3387 -0.0248 -3.0955
  172MPD1    H3 2627   3.745   0.820   0.544  0.8045  1.4086 -1.1785
  172MPD1     N 2628   3.379   1.061   0.410  0.1729  0.3651  0.3556
  172MPD1    H5 2629   3.424   1.143   0.450 -2.3802  2.1118 -0.3645
  172MPD1    N1 2630   3.484   0.613   0.243 -0.0730  0.5324 -0.4494
  172MPD1    H6 2631   3.454   0.655   0.155 -2.6942 -0.7065 -0.1431
  172MPD1    H7 2632   3.568   0.564   0.211 -1.3768 -1.1828 -1.2158
  173MPD1     C 2633   0.347   1.171  13.122 -0.2238 -0.0631 -0.2952
  173MPD1    C1 2634   0.443   1.180  13.216 -0.1785  0.5996 -0.0667
  173MPD1    C2 2635   0.419   1.112  13.334 -0.7765 -0.6745 -0.2140
  173MPD1    C3 2636   0.292   1.064  13.365 -1.1353  0.1410 -0.3415
  173MPD1    C4 2637   0.199   1.050  13.265  0.5722 -0.1009  0.5021
  173MPD1    C5 2638   0.236   1.101  13.142  0.2889  0.5141 -0.2843
  173MPD1     H 2639   0.499   1.115  13.407  2.5529 -2.4677 -3.8424
  173MPD1    H1 2640   0.095   1.028  13.286 -0.2268  3.2957 -0.0123
  173MPD1    H2 2641   0.369   1.208  13.023  1.3400  0.3308  0.2037
  173MPD1    H3 2642   0.163   1.098  13.062  0.0711 -2.2312  0.0330
  173MPD1     N 2643   0.262   1.038  13.501 -0.4209  0.1326  0.6725
  173MPD1    H5 2644   0.342   1.049  13.562  1.1126  1.9373 -1.6936
  173MPD1    N1 2645   0.572   1.232  13.188 -0.2360 -0.1877 -0.3672
  173MPD1    H6 2646   0.567   1.319  13.136  0.9816  0.2980  0.3086
  173MPD1    H7 2647   0.634   1.254  13.266 -0.4657  0.9399 -0.5073
  174MPD1     C 2648   0.554   0.662  14.404  0.1966  0.8248  0.1721
  174MPD1    C1 2649   0.619   0.718  14.293  0.1270  0.0136 -0.0279
  174MPD1    C2 2650   0.539   0.752  14.182 -0.9138  0.5363 -0.2493
  174MPD1    C3 2651   0.407   0.718  14.173  0.2073  0.3925 -0.4635
  174MPD1    C4 2652   0.352   0.650  14.274  0.1034 -0.0861  0.3997
  174MPD1    C5 2653   0.420   0.634  14.394  0.2833 -0.6765 -0.0773
  174MPD1     H 2654   0.591   0.802  14.102  0.9717  1.5802  1.6071
  174MPD1    H1 2655   0.247   0.623  14.271  0.5435 -1.7090 -0.4442
  174MPD1    H2 2656   0.609   0.622  14.489 -1.1040  2.9187  1.9971
  174MPD1    H3 2657   0.377   0.586  14.482  0.3228 -0.6504 -0.0435
  174MPD1     N 2658   0.320   0.760  14.065 -0.0741 -0.2241  0.5727
  174MPD1    H5 2659   0.220   0.747  14.078  0.0178 -0.7364  0.7961
  174MPD1    N1 2660   0.748   0.775  14.309 -0.3100  0.4164 -0.4991
  174MPD1    H6 2661   0.812   0.722  14.369 -1.0395 -1.4637 -1.3636
  174MPD1    H7 2662   0.792   0.783  14.217  1.0370  0.2626  0.1248
  175MPD1     C 2663   3.279   2.882  14.939  0.4632  0.1291 -0.0669
  175MPD1    C1 2664   3.152   2.840  14.982 -0.3008  0.9690 -0.4750
  175MPD1    C2 2665   3.135   2.781  15.101  0.3856 -0.3628  0.0122
  175MPD1    C3 2666   3.245   2.746  15.169 -0.4372  0.1405  0.6994
  175MPD1    C4 2667   3.371   2.771  15.122  0.0421 -0.0198 -0.7950
  175MPD1    C5 2668   3.387   2.852  15.014 -0.3752  0.3524 -0.1290
  175MPD1     H 2669   3.041   2.742  15.138 -1.5353  3.3830 -0.9478
  175MPD1    H1 2670   3.459   2.742  15.179 -0.0082 -0.2426 -0.8336
  175MPD1    H2 2671   3.294   2.951  14.857  0.6882 -0.3884 -0.4632
  175MPD1    H3 2672   3.485   2.890  14.984 -0.9261  2.2161  0.4069
  175MPD1     N 2673   3.237   2.688  15.301  0.2387 -0.1955  0.0234
  175MPD1    H5 2674   3.320   2.638  15.331 -1.7283 -3.1660  0.5441
  175MPD1    N1 2675   3.044   2.871  14.897 -0.1715 -0.1791 -0.1469
  175MPD1    H6 2676   3.080   2.888  14.803  1.6162 -1.1876  0.3657
  175MPD1    H7 2677   2.983   2.790  14.899 -1.9817  1.1844 -0.5114
  176MPD1     C 2678   0.147   3.639  15.652  0.2068  0.5716 -0.5349
  176MPD1    C1 2679   0.016   3.660  15.683  0.0945  0.2056  0.6030
  176MPD1    C2 2680   4.723   3.739  15.796  0.9212 -0.1082  0.9892
  176MPD1    C3 2681   0.104   3.800  15.861 -0.9506 -0.7395 -0.2519
  176MPD1    C4 2682   0.233   3.774  15.824  0.2962  0.0446 -0.2828
  176MPD1    C5 2683   0.252   3.696  15.717  0.1150  0.1929  0.4469
  176MPD1     H 2684   4.628   3.763  15.843  0.5211  1.7767 -0.8092
  176MPD1    H1 2685   0.321   3.817  15.870  1.9982 -1.2503 -2.3348
  176MPD1    H2 2686   0.164   3.573  15.568 -1.0843  0.3120 -0.5861
  176MPD1    H3 2687   0.353   3.665  15.692  0.6043  0.0039  2.7324
  176MPD1     N 2688   0.079   3.899  15.957  0.3306 -0.5580 -0.3042
  176MPD1    H5 2689   4.707   3.915  15.978  0.7792 -0.1339  1.4824
  176MPD1    N1 2690   4.627   3.606  15.632 -0.3118  0.1204 -0.0757
  176MPD1    H6 2691   4.544   3.663  15.641 -0.3944 -0.1152  0.6435
  176MPD1    H7 2692   4.637   3.586  15.533  1.4413 -1.7109  0.4550
  177MPD1     C 2693   3.075   3.812  10.045 -0.3159 -0.0915  0.1459
  177MPD1    C1 2694   3.104   3.938  10.006 -0.5982 -1.4597  0.0577
  177MPD1    C2 2695   3.054   3.972   9.877  0.2456  0.5978 -1.0814
  177MPD1    C3 2696   2.969   3.894   9.810 -0.0559  0.0907 -0.4855
  177MPD1    C4 2697   2.923   3.780   9.861  0.3065 -0.7554 -0.4007
  177MPD1    C5 2698   2.976   3.742   9.981  0.2408  0.5566  0.0607
  177MPD1     H 2699   3.086   4.065   9.832 -0.6687  0.5398 -1.8462
  177MPD1    H1 2700   2.847   3.716   9.818 -0.7944 -0.4644  1.0890
  177MPD1    H2 2701   3.094   3.768  10.142  0.1556  1.5663  0.8081
  177MPD1    H3 2702   2.933   3.649  10.014  1.3635 -0.5720 -1.6258
  177MPD1     N 2703   2.920   3.942   9.686 -0.7022 -0.7594  0.3058
  177MPD1    H5 2704   2.956   4.035   9.666 -1.7024 -0.2434  0.8735
  177MPD1    N1 2705   3.200   4.017  10.076 -0.5064 -0.0086 -0.6640
  177MPD1    H6 2706   3.203   4.118  10.060  0.8346  0.0022 -0.3394
  177MPD1    H7 2707   3.191   4.005  10.177  2.4539  0.0660 -0.3792
  178MPD1     C 2708   0.796   4.488   0.503 -0.4317 -0.1650 -0.7921
  178MPD1    C1 2709   0.751   4.379   0.433 -0.7797  0.5015  0.2413
  178MPD1    C2 2710   0.799   4.355   0.306 -0.5282  0.4796  0.7929
  178MPD1    C3 2711   0.877   4.448   0.235  0.0372 -0.7035 -0.0660
  178MPD1    C4 2712   0.899   4.566   0.299  0.1129 -0.1071 -0.0160
  178MPD1    C5 2713   0.855   4.590   0.427 -0.2317 -0.1639 -0.5882
  178MPD1     H 2714   0.789   4.256   0.263  1.5663  0.7053 -0.2344
  178MPD1    H1 2715   0.959   4.641   0.249  0.6935  0.7376  1.9356
  178MPD1    H2 2716   0.790   4.499   0.611  2.3218 -0.6635 -0.5729
  178MPD1    H3 2717   0.884   4.686   0.468 -1.5327 -0.6177  1.3684
  178MPD1     N 2718   0.932   4.427   0.108 -0.1070 -0.0248 -0.1894
  178MPD1    H5 2719   1.003   4.497   0.088 -0.5824  0.7020  0.6597
  178MPD1    N1 2720   0.697   4.275   0.506 -0.3078  0.0782  0.0589
  178MPD1    H6 2721   0.637   4.329   0.568 -1.6607 -1.5513  0.1723
  178MPD1    H7 2722   0.655   4.217   0.434 -0.7703  0.3880  0.0735
  179MPD1     C 2723   0.767   3.234  16.743  0.3561 -0.2957  0.5414
  179MPD1    C1 2724   0.772   3.310  16.630 -0.2954  0.5379  0.4117
  179MPD1    C2 2725   0.788   3.258  16.500  0.6057 -0.0399  0.0819
  179MPD1    C3 2726   0.789   3.117  16.496 -0.3410 -0.1116 -0.1072
  179MPD1    C4 2727   0.791   3.044  16.614  0.1832 -0.0637 -0.6363
  179MPD1    C5 2728   0.786   3.099  16.732 -0.9505  0.7373  0.3685
  179MPD1     H 2729   0.795   3.319  16.411 -2.1541  0.7266  0.3839
  179MPD1    H1 2730   0.791   2.935  16.614 -0.0853 -0.0701 -2.2451
  179MPD1    H2 2731   0.758   3.271  16.844  1.1985 -1.3062  0.9867
  179MPD1    H3 2732   0.799   3.038  16.821 -1.7746  0.4193  0.2698
  179MPD1     N 2733   0.795   3.038  16.384 -0.3603 -0.4549 -0.6212
  179MPD1    H5 2734   0.769   2.940  16.398 -0.8263 -0.5957 -2.3589
  179MPD1    N1 2735   0.765   3.447  16.650 -0.4451  0.0304  0.5881
  179MPD1    H6 2736   0.810   3.504  16.579  0.5468 -0.2562  0.9894
  179MPD1    H7 2737   0.781   3.492  16.740  1.1109  1.4675 -0.4059
  180MPD1     C 2738   0.592   4.328  15.274 -0.0648  0.4538  0.0738
  180MPD1    C1 2739   0.648   4.418  15.188 -0.0459  0.1513 -0.2750
  180MPD1    C2 2740   0.597   4.430  15.058  0.1815 -0.5118 -0.3798
  180MPD1    C3 2741   0.500   4.347  15.005  0.1603 -0.2840  0.4639
  180MPD1    C4 2742   0.452   4.253  15.092  0.5103  0.7352  0.2634
  180MPD1    C5 2743   0.489   4.245  15.228 -0.1294 -0.1243  0.1961
  180MPD1     H 2744   0.633   4.513  14.998 -1.5714  0.3596 -0.2214
  180MPD1    H1 2745   0.379   4.182  15.056  0.0011  1.2564  0.2706
  180MPD1    H2 2746   0.628   4.319  15.376  0.4961 -1.2750 -0.2815
  180MPD1    H3 2747   0.450   4.173  15.299  1.2458 -0.2120  0.8613
  180MPD1     N 2748   0.456   4.361  14.871 -0.2049 -0.8028 -0.6617
  180MPD1    H5 2749   0.500   4.440  14.825 -0.4529 -0.6429 -0.6295
  180MPD1    N1 2750   0.732   4.520  15.240 -0.4140 -0.1013 -0.1016
  180MPD1    H6 2751   0.786   4.489  15.320  1.6770 -0.5670 -1.6968
  180MPD1    H7 2752   0.792   4.553  15.165  0.4900  3.9813  2.4216
  181MPD1     C 2753   1.490   1.066   9.526  0.5450 -0.2344  0.0837
  181MPD1    C1 2754   1.550   1.190   9.499  0.5217 -0.2082 -0.0611
  181MPD1    C2 2755   1.645   1.239   9.590  0.1640 -0.0303 -0.6855
  181MPD1    C3 2756   1.680   1.173   9.704 -0.0571 -0.0629 -0.1238
  181MPD1    C4 2757   1.618   1.053   9.733 -0.5318 -0.4745 -0.0896
  181MPD1    C5 2758   1.524   1.000   9.643  0.7928  0.4111 -0.6754
  181MPD1     H 2759   1.702   1.324   9.556 -0.0261 -0.7510 -2.8462
  181MPD1    H1 2760   1.644   0.996   9.822  0.2942  1.5586  0.9826
  181MPD1    H2 2761   1.417   1.020   9.461  0.6136 -0.0808 -0.1006
  181MPD1    H3 2762   1.476   0.908   9.673  2.2141  0.0935  0.5986
  181MPD1     N 2763   1.790   1.213   9.789 -0.7152  0.1361 -0.1788
  181MPD1    H5 2764   1.813   1.143   9.859 -1.6497  2.3596  2.3465
  181MPD1    N1 2765   1.528   1.252   9.377 -0.0291  0.0465  0.3262
  181MPD1    H6 2766   1.553   1.350   9.366  1.7251 -0.3922  0.4804
  181MPD1    H7 2767   1.434   1.230   9.344  0.2370  0.1120 -0.4787
  182MPD1     C 2768   2.555   1.094   1.303  0.4317 -0.8183 -0.3771
  182MPD1    C1 2769   2.469   1.129   1.196  0.7370  0.2499  0.3378
  182MPD1    C2 2770   2.339   1.101   1.202 -0.0249  1.1362 -0.6827
  182MPD1    C3 2771   2.284   1.034   1.312 -0.1381 -0.3208 -0.1871
  182MPD1    C4 2772   2.364   1.001   1.418 -0.1656  0.0803 -0.4195
  182MPD1    C5 2773   2.497   1.028   1.416  0.7612  0.9379 -0.1641
  182MPD1     H 2774   2.270   1.139   1.127 -0.6965  1.5697  0.1607
  182MPD1    H1 2775   2.326   0.958   1.510 -0.6285  0.2845 -0.5153
  182MPD1    H2 2776   2.661   1.117   1.302  0.2001  0.2705 -0.0249
  182MPD1    H3 2777   2.561   1.014   1.502 -0.0499  1.4794  0.5263
  182MPD1     N 2778   2.150   0.986   1.311  0.2931  0.6743  0.0593
  182MPD1    H5 2779   2.120   0.938   1.396 -0.4501  0.6095 -0.2371
  182MPD1    N1 2780   2.512   1.215   1.095  0.0109  0.4943  0.6298
  182MPD1    H6 2781   2.611   1.197   1.080  0.1452  2.0824 -0.3305
  182MPD1    H7 2782   2.453   1.209   1.012 -0.2078 -0.5251  0.8580
  183MPD1     C 2783   2.490   0.758   8.789 -0.3862 -0.3422 -0.5231
  183MPD1    C1 2784   2.464   0.863   8.874  0.0565 -0.3424 -0.0041
  183MPD1    C2 2785   2.582   0.903   8.928 -0.3775  0.1194  0.1800
  183MPD1    C3 2786   2.703   0.844   8.928 -0.1317 -0.5862 -1.0714
  183MPD1    C4 2787   2.726   0.733   8.844 -0.4621 -0.5808  0.3510
  183MPD1    C5 2788   2.609   0.696   8.779 -0.6939  0.6919 -0.0218
  183MPD1     H 2789   2.587   1.004   8.967  1.4215  0.1349 -0.0862
  183MPD1    H1 2790   2.819   0.677   8.835  0.3388  1.1667 -2.1580
  183MPD1    H2 2791   2.409   0.731   8.722  0.6340 -1.5264 -1.3161
  183MPD1    H3 2792   2.628   0.619   8.706  1.2495  0.8724  0.2954
  183MPD1     N 2793   2.801   0.915   8.998 -0.4088  0.6422  0.0187
  183MPD1    H5 2794   2.770   0.985   9.065 -2.8654  0.5183 -0.9912
  183MPD1    N1 2795   2.350   0.947   8.864 -0.5381 -0.5510  0.6852
  183MPD1    H6 2796   2.336   0.997   8.952  0.5143  0.6992  0.1574
  183MPD1    H7 2797   2.264   0.898   8.842 -1.3867  1.4498 -0.5331
  184MPD1     C 2798   2.382   3.069   9.789 -0.0357  0.6981  0.2068
  184MPD1    C1 2799   2.289   3.054   9.689 -0.0659  0.6193  0.9439
  184MPD1    C2 2800   2.260   3.160   9.607 -0.4998  0.2191 -0.6520
  184MPD1    C3 2801   2.312   3.284   9.635  0.1303 -0.1392 -0.3839
  184MPD1    C4 2802   2.394   3.298   9.747 -0.3667  0.6764 -0.0720
  184MPD1    C5 2803   2.435   3.191   9.821  0.3861  0.2575 -0.2815
  184MPD1     H 2804   2.201   3.145   9.518 -0.7216 -0.7963 -0.3365
  184MPD1    H1 2805   2.428   3.400   9.765 -0.0599  0.9900 -2.4160
  184MPD1    H2 2806   2.417   2.986   9.849  0.8533  2.6555  2.4157
  184MPD1    H3 2807   2.512   3.200   9.898  1.1875 -1.0539 -0.9387
  184MPD1     N 2808   2.279   3.404   9.567 -0.2332  0.5531  0.1121
  184MPD1    H5 2809   2.331   3.488   9.592 -2.1771  1.7416  0.1409
  184MPD1    N1 2810   2.252   2.922   9.651  0.5600 -0.1081 -0.0510
  184MPD1    H6 2811   2.235   2.872   9.738  2.3340 -1.6397 -0.5799
  184MPD1    H7 2812   2.167   2.928   9.595  1.6610  1.3872 -1.5527
  185MPD1     C 2813   1.816   3.611   8.649  1.1941 -0.4349 -0.9622
  185MPD1    C1 2814   1.858   3.732   8.702  0.1586  0.6662  0.6733
  185MPD1    C2 2815   1.950   3.725   8.807 -0.2922 -0.8422  0.2411
  185MPD1    C3 2816   1.979   3.611   8.876  0.4762 -0.2308 -0.4120
  185MPD1    C4 2817   1.932   3.495   8.821  0.7272  0.2817  0.5870
  185MPD1    C5 2818   1.850   3.493   8.714 -0.0190 -0.0607  0.1136
  185MPD1     H 2819   2.003   3.817   8.826 -0.6086 -0.1591 -2.2460
  185MPD1    H1 2820   1.943   3.405   8.880  0.6390 -0.3289 -0.3365
  185MPD1    H2 2821   1.744   3.611   8.568 -0.3047  0.5823  0.3769
  185MPD1    H3 2822   1.816   3.399   8.672  1.8028 -1.0638  0.9141
  185MPD1     N 2823   2.047   3.602   9.001  0.3729 -0.5181 -0.2884
  185MPD1    H5 2824   2.061   3.510   9.041  1.2367 -0.1468  0.2603
  185MPD1    N1 2825   1.845   3.849   8.624  0.5459  0.5071  0.0119
  185MPD1    H6 2826   1.749   3.858   8.591  0.3468 -1.9865 -0.0771
  185MPD1    H7 2827   1.857   3.937   8.673  1.6650  1.4967 -2.0437
  186MPD1     C 2828   0.672   3.228  15.116  0.9890 -0.1897  0.1672
  186MPD1    C1 2829   0.684   3.125  15.211 -0.2258  0.9258 -0.7089
  186MPD1    C2 2830   0.717   3.154  15.341  0.3236  1.2191 -0.5796
  186MPD1    C3 2831   0.776   3.276  15.375 -0.6009  0.4490 -0.1102
  186MPD1    C4 2832   0.766   3.378  15.277 -0.1026  0.0031  0.5848
  186MPD1    C5 2833   0.715   3.352  15.154  0.3754  0.2395  0.8313
  186MPD1     H 2834   0.713   3.068  15.408  2.8638  1.7469  0.2327
  186MPD1    H1 2835   0.805   3.476  15.304 -0.7522 -0.0309  1.6188
  186MPD1    H2 2836   0.635   3.208  15.016  1.4271  1.6770 -0.3691
  186MPD1    H3 2837   0.709   3.432  15.081 -0.4380 -1.0636 -0.5162
  186MPD1     N 2838   0.829   3.307  15.506  0.4263 -0.3658  0.4213
  186MPD1    H5 2839   0.867   3.399  15.528 -0.7328  0.1404  0.3102
  186MPD1    N1 2840   0.624   3.002  15.183 -0.4635 -0.5168 -0.1494
  186MPD1    H6 2841   0.638   2.964  15.089  0.6443  0.5429 -0.4120
  186MPD1    H7 2842   0.681   2.938  15.236  0.9525  1.8509  1.1638
  187MPD1     C 2843   4.493   4.453  17.387  0.3835  0.0763  0.4872
  187MPD1    C1 2844   4.490   4.579  17.439 -0.7942 -0.2375 -0.1371
  187MPD1    C2 2845   4.555   4.679  17.366  0.5926 -0.5332 -0.2923
  187MPD1    C3 2846   4.612   4.658  17.243  0.4103 -0.9020 -0.4704
  187MPD1    C4 2847   4.610   4.530  17.197 -0.5609 -0.2312  0.0131
  187MPD1    C5 2848   4.551   4.431  17.266 -0.2056  0.4689  0.3715
  187MPD1     H 2849   4.560   0.053  17.409  2.5550 -0.7548  0.0092
  187MPD1    H1 2850   4.670   4.506  17.110 -0.3110  0.9683 -0.1494
  187MPD1    H2 2851   4.460   4.368  17.445  0.1731  0.1573  0.4851
  187MPD1    H3 2852   4.560   4.330  17.228  1.1395  0.6410  0.2063
  187MPD1     N 2853   4.690   0.034  17.172 -0.1299  0.3229 -0.0706
  187MPD1    H5 2854   0.013   4.723  17.090  0.2200 -1.6738  1.0054
  187MPD1    N1 2855   4.450   4.597  17.574 -0.4187  0.5904  0.1969
  187MPD1    H6 2856   4.428   4.694  17.598 -0.8262  1.0325 -1.9371
  187MPD1    H7 2857   4.369   4.537  17.590  1.3579 -1.7858  0.3196
  188MPD1     C 2858   4.451   0.139  10.264 -0.1698  0.1905 -0.5319
  188MPD1    C1 2859   4.374   0.171  10.156 -0.4026  0.6278 -0.4765
  188MPD1    C2 2860   4.341   0.069  10.072 -0.0225 -0.1967 -0.7085
  188MPD1    C3 2861   4.397   4.664  10.083 -0.0952 -0.5173  0.2975
  188MPD1    C4 2862   4.479   4.633  10.188 -0.0823  0.0223  0.2400
  188MPD1    C5 2863   4.503   0.013  10.278 -0.0273  0.0297  0.0468
  188MPD1     H 2864   4.267   0.094   9.997 -0.9392  0.6268  0.4615
  188MPD1    H1 2865   4.529   4.539  10.210  0.1076 -0.4836 -2.4263
  188MPD1    H2 2866   4.490   0.213  10.333 -2.2509 -0.4107  1.2924
  188MPD1    H3 2867   4.569   4.722  10.361 -0.8501  2.5529  1.1923
  188MPD1     N 2868   4.361   4.567   9.988 -0.0593  0.0853  0.5277
  188MPD1    H5 2869   4.421   4.485   9.979 -2.7626 -1.8942  0.4335
  188MPD1    N1 2870   4.318   0.301  10.143 -0.6187  0.1439  0.5857
  188MPD1    H6 2871   4.295   0.316  10.045  1.7865 -1.7367 -0.2763
  188MPD1    H7 2872   4.374   0.375  10.185 -2.0786  1.2945  0.4810
  189MPD1     C 2873   1.816   0.394   0.270 -0.0718 -0.6872  0.3147
  189MPD1    C1 2874   1.713   0.372   0.181 -0.1911 -0.3282  0.4865
  189MPD1    C2 2875   1.622   0.471   0.159 -0.1320  0.1739  0.4370
  189MPD1    C3 2876   1.630   0.598   0.225  0.2525 -0.6213 -0.1853
  189MPD1    C4 2877   1.739   0.620   0.305  0.6888 -0.1224  0.4618
  189MPD1    C5 2878   1.828   0.518   0.328  0.4244  1.0515 -0.3627
  189MPD1     H 2879   1.541   0.459   0.088 -0.2550 -0.3459  0.6652
  189MPD1    H1 2880   1.778   0.718   0.334  1.6651 -0.2764 -0.3230
  189MPD1    H2 2881   1.888   0.318   0.297 -1.4169 -1.4758  1.7403
  189MPD1    H3 2882   1.905   0.532   0.403  2.1112  3.8865 -2.6478
  189MPD1     N 2883   1.541   0.699   0.183  0.4205 -0.1495  0.1061
  189MPD1    H5 2884   1.477   0.666   0.111  1.2909 -0.2884 -0.6131
  189MPD1    N1 2885   1.691   0.249   0.123  0.2287  0.4385  0.4966
  189MPD1    H6 2886   1.718   0.178   0.190  1.5978 -1.1795 -1.7910
  189MPD1    H7 2887   1.590   0.237   0.119  0.2497  0.5039 -0.2295
  190MPD1     C 2888   0.494   3.995  14.738 -0.2622  0.5714 -0.1773
  190MPD1    C1 2889   0.464   3.990  14.873 -0.1385 -0.2007  0.5616
  190MPD1    C2 2890   0.566   4.001  14.968  0.3495 -0.1829 -0.0015
  190MPD1    C3 2891   0.692   4.052  14.932 -0.6035 -0.4532 -0.0452
  190MPD1    C4 2892   0.716   4.067  14.799 -0.3914  0.4504  0.0531
  190MPD1    C5 2893   0.624   4.030  14.703 -0.8437 -0.0755 -0.5051
  190MPD1     H 2894   0.553   3.974  15.073 -0.5251 -0.3965 -0.1641
  190MPD1    H1 2895   0.808   4.108  14.759 -0.9404 -0.1411 -1.8097
  190MPD1    H2 2896   0.421   3.973  14.661  1.0956 -3.0592 -0.4186
  190MPD1    H3 2897   0.653   4.059  14.603  1.0510  2.1752  0.7057
  190MPD1     N 2898   0.780   4.090  15.034  0.0557 -0.1894  0.4892
  190MPD1    H5 2899   0.762   4.045  15.124  0.4418 -0.3722  0.4747
  190MPD1    N1 2900   0.335   3.940  14.910  0.3040  0.1630  0.2620
  190MPD1    H6 2901   0.306   3.974  15.002 -2.9197  0.3056 -0.8209
  190MPD1    H7 2902   0.262   3.988  14.858 -0.7040  0.4627  1.9476
  191MPD1     C 2903   4.502   1.242  11.905  0.6458  0.3887  0.2434
  191MPD1    C1 2904   4.626   1.283  11.951 -0.8626  1.0822 -0.0349
  191MPD1    C2 2905   4.694   1.350  11.855 -0.0274  0.8032 -0.1374
  191MPD1    C3 2906   4.643   1.396  11.731  0.4205  0.9733  0.1041
  191MPD1    C4 2907   4.517   1.363  11.702 -0.3655 -0.1989  0.3545
  191MPD1    C5 2908   4.451   1.281  11.786  0.2603  0.1416 -1.0229
  191MPD1     H 2909   0.071   1.364  11.887 -0.2963  1.4252  0.4601
  191MPD1    H1 2910   4.465   1.393  11.612  1.8180  2.5878  0.0042
  191MPD1    H2 2911   4.442   1.175  11.965  1.7270 -1.9765 -1.3268
  191MPD1    H3 2912   4.349   1.252  11.765 -0.0172  0.3463  0.0682
  191MPD1     N 2913   0.005   1.457  11.639 -0.6338 -0.1142 -0.2090
  191MPD1    H5 2914   0.099   1.487  11.663 -0.2381 -1.1335 -0.4797
  191MPD1    N1 2915   4.700   1.218  12.048  0.6472  0.3545 -0.4100
  191MPD1    H6 2916   0.061   1.267  12.072 -0.1245  1.6951 -0.3901
  191MPD1    H7 2917   4.655   1.194  12.136 -0.4740  0.7191 -0.8901
  192MPD1     C 2918   4.547   2.332  11.250  0.1253  0.3300  0.2433
  192MPD1    C1 2919   4.639   2.283  11.160 -0.0563  0.4781 -0.6676
  192MPD1    C2 2920   4.691   2.153  11.174  0.3472 -0.1579 -0.2745
  192MPD1    C3 2921   4.644   2.075  11.280  1.1125  0.0517  0.3143
  192MPD1    C4 2922   4.557   2.129  11.368  0.3726  0.1466 -0.0799
  192MPD1    C5 2923   4.503   2.252  11.346  0.0815  0.1807  0.1778
  192MPD1     H 2924   0.042   2.116  11.107  0.0628  1.3303 -1.4377
  192MPD1    H1 2925   4.512   2.067  11.445  0.3897 -0.9457 -0.9573
  192MPD1    H2 2926   4.501   2.429  11.236  2.5676  1.5394  0.5797
  192MPD1    H3 2927   4.426   2.282  11.416 -0.2696  0.4945 -0.3415
  192MPD1     N 2928   4.699   1.948  11.301 -0.7870  0.6746  0.4506
  192MPD1    H5 2929   4.675   1.912  11.393  1.3892  0.3853  0.9040
  192MPD1    N1 2930   4.692   2.370  11.063  1.1855 -0.1458 -0.0474
  192MPD1    H6 2931   4.614   2.417  11.017  2.5915  1.9820 -0.2294
  192MPD1    H7 2932   0.011   2.318  10.988 -0.6273 -0.8575 -0.6318
  193MPD1     C 2933   4.676   1.353  17.495 -0.2682 -0.1962 -0.0182
  193MPD1    C1 2934   4.637   1.485  17.501 -0.1216  0.2560 -0.2156
  193MPD1    C2 2935   4.672   1.572  17.398  0.3617 -0.0144 -0.0166
  193MPD1    C3 2936   0.006   1.528  17.279  0.3262 -0.1413 -0.4160
  193MPD1    C4 2937   0.030   1.392  17.264 -0.5103  0.3524  0.4590
  193MPD1    C5 2938   0.003   1.312  17.375 -0.0954  0.7202 -0.3406
  193MPD1     H 2939   4.660   1.678  17.416  1.9854 -0.3692  3.1413
  193MPD1    H1 2940   0.080   1.353  17.176 -0.4029  3.6420 -0.9381
  193MPD1    H2 2941   4.646   1.285  17.574 -1.9673  2.0006  1.2390
  193MPD1    H3 2942   0.027   1.208  17.356 -0.3772  1.0952 -2.7021
  193MPD1     N 2943   0.036   1.614  17.169 -0.6761 -0.2656 -0.0199
  193MPD1    H5 2944   0.091   1.579  17.091  0.2808  0.4134  0.3596
  193MPD1    N1 2945   4.577   1.527  17.621 -0.0859 -0.2216  0.0763
  193MPD1    H6 2946   4.551   1.449  17.681  1.2720 -2.5619 -2.3617
  193MPD1    H7 2947   4.506   1.598  17.609 -0.1038 -0.2563 -0.0251
  194MPD1     C 2948   2.840   3.874  16.797 -0.2412 -0.0926 -0.3396
  194MPD1    C1 2949   2.865   3.792  16.688  0.0810 -0.5806 -1.4313
  194MPD1    C2 2950   2.842   3.655  16.710  0.8925  0.3624 -0.4030
  194MPD1    C3 2951   2.815   3.599  16.838 -1.1137 -0.1077 -0.5497
  194MPD1    C4 2952   2.804   3.688  16.940  0.0499  0.3695 -1.2873
  194MPD1    C5 2953   2.805   3.822  16.916 -0.4176 -0.3000  0.0278
  194MPD1     H 2954   2.860   3.598  16.619  3.1656 -1.9001  1.4581
  194MPD1    H1 2955   2.771   3.658  17.039  0.6573  2.1465 -0.5475
  194MPD1    H2 2956   2.850   3.981  16.792 -2.3726  0.0079 -2.5439
  194MPD1    H3 2957   2.786   3.889  16.999 -2.0833  0.9388 -1.3431
  194MPD1     N 2958   2.802   3.463  16.859 -0.1544  0.6749  0.5297
  194MPD1    H5 2959   2.793   3.437  16.957  1.7349 -0.2147  0.4805
  194MPD1    N1 2960   2.889   3.853  16.563 -0.2732  0.2327 -0.1142
  194MPD1    H6 2961   2.945   3.938  16.569 -1.4235  1.0214 -0.7090
  194MPD1    H7 2962   2.936   3.785  16.502 -0.1732  1.7754 -1.7772
  195MPD1     C 2963   4.584   0.693  16.974 -0.3956  0.1065 -0.4051
  195MPD1    C1 2964   4.594   0.585  16.891 -0.1941  0.0648  0.1763
  195MPD1    C2 2965   4.524   0.468  16.917 -0.3686  0.8824  0.3795
  195MPD1    C3 2966   4.451   0.455  17.030 -0.5514  0.3404 -0.8220
  195MPD1    C4 2967   4.436   0.565  17.113  0.0970  0.2180  0.0409
  195MPD1    C5 2968   4.503   0.685  17.084 -0.1030 -0.1827 -0.2675
  195MPD1     H 2969   4.530   0.390  16.843  0.6895  0.9764  0.3698
  195MPD1    H1 2970   4.379   0.548  17.203  0.1300  0.2290  0.0638
  195MPD1    H2 2971   4.609   0.796  16.955 -0.2280  0.3743  1.3145
  195MPD1    H3 2972   4.498   0.770  17.150 -1.1993 -1.1356  0.8751
  195MPD1     N 2973   4.394   0.328  17.076 -0.1020  0.5384  0.0515
  195MPD1    H5 2974   4.337   0.327  17.160 -0.2717 -1.7064 -0.0906
  195MPD1    N1 2975   4.638   0.615  16.763  0.1469 -1.1110  0.4907
  195MPD1    H6 2976   4.701   0.696  16.756 -0.5251 -0.5162  1.3276
  195MPD1    H7 2977   4.693   0.534  16.736 -0.5500 -0.6317 -2.4571
  196MPD1     C 2978   0.374   4.685   1.409 -0.6298 -0.0199 -0.1664
  196MPD1    C1 2979   0.257   4.615   1.422 -0.5432 -0.0330  0.0541
  196MPD1    C2 2980   0.144   4.682   1.460  0.9514  0.6057 -0.4433
  196MPD1    C3 2981   0.155   0.083   1.522 -0.3884  0.2354  0.0748
  196MPD1    C4 2982   0.283   0.143   1.527 -0.4231  0.1579  0.0454
  196MPD1    C5 2983   0.385   0.086   1.458 -0.0768 -0.2954 -0.1642
  196MPD1     H 2984   0.050   4.629   1.474  0.7830  0.5139 -1.9044
  196MPD1    H1 2985   0.291   0.241   1.572  3.0727 -0.3518  0.4672
  196MPD1    H2 2986   0.463   4.644   1.362  0.1859  0.4060  1.0008
  196MPD1    H3 2987   0.472   0.149   1.444  0.1138 -0.3739  0.6240
  196MPD1     N 2988   0.049   0.166   1.577  0.2466  0.1348  0.5559
  196MPD1    H5 2989   0.078   0.255   1.615  1.8295  0.0215 -0.4215
  196MPD1    N1 2990   0.263   4.472   1.393  0.0711  0.1694 -0.2550
  196MPD1    H6 2991   0.357   4.435   1.402  0.0526  0.7462  2.4223
  196MPD1    H7 2992   0.207   4.413   1.455  0.0944  0.2900 -0.1192
  197MPD1     C 2993   2.722   2.364  16.496  0.6362  0.7748  0.5634
  197MPD1    C1 2994   2.776   2.442  16.595 -0.3001 -0.7003 -0.5621
  197MPD1    C2 2995   2.897   2.403  16.651 -0.0038  0.5896  0.2341
  197MPD1    C3 2996   2.966   2.293  16.607  0.0951  0.5796 -0.4931
  197MPD1    C4 2997   2.912   2.222  16.505 -0.4720  0.0734 -0.0914
  197MPD1    C5 2998   2.796   2.262  16.453 -0.5640 -0.0549  0.5319
  197MPD1     H 2999   2.946   2.458  16.731 -0.6976  1.4646  0.0574
  197MPD1    H1 3000   2.951   2.133  16.458 -1.1801  0.1142 -0.7514
  197MPD1    H2 3001   2.642   2.401  16.432  0.6520  0.3648  0.3048
  197MPD1    H3 3002   2.750   2.204  16.373  1.5507  0.4919 -1.0747
  197MPD1     N 3003   3.099   2.262  16.649  0.8669  0.4057 -0.4841
  197MPD1    H5 3004   3.146   2.186  16.600 -0.6562 -0.9830  0.1796
  197MPD1    N1 3005   2.714   2.560  16.639  0.3829  0.0508 -0.2301
  197MPD1    H6 3006   2.718   2.589  16.737 -1.6795  0.5469 -0.2813
  197MPD1    H7 3007   2.618   2.567  16.605  0.5908  0.1973 -0.7857
  198MPD1     C 3008   0.164   0.814  15.439 -0.3733  0.0072 -0.0165
  198MPD1    C1 3009   0.298   0.808  15.406  0.0346 -0.6841 -0.2124
  198MPD1    C2 3010   0.387   0.854  15.502 -0.3132 -0.1402  0.5380
  198MPD1    C3 3011   0.351   0.907  15.628 -0.3859  0.4121 -0.5713
  198MPD1    C4 3012   0.220   0.922  15.652  1.0932  0.2581  0.7783
  198MPD1    C5 3013   0.129   0.881  15.559 -0.2724 -0.4848 -0.2357
  198MPD1     H 3014   0.493   0.855  15.481 -0.3598  1.7177  0.4128
  198MPD1    H1 3015   0.170   0.974  15.733 -0.4060 -2.1564  1.3997
  198MPD1    H2 3016   0.082   0.786  15.373 -0.7890 -0.7295  0.8206
  198MPD1    H3 3017   0.025   0.896  15.586 -1.6713 -1.2623 -5.2234
  198MPD1     N 3018   0.447   0.946  15.718 -0.3468 -0.1175  0.3443
  198MPD1    H5 3019   0.542   0.916  15.699 -1.1444 -2.1535 -0.3347
  198MPD1    N1 3020   0.337   0.751  15.281  0.3818  0.2928  0.3844
  198MPD1    H6 3021   0.277   0.671  15.260  0.6506  0.2555 -0.2559
  198MPD1    H7 3022   0.431   0.715  15.267 -0.4278 -2.3275  1.8521
  199MPD1     C 3023   2.373   1.163   9.477  0.2494  0.1567 -0.2152
  199MPD1    C1 3024   2.488   1.245   9.481  0.9146 -0.2486  0.6285
  199MPD1    C2 3025   2.479   1.383   9.458  0.5792 -0.7825 -0.8490
  199MPD1    C3 3026   2.353   1.443   9.456 -1.0535  0.0259 -0.3069
  199MPD1    C4 3027   2.242   1.359   9.456  0.3057  0.1046 -0.1891
  199MPD1    C5 3028   2.252   1.227   9.468  0.0003 -0.3324  0.6481
  199MPD1     H 3029   2.571   1.440   9.456  0.5421 -0.6553  1.7705
  199MPD1    H1 3030   2.141   1.397   9.467 -1.4091 -4.5008 -0.3807
  199MPD1    H2 3031   2.380   1.055   9.480 -0.6928  0.0555 -1.6126
  199MPD1    H3 3032   2.163   1.167   9.476  1.5241 -2.6438  0.3278
  199MPD1     N 3033   2.342   1.583   9.456  0.1042  0.4519 -0.4446
  199MPD1    H5 3034   2.245   1.613   9.455  0.0470  0.2348 -1.4182
  199MPD1    N1 3035   2.619   1.190   9.497  0.2678 -0.3642  0.0111
  199MPD1    H6 3036   2.692   1.253   9.526 -1.2965  0.2500  2.6046
  199MPD1    H7 3037   2.609   1.105   9.553 -1.6834 -1.1740 -1.5297
  200MPD1     C 3038   1.300   2.116  15.019  0.1200 -0.8532 -0.0237
  200MPD1    C1 3039   1.347   2.172  14.902 -0.1233  0.5469 -0.4718
  200MPD1    C2 3040   1.452   2.115  14.837  0.3284  0.2620  0.3710
  200MPD1    C3 3041   1.516   1.995  14.877  0.0240  0.0635  0.9265
  200MPD1    C4 3042   1.471   1.942  14.996  0.6645 -0.5838 -0.2398
  200MPD1    C5 3043   1.365   2.004  15.062  0.0741 -0.6243 -0.0359
  200MPD1     H 3044   1.486   2.147  14.739  0.0933  1.1541  0.5769
  200MPD1    H1 3045   1.519   1.854  15.037  0.8134 -0.2751  0.2395
  200MPD1    H2 3046   1.234   2.163  15.091 -1.4584 -0.1235 -1.9060
  200MPD1    H3 3047   1.341   1.970  15.162 -0.5636  0.0087  0.0277
  200MPD1     N 3048   1.627   1.952  14.804 -0.8505 -0.0419 -0.1687
  200MPD1    H5 3049   1.646   2.012  14.724 -0.2717 -1.4327 -1.0674
  200MPD1    N1 3050   1.307   2.302  14.865  0.0122 -0.0715  0.1731
  200MPD1    H6 3051   1.321   2.324  14.766 -1.1854  0.0032  0.0225
  200MPD1    H7 3052   1.207   2.311  14.884 -0.7178 -1.0729 -3.1840
  201MPD1     C 3053   3.507   1.154  13.298 -0.0066 -0.1237  0.3934
  201MPD1    C1 3054   3.538   1.055  13.378 -0.0484 -0.0266 -0.6282
  201MPD1    C2 3055   3.574   0.934  13.323 -0.5093  0.2275  0.5464
  201MPD1    C3 3056   3.551   0.904  13.190  0.3273  0.0886  0.0936
  201MPD1    C4 3057   3.494   1.002  13.106 -0.7438 -0.3285  0.1630
  201MPD1    C5 3058   3.476   1.122  13.166  0.0635  0.5291  0.1542
  201MPD1     H 3059   3.616   0.854  13.382  0.3287 -0.2610 -0.7164
  201MPD1    H1 3060   3.468   0.986  13.002  2.3554  3.5907 -1.2622
  201MPD1    H2 3061   3.493   1.254  13.337  1.3893  0.1956  0.0954
  201MPD1    H3 3062   3.422   1.204  13.118  0.7913  1.0540  0.2352
  201MPD1     N 3063   3.590   0.778  13.152 -0.1281 -0.8034  0.6367
  201MPD1    H5 3064   3.621   0.711  13.222 -0.6319  0.2379  1.8508
  201MPD1    N1 3065   3.557   1.076  13.517  0.3289 -0.4299  0.5447
  201MPD1    H6 3066   3.557   0.986  13.564  0.1361  0.3039  1.9612
  201MPD1    H7 3067   3.497   1.149  13.554  2.2616  1.0911  0.6955
  202MPD1     C 3068   3.311   4.266   9.176 -0.1744  0.1975  0.6190
  202MPD1    C1 3069   3.297   4.386   9.112  0.1179 -0.4464  0.6391
  202MPD1    C2 3070   3.341   4.499   9.182  0.3050  0.1717  0.2446
  202MPD1    C3 3071   3.420   4.485   9.296 -0.6990  0.1022 -0.2275
  202MPD1    C4 3072   3.443   4.361   9.346  1.3135  0.0910  0.2152
  202MPD1    C5 3073   3.394   4.252   9.284  0.2390 -0.3082  0.0493
  202MPD1     H 3074   3.333   4.596   9.134 -3.1945 -0.4241 -0.3727
  202MPD1    H1 3075   3.513   4.341   9.427 -2.2321  2.8327  3.9360
  202MPD1    H2 3076   3.280   4.169   9.139 -2.2033  1.0772  0.0383
  202MPD1    H3 3077   3.411   4.152   9.323  0.2890 -0.2139  0.2705
  202MPD1     N 3078   3.482   4.595   9.360 -0.1746  0.6031  0.0703
  202MPD1    H5 3079   3.546   4.571   9.435  0.3475  2.6926  0.3050
  202MPD1    N1 3080   3.195   4.400   9.017  0.2443  0.0882 -0.2022
  202MPD1    H6 3081   3.185   4.308   8.975 -2.9421  0.7950 -1.0192
  202MPD1    H7 3082   3.218   4.471   8.949  1.1734  1.3466  1.4273
  203MPD1     C 3083   2.554   1.614  12.168  0.0099  0.4989 -0.1372
  203MPD1    C1 3084   2.534   1.503  12.100 -0.4649  0.6549 -0.0229
  203MPD1    C2 3085   2.586   1.390  12.150  0.0724 -0.4102  0.6835
  203MPD1    C3 3086   2.642   1.384  12.278  0.3726 -0.2527  0.4626
  203MPD1    C4 3087   2.660   1.500  12.345  0.3738  0.0517 -0.4295
  203MPD1    C5 3088   2.617   1.616  12.287 -0.2268 -0.3850  0.0299
  203MPD1     H 3089   2.583   1.302  12.088  0.1961 -0.6005  0.9478
  203MPD1    H1 3090   2.698   1.507  12.446 -2.0071  3.1616  0.2306
  203MPD1    H2 3091   2.531   1.707  12.116 -0.3475 -0.7410 -2.2063
  203MPD1    H3 3092   2.625   1.713  12.335  1.0848 -0.2508 -0.4645
  203MPD1     N 3093   2.661   1.250  12.324  0.2213  0.5774 -0.9802
  203MPD1    H5 3094   2.646   1.171  12.263  0.2624  0.2483 -0.5658
  203MPD1    N1 3095   2.498   1.506  11.969  0.2557  0.5024 -0.3541
  203MPD1    H6 3096   2.466   1.419  11.927 -0.4194  0.0323  1.1450
  203MPD1    H7 3097   2.416   1.563  11.949  0.1343  0.1737 -0.8061
  204MPD1     C 3098   1.670   1.810   0.285 -0.3566  0.8242 -0.1130
  204MPD1    C1 3099   1.663   1.859   0.157 -0.5042  0.9705  0.7915
  204MPD1    C2 3100   1.714   1.782   0.051 -0.1114  0.6966 -0.8063
  204MPD1    C3 3101   1.775   1.657   0.074  0.2223 -0.2660 -0.1576
  204MPD1    C4 3102   1.778   1.610   0.206 -0.8663 -0.7264 -0.8078
  204MPD1    C5 3103   1.734   1.687   0.309 -0.2761 -0.4843  0.0260
  204MPD1     H 3104   1.707   1.807  17.648 -1.0277  0.1981 -0.8616
  204MPD1    H1 3105   1.808   1.514   0.247 -0.1550 -0.6689 -1.1906
  204MPD1    H2 3106   1.619   1.860   0.367  1.8278  1.9685  0.5473
  204MPD1    H3 3107   1.742   1.647   0.409 -0.1170  2.2020  1.0813
  204MPD1     N 3108   1.828   1.582  17.666  0.5776 -0.1619  0.4438
  204MPD1    H5 3109   1.811   1.625  17.576  2.1402  2.2724  1.3049
  204MPD1    N1 3110   1.595   1.977   0.128 -0.1049  0.2181  0.1948
  204MPD1    H6 3111   1.594   2.041   0.207 -2.4063  1.6491 -0.9800
  204MPD1    H7 3112   1.648   2.030   0.058 -0.7475 -1.2052 -1.3786
  205MPD1     C 3113   3.278   0.420  16.867  0.8440 -0.5634  0.4061
  205MPD1    C1 3114   3.173   0.512  16.842 -0.8052  0.2325  0.1744
  205MPD1    C2 3115   3.064   0.521  16.927  0.5400 -0.8422  0.0222
  205MPD1    C3 3116   3.057   0.428  17.033  0.4618 -0.1137 -0.0781
  205MPD1    C4 3117   3.157   0.340  17.054 -0.2941  0.3198  0.1063
  205MPD1    C5 3118   3.261   0.324  16.967 -0.2551  0.2694 -0.0552
  205MPD1     H 3119   2.981   0.587  16.906  1.2047  0.0834  0.3475
  205MPD1    H1 3120   3.140   0.257  17.123  0.5438 -0.2134 -0.3387
  205MPD1    H2 3121   3.369   0.426  16.809 -0.7721 -1.9272 -2.2971
  205MPD1    H3 3122   3.341   0.258  16.998 -1.4369 -1.9802 -1.8381
  205MPD1     N 3123   2.942   0.420  17.117 -0.0288  0.0537 -0.4342
  205MPD1    H5 3124   2.939   0.359  17.198 -1.1204  0.9246  0.1902
  205MPD1    N1 3125   3.196   0.622  16.755  0.2568  0.9775 -0.5991
  205MPD1    H6 3126   3.255   0.593  16.677  0.2293 -0.0500 -0.2476
  205MPD1    H7 3127   3.109   0.664  16.725  0.2627  1.1230 -0.4122
  206MPD1     C 3128   2.503   3.751  17.048  0.7271  0.4533  0.4309
  206MPD1    C1 3129   2.421   3.644  17.030 -0.0048 -0.3609 -0.7548
  206MPD1    C2 3130   2.332   3.645  16.922 -0.2477 -0.5344 -0.5010
  206MPD1    C3 3131   2.335   3.743  16.822 -0.2773 -0.1223 -0.7706
  206MPD1    C4 3132   2.419   3.851  16.844 -0.3591 -0.6036  0.3224
  206MPD1    C5 3133   2.499   3.854  16.957  0.5565 -0.4940 -0.4864
  206MPD1     H 3134   2.282   3.549  16.910  0.2571 -0.8862  0.2186
  206MPD1    H1 3135   2.444   3.933  16.777 -0.1188  0.6679  1.9947
  206MPD1    H2 3136   2.579   3.762  17.125  2.2011  1.6290 -1.2043
  206MPD1    H3 3137   2.568   3.936  16.971 -0.0591  0.3669 -2.6454
  206MPD1     N 3138   2.260   3.745  16.702  0.4722 -0.2431 -0.0216
  206MPD1    H5 3139   2.279   3.818  16.634 -1.4178  0.3819  0.1116
  206MPD1    N1 3140   2.421   3.547  17.135  0.2370 -0.4473 -0.2111
  206MPD1    H6 3141   2.496   3.557  17.203 -0.4420 -2.0892  0.7661
  206MPD1    H7 3142   2.418   3.451  17.103  0.5922 -0.2823 -0.7519
  207MPD1     C 3143   0.089   1.174   9.651 -0.4740  0.5507 -0.4432
  207MPD1    C1 3144   0.053   1.087   9.753 -0.0362 -0.0216  0.3789
  207MPD1    C2 3145   0.135   1.094   9.863 -0.1494 -0.7458  0.0163
  207MPD1    C3 3146   0.232   1.190   9.878 -0.0069 -0.0207  0.1742
  207MPD1    C4 3147   0.240   1.289   9.786 -0.5273 -0.0584  0.3099
  207MPD1    C5 3148   0.175   1.278   9.672 -0.0790  0.3456  0.1003
  207MPD1     H 3149   0.113   1.023   9.942 -0.1950 -0.3735  0.3424
  207MPD1    H1 3150   0.305   1.373   9.808  0.0596 -0.6668  0.8951
  207MPD1    H2 3151   0.025   1.167   9.564 -0.2729  0.1208 -0.5574
  207MPD1    H3 3152   0.191   1.358   9.599 -0.4348  0.4202  0.1043
  207MPD1     N 3153   0.318   1.216  10.000  0.0950  0.0681  1.0040
  207MPD1    H5 3154   0.373   1.301   9.996 -1.6927  1.0946 -1.7406
  207MPD1    N1 3155   4.691   0.976   9.726 -0.2593 -0.5640 -0.1403
  207MPD1    H6 3156   4.619   0.986   9.655 -1.0984  0.8496  0.9111
  207MPD1    H7 3157   4.646   0.939   9.810 -1.5909  0.5777 -0.3551
  208MPD1     C 3158   2.829   0.823   0.823 -0.1977  0.4497 -0.0713
  208MPD1    C1 3159   2.693   0.832   0.820  0.0424 -0.7927  0.8832
  208MPD1    C2 3160   2.620   0.723   0.769 -0.1934 -0.2663  0.0666
  208MPD1    C3 3161   2.679   0.615   0.713  0.4770 -0.6535 -0.7893
  208MPD1    C4 3162   2.815   0.618   0.695 -0.6030  0.4233  0.3067
  208MPD1    C5 3163   2.887   0.714   0.758 -0.1342  0.3112 -0.3520
  208MPD1     H 3164   2.511   0.729   0.774 -0.2458 -0.4625 -0.9323
  208MPD1    H1 3165   2.875   0.538   0.655 -2.7863 -1.6631  1.2149
  208MPD1    H2 3166   2.895   0.902   0.858  0.1121 -0.9361  2.4162
  208MPD1    H3 3167   2.995   0.706   0.747 -0.3804 -2.8254 -0.4210
  208MPD1     N 3168   2.608   0.502   0.689  0.2820  0.1885  0.8292
  208MPD1    H5 3169   2.510   0.501   0.717 -0.1357 -2.0305 -0.6907
  208MPD1    N1 3170   2.624   0.931   0.890  0.1016 -0.0437 -0.5606
  208MPD1    H6 3171   2.678   1.017   0.888  0.5587 -0.3687 -1.8745
  208MPD1    H7 3172   2.527   0.948   0.865 -0.0275  1.6054  1.0581
  209MPD1     C 3173   0.522   0.595  11.976  0.3147 -1.1320 -0.0479
  209MPD1    C1 3174   0.529   0.731  11.989  0.2743 -0.4026 -1.0722
  209MPD1    C2 3175   0.566   0.798  11.872  0.1973  1.2411  1.1089
  209MPD1    C3 3176   0.582   0.741  11.749  0.3736  0.7353 -0.4527
  209MPD1    C4 3177   0.563   0.602  11.733 -0.3056  0.2478  0.0607
  209MPD1    C5 3178   0.534   0.536  11.852 -0.3852  0.0554 -0.5452
  209MPD1     H 3179   0.600   0.900  11.880 -2.9433  2.5685 -1.9734
  209MPD1    H1 3180   0.592   0.543  11.647 -1.3278  0.8518 -0.6951
  209MPD1    H2 3181   0.511   0.531  12.063  0.4171  1.2707  1.7250
  209MPD1    H3 3182   0.514   0.429  11.851  1.2237 -0.2688  1.1248
  209MPD1     N 3183   0.628   0.822  11.639 -0.0034  0.4078 -1.1324
  209MPD1    H5 3184   0.654   0.916  11.668  1.3108 -0.8254  1.6868
  209MPD1    N1 3185   0.552   0.786  12.112  1.1288 -0.2561  0.3319
  209MPD1    H6 3186   0.546   0.887  12.117 -0.9589 -0.4156  1.1931
  209MPD1    H7 3187   0.517   0.748  12.200  0.3068 -0.8670 -0.2626
  210MPD1     C 3188   1.423   1.301  11.373  0.3339  0.3165  0.1426
  210MPD1    C1 3189   1.389   1.188  11.451  0.0192  0.7215  0.3670
  210MPD1    C2 3190   1.249   1.159  11.452  0.2865  0.6936  0.1595
  210MPD1    C3 3191   1.154   1.239  11.393 -0.1437 -0.4587 -0.2164
  210MPD1    C4 3192   1.200   1.348  11.329  0.3948  0.4599 -0.2531
  210MPD1    C5 3193   1.328   1.383  11.317  0.2201  0.0164  0.8418
  210MPD1     H 3194   1.222   1.072  11.511  0.2233  2.0126  2.0641
  210MPD1    H1 3195   1.122   1.410  11.285 -0.1090  0.7169  0.9983
  210MPD1    H2 3196   1.528   1.323  11.360  0.7367 -2.5710 -1.5554
  210MPD1    H3 3197   1.362   1.469  11.260 -0.7916  1.4776  2.4789
  210MPD1     N 3198   1.022   1.198  11.364 -0.1044 -0.2801  0.2130
  210MPD1    H5 3199   0.958   1.263  11.319  0.4883  1.1297  1.4045
  210MPD1    N1 3200   1.482   1.108  11.519 -0.2433  0.2212 -0.0063
  210MPD1    H6 3201   1.551   1.162  11.569 -1.4886  0.1461  1.8024
  210MPD1    H7 3202   1.435   1.053  11.591 -0.5144 -0.2727 -0.5626
  211MPD1     C 3203   2.906   0.018  16.336  0.1918 -0.1253 -0.1247
  211MPD1    C1 3204   2.781   4.688  16.312  0.5783  0.9533  0.0116
  211MPD1    C2 3205   2.676   0.048  16.274  0.2109  0.5302 -0.7845
  211MPD1    C3 3206   2.694   0.189  16.274  0.3181 -0.2904  0.0850
  211MPD1    C4 3207   2.822   0.236  16.299 -0.2586  0.2320  0.3634
  211MPD1    C5 3208   2.925   0.151  16.337  0.7046 -0.9449  0.1110
  211MPD1     H 3209   2.575   0.014  16.254  0.3354  0.5499 -1.4529
  211MPD1    H1 3210   2.841   0.342  16.302 -0.5853  0.2718  0.9059
  211MPD1    H2 3211   2.985   4.683  16.379 -0.1005 -1.6291 -1.6766
  211MPD1    H3 3212   3.018   0.196  16.371  1.1245 -1.9028  0.2181
  211MPD1     N 3213   2.574   0.264  16.253  0.2389  0.1687 -0.4017
  211MPD1    H5 3214   2.484   0.217  16.246  0.9730 -1.5135  1.6856
  211MPD1    N1 3215   2.768   4.542  16.313 -0.0706  0.0387 -0.6376
  211MPD1    H6 3216   2.814   4.491  16.388  1.2943  1.8237 -0.2531
  211MPD1    H7 3217   2.671   4.513  16.313 -0.2640  0.6818 -1.6965
  212MPD1     C 3218   1.423   3.902  16.273  0.1520 -1.0330 -0.0100
  212MPD1    C1 3219   1.302   3.862  16.313  0.4178 -0.4108 -0.0766
  212MPD1    C2 3220   1.296   3.743  16.394  0.2032  0.2596 -0.5884
  212MPD1    C3 3221   1.410   3.659  16.404  0.1476 -0.2944  0.2485
  212MPD1    C4 3222   1.525   3.695  16.340  0.3660  0.6358  0.2683
  212MPD1    C5 3223   1.527   3.820  16.285 -0.0375 -0.2863 -0.5269
  212MPD1     H 3224   1.203   3.722  16.446  0.1878 -1.7580 -1.4344
  212MPD1    H1 3225   1.621   3.654  16.372  0.6472  0.3238 -0.9609
  212MPD1    H2 3226   1.438   3.992  16.214 -0.8847 -1.8183 -1.4626
  212MPD1    H3 3227   1.628   3.856  16.266 -1.0889  1.5524 -2.5277
  212MPD1     N 3228   1.422   3.558  16.499 -0.4075 -0.0397  0.5453
  212MPD1    H5 3229   1.491   3.486  16.482 -0.5624  0.2481 -1.2857
  212MPD1    N1 3230   1.195   3.946  16.297 -0.3978 -0.0490 -0.0906
  212MPD1    H6 3231   1.203   3.991  16.206  0.3493 -0.7026 -0.3487
  212MPD1    H7 3232   1.105   3.898  16.294  0.0039 -0.8289  0.1356
  213MPD1     C 3233   0.896   0.297  15.456  1.0577 -0.5772  0.0202
  213MPD1    C1 3234   0.915   0.159  15.456  0.0118  0.6205  0.3264
  213MPD1    C2 3235   0.816   0.089  15.394 -0.2150  0.2156 -0.3988
  213MPD1    C3 3236   0.722   0.146  15.308  0.9229 -0.2969 -0.2016
  213MPD1    C4 3237   0.734   0.279  15.279  0.2902 -0.2823  0.0451
  213MPD1    C5 3238   0.819   0.353  15.358  0.0028  0.1369 -0.6128
  213MPD1     H 3239   0.804   4.707  15.407  0.1944 -0.3141 -4.3981
  213MPD1    H1 3240   0.677   0.343  15.212  1.0166  1.1521  0.8067
  213MPD1    H2 3241   0.957   0.364  15.515 -1.4832  0.0559  1.9823
  213MPD1    H3 3242   0.833   0.458  15.335 -0.1128  0.1201 -0.7552
  213MPD1     N 3243   0.621   0.068  15.246 -0.0001  0.1967 -0.5407
  213MPD1    H5 3244   0.638   4.693  15.248 -1.1153 -0.0281 -2.4679
  213MPD1    N1 3245   0.990   0.110  15.566  0.2596 -0.1749  0.2317
  213MPD1    H6 3246   1.073   0.169  15.572 -0.1888  0.3223  1.5072
  213MPD1    H7 3247   1.036   0.021  15.547  1.3275  0.6988 -1.3160
  214MPD1     C 3248   0.014   4.056  15.510 -0.6978 -0.0507 -0.4931
  214MPD1    C1 3249   0.119   4.133  15.570  0.1625  0.2301  0.5216
  214MPD1    C2 3250   0.154   4.246  15.501 -0.1910  0.6385  0.1631
  214MPD1    C3 3251   0.084   4.300  15.398 -0.0480  0.3739  0.1229
  214MPD1    C4 3252   4.703   4.228  15.347  0.7604  0.2554  0.0577
  214MPD1    C5 3253   4.675   4.104  15.402 -0.8539 -0.5792 -0.7279
  214MPD1     H 3254   0.241   4.296  15.542 -0.9750  1.0398  1.3038
  214MPD1    H1 3255   4.646   4.245  15.256  0.2667  3.8611  1.0338
  214MPD1    H2 3256   4.710   3.962  15.554  1.4519 -1.6366 -2.4983
  214MPD1    H3 3257   4.607   4.044  15.342 -0.7918 -0.1206 -1.2525
  214MPD1     N 3258   0.135   4.398  15.314 -0.1921  0.3531 -0.2633
  214MPD1    H5 3259   0.090   4.413  15.225  1.2569 -1.3467 -1.2678
  214MPD1    N1 3260   0.196   4.075  15.679  0.3242  0.2942 -0.8612
  214MPD1    H6 3261   0.233   4.144  15.744 -0.5116 -0.3183  0.2580
  214MPD1    H7 3262   0.157   3.996  15.731 -1.5649  0.5118 -1.9746
  215MPD1     C 3263   0.135   0.219  10.614  0.0996 -0.4764  0.5485
  215MPD1    C1 3264   0.181   0.257  10.739  0.4236 -0.3989  0.0895
  215MPD1    C2 3265   0.189   0.391  10.766 -0.2862 -0.5189 -0.0732
  215MPD1    C3 3266   0.164   0.484  10.673 -0.0022  0.5338  0.2571
  215MPD1    C4 3267   0.129   0.443  10.549 -0.6582 -0.1004  0.0574
  215MPD1    C5 3268   0.107   0.310  10.520 -0.7943  0.2391 -0.2712
  215MPD1     H 3269   0.229   0.420  10.863 -1.7657 -1.4633  0.8240
  215MPD1    H1 3270   0.110   0.514  10.469 -2.1727 -1.3877 -0.7349
  215MPD1    H2 3271   0.109   0.118  10.584  1.2123 -0.3065 -0.9561
  215MPD1    H3 3272   0.086   0.282  10.417 -3.6653  2.2895 -0.2366
  215MPD1     N 3273   0.170   0.616  10.714 -0.9749 -0.2090  0.7625
  215MPD1    H5 3274   0.198   0.633  10.810  0.5142 -0.9893  0.4586
  215MPD1    N1 3275   0.198   0.159  10.833  0.2861 -0.1853 -0.3660
  215MPD1    H6 3276   0.277   0.178  10.895 -1.4158  1.1620  1.3952
  215MPD1    H7 3277   0.197   0.064  10.797  2.0089  0.0911 -1.1315
  216MPD1     C 3278   1.820   2.368  16.480  0.5224  0.2551 -0.2615
  216MPD1    C1 3279   1.729   2.338  16.580 -1.1807 -0.0925  0.7453
  216MPD1    C2 3280   1.781   2.319  16.712 -0.2170  0.2007 -0.9697
  216MPD1    C3 3281   1.923   2.316  16.726 -0.8871 -0.1103 -0.3010
  216MPD1    C4 3282   2.006   2.340  16.619  0.0975  0.6413  0.4036
  216MPD1    C5 3283   1.950   2.372  16.503 -0.8460 -0.0561 -0.5281
  216MPD1     H 3284   1.717   2.293  16.796  1.6924 -1.1593  0.0707
  216MPD1    H1 3285   2.114   2.325  16.625  0.0856  0.2952 -0.1740
  216MPD1    H2 3286   1.784   2.403  16.384  0.6824  0.7185 -0.1540
  216MPD1    H3 3287   2.014   2.395  16.419 -0.1154 -0.2916 -0.0415
  216MPD1     N 3288   1.970   2.281  16.851  0.5282 -0.0888 -0.2422
  216MPD1    H5 3289   1.899   2.273  16.924  1.7804 -1.0217  0.8970
  216MPD1    N1 3290   1.589   2.364  16.566  0.5907 -0.4475 -0.5667
  216MPD1    H6 3291   1.527   2.305  16.620 -1.1634  2.0805  0.1789
  216MPD1    H7 3292   1.561   2.360  16.468 -0.6712  3.2424 -0.3792
  217MPD1     C 3293   3.007   1.031   9.589  0.0343 -0.3259 -0.5695
  217MPD1    C1 3294   3.060   0.962   9.478 -0.2753 -0.1303 -0.2221
  217MPD1    C2 3295   2.974   0.888   9.403 -1.1802 -0.1851  0.6908
  217MPD1    C3 3296   2.847   0.856   9.452  0.1724 -0.1655 -0.0614
  217MPD1    C4 3297   2.802   0.922   9.568  1.0021 -0.2839  0.1221
  217MPD1    C5 3298   2.876   1.012   9.631  0.2094  0.5971  0.1991
  217MPD1     H 3299   3.009   0.857   9.305 -1.9745  1.0759  0.0120
  217MPD1    H1 3300   2.705   0.915   9.616  1.8041  1.1660  1.9450
  217MPD1    H2 3301   3.068   1.105   9.641  0.2123  0.8438 -2.4265
  217MPD1    H3 3302   2.831   1.059   9.718 -0.0200 -0.5539  0.6965
  217MPD1     N 3303   2.759   0.773   9.378  0.0873  0.5327  0.2855
  217MPD1    H5 3304   2.662   0.760   9.405 -0.3392 -2.4091 -2.6371
  217MPD1    N1 3305   3.183   1.000   9.429 -0.3322  0.3661 -0.1873
  217MPD1    H6 3306   3.228   0.918   9.388 -0.5987 -0.0016  0.2471
  217MPD1    H7 3307   3.252   1.045   9.487 -1.9628  0.5743  1.5892
  218MPD1     C 3308   3.744   1.994  13.684 -0.1589  0.0935 -0.2602
  218MPD1    C1 3309   3.851   2.065  13.631  0.4878  0.2462 -0.4810
  218MPD1    C2 3310   3.933   1.989  13.544 -0.2465  0.1802 -0.6326
  218MPD1    C3 3311   3.908   1.857  13.529  0.0170  0.1277  0.0573
  218MPD1    C4 3312   3.806   1.789  13.593 -0.0577 -0.8325 -0.3404
  218MPD1    C5 3313   3.725   1.860  13.676  0.5287 -0.1982 -0.2615
  218MPD1     H 3314   4.007   2.031  13.477  0.6249  0.5338  0.5426
  218MPD1    H1 3315   3.803   1.681  13.599 -0.5444 -0.7805  0.3883
  218MPD1    H2 3316   3.670   2.047  13.744  0.8680  0.4702  0.6656
  218MPD1    H3 3317   3.655   1.812  13.743  2.1314 -0.2624  1.3570
  218MPD1     N 3318   4.000   1.791  13.448 -0.2990  0.4816  0.0083
  218MPD1    H5 3319   4.082   1.846  13.424  1.5550 -2.3034 -0.0377
  218MPD1    N1 3320   3.857   2.205  13.644  0.3625 -0.3462 -0.3050
  218MPD1    H6 3321   3.822   2.232  13.735  1.5405  0.7202 -0.1750
  218MPD1    H7 3322   3.957   2.225  13.641  0.1031  1.0455  0.5757
  219MPD1     C 3323   4.537   1.848  12.597  0.0236 -0.4799  0.6715
  219MPD1    C1 3324   4.468   1.941  12.678 -0.0145 -0.4010  0.4659
  219MPD1    C2 3325   4.406   1.900  12.793 -0.7352 -0.5168  0.7282
  219MPD1    C3 3326   4.412   1.767  12.832  0.5133  0.0972 -0.1032
  219MPD1    C4 3327   4.482   1.682  12.749 -0.1587 -0.0037 -0.0429
  219MPD1    C5 3328   4.540   1.713  12.634 -0.1912 -0.2325  0.0146
  219MPD1     H 3329   4.356   1.974  12.855  0.2899 -0.1562  1.1314
  219MPD1    H1 3330   4.497   1.582  12.788 -1.7656 -0.1850  0.1217
  219MPD1    H2 3331   4.571   1.880  12.499  0.5806  3.5242  2.1698
  219MPD1    H3 3332   4.600   1.647  12.573 -0.4516 -0.5072  0.0528
  219MPD1     N 3333   4.348   1.710  12.948 -0.6022  0.5455  0.0939
  219MPD1    H5 3334   4.342   1.609  12.954 -1.1316  0.6154  0.7234
  219MPD1    N1 3335   4.492   2.082  12.646 -0.2092 -0.3307 -0.7720
  219MPD1    H6 3336   4.510   2.106  12.549  0.1403  0.8581 -0.4245
  219MPD1    H7 3337   4.412   2.127  12.690  0.2363 -0.1484 -0.1451
  220MPD1     C 3338   4.500   1.652   9.133 -0.2101 -0.9666  0.3737
  220MPD1    C1 3339   4.397   1.562   9.144 -0.4977  0.6136 -0.1156
  220MPD1    C2 3340   4.366   1.515   9.268 -0.2052  0.2364  0.1059
  220MPD1    C3 3341   4.443   1.554   9.378 -0.0371  0.0271  0.2214
  220MPD1    C4 3342   4.547   1.643   9.367 -0.8294 -0.1609 -0.1906
  220MPD1    C5 3343   4.572   1.691   9.245 -0.2913 -0.4218  0.0031
  220MPD1     H 3344   4.286   1.444   9.286 -1.4495  0.7566 -3.3960
  220MPD1    H1 3345   4.599   1.687   9.451 -0.0757 -3.2302  0.9310
  220MPD1    H2 3346   4.519   1.686   9.032 -1.1554 -0.6879  0.2900
  220MPD1    H3 3347   4.641   1.774   9.251  1.5213 -1.8491 -1.3290
  220MPD1     N 3348   4.434   1.494   9.505  0.1154 -0.7977  0.2437
  220MPD1    H5 3349   4.501   1.538   9.567  0.7065  2.1843 -2.4608
  220MPD1    N1 3350   4.319   1.531   9.031 -0.2200  0.4243 -0.1121
  220MPD1    H6 3351   4.381   1.506   8.954 -0.2397  2.9378 -0.9386
  220MPD1    H7 3352   4.247   1.460   9.038  0.8126 -0.4758  1.6958
  221MPD1     C 3353   1.297   0.232  16.572  0.4606 -0.6527 -0.8888
  221MPD1    C1 3354   1.309   0.154  16.461  0.5117 -0.1000  0.7470
  221MPD1    C2 3355   1.390   0.041  16.472  0.5182  0.3637 -0.3215
  221MPD1    C3 3356   1.478   0.025  16.575 -0.1609 -0.3095  0.0340
  221MPD1    C4 3357   1.468   0.113  16.681  0.1336 -0.4087  0.3592
  221MPD1    C5 3358   1.380   0.216  16.676 -0.7337 -0.8111  1.0291
  221MPD1     H 3359   1.384   4.699  16.387  1.2796 -1.5339  1.1190
  221MPD1    H1 3360   1.527   0.091  16.770  1.9263 -1.7438 -1.1465
  221MPD1    H2 3361   1.229   0.316  16.580 -2.2584 -2.9700  0.2737
  221MPD1    H3 3362   1.361   0.273  16.766 -4.3330 -0.6644  0.1591
  221MPD1     N 3363   1.580   4.649  16.583  0.0927 -0.4503  0.4476
  221MPD1    H5 3364   1.648   4.651  16.658  2.3366 -0.7601 -1.5864
  221MPD1    N1 3365   1.226   0.160  16.352  0.1159  0.0521  0.0910
  221MPD1    H6 3366   1.182   0.249  16.331 -0.9824 -0.7663 -1.0671
  221MPD1    H7 3367   1.280   0.130  16.272 -1.3094 -0.6699 -0.6037
  222MPD1     C 3368   1.842   3.210  16.463 -0.1687  0.4371  0.8249
  222MPD1    C1 3369   1.809   3.336  16.418 -0.2039 -0.4207 -0.3520
  222MPD1    C2 3370   1.801   3.430  16.517 -0.6344 -0.3871 -0.3088
  222MPD1    C3 3371   1.818   3.401  16.654  0.1271 -0.3709 -0.6204
  222MPD1    C4 3372   1.862   3.274  16.692 -0.0663  0.1070  0.2358
  222MPD1    C5 3373   1.872   3.177  16.595 -0.1221 -0.2812 -0.4661
  222MPD1     H 3374   1.787   3.531  16.479  0.8554 -0.4310 -0.9767
  222MPD1    H1 3375   1.887   3.256  16.796  2.7781  0.2065 -0.4163
  222MPD1    H2 3376   1.843   3.133  16.388  0.3789  5.1183 -3.9813
  222MPD1    H3 3377   1.909   3.077  16.615  1.8971  0.8747  1.4994
  222MPD1     N 3378   1.790   3.485  16.759  0.2226  0.2449 -0.8407
  222MPD1    H5 3379   1.789   3.455  16.856 -0.5130  0.5309 -0.7576
  222MPD1    N1 3380   1.757   3.349  16.288  0.4433 -0.4591  0.2797
  222MPD1    H6 3381   1.786   3.432  16.238 -0.5785  1.1435  2.3396
  222MPD1    H7 3382   1.769   3.268  16.228  0.0964  0.5515 -1.1424
  223MPD1     C 3383   1.041   4.167  16.743  0.8920 -0.2515 -0.6343
  223MPD1    C1 3384   1.083   4.083  16.647  0.4571 -0.0044 -0.1591
  223MPD1    C2 3385   1.185   3.996  16.684  0.1472 -0.7357  0.4304
  223MPD1    C3 3386   1.237   3.982  16.817  0.3940  0.8095  0.3870
  223MPD1    C4 3387   1.199   4.078  16.905 -0.5279 -0.0302  0.4364
  223MPD1    C5 3388   1.100   4.170  16.870  0.6265  0.1096  0.3868
  223MPD1     H 3389   1.208   3.924  16.606  0.9381  0.4807 -0.4678
  223MPD1    H1 3390   1.246   4.090  17.001  4.3422 -0.0433 -1.9688
  223MPD1    H2 3391   0.959   4.231  16.717 -1.0654 -2.7869 -0.7300
  223MPD1    H3 3392   1.078   4.245  16.945  1.4661 -0.3887  1.1390
  223MPD1     N 3393   1.333   3.884  16.853 -0.1761 -0.2028  0.3097
  223MPD1    H5 3394   1.329   3.806  16.788 -1.0087 -0.5693  0.8025
  223MPD1    N1 3395   1.024   4.072  16.517  0.0137  0.4038  0.3407
  223MPD1    H6 3396   0.993   4.161  16.477 -0.9259 -0.6052 -1.2010
  223MPD1    H7 3397   1.082   4.019  16.452 -1.5439 -1.4225  0.4216
  224MPD1     C 3398   3.531   1.066   9.668  0.0036 -1.0306 -0.0727
  224MPD1    C1 3399   3.464   1.107   9.778 -0.7057  0.1807 -0.7369
  224MPD1    C2 3400   3.365   1.031   9.833  0.3194  0.0833 -0.5024
  224MPD1    C3 3401   3.330   0.919   9.767 -1.0945  0.3325 -0.6954
  224MPD1    C4 3402   3.409   0.869   9.670 -0.9515  0.3437  0.0106
  224MPD1    C5 3403   3.510   0.943   9.620 -0.2230  0.0750  0.3231
  224MPD1     H 3404   3.306   1.069   9.916 -1.0633 -1.4963 -0.7564
  224MPD1    H1 3405   3.403   0.766   9.637  1.3849  0.3515 -0.4030
  224MPD1    H2 3406   3.601   1.135   9.621 -1.4815 -0.1021 -0.9131
  224MPD1    H3 3407   3.575   0.910   9.539 -1.2446  0.7227 -0.7578
  224MPD1     N 3408   3.214   0.852   9.800 -0.1765  0.6628  0.2633
  224MPD1    H5 3409   3.193   0.767   9.749  0.3059  0.1385  0.9311
  224MPD1    N1 3410   3.485   1.239   9.819  0.1912 -0.5250  0.3944
  224MPD1    H6 3411   3.455   1.242   9.917  0.2744 -0.8656  0.4284
  224MPD1    H7 3412   3.582   1.264   9.803 -0.4858  2.1751  0.3689
  225MPD1     C 3413   4.319   2.035  12.305  0.4056  0.2944 -0.3525
  225MPD1    C1 3414   4.361   1.934  12.220  0.3145 -0.2493 -0.0539
  225MPD1    C2 3415   4.273   1.914  12.118  0.6565  0.2734  1.1729
  225MPD1    C3 3416   4.163   1.994  12.097  0.8780  0.0779 -0.3574
  225MPD1    C4 3417   4.126   2.093  12.188 -0.4271 -0.0781  0.4601
  225MPD1    C5 3418   4.205   2.109  12.292  0.2755 -0.3193  0.3106
  225MPD1     H 3419   4.300   1.835  12.049 -1.3607  0.3844  0.2636
  225MPD1    H1 3420   4.038   2.154  12.175 -1.5830 -1.8422 -0.0872
  225MPD1    H2 3421   4.376   2.065  12.393  1.7708 -2.2709 -0.3818
  225MPD1    H3 3422   4.182   2.176  12.374 -0.6873 -1.7578  1.2186
  225MPD1     N 3423   4.081   1.985  11.982  0.2718  0.5792 -0.5156
  225MPD1    H5 3424   4.011   2.057  11.969 -2.4534 -2.1478 -1.1635
  225MPD1    N1 3425   4.471   1.854  12.245 -0.0159 -0.1872  0.1341
  225MPD1    H6 3426   4.541   1.911  12.292 -2.2736  0.6943  2.4486
  225MPD1    H7 3427   4.494   1.790  12.170  0.1431 -2.0046  1.7457
  226MPD1     C 3428   2.873   2.872   8.750 -0.0313  0.5396  0.5650
  226MPD1    C1 3429   2.756   2.802   8.727  0.2665 -0.4502 -0.1810
  226MPD1    C2 3430   2.758   2.669   8.769 -0.8083 -0.2522  0.5036
  226MPD1    C3 3431   2.874   2.609   8.824 -0.1148  0.2815 -0.1608
  226MPD1    C4 3432   2.989   2.678   8.835 -0.2811  0.4857 -0.3538
  226MPD1    C5 3433   2.977   2.814   8.805  0.1312  0.2487  0.1831
  226MPD1     H 3434   2.673   2.604   8.751 -0.3369 -0.3640 -1.2237
  226MPD1    H1 3435   3.085   2.652   8.880 -0.6911  0.0763  0.2821
  226MPD1    H2 3436   2.866   2.977   8.724  1.7248  0.7528  0.9777
  226MPD1    H3 3437   3.065   2.877   8.817  1.1220 -1.3831  1.3961
  226MPD1     N 3438   2.867   2.479   8.866 -0.2582  0.2735  0.7498
  226MPD1    H5 3439   2.780   2.427   8.861  0.1778 -0.2955 -0.7746
  226MPD1    N1 3440   2.659   2.862   8.646 -0.1768 -0.1405  0.0108
  226MPD1    H6 3441   2.564   2.840   8.675  0.0001 -0.3148  0.4593
  226MPD1    H7 3442   2.663   2.964   8.644 -0.5720 -0.1368 -0.6152
  227MPD1     C 3443   2.216   1.781   9.150 -1.3155  0.4137 -0.5166
  227MPD1    C1 3444   2.326   1.702   9.131  0.0844 -0.7789  0.1518
  227MPD1    C2 3445   2.448   1.758   9.106 -0.7482 -0.1241 -0.0187
  227MPD1    C3 3446   2.464   1.896   9.099  0.0435  0.1870  0.0918
  227MPD1    C4 3447   2.353   1.981   9.118 -0.0854 -0.0799  0.2907
  227MPD1    C5 3448   2.230   1.923   9.147 -0.9127  0.2958 -0.1164
  227MPD1     H 3449   2.534   1.696   9.084 -0.8428  0.0951 -1.0080
  227MPD1    H1 3450   2.358   2.089   9.112  2.9903 -0.2826 -0.7953
  227MPD1    H2 3451   2.114   1.746   9.165 -1.2643 -0.3482 -1.9461
  227MPD1    H3 3452   2.142   1.983   9.167  0.0996  1.7604 -0.0653
  227MPD1     N 3453   2.595   1.952   9.077 -0.4918 -0.0530 -0.0061
  227MPD1    H5 3454   2.676   1.891   9.071 -0.0786  0.4831  0.2102
  227MPD1    N1 3455   2.324   1.559   9.128 -0.2917 -0.6211  0.2488
  227MPD1    H6 3456   2.248   1.522   9.184 -0.0322  0.8677  1.5852
  227MPD1    H7 3457   2.414   1.512   9.140 -1.4886 -3.0034 -0.2322
  228MPD1     C 3458   0.523   4.296  11.865 -0.4842  0.1325  0.7981
  228MPD1    C1 3459   0.389   4.286  11.861  0.4215  0.4314  1.0658
  228MPD1    C2 3460   0.331   4.251  11.983  0.2951  0.0934 -0.3652
  228MPD1    C3 3461   0.405   4.269  12.099  0.3919 -0.2123  0.0315
  228MPD1    C4 3462   0.537   4.305  12.101  0.1797 -0.1834  0.5477
  228MPD1    C5 3463   0.598   4.320  11.980  0.8946 -0.2857 -0.1584
  228MPD1     H 3464   0.225   4.232  11.990  0.2436  0.1822 -0.9277
  228MPD1    H1 3465   0.599   4.325  12.187  0.5654 -1.6217  0.5946
  228MPD1    H2 3466   0.569   4.312  11.768  1.5949  1.2446  1.9647
  228MPD1    H3 3467   0.701   4.349  11.966  1.4942 -1.9722  0.7039
  228MPD1     N 3468   0.339   4.258  12.218 -0.0319 -0.0130  0.0054
  228MPD1    H5 3469   0.240   4.237  12.210  0.4497 -1.3075 -2.6933
  228MPD1    N1 3470   0.319   4.273  11.739 -0.5252  0.1465  0.3385
  228MPD1    H6 3471   0.354   4.344  11.675 -0.8063 -0.1081 -0.0950
  228MPD1    H7 3472   0.221   4.287  11.762 -0.5204 -1.9496  1.6814
  229MPD1     C 3473   0.392   3.175  14.525 -0.0301 -0.2133  0.6044
  229MPD1    C1 3474   0.466   3.113  14.433  0.7625 -0.5361 -0.5118
  229MPD1    C2 3475   0.576   3.033  14.475  0.3633  0.4138  0.0993
  229MPD1    C3 3476   0.611   3.023  14.604  0.1910  0.0972 -0.3524
  229MPD1    C4 3477   0.548   3.108  14.697 -0.5207 -0.0597  0.1499
  229MPD1    C5 3478   0.435   3.173  14.660 -0.4340  0.2833  0.5835
  229MPD1     H 3479   0.626   2.983  14.392 -3.2209 -0.1588 -1.6841
  229MPD1    H1 3480   0.576   3.104  14.802  1.5413  4.1967 -0.2315
  229MPD1    H2 3481   0.305   3.238  14.511  0.1131 -0.4197 -1.2447
  229MPD1    H3 3482   0.379   3.236  14.728 -0.7039 -0.6862  1.2499
  229MPD1     N 3483   0.729   2.957  14.650  0.2183  0.2044 -0.1883
  229MPD1    H5 3484   0.743   2.959  14.751 -0.2285  0.3816 -0.1305
  229MPD1    N1 3485   0.429   3.131  14.297  0.7025  0.1780 -0.0327
  229MPD1    H6 3486   0.370   3.214  14.293 -0.4388 -0.6442 -0.1605
  229MPD1    H7 3487   0.514   3.157  14.247  0.8025 -1.2376 -0.5909
  230MPD1     C 3488   1.166   3.249  15.293  0.1328 -0.3896 -0.2640
  230MPD1    C1 3489   1.216   3.118  15.297  0.2601  0.0425  0.1602
  230MPD1    C2 3490   1.177   3.034  15.196 -0.3232  0.7653 -0.4270
  230MPD1    C3 3491   1.107   3.082  15.083  0.9550  0.1708  0.0199
  230MPD1    C4 3492   1.060   3.209  15.079  0.0013  0.3692  0.1004
  230MPD1    C5 3493   1.091   3.295  15.179  0.6644 -0.4069  0.4762
  230MPD1     H 3494   1.211   2.932  15.208  0.0739  0.8394 -0.9220
  230MPD1    H1 3495   0.992   3.245  15.003 -0.7724  1.0358  1.1124
  230MPD1    H2 3496   1.192   3.321  15.371  2.1238 -0.9032 -0.4395
  230MPD1    H3 3497   1.047   3.394  15.179 -0.9286 -1.1171  0.3274
  230MPD1     N 3498   1.068   2.992  14.982 -0.1862 -0.8345 -0.2729
  230MPD1    H5 3499   1.002   3.034  14.918 -0.0643 -1.1794 -0.6215
  230MPD1    N1 3500   1.275   3.064  15.411 -0.3627  0.4815  0.4235
  230MPD1    H6 3501   1.340   3.129  15.456 -1.9692  1.3846  1.4518
  230MPD1    H7 3502   1.324   2.976  15.401 -0.7054  0.5509 -1.8143
  231MPD1     C 3503   4.350   0.696  15.451  0.0559 -0.0283 -0.1589
  231MPD1    C1 3504   4.434   0.747  15.357  0.5307  0.7482 -0.3158
  231MPD1    C2 3505   4.406   0.719  15.224  0.5874  0.4638  0.6571
  231MPD1    C3 3506   4.295   0.653  15.184 -0.9408  0.1042  0.3047
  231MPD1    C4 3507   4.207   0.607  15.275  0.6004  0.4779  0.4200
  231MPD1    C5 3508   4.239   0.631  15.409  1.0360 -0.0654  0.5022
  231MPD1     H 3509   4.481   0.750  15.152 -0.6604  2.7530  0.3402
  231MPD1    H1 3510   4.111   0.565  15.250  1.1100 -0.0982 -0.5676
  231MPD1    H2 3511   4.362   0.703  15.559  0.8494  0.7709 -0.3077
  231MPD1    H3 3512   4.175   0.589  15.486  1.0709  1.5252  1.4019
  231MPD1     N 3513   4.276   0.637  15.047 -0.1374 -0.6360  0.4370
  231MPD1    H5 3514   4.346   0.679  14.987 -0.9213  0.3291  0.2094
  231MPD1    N1 3515   4.548   0.818  15.391 -0.5289  0.7182 -0.0104
  231MPD1    H6 3516   4.571   0.899  15.334  0.2526  0.5675  0.0886
  231MPD1    H7 3517   4.563   0.854  15.485 -1.5299  0.8210  0.1119
  232MPD1     C 3518   0.955   2.099   0.546  0.8500  0.3017 -0.3471
  232MPD1    C1 3519   0.848   2.032   0.602  0.0434  0.4835  0.3505
  232MPD1    C2 3520   0.722   2.073   0.564 -0.1628  0.5681 -0.4511
  232MPD1    C3 3521   0.698   2.165   0.464 -0.4038  0.3129 -0.2732
  232MPD1    C4 3522   0.807   2.225   0.410 -0.3246 -0.0662 -0.0238
  232MPD1    C5 3523   0.931   2.195   0.450 -0.1401 -0.2961  0.4801
  232MPD1     H 3524   0.639   2.022   0.612  0.1811 -0.0222 -0.4842
  232MPD1    H1 3525   0.804   2.302   0.333  2.9021  0.2080  0.1486
  232MPD1    H2 3526   1.058   2.076   0.570  0.0020 -0.2382  2.8443
  232MPD1    H3 3527   1.009   2.242   0.391  0.1901 -1.4868 -0.0413
  232MPD1     N 3528   0.565   2.208   0.445 -0.4716 -0.4761 -0.1970
  232MPD1    H5 3529   0.497   2.148   0.491 -0.9493 -0.9098 -1.4558
  232MPD1    N1 3530   0.868   1.912   0.677  0.2738 -0.0399 -0.0208
  232MPD1    H6 3531   0.946   1.911   0.742 -0.4490  1.2148  0.8663
  232MPD1    H7 3532   0.788   1.872   0.726 -0.7746  0.2777 -1.4847
  233MPD1     C 3533   1.030   0.524   2.627 -0.3939  0.3291 -0.1003
  233MPD1    C1 3534   1.103   0.620   2.694  0.3582 -0.0724  0.1375
  233MPD1    C2 3535   1.209   0.668   2.625 -0.1750  0.5660 -0.1528
  233MPD1    C3 3536   1.236   0.641   2.488  0.0603 -0.3311  0.0185
  233MPD1    C4 3537   1.164   0.546   2.423  0.6205  0.0679 -0.1866
  233MPD1    C5 3538   1.060   0.492   2.498  0.0650 -0.1387 -0.5300
  233MPD1     H 3539   1.274   0.742   2.671  0.7646 -0.7315  0.6196
  233MPD1    H1 3540   1.181   0.505   2.324 -3.2737 -2.7181  0.2901
  233MPD1    H2 3541   0.962   0.456   2.675 -0.1014  0.6878  0.8188
  233MPD1    H3 3542   0.998   0.417   2.450 -1.5678  0.2785  0.9386
  233MPD1     N 3543   1.349   0.687   2.413 -0.0471 -0.4179 -0.5178
  233MPD1    H5 3544   1.353   0.651   2.319  0.3722  1.6910 -1.3081
  233MPD1    N1 3545   1.089   0.637   2.833  0.6096  0.0967  0.1353
  233MPD1    H6 3546   1.126   0.727   2.860 -0.4929  0.4660  0.3972
  233MPD1    H7 3547   0.993   0.627   2.867 -0.2639  2.6065 -1.5534
  234MPD1     C 3548   3.075   3.772   9.135 -0.5934  0.2203 -0.0995
  234MPD1    C1 3549   2.983   3.871   9.103  0.0758  0.6962  0.2837
  234MPD1    C2 3550   2.998   3.988   9.173 -0.1383 -0.2818  0.3043
  234MPD1    C3 3551   3.080   4.008   9.274 -0.3687  0.0670 -0.8975
  234MPD1    C4 3552   3.175   3.910   9.305  0.7044  0.0533  0.2127
  234MPD1    C5 3553   3.173   3.797   9.230  0.0672 -0.2797 -0.0568
  234MPD1     H 3554   2.927   4.065   9.149  1.3681  0.8773 -0.4471
  234MPD1    H1 3555   3.243   3.923   9.388 -0.4425  2.0159  0.8497
  234MPD1    H2 3556   3.064   3.681   9.077  1.6287 -0.0632 -0.0608
  234MPD1    H3 3557   3.250   3.726   9.257 -0.8182 -0.1575  2.7328
  234MPD1     N 3558   3.074   4.133   9.338 -0.3977  0.0612  0.0839
  234MPD1    H5 3559   3.014   4.204   9.297  0.3953 -1.3319 -3.4338
  234MPD1    N1 3560   2.895   3.847   8.996  0.2215  0.7219  0.4559
  234MPD1    H6 3561   2.806   3.896   8.996 -0.3940 -0.4269 -2.5120
  234MPD1    H7 3562   2.879   3.749   8.975  0.1467  0.8520 -0.0837
  235MPD1     C 3563   4.200   1.909  10.369  0.0033  0.3386 -0.2929
  235MPD1    C1 3564   4.153   1.921  10.237  0.1353 -0.5669  0.4101
  235MPD1    C2 3565   4.217   2.006  10.150 -0.1183 -0.2392 -0.2200
  235MPD1    C3 3566   4.345   2.047  10.191 -0.5156 -0.0072  0.5766
  235MPD1    C4 3567   4.394   2.019  10.316  1.1061 -0.0697 -0.1328
  235MPD1    C5 3568   4.317   1.954  10.411  0.7139 -0.6177  0.3338
  235MPD1     H 3569   4.170   2.035  10.056 -1.7591  0.5234  0.8215
  235MPD1    H1 3570   4.489   2.052  10.358  0.8245  0.5628  0.0189
  235MPD1    H2 3571   4.141   1.846  10.435 -0.7313  0.7910 -0.5140
  235MPD1    H3 3572   4.366   1.925  10.503 -1.6298 -2.1330  1.0692
  235MPD1     N 3573   4.418   2.126  10.093  0.0720  0.1411 -0.4254
  235MPD1    H5 3574   4.370   2.152  10.008 -0.2255  0.0688 -0.2826
  235MPD1    N1 3575   4.018   1.893  10.204  0.6078 -0.5771 -0.3517
  235MPD1    H6 3576   4.001   1.891  10.104  0.6956  1.0060 -0.3914
  235MPD1    H7 3577   3.985   1.804  10.242  1.6259 -0.5220  0.6712
  236MPD1     C 3578   3.895   3.356   9.926  0.0032 -0.4735  0.1124
  236MPD1    C1 3579   3.908   3.226   9.979  0.2175 -0.1023 -0.2926
  236MPD1    C2 3580   4.020   3.191  10.048  0.1248  0.2813 -0.1250
  236MPD1    C3 3581   4.131   3.274  10.045  0.0189 -0.2058  0.2040
  236MPD1    C4 3582   4.121   3.397   9.983  0.1987  0.5714 -0.2664
  236MPD1    C5 3583   4.001   3.438   9.927  0.1973 -0.4146 -0.0431
  236MPD1     H 3584   4.026   3.097  10.101 -0.1668  0.2580 -0.1356
  236MPD1    H1 3585   4.208   3.461   9.971  0.4975 -0.1774 -2.0784
  236MPD1    H2 3586   3.812   3.396   9.869 -1.1066  0.3162  2.2611
  236MPD1    H3 3587   3.996   3.535   9.879 -1.1005  0.7305  2.4026
  236MPD1     N 3588   4.259   3.240  10.104  0.6547 -0.1837 -0.0482
  236MPD1    H5 3589   4.326   3.316  10.107  0.5101 -0.0261 -0.7014
  236MPD1    N1 3590   3.802   3.138   9.970 -0.0688  0.2911  0.0761
  236MPD1    H6 3591   3.762   3.152   9.877  1.8291  3.9719 -0.1752
  236MPD1    H7 3592   3.851   3.049   9.963  2.0275  1.4864 -0.3845
  237MPD1     C 3593   4.221   1.436  16.248  0.5248 -0.3537 -0.1433
  237MPD1    C1 3594   4.202   1.520  16.139 -0.2517 -1.0184  0.0445
  237MPD1    C2 3595   4.081   1.520  16.075  0.1723  0.5748  0.9014
  237MPD1    C3 3596   3.988   1.416  16.098  0.4362 -0.1763 -0.0384
  237MPD1    C4 3597   4.018   1.327  16.196  0.4106 -0.5901 -0.4244
  237MPD1    C5 3598   4.131   1.340  16.275 -0.4823  0.4363 -0.4027
  237MPD1     H 3599   4.066   1.595  15.998 -0.9545 -0.2016  0.3701
  237MPD1    H1 3600   3.948   1.247  16.218 -0.1225  0.4598  1.8076
  237MPD1    H2 3601   4.298   1.451  16.323 -0.4063 -1.2907  0.9983
  237MPD1    H3 3602   4.154   1.274  16.358 -2.1467 -1.8898 -1.7932
  237MPD1     N 3603   3.885   1.381  16.012  0.1551 -0.1812 -0.6617
  237MPD1    H5 3604   3.839   1.292  16.035 -1.1463  1.0177  1.4717
  237MPD1    N1 3605   4.285   1.634  16.118  0.6058  0.4793 -0.0231
  237MPD1    H6 3606   4.380   1.611  16.145  0.2523 -0.0682  0.7579
  237MPD1    H7 3607   4.277   1.656  16.019 -1.0108 -2.2866 -0.5293
  238MPD1     C 3608   1.231   0.239  15.124  0.4325 -0.6664  0.5057
  238MPD1    C1 3609   1.285   0.196  15.007 -0.4200  0.4028 -0.0062
  238MPD1    C2 3610   1.202   0.144  14.911  0.2766 -0.5921 -0.0162
  238MPD1    C3 3611   1.066   0.154  14.916  0.1781  0.0726  0.0157
  238MPD1    C4 3612   1.013   0.197  15.037  0.1100 -0.3969 -0.1031
  238MPD1    C5 3613   1.098   0.239  15.138 -0.6345  0.6109 -0.2632
  238MPD1     H 3614   1.249   0.115  14.818 -2.1413  0.8989 -1.6993
  238MPD1    H1 3615   0.908   0.193  15.063  0.3855 -0.0142  1.0686
  238MPD1    H2 3616   1.295   0.287  15.197  0.2934 -0.3103  0.3948
  238MPD1    H3 3617   1.052   0.278  15.228 -2.5563 -0.0998 -0.9181
  238MPD1     N 3618   0.971   0.108  14.824 -0.3338 -0.7291 -0.5180
  238MPD1    H5 3619   0.872   0.113  14.849  0.3525 -1.6746  2.3667
  238MPD1    N1 3620   1.424   0.175  14.999 -0.2473  0.3536  0.4267
  238MPD1    H6 3621   1.467   0.234  15.070 -0.5523  2.3949 -1.0907
  238MPD1    H7 3622   1.461   0.168  14.904 -1.3470 -2.9992  0.2417
  239MPD1     C 3623   0.927   0.945  14.821 -0.3478  0.5205  0.1162
  239MPD1    C1 3624   1.017   0.926  14.721 -0.4530 -0.1120  0.3058
  239MPD1    C2 3625   0.966   0.953  14.596  0.2118 -0.1165  0.3560
  239MPD1    C3 3626   0.853   1.018  14.566 -0.7409 -0.0429  0.0574
  239MPD1    C4 3627   0.766   1.035  14.671 -0.1912  0.4043  0.2764
  239MPD1    C5 3628   0.802   0.998  14.801 -0.6650  0.8038  0.4940
  239MPD1     H 3629   1.033   0.938  14.513  0.6038 -1.3394  0.9018
  239MPD1    H1 3630   0.670   1.084  14.659 -0.6805 -0.4453  0.7108
  239MPD1    H2 3631   0.950   0.909  14.921  0.8010 -0.5132 -0.5195
  239MPD1    H3 3632   0.728   1.006  14.880 -0.4248  0.2615  0.7761
  239MPD1     N 3633   0.821   1.061  14.438 -0.3318 -1.0452 -0.1822
  239MPD1    H5 3634   0.723   1.083  14.421  0.1780  0.8121 -0.6920
  239MPD1    N1 3635   1.138   0.851  14.734  0.2864 -0.5309  0.1712
  239MPD1    H6 3636   1.201   0.881  14.660  1.3785 -2.1163  0.4740
  239MPD1    H7 3637   1.182   0.867  14.824 -0.4204 -1.2464  0.6512
  240MPD1     C 3638   0.522   0.734  13.350  0.2055 -0.0797 -0.3690
  240MPD1    C1 3639   0.411   0.669  13.395 -0.3954 -0.4018  0.1129
  240MPD1    C2 3640   0.430   0.596  13.514 -0.7486  0.8139 -0.2586
  240MPD1    C3 3641   0.542   0.606  13.593  0.3750  0.0335  0.6247
  240MPD1    C4 3642   0.644   0.686  13.555 -0.4243 -0.2214 -0.1380
  240MPD1    C5 3643   0.642   0.736  13.429 -0.4497  0.2011  0.3655
  240MPD1     H 3644   0.354   0.522  13.538 -1.1103  0.8022 -1.4646
  240MPD1    H1 3645   0.723   0.711  13.625 -0.5386  0.1013 -0.1218
  240MPD1    H2 3646   0.523   0.782  13.252  0.4257 -0.8675 -0.7541
  240MPD1    H3 3647   0.722   0.801  13.397  0.1425 -0.3627  0.7107
  240MPD1     N 3648   0.532   0.546  13.717  0.2067 -0.9627  0.6799
  240MPD1    H5 3649   0.445   0.499  13.738  0.9728 -1.4535  2.7593
  240MPD1    N1 3650   0.305   0.651  13.303 -0.2502 -0.0618 -0.3123
  240MPD1    H6 3651   0.302   0.727  13.236  1.4973  0.1155 -0.1693
  240MPD1    H7 3652   0.219   0.663  13.357  0.5868 -0.2079  1.0487
  241MPD1     C 3653   1.197   0.563  14.525 -0.0426 -0.7994  0.5083
  241MPD1    C1 3654   1.129   0.445  14.528  0.0472 -0.3487 -0.5010
  241MPD1    C2 3655   1.029   0.419  14.442 -0.0196 -0.2212 -0.5016
  241MPD1    C3 3656   1.008   0.503  14.328 -0.3315  0.3758 -0.3547
  241MPD1    C4 3657   1.089   0.613  14.316  0.1269  0.0987  0.5306
  241MPD1    C5 3658   1.177   0.635  14.412 -0.8991 -0.3622  0.3505
  241MPD1     H 3659   0.973   0.328  14.462 -0.5651  0.1528 -0.3281
  241MPD1    H1 3660   1.085   0.694  14.244 -0.4773  0.8145  1.3705
  241MPD1    H2 3661   1.271   0.593  14.599 -0.7355 -0.6510  1.1458
  241MPD1    H3 3662   1.240   0.722  14.397  1.1432 -1.1360  4.3795
  241MPD1     N 3663   0.899   0.491  14.231  0.4173  0.1297  1.3565
  241MPD1    H5 3664   0.907   0.551  14.150 -1.2834 -0.9200  0.4203
  241MPD1    N1 3665   1.142   0.364  14.637 -0.2255 -0.2822  0.7901
  241MPD1    H6 3666   1.234   0.375  14.678  0.6678 -4.1657 -0.2199
  241MPD1    H7 3667   1.122   0.265  14.633 -0.6274 -0.1613 -0.0781
  242MPD1     C 3668   0.262   3.223  15.721 -0.2595 -0.5207  0.5516
  242MPD1    C1 3669   0.358   3.326  15.738  0.0651 -0.0726  0.5799
  242MPD1    C2 3670   0.391   3.396  15.623  0.2341  0.0085 -0.7466
  242MPD1    C3 3671   0.351   3.354  15.502  0.7333 -0.2790 -0.2038
  242MPD1    C4 3672   0.278   3.243  15.486  1.0815  0.0320 -0.5282
  242MPD1    C5 3673   0.236   3.176  15.597  0.1783  0.7329 -0.4274
  242MPD1     H 3674   0.463   3.472  15.651 -2.8415  2.3160  0.9559
  242MPD1    H1 3675   0.251   3.197  15.392 -1.6199  2.4769 -0.9664
  242MPD1    H2 3676   0.224   3.164  15.804 -1.4099  1.6594  1.5616
  242MPD1    H3 3677   0.181   3.084  15.585  0.2854  0.8353 -1.7213
  242MPD1     N 3678   0.385   3.409  15.382  0.6199  0.0431  0.5768
  242MPD1    H5 3679   0.342   3.371  15.298  0.4976 -0.3977  0.8360
  242MPD1    N1 3680   0.382   3.387  15.864 -0.5248  0.4499  0.2102
  242MPD1    H6 3681   0.475   3.428  15.862 -1.0642  1.6650 -0.1885
  242MPD1    H7 3682   0.376   3.325  15.945 -0.5270 -0.1973 -0.2844
  243MPD1     C 3683   2.715   2.039  17.022  0.7341 -0.7302 -0.6551
  243MPD1    C1 3684   2.712   2.106  16.899  0.2052 -0.1125 -0.0073
  243MPD1    C2 3685   2.608   2.087  16.810  0.0618 -0.5455 -0.0227
  243MPD1    C3 3686   2.517   1.982  16.837 -0.4719 -0.1891 -0.6996
  243MPD1    C4 3687   2.524   1.925  16.959  0.3492  0.1042  0.5512
  243MPD1    C5 3688   2.626   1.944  17.050 -0.3930  0.1492  0.4760
  243MPD1     H 3689   2.593   2.138  16.716  2.1051 -1.0660 -0.6384
  243MPD1    H1 3690   2.445   1.853  16.982 -0.5307  0.8026 -0.2849
  243MPD1    H2 3691   2.792   2.064  17.095 -0.0055  1.6034 -0.6784
  243MPD1    H3 3692   2.619   1.906  17.152 -1.7992  0.9833  0.6887
  243MPD1     N 3693   2.407   1.958  16.746  0.3522  0.7106 -0.5015
  243MPD1    H5 3694   2.399   2.024  16.670 -0.4986  1.3622  0.1492
  243MPD1    N1 3695   2.784   2.223  16.882 -0.3623  0.8658 -0.2277
  243MPD1    H6 3696   2.796   2.240  16.782 -0.0838  0.9365 -0.1831
  243MPD1    H7 3697   2.879   2.224  16.918 -1.0167  0.6911  1.4558
  244MPD1     C 3698   1.483   1.858  17.108 -0.1623 -0.4813 -0.4178
  244MPD1    C1 3699   1.600   1.799  17.147  0.2045 -0.8468 -0.8849
  244MPD1    C2 3700   1.710   1.815  17.067  1.0954 -0.4312 -0.0361
  244MPD1    C3 3701   1.700   1.894  16.950  0.4328  0.0736  0.0084
  244MPD1    C4 3702   1.585   1.960  16.918  0.2014  0.4115 -0.5896
  244MPD1    C5 3703   1.475   1.932  16.999  0.4165 -0.2285  0.5105
  244MPD1     H 3704   1.799   1.764  17.101  0.4008 -1.9955 -0.5529
  244MPD1    H1 3705   1.584   2.040  16.845  1.1134  0.7516 -0.2297
  244MPD1    H2 3706   1.390   1.844  17.162  0.2371  0.0504  0.3973
  244MPD1    H3 3707   1.383   1.988  16.985  0.0786 -0.3171  2.3358
  244MPD1     N 3708   1.822   1.918  16.878 -0.1327 -0.1155 -0.1358
  244MPD1    H5 3709   1.911   1.882  16.911  1.0319  1.9628 -0.9731
  244MPD1    N1 3710   1.604   1.719  17.263  0.1144  0.2200 -1.0167
  244MPD1    H6 3711   1.657   1.634  17.242 -3.4616 -1.9258 -1.2465
  244MPD1    H7 3712   1.508   1.691  17.281  0.4927  0.5424  1.4768
  245MPD1     C 3713   3.315   2.985  12.806 -0.0720 -0.3811 -0.0734
  245MPD1    C1 3714   3.449   2.942  12.816 -0.0874  0.2799 -0.2819
  245MPD1    C2 3715   3.552   3.030  12.808  0.0119 -0.4251 -0.5099
  245MPD1    C3 3716   3.536   3.169  12.805 -0.3847  0.3585  0.3532
  245MPD1    C4 3717   3.402   3.209  12.798 -0.0044  0.0778 -0.5022
  245MPD1    C5 3718   3.295   3.117  12.802  0.0462 -0.0237 -0.2964
  245MPD1     H 3719   3.652   2.991  12.813  0.6009  0.9909 -1.1324
  245MPD1    H1 3720   3.378   3.313  12.781 -2.6342 -0.6396 -1.2178
  245MPD1    H2 3721   3.230   2.919  12.808  0.4262 -1.0796 -1.5380
  245MPD1    H3 3722   3.195   3.158  12.803 -0.4129 -1.2243  1.8892
  245MPD1     N 3723   3.655   3.252  12.795 -0.4391  0.3637 -0.2019
  245MPD1    H5 3724   3.745   3.205  12.794 -0.5761  0.1094 -0.4237
  245MPD1    N1 3725   3.474   2.799  12.828  0.4232  0.0999  0.6345
  245MPD1    H6 3726   3.574   2.785  12.842  0.0921 -3.3354 -0.3952
  245MPD1    H7 3727   3.445   2.753  12.742 -0.8281 -0.4877  1.3622
  246MPD1     C 3728   4.258   0.167   9.531 -0.1201 -0.0117 -0.2411
  246MPD1    C1 3729   4.253   0.221   9.402 -0.4085 -0.7161  0.1881
  246MPD1    C2 3730   4.148   0.167   9.325  0.6447  0.3512  0.4932
  246MPD1    C3 3731   4.063   0.062   9.356  0.4203 -0.4716  0.0759
  246MPD1    C4 3732   4.076   0.004   9.481  0.3766 -0.2138 -0.3090
  246MPD1    C5 3733   4.161   0.074   9.568 -0.3714 -0.6439  0.2425
  246MPD1     H 3734   4.133   0.223   9.234 -3.1231 -0.9909  0.2830
  246MPD1    H1 3735   4.014   4.652   9.526  2.2523 -1.5277  0.0077
  246MPD1    H2 3736   4.320   0.216   9.605 -0.1155  1.2771 -1.0869
  246MPD1    H3 3737   4.163   0.037   9.670 -0.5637 -0.5907  0.2664
  246MPD1     N 3738   3.974   0.012   9.257 -0.1961 -0.3459 -0.0839
  246MPD1    H5 3739   3.973   0.056   9.165 -2.3913 -1.6593 -0.6957
  246MPD1    N1 3740   4.316   0.341   9.370  0.6720  0.2320 -0.0252
  246MPD1    H6 3741   4.346   0.336   9.272 -3.4085 -0.2561 -1.2503
  246MPD1    H7 3742   4.399   0.371   9.420  0.4185 -2.1645  1.8133
  247MPD1     C 3743   3.018   3.856  16.280 -0.1751  0.3862 -0.3865
  247MPD1    C1 3744   2.967   3.791  16.166  0.2474  0.3215 -0.1432
  247MPD1    C2 3745   3.035   3.673  16.124 -0.2794 -0.4706  0.2819
  247MPD1    C3 3746   3.134   3.615  16.201  0.3757 -0.7343  0.4934
  247MPD1    C4 3747   3.168   3.674  16.319  0.2381  0.6265  0.9420
  247MPD1    C5 3748   3.118   3.789  16.352 -0.4208 -0.4321  0.5760
  247MPD1     H 3749   3.016   3.629  16.026  0.9126 -0.1280 -0.0989
  247MPD1    H1 3750   3.248   3.639  16.382 -0.9088 -1.2103  1.4078
  247MPD1    H2 3751   2.986   3.958  16.298 -2.4404 -0.4572  0.2784
  247MPD1    H3 3752   3.166   3.845  16.432 -1.5383  0.6153  0.5095
  247MPD1     N 3753   3.215   3.501  16.168  0.5020 -0.1014  0.1741
  247MPD1    H5 3754   3.278   3.461  16.237  0.5101 -0.4533 -0.0360
  247MPD1    N1 3755   2.875   3.861  16.085  0.1595 -0.2307  0.1688
  247MPD1    H6 3756   2.832   3.793  16.023 -0.0428  0.2326 -0.1981
  247MPD1    H7 3757   2.805   3.908  16.143 -0.4357 -0.0138 -0.7402
  248MPD1     C 3758   4.567   1.429   0.704  0.5692  0.2712  0.4264
  248MPD1    C1 3759   4.487   1.449   0.816  0.4671  0.4035 -0.0378
  248MPD1    C2 3760   4.359   1.486   0.795  0.3371 -0.2216  0.0603
  248MPD1    C3 3761   4.296   1.479   0.671  0.2714  0.2679 -0.5374
  248MPD1    C4 3762   4.368   1.437   0.564  0.0195 -0.1203 -0.5358
  248MPD1    C5 3763   4.504   1.413   0.582  0.0651  0.1533 -0.2266
  248MPD1     H 3764   4.307   1.510   0.887 -2.5349 -1.7196 -1.1643
  248MPD1    H1 3765   4.340   1.432   0.459 -0.2532  2.1935 -0.5622
  248MPD1    H2 3766   4.672   1.405   0.714  1.0152  2.2670  0.5000
  248MPD1    H3 3767   4.562   1.382   0.496 -2.0046  0.1983 -1.6328
  248MPD1     N 3768   4.159   1.521   0.658 -0.6085 -0.5688  0.8382
  248MPD1    H5 3769   4.106   1.559   0.736 -1.4703 -0.9161  0.4198
  248MPD1    N1 3770   4.552   1.465   0.942 -0.1397  0.0367 -0.2082
  248MPD1    H6 3771   4.647   1.427   0.941 -0.4210 -0.6550 -0.7310
  248MPD1    H7 3772   4.494   1.430   1.018 -0.0035 -2.6424 -1.3506
  249MPD1     C 3773   0.648   0.862  10.294  0.1174  0.7583  0.1628
  249MPD1    C1 3774   0.741   0.961  10.322  1.3629  0.4483 -0.4199
  249MPD1    C2 3775   0.788   1.039  10.222  0.2944 -0.5312  0.5889
  249MPD1    C3 3776   0.736   1.039  10.094  0.2996  0.5398  0.1245
  249MPD1    C4 3777   0.632   0.943  10.070  0.4806  0.0911  0.2417
  249MPD1    C5 3778   0.589   0.863  10.171 -0.4658 -0.1846  0.2322
  249MPD1     H 3779   0.875   1.101  10.244  0.4990 -0.3945 -0.5882
  249MPD1    H1 3780   0.580   0.936   9.975 -0.3177  0.4745  0.6555
  249MPD1    H2 3781   0.625   0.779  10.361  0.0854  2.6618  2.5323
  249MPD1    H3 3782   0.519   0.788  10.138  0.9649 -1.0591 -0.8175
  249MPD1     N 3783   0.785   1.141  10.011  0.1933  0.3649  0.0840
  249MPD1    H5 3784   0.853   1.207  10.047 -1.7022  1.6330  1.2996
  249MPD1    N1 3785   0.811   0.956  10.440  0.1125  0.2717 -0.0670
  249MPD1    H6 3786   0.843   1.049  10.465 -0.3530  0.4583 -0.1706
  249MPD1    H7 3787   0.760   0.915  10.519  0.7995 -2.6716 -1.1527
  250MPD2     C 3788   1.803   1.520  12.415  0.4819 -0.0315 -0.0006
  250MPD2    C1 3789   1.831   1.421  12.507  0.5550  0.6624 -0.4329
  250MPD2    C2 3790   1.832   1.289  12.466 -0.4018  0.5626 -0.1356
  250MPD2    C3 3791   1.805   1.262  12.336  0.1816  0.2745  0.0373
  250MPD2    C4 3792   1.775   1.367  12.243 -0.7251  0.3384 -0.3090
  250MPD2    C5 3793   1.782   1.492  12.284  0.7333 -0.4123 -0.1041
  250MPD2     H 3794   1.849   1.214  12.543 -1.8467  0.2111 -0.1699
  250MPD2    H1 3795   1.769   1.348  12.136 -0.9711  0.5016 -0.3236
  250MPD2    H2 3796   1.795   1.623  12.445  1.1991 -0.0489  0.2344
  250MPD2    H3 3797   1.761   1.571  12.212 -0.7551  0.7041  1.5494
  250MPD2     N 3798   1.819   1.131  12.282  0.0151 -0.1306  0.4820
  250MPD2    H5 3799   1.794   1.123  12.184  0.0292  0.3803  0.4373
  250MPD2    N1 3800   1.844   1.470  12.643  1.1378 -0.2511 -0.8976
  250MPD2    H7 3801   1.817   1.567  12.652  1.6567  0.0592 -2.6048
  251TMC3    C1 3802   1.928   1.478  12.859 -0.0010  0.2687 -0.1622
  251TMC3    C2 3803   1.841   1.582  12.884 -0.1536  0.2743  0.5175
  251TMC3    C3 3804   1.893   1.679  12.958 -0.3327 -0.8444  0.7065
  251TMC3    C4 3805   2.055   1.474  12.911 -0.2355  0.0614 -0.0746
  251TMC3    C5 3806   2.108   1.580  12.983 -0.9435 -0.0880 -0.9345
  251TMC3    C6 3807   2.024   1.681  13.015  0.0782 -0.3446 -0.2537
  251TMC3     C 3808   1.896   1.401  12.745  0.1561 -0.4060 -0.0102
  251TMC3     O 3809   1.941   1.285  12.740  0.2433  0.4987  0.8935
  251TMC3     H 3810   1.741   1.576  12.843 -0.3163 -1.8023  1.2314
  251TMC3    H1 3811   2.120   1.397  12.871  0.1138  0.8062 -0.9438
  251TMC3    H2 3812   2.061   1.759  13.081  1.0188 -0.4876 -0.6227
  251TMC3    C7 3813   2.259   1.603  12.986 -0.8914  0.6661  0.1523
  251TMC3    C8 3814   1.814   1.779  13.013 -0.5648  0.1189  0.3428
  251TMC3    O1 3815   2.328   1.509  13.019  0.0843 -0.5061  0.2283
  251TMC3    O2 3816   1.856   1.831  13.119  0.0477 -0.2476 -0.3613
  252TMC3    C1 3817   2.601   2.852   9.011 -0.0951  0.4385  0.6025
  252TMC3    C2 3818   2.651   2.978   9.036 -0.5364 -0.2978 -0.4957
  252TMC3    C3 3819   2.767   2.993   9.107 -0.0905 -0.8687  0.1086
  252TMC3    C4 3820   2.657   2.748   9.068 -0.1943 -0.6115 -0.2716
  252TMC3    C5 3821   2.777   2.762   9.136  0.0088  0.4609 -0.2074
  252TMC3    C6 3822   2.842   2.885   9.148 -0.0216  0.3589 -0.4585
  252TMC3     C 3823   2.473   2.839   8.942 -0.2367  0.6699 -0.0267
  252TMC3     O 3824   2.434   2.935   8.876  0.0118 -0.2265 -0.1861
  252TMC3     H 3825   2.581   3.058   9.012 -0.2107  0.1501  0.0474
  252TMC3    H1 3826   2.629   2.645   9.048  0.2737 -1.1472  1.8141
  252TMC3    H2 3827   2.938   2.886   9.198  1.0832 -0.5806 -2.5715
  252TMC3    C7 3828   2.856   2.647   9.182 -0.0399  0.7726 -0.1805
  252TMC3    C8 3829   2.798   3.126   9.139 -0.4333 -0.9007 -0.0049
  252TMC3    O1 3830   2.968   2.674   9.221 -0.0211 -0.4290 -0.4847
  252TMC3    O2 3831   2.748   3.217   9.074  0.2128  0.2850  0.0601
  253MPD2     C 3832   3.537   1.663  15.942 -0.2423  0.3455 -0.0715
  253MPD2    C1 3833   3.423   1.628  15.877 -0.0360 -0.7855 -0.2566
  253MPD2    C2 3834   3.338   1.531  15.922  0.0935  0.9177  0.2963
  253MPD2    C3 3835   3.357   1.468  16.043 -0.2309 -0.1413 -0.6540
  253MPD2    C4 3836   3.464   1.518  16.114  0.3041  0.6822  0.9705
  253MPD2    C5 3837   3.553   1.608  16.074  0.3349  0.8750 -0.0067
  253MPD2     H 3838   3.245   1.508  15.871  1.3600 -0.7523 -1.2282
  253MPD2    H1 3839   3.473   1.490  16.218  1.4951  0.5738  0.8425
  253MPD2    H2 3840   3.608   1.733  15.900  1.3496  0.2629  2.5229
  253MPD2    H3 3841   3.641   1.634  16.131  1.6626  0.0337 -1.6809
  253MPD2     N 3842   3.282   1.359  16.091  0.6427  0.0622  0.0177
  253MPD2    H5 3843   3.289   1.335  16.190 -0.8682 -0.6945 -0.0607
  253MPD2    N1 3844   3.380   1.688  15.751  0.2458  0.2574  0.1934
  253MPD2    H7 3845   3.306   1.642  15.701  1.9276 -0.1440 -1.9250
  254TMC3    C1 3846   3.112   1.191  16.094  0.4865  0.5474  0.1305
  254TMC3    C2 3847   3.016   1.132  16.020 -0.2364  0.5989  0.0386
  254TMC3    C3 3848   2.903   1.094  16.077 -0.5771  0.0331 -0.6057
  254TMC3    C4 3849   3.107   1.210  16.230 -0.1019 -0.3667 -0.2588
  254TMC3    C5 3850   2.991   1.159  16.288  0.4312  0.6620 -0.4703
  254TMC3    C6 3851   2.887   1.114  16.212 -0.1474  0.1946  0.2194
  254TMC3     C 3852   3.198   1.283  16.015  0.5576  0.0531 -0.4308
  254TMC3     O 3853   3.178   1.295  15.897  0.4445  0.3131 -0.1432
  254TMC3     H 3854   3.040   1.110  15.917 -0.1679  1.3915 -0.1170
  254TMC3    H1 3855   3.179   1.266  16.290  1.0715 -2.2799  0.1085
  254TMC3    H2 3856   2.792   1.078  16.249  0.1157 -0.0769  0.6231
  254TMC3    C7 3857   2.990   1.126  16.427  0.1350  0.1575  0.3816
  254TMC3    C8 3858   2.790   1.132  15.999  1.0034 -0.5775  0.0609
  254TMC3    O1 3859   3.097   1.112  16.490 -0.4286  0.4774 -0.0214
  254TMC3    O2 3860   2.765   1.071  15.895 -0.5999 -0.2239 -0.4585
  255MPD2     C 3861   1.378   3.435  10.018 -0.4676 -0.3350 -0.5571
  255MPD2    C1 3862   1.516   3.469  10.020  0.4249 -0.1842  0.9946
  255MPD2    C2 3863   1.610   3.375   9.996  0.6089 -0.1397 -1.1961
  255MPD2    C3 3864   1.577   3.248   9.960  0.3416 -0.6300  0.1678
  255MPD2    C4 3865   1.447   3.214   9.958 -0.1061  0.3665 -1.1368
  255MPD2    C5 3866   1.343   3.305   9.989  0.3198 -0.4840 -0.9171
  255MPD2     H 3867   1.714   3.405   9.993 -0.1586  3.0007  2.3593
  255MPD2    H1 3868   1.417   3.116   9.925 -0.9050  0.3325 -0.3080
  255MPD2    H2 3869   1.294   3.502  10.032 -2.2249 -2.8213  0.8840
  255MPD2    H3 3870   1.239   3.273   9.992  0.4482 -0.7155  1.1605
  255MPD2     N 3871   1.674   3.167   9.898 -0.1088  0.1618 -0.3588
  255MPD2    H5 3872   1.767   3.207   9.892  0.2835 -0.9833 -2.0117
  255MPD2    N1 3873   1.542   3.611  10.022 -0.0102  0.7818  0.3729
  255MPD2    H7 3874   1.462   3.666  10.051  0.3329  0.3887  2.0486
  256TMC3    C1 3875   1.643   3.819   9.962  0.4448 -0.2022  0.9573
  256TMC3    C2 3876   1.729   3.877   9.873  0.6643  1.0361 -0.9113
  256TMC3    C3 3877   1.699   3.996   9.808 -0.8033 -0.1288  0.2756
  256TMC3    C4 3878   1.532   3.885  10.006  0.3321 -0.2710  0.0764
  256TMC3    C5 3879   1.510   4.006   9.949 -0.0071 -0.0219 -0.7469
  256TMC3    C6 3880   1.579   4.054   9.842 -0.1216  0.5707  0.1582
  256TMC3     C 3881   1.653   3.670   9.966  0.2272 -0.4836  0.2225
  256TMC3     O 3882   1.735   3.615   9.891  0.4327  0.4041  0.1721
  256TMC3     H 3883   1.828   3.833   9.863  0.5567  0.5561  0.1056
  256TMC3    H1 3884   1.457   3.850  10.075 -2.7000  3.0838 -1.4717
  256TMC3    H2 3885   1.549   4.143   9.787  0.6787  0.0895 -1.0499
  256TMC3    C7 3886   1.383   4.077   9.975 -1.0532  0.1510 -0.1123
  256TMC3    C8 3887   1.801   4.062   9.726 -0.2781 -0.2421  0.5105
  256TMC3    O1 3888   1.286   4.008  10.006 -0.0656 -0.0376  0.3924
  256TMC3    O2 3889   1.907   4.000   9.706  0.0103  0.7978  0.3298
  257MPD2     C 3890   0.761   0.950  12.381  0.0715 -0.0364 -0.3990
  257MPD2    C1 3891   0.864   1.032  12.401  0.5351 -0.0228  0.0671
  257MPD2    C2 3892   0.931   1.022  12.521  0.6295  0.4189  0.0099
  257MPD2    C3 3893   0.898   0.924  12.612 -0.4021  0.4244  0.5023
  257MPD2    C4 3894   0.791   0.840  12.583  0.2435  0.3994  0.5171
  257MPD2    C5 3895   0.721   0.863  12.473  0.1215 -0.7303 -0.1235
  257MPD2     H 3896   1.011   1.091  12.544  2.8733 -2.1710  0.0510
  257MPD2    H1 3897   0.756   0.757  12.643 -0.0260 -0.4586 -0.8383
  257MPD2    H2 3898   0.705   0.959  12.289 -2.0077  0.1718  0.8727
  257MPD2    H3 3899   0.637   0.795  12.458  1.5620 -2.4912 -0.3102
  257MPD2     N 3900   0.973   0.912  12.735 -0.3934 -0.0409  0.5402
  257MPD2    H5 3901   1.058   0.967  12.734 -0.9034  0.7441  0.6416
  257MPD2    N1 3902   0.898   1.108  12.291 -0.0636 -0.4049  0.3326
  257MPD2    H7 3903   0.839   1.094  12.210 -0.8400  2.1250  0.4554
  258TMC3    C1 3904   1.038   0.846  12.943  0.8146 -0.3435 -0.1819
  258TMC3    C2 3905   1.168   0.902  12.931  0.0491 -0.0258  0.1852
  258TMC3    C3 3906   1.253   0.914  13.038 -0.1677  0.2770  0.2627
  258TMC3    C4 3907   0.997   0.814  13.068  0.7784  0.4931  0.4427
  258TMC3    C5 3908   1.090   0.821  13.170  0.2084  0.3018 -0.6473
  258TMC3    C6 3909   1.217   0.865  13.162  1.2030 -0.0915 -0.6601
  258TMC3     C 3910   0.951   0.824  12.833 -0.6722  0.5904 -0.5409
  258TMC3     O 3911   0.858   0.749  12.857 -0.6440 -0.0857  0.5389
  258TMC3     H 3912   1.197   0.952  12.839 -1.8037 -2.2132 -1.5876
  258TMC3    H1 3913   0.905   0.760  13.087  1.0778  0.0244  0.5820
  258TMC3    H2 3914   1.290   0.851  13.242 -1.3626 -1.7285  1.3881
  258TMC3    C7 3915   1.031   0.785  13.302 -0.0316  0.3617  0.7376
  258TMC3    C8 3916   1.382   0.980  13.017  0.5304 -0.3768 -0.5896
  258TMC3    O1 3917   0.953   0.689  13.303 -0.0896  0.0669  0.1208
  258TMC3    O2 3918   1.417   0.991  12.900 -0.2085  0.2403 -0.7211
  259MPD2     C 3919   4.159   3.339   0.539  0.2115 -0.2990 -0.0354
  259MPD2    C1 3920   4.110   3.210   0.526  0.9478 -0.2594  0.9254
  259MPD2    C2 3921   4.134   3.136   0.411 -0.1559  0.4768 -0.7974
  259MPD2    C3 3922   4.202   3.188   0.306  0.0280 -0.5713 -0.1277
  259MPD2    C4 3923   4.248   3.319   0.323  0.6928 -0.4112 -0.0911
  259MPD2    C5 3924   4.228   3.395   0.435  0.5665  0.0314  0.0285
  259MPD2     H 3925   4.092   3.036   0.403  1.0541 -0.2010  1.5636
  259MPD2    H1 3926   4.309   3.356   0.241  1.6277  0.3924  0.9715
  259MPD2    H2 3927   4.147   3.397   0.630  2.5747 -0.2639  0.2510
  259MPD2    H3 3928   4.270   3.495   0.438  3.1454 -1.0968  1.0033
  259MPD2     N 3929   4.229   3.103   0.200 -0.1901 -0.6407 -0.3347
  259MPD2    H5 3930   4.173   3.018   0.203 -0.3620 -0.4676  1.4507
  259MPD2    N1 3931   4.039   3.159   0.640  0.4115 -0.6629  0.2287
  259MPD2    H7 3932   4.036   3.217   0.723 -1.6178 -2.1806  1.1967
  260TMC3    C1 3933   4.320   3.012   0.005  0.0695  0.0893 -0.3715
  260TMC3    C2 3934   4.421   3.029  17.612  0.1581  0.3229  0.3445
  260TMC3    C3 3935   4.437   2.927  17.527 -0.3404  0.0004 -0.4942
  260TMC3    C4 3936   4.248   2.900   0.011  0.0334 -0.7819 -0.1705
  260TMC3    C5 3937   4.272   2.794  17.627 -0.6199 -0.1666 -0.0141
  260TMC3    C6 3938   4.367   2.813  17.532  0.3614  0.1866 -0.1596
  260TMC3     C 3939   4.298   3.131   0.089  0.3188 -0.2700 -0.1274
  260TMC3     O 3940   4.364   3.227   0.058  0.8583 -0.4498 -0.2531
  260TMC3     H 3941   4.494   3.109  17.612 -0.0174  0.4824 -0.1681
  260TMC3    H1 3942   4.150   2.913   0.054  0.2069  1.5230 -0.4322
  260TMC3    H2 3943   4.358   2.742  17.451 -0.1655  1.5005 -1.2590
  260TMC3    C7 3944   4.248   2.657  17.673 -0.4760 -0.0566  0.2574
  260TMC3    C8 3945   4.568   2.905  17.484 -0.1331  0.1307 -0.3842
  260TMC3    O1 3946   4.307   2.574  17.609  0.6414  1.0757 -0.1782
  260TMC3    O2 3947   4.644   2.995  17.457  0.2629  0.0556 -0.2614
  261MPD2     C 3948   1.212   1.043  11.947 -0.3107  0.7696 -0.9125
  261MPD2    C1 3949   1.351   1.079  11.955 -0.0642  0.1537 -0.8455
  261MPD2    C2 3950   1.384   1.195  11.883 -0.1929  0.2379 -0.3912
  261MPD2    C3 3951   1.294   1.274  11.825  0.6284  0.4240 -0.2600
  261MPD2    C4 3952   1.162   1.239  11.813 -0.2264 -0.0605  0.4826
  261MPD2    C5 3953   1.125   1.124  11.872  0.4698 -1.0321 -0.6940
  261MPD2     H 3954   1.489   1.220  11.883 -0.1938  0.2441 -0.9385
  261MPD2    H1 3955   1.091   1.296  11.754  1.8372  1.3334 -0.6706
  261MPD2    H2 3956   1.179   0.945  11.982  0.7293  0.5964 -0.4133
  261MPD2    H3 3957   1.018   1.108  11.877 -0.1191  2.2611 -2.5186
  261MPD2     N 3958   1.346   1.397  11.770  0.0357  0.1820 -0.6406
  261MPD2    H5 3959   1.446   1.413  11.778  0.2718 -1.2272 -0.8753
  261MPD2    N1 3960   1.449   0.998  12.019  0.6016  0.2803  0.0911
  261MPD2    H7 3961   1.544   1.028  11.999  1.0257  0.5726  2.5706
  262TMC3    C1 3962   1.368   1.603  11.679  0.1892 -0.5006 -0.1917
  262TMC3    C2 3963   1.317   1.730  11.669 -0.3607  0.6661  0.6018
  262TMC3    C3 3964   1.391   1.819  11.599  0.6305 -0.0608  0.0095
  262TMC3    C4 3965   1.484   1.571  11.623 -0.1955  0.0216 -0.0788
  262TMC3    C5 3966   1.556   1.665  11.548  0.5481  0.4077 -0.2551
  262TMC3    C6 3967   1.504   1.791  11.529  0.2329  0.2985 -0.7579
  262TMC3     C 3968   1.273   1.498  11.717 -0.6515  1.0840 -0.0755
  262TMC3     O 3969   1.152   1.518  11.706  0.4420 -0.1592  0.2907
  262TMC3     H 3970   1.232   1.762  11.729 -1.4859  1.3206 -1.3726
  262TMC3    H1 3971   1.520   1.471  11.604  0.0659 -0.2398  1.8002
  262TMC3    H2 3972   1.562   1.868  11.479  0.0387  0.7598 -0.2597
  262TMC3    C7 3973   1.665   1.609  11.467 -0.0586 -0.3692  0.0161
  262TMC3    C8 3974   1.369   1.966  11.614 -0.1684  0.3926  0.3408
  262TMC3    O1 3975   1.728   1.512  11.502  0.3230  0.0199  0.3520
  262TMC3    O2 3976   1.465   2.035  11.596 -0.4437 -0.0025 -0.1902
  263MPD2     C 3977   2.472   0.654  11.285  0.0077 -0.2021  0.2669
  263MPD2    C1 3978   2.605   0.663  11.245  0.7824  0.2260 -0.0651
  263MPD2    C2 3979   2.631   0.700  11.112 -0.6870 -0.9016 -0.8725
  263MPD2    C3 3980   2.525   0.714  11.029 -0.0632 -1.0008 -0.1415
  263MPD2    C4 3981   2.398   0.689  11.072  0.2159 -0.1289  0.2114
  263MPD2    C5 3982   2.372   0.661  11.201  0.5187  0.8350  0.1937
  263MPD2     H 3983   2.731   0.707  11.072 -0.3053 -1.5745 -0.0418
  263MPD2    H1 3984   2.309   0.683  11.010 -0.3050  0.0037  0.9404
  263MPD2    H2 3985   2.431   0.633  11.383  0.1812 -1.3232  0.0969
  263MPD2    H3 3986   2.269   0.640  11.228  0.4295 -0.4443 -1.1637
  263MPD2     N 3987   2.546   0.760  10.893  0.1839 -0.6218 -0.0590
  263MPD2    H5 3988   2.644   0.777  10.875  0.2419  0.8749  1.6778
  263MPD2    N1 3989   2.709   0.625  11.332  0.4102 -0.2608 -0.0633
  263MPD2    H7 3990   2.680   0.606  11.427  0.5088 -0.5764 -0.0953
  264TMC3    C1 3991   2.506   0.849  10.675  0.7754 -0.1682  0.6212
  264TMC3    C2 3992   2.442   0.957  10.611  0.2127 -0.2136 -0.0716
  264TMC3    C3 3993   2.485   0.994  10.485  0.2724  0.0026 -0.1664
  264TMC3    C4 3994   2.592   0.772  10.606 -0.4440 -0.0034 -0.3380
  264TMC3    C5 3995   2.614   0.801  10.473  0.8334 -0.1054 -0.3866
  264TMC3    C6 3996   2.568   0.911  10.415  0.0420 -0.7078 -0.3620
  264TMC3     C 3997   2.455   0.818  10.810  0.0732 -0.2028  0.2768
  264TMC3     O 3998   2.344   0.856  10.841 -0.2816 -0.0261 -0.3156
  264TMC3     H 3999   2.363   1.010  10.663  0.7199 -0.1797  0.6595
  264TMC3    H1 4000   2.636   0.683  10.649 -2.0376  0.3881  2.0442
  264TMC3    H2 4001   2.596   0.934  10.312  0.4515  1.8437  0.3213
  264TMC3    C7 4002   2.743   0.764  10.421 -0.8801  0.6691 -0.3806
  264TMC3    C8 4003   2.489   1.132  10.450  0.0362 -0.1917 -0.1484
  264TMC3    O1 4004   2.805   0.849  10.357 -1.3231 -0.2418 -0.2319
  264TMC3    O2 4005   2.559   1.161  10.353  0.5021  0.0567 -0.3527
  265MPD2     C 4006   4.326   1.660  14.938 -0.0808  0.2297 -0.2263
  265MPD2    C1 4007   4.393   1.591  15.037  0.7081 -0.4364 -0.3484
  265MPD2    C2 4008   4.456   1.481  14.984 -0.4666  0.1560 -0.0831
  265MPD2    C3 4009   4.434   1.425  14.855 -0.0895  0.5855 -0.0055
  265MPD2    C4 4010   4.356   1.497  14.766  0.3016 -0.2601 -0.5944
  265MPD2    C5 4011   4.304   1.617  14.813  0.2593  0.9769  0.1795
  265MPD2     H 4012   4.530   1.438  15.052 -1.3015 -1.3383 -0.1196
  265MPD2    H1 4013   4.349   1.475  14.660 -0.3948  0.2201 -0.6520
  265MPD2    H2 4014   4.275   1.750  14.971  0.9720  0.0724  1.8196
  265MPD2    H3 4015   4.238   1.674  14.748  0.9525  1.5223 -0.0455
  265MPD2     N 4016   4.497   1.313  14.797  0.5102  0.1668  0.4667
  265MPD2    H5 4017   4.497   1.308  14.695  0.0623  0.2370  0.4619
  265MPD2    N1 4018   4.427   1.634  15.159 -0.4215 -0.2254  0.1661
  265MPD2    H7 4019   4.425   1.732  15.188  2.7567  0.0935 -0.7125
  266TMC3    C1 4020   4.489   1.623  15.378  0.5283 -0.5620  0.7641
  266TMC3    C2 4021   4.465   1.560  15.501  0.0658 -0.3017 -0.0713
  266TMC3    C3 4022   4.541   1.600  15.611  0.2335 -0.5131 -0.0186
  266TMC3    C4 4023   4.585   1.725  15.367  0.7408  0.3901 -0.0488
  266TMC3    C5 4024   4.642   1.765  15.482 -0.1390 -0.2004  0.5489
  266TMC3    C6 4025   4.633   1.700  15.601 -0.6147 -0.6508  0.5896
  266TMC3     C 4026   4.451   1.546  15.262  0.3606  0.1317 -0.2886
  266TMC3     O 4027   4.423   1.427  15.274 -0.2027 -0.1209 -0.7204
  266TMC3     H 4028   4.384   1.488  15.508  0.8885 -1.1974  0.2161
  266TMC3    H1 4029   4.636   1.754  15.275 -2.4613  2.3349 -1.2268
  266TMC3    H2 4030   4.693   1.734  15.684 -0.9813  1.3259  0.0514
  266TMC3    C7 4031   4.702   1.903  15.483  0.1758  0.0772  0.5033
  266TMC3    C8 4032   4.526   1.540  15.740 -0.1273 -0.0837  0.8324
  266TMC3    O1 4033   0.028   1.930  15.590 -0.1711 -0.1114 -0.3770
  266TMC3    O2 4034   4.478   1.427  15.736  0.5109  0.0439  0.3597
  267MPD2     C 4035   2.743   1.852  17.528  0.0965  0.3615 -0.6198
  267MPD2    C1 4036   2.713   1.985  17.506  0.0605  0.6341 -1.3386
  267MPD2    C2 4037   2.594   2.031  17.445  0.7082 -0.4697 -0.0288
  267MPD2    C3 4038   2.507   1.952  17.388  0.1895  0.4676 -0.4619
  267MPD2    C4 4039   2.533   1.816  17.411  0.3901 -0.2844 -0.0182
  267MPD2    C5 4040   2.644   1.765  17.475  0.6045 -0.2408 -0.2464
  267MPD2     H 4041   2.576   2.138  17.442  1.9740 -0.2832 -1.8023
  267MPD2    H1 4042   2.473   1.746  17.355 -0.8829 -0.8216  1.9995
  267MPD2    H2 4043   2.838   1.825  17.573 -0.1404 -0.8137 -0.8343
  267MPD2    H3 4044   2.645   1.656  17.474 -0.4874 -0.2542  0.4210
  267MPD2     N 4045   2.388   1.991  17.320  0.0333 -0.0486  0.1697
  267MPD2    H5 4046   2.316   1.920  17.322  1.4705 -1.4395  2.8086
  267MPD2    N1 4047   2.802   2.079  17.561 -0.1397 -0.0978 -0.4181
  267MPD2    H7 4048   2.876   2.044  17.622  1.7256  0.4519 -2.3676
  268TMC3    C1 4049   2.865   2.294  17.649 -0.0855 -0.8472  0.2540
  268TMC3    C2 4050   2.838   2.428  17.622 -0.4277 -0.8576 -0.2286
  268TMC3    C3 4051   2.837   2.502   0.032  0.4388 -0.3634 -0.2391
  268TMC3    C4 4052   2.867   2.239   0.073  0.3158 -0.3389 -0.3196
  268TMC3    C5 4053   2.848   2.319   0.177  0.3619 -0.0774  0.2099
  268TMC3    C6 4054   2.841   2.451   0.158  0.1173 -0.1922 -0.0341
  268TMC3     C 4055   2.807   2.214  17.541 -0.7795  0.0129  0.4181
  268TMC3     O 4056   2.754   2.279  17.453  0.3318 -0.0728 -0.1127
  268TMC3     H 4057   2.855   2.468  17.523 -0.2338 -2.3349 -0.7903
  268TMC3    H1 4058   2.847   2.133   0.089  0.8553 -0.1005  1.9163
  268TMC3    H2 4059   2.832   2.512   0.247 -0.7418  1.0291 -0.9645
  268TMC3    C7 4060   2.834   2.269   0.306 -0.1285  0.5586  0.2544
  268TMC3    C8 4061   2.807   2.648   0.016 -0.7645  0.0757 -0.1656
  268TMC3    O1 4062   2.767   2.336   0.383  0.1285 -0.4738 -0.3194
  268TMC3    O2 4063   2.800   2.709   0.122 -0.0616  0.2826 -0.4272
  269MPD2     C 4064   2.728   1.607  15.627  0.2386  0.4800 -0.1664
  269MPD2    C1 4065   2.592   1.591  15.612  0.6583 -0.2055 -0.1360
  269MPD2    C2 4066   2.516   1.702  15.574  0.4296 -0.1151  0.0857
  269MPD2    C3 4067   2.577   1.820  15.549  0.1128  0.6202 -0.2200
  269MPD2    C4 4068   2.712   1.833  15.573 -0.4699  0.3055 -0.2893
  269MPD2    C5 4069   2.785   1.728  15.620  0.4359  0.0975  0.1734
  269MPD2     H 4070   2.413   1.682  15.550  0.7056 -0.9332 -0.4001
  269MPD2    H1 4071   2.763   1.928  15.566 -0.9113  0.5315 -0.4456
  269MPD2    H2 4072   2.799   1.531  15.654  1.0920  0.9302 -1.1645
  269MPD2    H3 4073   2.892   1.738  15.637  0.3413 -0.9562  1.3559
  269MPD2     N 4074   2.501   1.924  15.485 -0.1747  0.5850 -0.6071
  269MPD2    H5 4075   2.403   1.902  15.471 -0.1123  0.5315 -0.9637
  269MPD2    N1 4076   2.544   1.460  15.619 -0.0807  0.3600  0.5758
  269MPD2    H7 4077   2.618   1.393  15.638  0.2844  0.4041 -0.6487
  270TMC3    C1 4078   2.422   1.286  15.518 -0.1774  0.1799 -0.1411
  270TMC3    C2 4079   2.299   1.243  15.480  0.6580  0.5422  0.4158
  270TMC3    C3 4080   2.291   1.161  15.372  1.0552 -0.2532 -0.3608
  270TMC3    C4 4081   2.533   1.227  15.473 -0.5019 -0.0763  0.2398
  270TMC3    C5 4082   2.518   1.129  15.378  0.3411  0.5837  0.2851
  270TMC3    C6 4083   2.395   1.091  15.323 -0.7070  0.0782  0.2948
  270TMC3     C 4084   2.423   1.419  15.580  0.1167  0.1890 -0.7307
  270TMC3     O 4085   2.320   1.480  15.568 -0.0420 -0.3061 -0.0233
  270TMC3     H 4086   2.206   1.284  15.518 -1.1464 -1.3097 -1.9587
  270TMC3    H1 4087   2.633   1.257  15.500  0.3138 -3.0505  0.4936
  270TMC3    H2 4088   2.388   1.000  15.265 -2.0368 -1.7577  3.3584
  270TMC3    C7 4089   2.633   1.047  15.345 -0.3350  0.1364 -0.8028
  270TMC3    C8 4090   2.172   1.157  15.296  0.2401  0.8060  0.3839
  270TMC3    O1 4091   2.723   1.027  15.428 -0.0365 -0.6010  0.0698
  270TMC3    O2 4092   2.066   1.190  15.346 -0.0751  0.2077 -0.0348
  271MPD2     C 4093   1.448   1.520  13.749 -0.5703 -0.2247 -0.5228
  271MPD2    C1 4094   1.403   1.456  13.865  0.5296  0.2846 -0.1984
  271MPD2    C2 4095   1.277   1.484  13.901 -0.3828  0.1479  0.4690
  271MPD2    C3 4096   1.187   1.557  13.821  0.0038  0.0972 -0.4603
  271MPD2    C4 4097   1.234   1.612  13.703 -0.4392  0.1426  0.2054
  271MPD2    C5 4098   1.369   1.607  13.673  0.1418 -0.8203  0.5438
  271MPD2     H 4099   1.233   1.436  13.987 -0.5638 -0.9942 -0.2653
  271MPD2    H1 4100   1.181   1.672  13.629 -0.4665 -0.6372 -0.4107
  271MPD2    H2 4101   1.546   1.502  13.707  0.2863  1.7759  0.5777
  271MPD2    H3 4102   1.404   1.661  13.586 -0.3622 -0.2104  0.7136
  271MPD2     N 4103   1.043   1.565  13.853  0.3118  0.4808  0.6983
  271MPD2    H5 4104   0.982   1.603  13.781  1.0572  1.5155  0.6179
  271MPD2    N1 4105   1.478   1.378  13.954  0.0064 -0.3377  0.6267
  271MPD2    H7 4106   1.431   1.343  14.037  0.8279  0.3302  1.3729
  272TMC3    C1 4107   1.668   1.257  14.028  0.0550 -0.2134 -0.0464
  272TMC3    C2 4108   1.789   1.200  13.992  0.7177 -0.5163 -0.5720
  272TMC3    C3 4109   1.872   1.157  14.096  0.4689 -0.1253 -0.2832
  272TMC3    C4 4110   1.630   1.274  14.159 -0.0762 -0.0617 -0.3387
  272TMC3    C5 4111   1.722   1.238  14.252 -0.7439 -0.1512  0.8097
  272TMC3    C6 4112   1.844   1.185  14.227 -0.1189 -0.0008  1.2939
  272TMC3     C 4113   1.610   1.341  13.926 -0.7429  0.9242  0.0109
  272TMC3     O 4114   1.686   1.382  13.839 -0.4285  0.0954  0.5076
  272TMC3     H 4115   1.806   1.187  13.886  0.5088  0.8175 -0.7668
  272TMC3    H1 4116   1.534   1.318  14.185 -0.3384  0.4253 -2.1571
  272TMC3    H2 4117   1.919   1.199  14.304  2.0117  2.0042 -1.1463
  272TMC3    C7 4118   1.688   1.293  14.381  0.8968 -0.6034 -0.7814
  272TMC3    C8 4119   1.998   1.102  14.057  0.0035 -0.6349  0.3526
  272TMC3    O1 4120   1.569   1.287  14.411 -0.0819  0.0367 -0.5755
  272TMC3    O2 4121   2.038   1.129  13.942  0.3293  0.3089  0.3311
  273MPD2     C 4122   2.691   3.917  12.077  0.4825  0.2077  0.3154
  273MPD2    C1 4123   2.820   3.927  12.026  0.9377 -0.2745 -0.5476
  273MPD2    C2 4124   2.842   3.974  11.894  0.1781  0.5681  0.5407
  273MPD2    C3 4125   2.733   4.026  11.819  0.7596  0.2738  0.2798
  273MPD2    C4 4126   2.608   4.015  11.875 -0.1119  0.4486 -0.4198
  273MPD2    C5 4127   2.587   3.957  11.996  0.0485  1.0178 -0.1075
  273MPD2     H 4128   2.945   3.976  11.859 -0.4510 -2.0919 -1.4532
  273MPD2    H1 4129   2.527   4.040  11.807  0.3759  0.7635 -0.8797
  273MPD2    H2 4130   2.662   3.879  12.174  0.3656 -0.9281 -0.1718
  273MPD2    H3 4131   2.483   3.941  12.020  0.2419 -1.4009 -0.8207
  273MPD2     N 4132   2.738   4.083  11.688 -0.4147  1.0396 -0.3181
  273MPD2    H5 4133   2.650   4.111  11.646 -1.9155 -1.9824  0.8287
  273MPD2    N1 4134   2.924   3.899  12.118  0.3103  0.1469  0.7621
  273MPD2    H7 4135   2.897   3.887  12.215  0.5162  2.1852  1.0741
  274TMC3    C1 4136   2.845   4.223  11.530  0.0295 -0.2769 -0.0501
  274TMC3    C2 4137   2.755   4.194  11.427 -0.1517 -0.1484  0.0111
  274TMC3    C3 4138   2.757   4.281  11.316  0.1164 -0.6179 -0.8973
  274TMC3    C4 4139   2.933   4.324  11.527  0.0721 -0.9247 -0.3710
  274TMC3    C5 4140   2.935   4.402  11.417 -0.1627 -0.3287  0.7901
  274TMC3    C6 4141   2.851   4.380  11.307  0.6196  1.0334  0.9386
  274TMC3     C 4142   2.856   4.130  11.640 -0.3263  0.3113 -0.2007
  274TMC3     O 4143   2.966   4.134  11.692 -0.1094  0.5155  0.4297
  274TMC3     H 4144   2.695   4.105  11.439 -1.2058  0.2081 -2.3893
  274TMC3    H1 4145   2.981   4.342  11.622  0.4567  2.0066 -1.1341
  274TMC3    H2 4146   2.841   4.456  11.231 -3.2146  0.0233  0.4232
  274TMC3    C7 4147   3.020   4.518  11.404  0.0486  0.3784 -0.3463
  274TMC3    C8 4148   2.635   4.296  11.241  0.0325  0.0985  0.4974
  274TMC3    O1 4149   2.989   4.607  11.327  0.5751 -0.3863 -0.4163
  274TMC3    O2 4150   2.652   4.366  11.145 -0.0879 -0.0553  0.5179
  275MPD2     C 4151   3.021   2.643  14.177 -0.6091  0.0964  0.0493
  275MPD2    C1 4152   3.007   2.549  14.282 -0.3842  0.1607 -0.7476
  275MPD2    C2 4153   2.890   2.471  14.278 -0.7473 -0.5038  0.0466
  275MPD2    C3 4154   2.801   2.480  14.175  0.0540  0.1036  0.4732
  275MPD2    C4 4155   2.831   2.561  14.062  0.0359  0.4455  0.4056
  275MPD2    C5 4156   2.942   2.638  14.066  0.2727  0.3631  0.4865
  275MPD2     H 4157   2.866   2.407  14.362 -0.9770 -0.6294 -0.1160
  275MPD2    H1 4158   2.769   2.565  13.973 -0.2577  3.0310  0.7247
  275MPD2    H2 4159   3.100   2.716  14.172 -2.4209  2.0544  0.1857
  275MPD2    H3 4160   2.964   2.698  13.978 -1.5331 -0.3996 -0.4728
  275MPD2     N 4161   2.685   2.402  14.182  0.4256 -0.1261 -0.0975
  275MPD2    H5 4162   2.671   2.346  14.266 -2.3117 -1.6153 -1.5599
  275MPD2    N1 4163   3.093   2.534  14.394 -0.2255  0.2085 -0.5665
  275MPD2    H7 4164   3.070   2.463  14.462 -0.2764  1.4453  0.7162
  276TMC3    C1 4165   3.255   2.608  14.549  0.5094 -0.1148 -0.1104
  276TMC3    C2 4166   3.167   2.576  14.652  0.1689 -0.6693  0.6696
  276TMC3    C3 4167   3.219   2.572  14.779  0.1591  0.2977  0.2844
  276TMC3    C4 4168   3.390   2.626  14.564 -0.5579  0.2339  0.4759
  276TMC3    C5 4169   3.429   2.619  14.697  0.2549 -0.3028  0.0680
  276TMC3    C6 4170   3.352   2.593  14.805  1.1836 -0.0211 -0.1245
  276TMC3     C 4171   3.191   2.630  14.424 -0.4360 -0.5194 -0.2579
  276TMC3     O 4172   3.232   2.729  14.358  0.0121  0.2912  0.2528
  276TMC3     H 4173   3.059   2.577  14.639 -0.1199 -0.0137  3.0799
  276TMC3    H1 4174   3.453   2.635  14.477 -0.6180  0.5931  0.4709
  276TMC3    H2 4175   3.392   2.591  14.905 -0.3512 -0.9662  0.4811
  276TMC3    C7 4176   3.555   2.681  14.730 -0.4374  0.5265 -0.2508
  276TMC3    C8 4177   3.131   2.521  14.882 -0.1231 -0.3528  0.5258
  276TMC3    O1 4178   3.591   2.679  14.848  0.5324 -0.1021 -0.0173
  276TMC3    O2 4179   3.012   2.533  14.868 -0.1662  0.2941 -0.4401
  277MPD2     C 4180   0.038   1.700  12.981  0.0759 -0.0866 -0.3676
  277MPD2    C1 4181   4.673   1.734  13.078 -0.5314 -0.3762 -0.5016
  277MPD2    C2 4182   4.619   1.634  13.159  0.2913 -0.4864  0.2041
  277MPD2    C3 4183   4.663   1.502  13.146  0.3181  0.1630  0.3794
  277MPD2    C4 4184   0.032   1.470  13.052 -0.2811 -0.6331  0.7316
  277MPD2    C5 4185   0.082   1.567  12.968 -0.5067  0.2617 -0.0861
  277MPD2     H 4186   4.536   1.652  13.227  0.4627 -1.3582  0.6489
  277MPD2    H1 4187   0.065   1.367  13.040 -2.1940 -1.2478  0.7400
  277MPD2    H2 4188   0.070   1.773  12.907  1.8612  0.1924  0.6889
  277MPD2    H3 4189   0.144   1.533  12.885 -1.4901 -0.4403 -0.5325
  277MPD2     N 4190   4.620   1.410  13.240 -0.1160 -0.0729  0.1461
  277MPD2    H5 4191   4.590   1.452  13.328  0.8680 -0.3856  0.6333
  277MPD2    N1 4192   4.618   1.868  13.078 -0.2807  0.6815  0.0171
  277MPD2    H7 4193   4.656   1.924  13.002  2.5118  1.7587  2.2078
  278TMC3    C1 4194   4.560   1.202  13.336  0.1866 -0.3130  0.3156
  278TMC3    C2 4195   4.526   1.071  13.310  0.3783  0.2595 -1.0273
  278TMC3    C3 4196   4.447   1.001  13.398 -1.0586 -0.4386  0.5435
  278TMC3    C4 4197   4.528   1.261  13.451 -0.0943 -0.1054  0.0264
  278TMC3    C5 4198   4.431   1.198  13.526  0.6939 -0.3255  0.1022
  278TMC3    C6 4199   4.399   1.064  13.510 -0.0959 -0.0812  0.2013
  278TMC3     C 4200   4.626   1.276  13.228  0.7411  0.2096 -0.4526
  278TMC3     O 4201   4.660   1.215  13.130  0.2618 -0.2314  0.0232
  278TMC3     H 4202   4.555   1.036  13.211  3.8359 -1.8306  0.7095
  278TMC3    H1 4203   4.556   1.363  13.475  0.2970 -0.8962  3.0321
  278TMC3    H2 4204   4.311   1.021  13.556  0.0935  0.2209  0.8374
  278TMC3    C7 4205   4.333   1.290  13.583  0.3686  0.4926  0.3857
  278TMC3    C8 4206   4.383   0.884  13.347  0.0229 -0.0189 -0.3383
  278TMC3    O1 4207   4.383   1.397  13.618  0.2156 -0.0302  0.3230
  278TMC3    O2 4208   4.376   0.876  13.224 -0.7558  0.0552 -0.7147
  279MPD2     C 4209   3.541   1.351   0.757 -1.0176 -0.1798  0.9772
  279MPD2    C1 4210   3.484   1.383   0.635  0.7981  0.1040  0.3539
  279MPD2    C2 4211   3.558   1.354   0.522 -0.5702 -0.1484 -0.3291
  279MPD2    C3 4212   3.680   1.285   0.528  0.9043  0.2626  0.1498
  279MPD2    C4 4213   3.737   1.261   0.653  0.3104 -0.6938 -0.3422
  279MPD2    C5 4214   3.655   1.277   0.759 -1.0009 -0.1479 -0.4082
  279MPD2     H 4215   3.532   1.397   0.426 -1.3263  0.4279  0.1324
  279MPD2    H1 4216   3.824   1.197   0.659  0.1459 -1.0286 -1.5641
  279MPD2    H2 4217   3.495   1.363   0.855 -1.3605 -2.2252  1.0679
  279MPD2    H3 4218   3.689   1.251   0.859 -1.7380 -1.9742 -0.6327
  279MPD2     N 4219   3.753   1.237   0.417  0.5365 -0.5906  0.0649
  279MPD2    H5 4220   3.831   1.176   0.441 -0.8964 -2.2178  0.5807
  279MPD2    N1 4221   3.368   1.468   0.631  0.4590 -0.0394  0.4400
  279MPD2    H7 4222   3.370   1.516   0.720  2.4496 -3.5002  2.2847
  280TMC3    C1 4223   3.252   1.416   0.428  0.0638  0.2741  0.3165
  280TMC3    C2 4224   3.251   1.282   0.455 -0.7009  0.4018  0.2229
  280TMC3    C3 4225   3.192   1.200   0.369 -0.3887  0.3401 -0.0711
  280TMC3    C4 4226   3.207   1.469   0.314 -0.1022  0.1851  0.0361
  280TMC3    C5 4227   3.149   1.384   0.227  0.0480  0.3758  0.2048
  280TMC3    C6 4228   3.141   1.246   0.253 -0.4261 -0.4288 -0.4006
  280TMC3     C 4229   3.282   1.508   0.535  0.0096 -0.4247  0.6450
  280TMC3     O 4230   3.218   1.613   0.534 -0.0800  0.3598 -0.1307
  280TMC3     H 4231   3.278   1.245   0.553  1.3116 -0.0683 -0.5140
  280TMC3    H1 4232   3.209   1.577   0.299 -0.4040  0.4236  1.6851
  280TMC3    H2 4233   3.099   1.180   0.178 -2.0498 -0.8654  0.8954
  280TMC3    C7 4234   3.122   1.426   0.093 -0.0271 -0.4453  0.1637
  280TMC3    C8 4235   3.256   1.071   0.351 -0.0203  0.2517 -0.2291
  280TMC3    O1 4236   3.030   1.370   0.038  0.0749  0.4789 -0.6869
  280TMC3    O2 4237   3.189   0.982   0.301 -0.8198  0.4530 -0.1721
  281TMC3    C1 4238   2.870   1.725  13.457 -0.3514 -0.4044 -0.1610
  281TMC3    C2 4239   2.884   1.730  13.322 -0.4756 -0.4825  0.4917
  281TMC3    C3 4240   2.876   1.620  13.250  0.2741 -0.1018  0.0356
  281TMC3    C4 4241   2.837   1.614  13.525 -0.8064 -0.8035 -0.2292
  281TMC3    C5 4242   2.840   1.502  13.451 -0.0585  0.3098  0.4236
  281TMC3    C6 4243   2.858   1.504  13.320 -0.9331  0.4844  0.3903
  281TMC3     C 4244   2.836   1.835  13.536  0.6960  0.0069  0.3688
  281TMC3     O 4245   2.909   1.881  13.625 -0.4532 -0.7461 -0.3296
  281TMC3     H 4246   2.894   1.828  13.277 -3.2803 -1.2115 -1.6943
  281TMC3    H1 4247   2.803   1.620  13.628  0.3232 -0.7485  0.1362
  281TMC3    H2 4248   2.852   1.416  13.258  1.1689 -0.3679  1.4011
  281TMC3    C7 4249   2.743   1.404  13.495 -0.9900 -0.2968 -0.7258
  281TMC3    C8 4250   2.777   1.628  13.145  0.5520  0.2849  0.0919
  281TMC3    O1 4251   2.705   1.404  13.608  0.4323  0.0682  0.4585
  281TMC3    O2 4252   2.696   1.538  13.147  0.4057 -0.1425 -0.0830
  282MPD2     C 4253   4.519   2.914  14.787  0.0564  1.2486 -0.2260
  282MPD2    C1 4254   4.471   3.045  14.789 -0.1086  0.1274 -0.0792
  282MPD2    C2 4255   4.403   3.092  14.684 -0.2080  0.2537 -0.6818
  282MPD2    C3 4256   4.360   3.016  14.578 -0.5762  0.1614  0.8139
  282MPD2    C4 4257   4.405   2.885  14.570 -0.1070 -0.4129  0.0053
  282MPD2    C5 4258   4.486   2.841  14.674 -0.4797 -0.4465  0.0991
  282MPD2     H 4259   4.368   3.194  14.684  0.7812  0.5921 -0.2203
  282MPD2    H1 4260   4.381   2.808  14.496 -1.0113  0.8534 -1.0249
  282MPD2    H2 4261   4.590   2.873  14.857  0.6197  2.2361 -0.2094
  282MPD2    H3 4262   4.527   2.742  14.657 -0.1547 -0.4138  0.6940
  282MPD2     N 4263   4.269   3.069  14.479 -0.3408 -0.2639 -0.0643
  282MPD2    H5 4264   4.225   3.160  14.488  1.4627  0.7181 -1.1603
  282MPD2    N1 4265   4.507   3.125  14.904 -0.1712 -0.4620 -0.2645
  282MPD2    H7 4266   4.557   3.069  14.973 -1.6960 -0.6307  0.6878
  283TMC3    C1 4267   4.546   3.295  15.054  0.1912  0.7201 -0.3073
  283TMC3    C2 4268   4.590   3.422  15.076  0.6435 -0.4946  0.1150
  283TMC3    C3 4269   4.638   3.448  15.202 -0.2611 -0.2199 -0.5367
  283TMC3    C4 4270   4.530   3.207  15.159  0.6813 -0.3624 -0.8690
  283TMC3    C5 4271   4.586   3.237  15.276 -0.6764 -0.7292 -0.7690
  283TMC3    C6 4272   4.647   3.350  15.294 -0.5385  0.1151  0.2014
  283TMC3     C 4273   4.501   3.259  14.921 -0.1901 -0.0344  0.6711
  283TMC3     O 4274   4.475   3.353  14.849 -0.0485 -0.0039 -0.4724
  283TMC3     H 4275   4.592   3.491  14.993  2.7161 -1.1321 -0.3604
  283TMC3    H1 4276   4.465   3.121  15.148  0.3505 -0.1350 -0.6971
  283TMC3    H2 4277   4.714   3.369  15.377  0.4813 -0.6427 -0.4591
  283TMC3    C7 4278   4.526   3.171  15.390 -0.4077  0.4824 -0.5467
  283TMC3    C8 4279   4.722   3.561  15.222  0.3656  0.5281  0.5550
  283TMC3    O1 4280   4.427   3.104  15.378 -0.3057 -0.4646  0.5478
  283TMC3    O2 4281   0.086   3.552  15.309 -0.2427  0.3038 -0.5009
  284MPD2     C 4282   2.265   2.348  11.166  1.0627  0.4696 -0.2597
  284MPD2    C1 4283   2.389   2.298  11.213 -0.1590  0.0438  0.3028
  284MPD2    C2 4284   2.396   2.170  11.262 -0.1586  0.1061 -0.0378
  284MPD2    C3 4285   2.285   2.087  11.253 -0.5130 -0.0585 -0.3503
  284MPD2    C4 4286   2.171   2.136  11.202 -0.3742 -0.6278  0.9847
  284MPD2    C5 4287   2.157   2.264  11.166 -0.4819  0.6266 -0.1080
  284MPD2     H 4288   2.492   2.131  11.295  0.4750  1.6831 -0.0264
  284MPD2    H1 4289   2.082   2.075  11.208 -0.3117 -0.8499 -0.3602
  284MPD2    H2 4290   2.240   2.449  11.136 -1.6079  0.4504  1.9234
  284MPD2    H3 4291   2.055   2.287  11.137 -1.1894 -0.7950  1.2226
  284MPD2     N 4292   2.285   1.955  11.289  0.5464  0.3695 -0.5039
  284MPD2    H5 4293   2.215   1.892  11.252  0.5496  0.2457 -0.3029
  284MPD2    N1 4294   2.505   2.384  11.201  0.3704 -0.0261 -0.2942
  284MPD2    H7 4295   2.593   2.344  11.230 -0.1162 -0.1204  1.0427
  285TMC3    C1 4296   2.646   2.520  11.069  0.7110 -0.6218 -0.4758
  285TMC3    C2 4297   2.734   2.414  11.064 -0.2926  0.1036 -0.5735
  285TMC3    C3 4298   2.867   2.439  11.044  0.1043 -0.3718  0.0167
  285TMC3    C4 4299   2.687   2.647  11.041 -0.0012 -0.7186 -0.4210
  285TMC3    C5 4300   2.819   2.670  11.029  1.0345  0.3221 -0.1621
  285TMC3    C6 4301   2.908   2.572  11.028 -0.2432  0.2973 -0.0703
  285TMC3     C 4302   2.510   2.497  11.124 -0.2989  0.3233  0.1313
  285TMC3     O 4303   2.422   2.575  11.092  0.1483  0.5568 -0.4631
  285TMC3     H 4304   2.699   2.312  11.054  1.0923 -0.4734  0.4673
  285TMC3    H1 4305   2.615   2.728  11.048  1.5167  0.6518 -0.6285
  285TMC3    H2 4306   3.005   2.593  10.984  1.0784  1.3083  3.3866
  285TMC3    C7 4307   2.858   2.804  11.003 -0.0891 -0.1502 -0.0521
  285TMC3    C8 4308   2.937   2.345  10.954 -0.0554  0.6399  0.4122
  285TMC3    O1 4309   2.960   2.845  11.057  0.5579 -0.7867  0.0531
  285TMC3    O2 4310   2.874   2.280  10.871 -0.0190  0.1184 -0.1963
  286MPD2     C 4311   2.858   1.081   2.419  0.2649  0.0196  0.0613
  286MPD2    C1 4312   2.814   1.103   2.288 -0.2971 -0.2426 -0.0257
  286MPD2    C2 4313   2.888   1.055   2.177  0.3400  0.2169  0.3723
  286MPD2    C3 4314   3.004   0.983   2.202  0.3898 -0.2337  0.5168
  286MPD2    C4 4315   3.055   0.992   2.332  0.4687 -0.2778  0.4556
  286MPD2    C5 4316   2.980   1.029   2.440  0.0934  0.3874 -0.3844
  286MPD2     H 4317   2.867   1.066   2.072 -0.5494 -1.9074  0.3246
  286MPD2    H1 4318   3.150   0.942   2.352  2.0946  1.8630 -1.8738
  286MPD2    H2 4319   2.793   1.103   2.503 -0.0387  0.9622 -0.4171
  286MPD2    H3 4320   3.021   1.006   2.538 -1.1093 -0.8980 -0.1861
  286MPD2     N 4321   3.065   0.913   2.098  0.0740 -0.4938  0.3443
  286MPD2    H5 4322   3.150   0.867   2.129 -1.0883 -2.3799  0.7223
  286MPD2    N1 4323   2.690   1.158   2.256  0.3643  0.3690 -0.0840
  286MPD2    H7 4324   2.671   1.169   2.157  2.4575  1.6605 -0.3436
  287TMC3    C1 4325   3.116   0.809   1.894  0.2116 -0.1988  0.1411
  287TMC3    C2 4326   3.068   0.759   1.775  0.4163  0.7713  0.3952
  287TMC3    C3 4327   3.153   0.690   1.689 -0.6942  0.0873 -0.3716
  287TMC3    C4 4328   3.250   0.802   1.922  0.2170  1.4803  0.4506
  287TMC3    C5 4329   3.330   0.743   1.828  0.0242  0.4313  0.6163
  287TMC3    C6 4330   3.286   0.685   1.714 -0.2625  0.5420 -0.0786
  287TMC3     C 4331   3.028   0.895   1.968  0.0840  0.3594 -0.5577
  287TMC3     O 4332   2.942   0.943   1.896 -0.0298 -0.5067 -0.0917
  287TMC3     H 4333   2.962   0.774   1.755 -0.2441  1.1902  4.1555
  287TMC3    H1 4334   3.294   0.844   2.012  0.1501  1.0588  0.6771
  287TMC3    H2 4335   3.355   0.652   1.637  0.7375  0.6042  0.7790
  287TMC3    C7 4336   3.474   0.750   1.854  0.3244  0.5270  0.4490
  287TMC3    C8 4337   3.102   0.657   1.558  0.6415  0.1366 -0.2976
  287TMC3    O1 4338   3.511   0.847   1.919 -0.0595  0.2121 -0.2125
  287TMC3    O2 4339   2.982   0.643   1.541 -0.0381  1.0292 -0.1828
  288TMC3    C1 4340   0.238   0.886  13.887 -0.1891  0.4448  0.3891
  288TMC3    C2 4341   0.121   0.900  13.956  0.5747  0.2638  0.7172
  288TMC3    C3 4342   0.015   0.954  13.889 -0.4366 -0.2127 -0.1966
  288TMC3    C4 4343   0.250   0.915  13.753 -0.6937 -0.3363 -0.1784
  288TMC3    C5 4344   0.137   0.967  13.692  0.6767  0.2882  0.5469
  288TMC3    C6 4345   0.016   0.977  13.757  0.2302 -0.1518 -0.2919
  288TMC3     C 4346   0.355   0.834  13.957  0.3160 -0.2869  0.3937
  288TMC3     O 4347   0.463   0.869  13.923  0.3165  0.3749  0.1837
  288TMC3     H 4348   0.112   0.905  14.064 -0.1398  1.5374  0.5986
  288TMC3    H1 4349   0.334   0.891  13.688 -1.1222 -1.1583 -0.4298
  288TMC3    H2 4350   4.663   1.036  13.711 -0.5880  0.7940  2.3028
  288TMC3    C7 4351   0.139   1.008  13.555  0.0464  0.0991  0.0224
  288TMC3    C8 4352   4.618   0.987  13.957  0.6828  0.0941 -0.1721
  288TMC3    O1 4353   0.031   1.015  13.506  0.0988 -0.1222  0.2696
  288TMC3    O2 4354   4.547   1.071  13.907  0.5196  0.1673 -0.2486
  289MPD2     C 4355   0.265   0.022  14.309  0.8565 -0.8857 -0.7894
  289MPD2    C1 4356   0.236   0.135  14.226  0.7784 -0.3594  0.4219
  289MPD2    C2 4357   0.104   0.175  14.204  0.2444 -0.2528  0.0199
  289MPD2    C3 4358   0.002   0.103  14.263  0.2637  0.2992  0.3300
  289MPD2    C4 4359   0.030   4.710  14.333 -0.7475 -0.2757  0.1809
  289MPD2    C5 4360   0.162   4.669  14.356 -0.5850  0.5852 -0.1034
  289MPD2     H 4361   0.087   0.251  14.129  0.8130 -0.3194 -0.1690
  289MPD2    H1 4362   4.684   4.642  14.379 -0.2280  0.2198  1.7334
  289MPD2    H2 4363   0.367   4.714  14.325  0.6156 -1.8820 -1.3181
  289MPD2    H3 4364   0.176   4.575  14.409  0.0147  0.2342 -0.8637
  289MPD2     N 4365   4.595   0.146  14.258  0.1499  0.1577 -0.3405
  289MPD2    H5 4366   4.528   0.075  14.286 -1.8642  1.3908 -2.0240
  289MPD2    N1 4367   0.352   0.199  14.176  0.1330 -0.2013 -0.3165
  289MPD2    H7 4368   0.436   0.144  14.195  1.5461  1.7924 -0.8054
  290TMC3    C1 4369   4.406   0.258  14.205  0.3937 -0.6752 -0.2390
  290TMC3    C2 4370   4.342   0.380  14.201  0.2249  0.3827 -0.0628
  290TMC3    C3 4371   4.220   0.386  14.137 -0.1004  0.1581  0.2144
  290TMC3    C4 4372   4.347   0.146  14.153  0.1902  0.4221  0.0145
  290TMC3    C5 4373   4.218   0.155  14.101 -0.2961  0.8456 -0.3086
  290TMC3    C6 4374   4.157   0.276  14.087 -0.8512  0.0213 -0.3993
  290TMC3     C 4375   4.551   0.260  14.215  0.0020 -0.5431 -0.7373
  290TMC3     O 4376   4.610   0.367  14.208  0.4012 -0.8430  0.0918
  290TMC3     H 4377   4.396   0.471  14.224  2.4627 -0.8646 -0.3293
  290TMC3    H1 4378   4.403   0.054  14.142 -2.1438 -0.8678 -0.9525
  290TMC3    H2 4379   4.076   0.292  14.017  0.1968 -0.2491 -1.6740
  290TMC3    C7 4380   4.149   0.058  14.015 -0.5763 -0.3718 -0.4063
  290TMC3    C8 4381   4.214   0.488  14.036  1.0489 -1.0731 -0.3940
  290TMC3    O1 4382   4.029   0.076  13.992 -0.0485 -0.5950  0.5265
  290TMC3    O2 4383   4.222   0.455  13.921 -0.0505 -0.4112 -0.4823
  291MPD2     C 4384   3.669   0.116  17.580 -0.1893  1.3531  0.5658
  291MPD2    C1 4385   3.742   4.718  17.574  0.5830  0.2680 -0.8652
  291MPD2    C2 4386   3.855   4.712  17.495 -0.0525 -0.1392  0.2790
  291MPD2    C3 4387   3.902   0.091  17.418 -0.3525 -0.7794  0.1434
  291MPD2    C4 4388   3.826   0.207  17.420 -0.5996  0.1429  0.4116
  291MPD2    C5 4389   3.722   0.221  17.507 -0.1434 -0.2171  0.2918
  291MPD2     H 4390   3.903   4.614  17.489 -0.9760 -0.6682  1.4820
  291MPD2    H1 4391   3.859   0.286  17.353 -0.8640 -0.3024 -0.2380
  291MPD2    H2 4392   3.574   0.133  17.629  1.1882 -1.0165  4.0578
  291MPD2    H3 4393   3.660   0.310  17.516  3.0674  2.2796 -2.0485
  291MPD2     N 4394   4.015   0.091  17.336 -0.7716 -0.5298  0.1105
  291MPD2    H5 4395   4.040   0.170  17.277 -1.0307 -0.7138 -0.2445
  291MPD2    N1 4396   3.693   4.598  17.623 -0.4928  0.4764 -1.1653
  291MPD2    H7 4397   3.760   4.521  17.630  0.0990  0.9897 -1.1774
  292TMC3    C1 4398   3.557   4.426   0.008 -0.0905  0.2660  0.3154
  292TMC3    C2 4399   3.436   4.399   0.065  0.1673 -0.6352 -0.3980
  292TMC3    C3 4400   3.380   4.275   0.052 -0.0398 -0.1635 -0.1263
  292TMC3    C4 4401   3.625   4.332  17.636 -0.5894 -0.7895  0.5182
  292TMC3    C5 4402   3.564   4.211  17.629  0.6011  0.1174  0.0248
  292TMC3    C6 4403   3.447   4.176  17.683  0.3548  0.1323  0.3306
  292TMC3     C 4404   3.569   4.565  17.672 -0.0710 -0.4136  0.1867
  292TMC3     O 4405   3.475   4.646  17.676  0.4049 -0.3363  0.6371
  292TMC3     H 4406   3.388   4.473   0.128  0.5730 -1.8570  1.3523
  292TMC3    H1 4407   3.722   4.343  17.589 -0.7261  0.4532  0.5291
  292TMC3    H2 4408   3.418   4.072  17.677 -0.2894  0.4143 -1.4430
  292TMC3    C7 4409   3.609   4.138  17.513  0.5647  0.1839 -0.7221
  292TMC3    C8 4410   3.259   4.248   0.129 -0.2797 -0.5099  0.1944
  292TMC3    O1 4411   3.728   4.104  17.516 -0.0932 -0.6198  0.0428
  292TMC3    O2 4412   3.230   4.326   0.215 -0.2316 -0.1522 -0.1066
  293MPD2     C 4413   1.422   1.133  12.386 -0.5313  0.3703  0.4140
  293MPD2    C1 4414   1.352   1.060  12.477  0.0127  0.0862 -0.7097
  293MPD2    C2 4415   1.340   1.114  12.605  0.2816  0.0680  0.3804
  293MPD2    C3 4416   1.408   1.227  12.644 -0.4292 -0.2183  0.3152
  293MPD2    C4 4417   1.473   1.298  12.550  0.3542  0.4735 -0.7891
  293MPD2    C5 4418   1.484   1.253  12.426  0.1594  0.3254  0.1950
  293MPD2     H 4419   1.286   1.064  12.684  0.3590  1.1754  1.1360
  293MPD2    H1 4420   1.534   1.385  12.574 -0.3569  0.4849  0.9621
  293MPD2    H2 4421   1.419   1.100  12.282  1.2308  0.1060  0.4425
  293MPD2    H3 4422   1.546   1.313  12.361  0.2761 -0.9338 -0.8545
  293MPD2     N 4423   1.409   1.260  12.781 -0.4986 -0.1147  0.5280
  293MPD2    H5 4424   1.358   1.193  12.839  1.1543 -2.3310 -0.5874
  293MPD2    N1 4425   1.289   0.942  12.435 -0.6576  0.1170  0.4340
  293MPD2    H7 4426   1.269   0.929  12.336 -2.5208  1.0495  0.6908
  294TMC3    C1 4427   1.162   0.749  12.449 -0.4063 -1.1462 -0.3352
  294TMC3    C2 4428   1.114   0.639  12.527  0.0214  0.0237  0.2157
  294TMC3    C3 4429   1.014   0.562  12.472 -0.3496 -0.8344  0.6462
  294TMC3    C4 4430   1.122   0.772  12.321  0.0407 -0.1557  0.8638
  294TMC3    C5 4431   1.030   0.676  12.277 -0.8844  0.1221 -0.4348
  294TMC3    C6 4432   0.972   0.577  12.348 -0.1110  0.3125 -0.8190
  294TMC3     C 4433   1.244   0.845  12.520  0.1237  0.6633 -0.1558
  294TMC3     O 4434   1.270   0.831  12.636 -0.8627 -0.4132 -0.5570
  294TMC3     H 4435   1.146   0.613  12.627 -0.0994 -1.1711 -0.0521
  294TMC3    H1 4436   1.162   0.846  12.253  1.1234  0.1218  1.7940
  294TMC3    H2 4437   0.893   0.524  12.295  0.4928 -0.7576 -0.6309
  294TMC3    C7 4438   0.977   0.690  12.143 -0.3539 -0.9399 -0.1027
  294TMC3    C8 4439   0.961   0.447  12.550  0.8410 -0.8693  0.2517
  294TMC3    O1 4440   0.858   0.677  12.125 -1.0629  0.1650 -0.2021
  294TMC3    O2 4441   1.036   0.401  12.639 -0.4181 -0.0513 -0.3550
  295MPD2     C 4442   1.397   4.226   0.186 -0.0606 -0.4483  0.6655
  295MPD2    C1 4443   1.489   4.309   0.235 -0.6476 -0.1178 -0.6909
  295MPD2    C2 4444   1.453   4.399   0.329 -0.2883  0.4252  0.4304
  295MPD2    C3 4445   1.323   4.403   0.378  0.9716 -0.3713 -0.2030
  295MPD2    C4 4446   1.233   4.327   0.316 -0.0523  0.7042  0.3985
  295MPD2    C5 4447   1.266   4.239   0.216  0.1646  0.3308 -0.4807
  295MPD2     H 4448   1.519   4.477   0.366  0.2659  0.2408 -0.1794
  295MPD2    H1 4449   1.128   4.336   0.340 -0.2693 -0.4465 -0.1199
  295MPD2    H2 4450   1.428   4.153   0.112 -1.4084  0.2319 -0.5590
  295MPD2    H3 4451   1.179   4.191   0.174 -0.3290  0.7619  0.0531
  295MPD2     N 4452   1.280   4.484   0.475  0.2494 -0.4317 -0.4171
  295MPD2    H5 4453   1.179   4.494   0.479  0.3415  0.9812 -1.5186
  295MPD2    N1 4454   1.627   4.310   0.197 -0.0518  0.2388 -0.8610
  295MPD2    H7 4455   1.693   4.374   0.240 -0.6615  0.0075  0.3929
  296TMC3    C1 4456   1.291   4.634   0.661 -0.1160  0.3787  0.3499
  296TMC3    C2 4457   1.361   4.721   0.738 -0.3239 -0.1946  0.1191
  296TMC3    C3 4458   1.323   0.017   0.873  0.4131 -0.3626  0.2928
  296TMC3    C4 4459   1.188   4.567   0.709  0.2833  0.3126 -0.4799
  296TMC3    C5 4460   1.149   4.589   0.838  0.6486  0.2153 -1.2820
  296TMC3    C6 4461   1.218   4.677   0.922 -0.2307 -0.2097  0.0841
  296TMC3     C 4462   1.358   4.567   0.557  0.0201  0.0047  0.3597
  296TMC3     O 4463   1.480   4.581   0.565  0.7168 -0.6775 -0.1613
  296TMC3     H 4464   1.446   0.052   0.702 -0.7396  0.5841  0.3485
  296TMC3    H1 4465   1.124   4.500   0.651  0.0080  1.3536 -1.3806
  296TMC3    H2 4466   1.174   4.707   1.017 -3.0058 -0.6445 -1.0645
  296TMC3    C7 4467   1.011   4.579   0.864  0.7073  0.7085 -0.7554
  296TMC3    C8 4468   1.356   0.147   0.929  0.4696 -0.4395 -0.1928
  296TMC3    O1 4469   0.936   4.634   0.785 -0.0924 -0.2328  0.2316
  296TMC3    O2 4470   1.407   0.230   0.854 -0.2388  0.1786  0.8861
  297MPD2     C 4471   3.641   2.244  15.611  0.7634  0.1569 -0.5934
  297MPD2    C1 4472   3.635   2.374  15.642  0.7604 -0.1888 -0.1264
  297MPD2    C2 4473   3.751   2.438  15.677  0.0169 -0.0843  0.2892
  297MPD2    C3 4474   3.872   2.368  15.683  0.1994 -0.7698 -0.9189
  297MPD2    C4 4475   3.877   2.230  15.654  0.5153  0.1667 -0.1015
  297MPD2    C5 4476   3.755   2.168  15.628 -0.1289 -0.1226  0.2588
  297MPD2     H 4477   3.743   2.541  15.709 -2.6096  0.2477 -1.3496
  297MPD2    H1 4478   3.971   2.177  15.669  0.5396  0.1532 -0.3077
  297MPD2    H2 4479   3.552   2.192  15.577  0.6305  0.5852 -0.8898
  297MPD2    H3 4480   3.756   2.063  15.601 -0.1151 -0.0721  0.0622
  297MPD2     N 4481   3.986   2.436  15.738 -0.4724 -0.5006 -0.5650
  297MPD2    H5 4482   3.961   2.524  15.781 -0.6953 -1.6209  1.5951
  297MPD2    N1 4483   3.513   2.443  15.645 -0.5358  0.1096 -0.2084
  297MPD2    H7 4484   3.524   2.543  15.658  1.4782 -0.1271 -0.1563
  298TMC3    C1 4485   3.283   2.477  15.647  0.1031  0.7863 -0.0052
  298TMC3    C2 4486   3.276   2.564  15.540  0.2478  0.2810  0.1060
  298TMC3    C3 4487   3.153   2.599  15.501 -0.4098  0.1891  0.2853
  298TMC3    C4 4488   3.171   2.439  15.716  0.5847 -0.3980 -0.0705
  298TMC3    C5 4489   3.051   2.495  15.681  1.4935 -0.2854  0.4919
  298TMC3    C6 4490   3.041   2.572  15.577  0.1706  0.2071 -0.0173
  298TMC3     C 4491   3.394   2.384  15.667 -0.6493  0.4760 -0.3448
  298TMC3     O 4492   3.379   2.276  15.720  0.8213  0.2718  0.3896
  298TMC3     H 4493   3.366   2.581  15.482 -0.5791 -1.7630 -1.8018
  298TMC3    H1 4494   3.173   2.367  15.796 -0.8884 -2.0354 -1.4858
  298TMC3    H2 4495   2.948   2.615  15.543 -1.2091 -0.6587  2.7226
  298TMC3    C7 4496   2.934   2.420  15.721  0.3587  0.5682 -0.1528
  298TMC3    C8 4497   3.125   2.673  15.377  0.1334 -0.2110 -0.0235
  298TMC3    O1 4498   2.944   2.335  15.807  0.2089  0.3253  0.1517
  298TMC3    O2 4499   3.016   2.725  15.355  0.1351  0.2743  0.4111
  299MPD2     C 4500   4.578   1.862   9.853 -0.2577  0.3666 -0.1805
  299MPD2    C1 4501   4.514   1.799   9.950  0.1350  0.3384  0.8754
  299MPD2    C2 4502   4.388   1.741   9.919 -0.7140  0.5268  0.2032
  299MPD2    C3 4503   4.342   1.740   9.789 -0.3148 -0.2944 -0.0286
  299MPD2    C4 4504   4.411   1.804   9.684 -0.1797  0.1452 -0.2003
  299MPD2    C5 4505   4.532   1.859   9.719 -0.3667  0.4201  0.6774
  299MPD2     H 4506   4.324   1.695   9.994  1.0138  0.2328  1.4879
  299MPD2    H1 4507   4.377   1.819   9.582 -0.0195 -1.2359 -0.4564
  299MPD2    H2 4508   4.677   1.904   9.868  0.5477 -0.8931 -1.8424
  299MPD2    H3 4509   4.592   1.909   9.645 -0.1022  0.6518  1.0494
  299MPD2     N 4510   4.210   1.708   9.752  0.4795  0.6035 -0.3232
  299MPD2    H5 4511   4.171   1.746   9.666 -0.4843 -3.1395 -1.5302
  299MPD2    N1 4512   4.576   1.792  10.073  0.1561  0.2684 -0.1022
  299MPD2    H7 4513   4.671   1.828  10.080 -0.3344  1.7571 -1.0520
  300TMC3    C1 4514   3.991   1.627   9.777  0.3913  0.0034  0.1197
  300TMC3    C2 4515   3.944   1.755   9.771 -0.6925 -0.2426  0.2420
  300TMC3    C3 4516   3.817   1.772   9.821 -0.2043 -0.5371  0.3143
  300TMC3    C4 4517   3.917   1.518   9.806 -0.7159 -0.4496  0.8381
  300TMC3    C5 4518   3.801   1.538   9.868  0.0920 -0.0832  0.0623
  300TMC3    C6 4519   3.747   1.660   9.868 -0.8392 -0.8011  0.4825
  300TMC3     C 4520   4.128   1.621   9.818 -0.3804 -0.0406  0.1257
  300TMC3     O 4521   4.156   1.542   9.907 -0.1866 -0.4857  0.1363
  300TMC3     H 4522   4.004   1.844   9.753  0.0451 -0.7929  0.0052
  300TMC3    H1 4523   3.959   1.418   9.813 -1.6935 -0.8053  1.6344
  300TMC3    H2 4524   3.649   1.677   9.912 -0.8657 -1.3797  0.6548
  300TMC3    C7 4525   3.738   1.428   9.935  0.1866 -0.4709 -0.0540
  300TMC3    C8 4526   3.798   1.891   9.898 -0.4422  0.6349  0.1061
  300TMC3    O1 4527   3.754   1.318   9.877 -0.0103  0.3484  0.3691
  300TMC3    O2 4528   3.907   1.939   9.932  0.2664 -0.1072 -0.4621
  301MPD2     C 4529   0.680   2.945   1.765  0.5797 -0.3880 -0.2758
  301MPD2    C1 4530   0.554   2.932   1.697  0.4548  0.7823  0.1717
  301MPD2    C2 4531   0.508   2.802   1.668  0.0732 -0.1519 -0.1338
  301MPD2    C3 4532   0.574   2.685   1.712 -0.8924 -0.3653  0.7139
  301MPD2    C4 4533   0.687   2.706   1.792  0.2544  0.5510 -0.6649
  301MPD2    C5 4534   0.745   2.831   1.809 -0.1818 -0.4465 -0.3465
  301MPD2     H 4535   0.406   2.797   1.632 -0.1261  1.4115  0.2016
  301MPD2    H1 4536   0.740   2.617   1.826 -1.4293 -0.8745 -1.7813
  301MPD2    H2 4537   0.726   3.038   1.795  0.4766 -0.8949  1.4524
  301MPD2    H3 4538   0.831   2.851   1.871 -1.0400 -1.1225  1.0489
  301MPD2     N 4539   0.537   2.555   1.668  0.1999 -0.2605  0.0759
  301MPD2    H5 4540   0.590   2.472   1.691 -0.3931 -0.2918  1.3602
  301MPD2    N1 4541   0.485   3.048   1.648 -0.0669  0.6999 -0.2030
  301MPD2    H7 4542   0.411   3.032   1.581  0.0922 -1.4212  0.1335
  302TMC3    C1 4543   0.405   2.387   1.556 -0.4720 -0.5033 -1.0341
  302TMC3    C2 4544   0.523   2.326   1.523  0.3362  0.1728  0.2636
  302TMC3    C3 4545   0.520   2.223   1.433 -0.4839  0.0799 -0.3900
  302TMC3    C4 4546   0.285   2.355   1.491  1.0493 -0.0138  0.6938
  302TMC3    C5 4547   0.289   2.250   1.411  0.6993 -0.6931 -0.2834
  302TMC3    C6 4548   0.400   2.178   1.384 -0.0243 -0.7952  0.1795
  302TMC3     C 4549   0.423   2.525   1.598  0.8796  0.5566  0.5897
  302TMC3     O 4550   0.321   2.594   1.578 -0.0242 -0.0633  0.2138
  302TMC3     H 4551   0.623   2.354   1.556  0.2155 -0.8303  1.4822
  302TMC3    H1 4552   0.193   2.409   1.509  1.4651  1.0404 -0.3868
  302TMC3    H2 4553   0.398   2.080   1.338  1.6701 -0.7714  0.0320
  302TMC3    C7 4554   0.164   2.209   1.341  0.1793  0.9265 -0.1548
  302TMC3    C8 4555   0.638   2.187   1.366 -0.8007  0.4558 -0.0711
  302TMC3    O1 4556   0.131   2.088   1.346  0.0731  0.3331  0.9209
  302TMC3    O2 4557   0.744   2.186   1.428  0.1548  1.0946  0.0083
  303MPD2     C 4558   1.326   1.337  10.591 -0.1002 -0.8109 -0.5039
  303MPD2    C1 4559   1.426   1.279  10.521  0.1703 -0.2933 -0.3307
  303MPD2    C2 4560   1.452   1.323  10.389 -0.4695 -0.1766  0.2060
  303MPD2    C3 4561   1.365   1.411  10.326  0.1756 -0.3362  0.2388
  303MPD2    C4 4562   1.252   1.461  10.395  0.1364  0.8333  0.2444
  303MPD2    C5 4563   1.239   1.420  10.524 -0.6923 -0.8671  0.0139
  303MPD2     H 4564   1.546   1.289  10.347  0.5941 -0.1088  2.5322
  303MPD2    H1 4565   1.181   1.531  10.352 -2.1107 -2.2847 -1.1551
  303MPD2    H2 4566   1.297   1.309  10.692 -0.3534  0.2699 -0.2732
  303MPD2    H3 4567   1.155   1.461  10.578  0.1695 -2.7316  2.7302
  303MPD2     N 4568   1.378   1.440  10.188  0.0549  1.1558  0.7789
  303MPD2    H5 4569   1.297   1.484  10.147  0.0556 -0.5822 -1.1063
  303MPD2    N1 4570   1.495   1.177  10.588 -0.2123 -0.8115 -0.3104
  303MPD2    H7 4571   1.479   1.152  10.685  1.6143  2.7039  0.9115
  304TMC3    C1 4572   1.599   0.962  10.594 -0.2102  0.1722  0.1676
  304TMC3    C2 4573   1.575   0.954  10.728  0.0896  0.2978 -0.0683
  304TMC3    C3 4574   1.559   0.829  10.780  0.2594 -0.3823 -0.1987
  304TMC3    C4 4575   1.616   0.846  10.513  0.2846  0.4230 -0.2119
  304TMC3    C5 4576   1.601   0.721  10.569 -0.2178  0.1967  0.4588
  304TMC3    C6 4577   1.569   0.713  10.704  0.0987  0.1919 -0.0744
  304TMC3     C 4578   1.570   1.083  10.520  0.2476 -0.2550  0.1755
  304TMC3     O 4579   1.587   1.082  10.399 -0.0997 -0.1536  0.5142
  304TMC3     H 4580   1.574   1.045  10.787 -0.0300  0.4473 -0.2968
  304TMC3    H1 4581   1.617   0.867  10.407 -1.1932 -0.5359 -0.4107
  304TMC3    H2 4582   1.559   0.614  10.747  1.8901 -0.5086 -1.2836
  304TMC3    C7 4583   1.518   0.635  10.487 -0.0217  0.4110  0.4770
  304TMC3    C8 4584   1.420   0.827  10.831  0.1880  0.1272  0.5440
  304TMC3    O1 4585   1.437   0.691  10.416 -0.6409 -0.1282  0.1789
  304TMC3    O2 4586   1.400   0.906  10.923 -0.9020  0.0808  0.3924
  305MPD2     C 4587   4.463   3.282  13.791  0.0193  0.1118  0.1617
  305MPD2    C1 4588   4.458   3.168  13.864 -1.1138  0.1873  0.2422
  305MPD2    C2 4589   4.394   3.060  13.806 -0.1147  0.2227 -0.0542
  305MPD2    C3 4590   4.342   3.069  13.676  0.8463  0.9786  0.2968
  305MPD2    C4 4591   4.355   3.190  13.612 -0.5652  0.3869  0.1715
  305MPD2    C5 4592   4.416   3.296  13.664 -0.5474 -0.8556  0.2871
  305MPD2     H 4593   4.400   2.963  13.852 -0.7681  0.1896 -0.0430
  305MPD2    H1 4594   4.324   3.197  13.509 -1.4271  0.5227  0.4397
  305MPD2    H2 4595   4.511   3.369  13.833  2.2617 -0.4513 -1.2203
  305MPD2    H3 4596   4.437   3.381  13.599  0.3472 -0.6711  0.8165
  305MPD2     N 4597   4.324   2.955  13.591  0.8392 -0.1639 -0.2904
  305MPD2    H5 4598   4.305   2.975  13.494  1.7290 -0.8477 -0.6145
  305MPD2    N1 4599   4.513   3.170  13.993  0.2986 -0.0501 -0.1865
  305MPD2    H7 4600   4.565   3.251  14.027 -0.5027  1.2522 -1.9953
  306TMC3    C1 4601   4.548   3.101  14.212 -0.0642 -0.4035 -0.7002
  306TMC3    C2 4602   4.656   3.024  14.245 -0.4540 -0.1475  0.0822
  306TMC3    C3 4603   0.014   3.067  14.343 -0.2158  0.1564 -0.1398
  306TMC3    C4 4604   4.529   3.221  14.274 -0.1269 -0.0853 -1.2522
  306TMC3    C5 4605   4.611   3.259  14.375 -0.7330  1.1547  0.2561
  306TMC3    C6 4606   4.717   3.181  14.413  0.4258  0.3044  0.2104
  306TMC3     C 4607   4.493   3.062  14.084 -0.0062 -0.5543 -0.4224
  306TMC3     O 4608   4.470   2.944  14.063  0.4889  0.0613  0.1019
  306TMC3     H 4609   4.675   2.934  14.189 -1.6323 -0.2982 -0.0878
  306TMC3    H1 4610   4.448   3.283  14.237 -0.6052  0.2587  0.3421
  306TMC3    H2 4611   0.069   3.221  14.477  0.8697  0.0531 -0.1732
  306TMC3    C7 4612   4.594   3.399  14.418 -0.3290  0.2907  0.0383
  306TMC3    C8 4613   0.102   2.964  14.409  0.8927 -0.4434  0.0574
  306TMC3    O1 4614   4.531   3.476  14.344  0.3158 -0.0130  0.2405
  306TMC3    O2 4615   0.124   2.863  14.339 -0.4233  0.2828  0.2393
  307MPD2     C 4616   2.237   0.225   0.347  0.4184  0.1493 -0.5424
  307MPD2    C1 4617   2.222   0.340   0.427 -0.2768 -0.3326  0.7966
  307MPD2    C2 4618   2.116   0.345   0.511  0.0829 -0.0932 -0.6404
  307MPD2    C3 4619   2.025   0.240   0.515  0.6129  0.4388  0.3576
  307MPD2    C4 4620   2.037   0.127   0.442 -0.7314 -0.2464  0.0385
  307MPD2    C5 4621   2.145   0.120   0.358 -0.4640  0.1921  0.2837
  307MPD2     H 4622   2.106   0.423   0.586 -2.2654 -1.3630  0.3642
  307MPD2    H1 4623   1.968   0.043   0.448 -0.0081 -0.7508  1.2960
  307MPD2    H2 4624   2.319   0.207   0.279  0.4893 -1.5557  0.0028
  307MPD2    H3 4625   2.152   0.031   0.297  0.7772  0.5094 -0.0268
  307MPD2     N 4626   1.910   0.258   0.599  0.0493 -0.5685 -0.1740
  307MPD2    H5 4627   1.902   0.348   0.646  1.5354 -0.9940  0.8833
  307MPD2    N1 4628   2.315   0.446   0.434 -0.3270  0.2764  0.0609
  307MPD2    H7 4629   2.299   0.521   0.501  0.7614  0.6682 -0.1106
  308TMC3    C1 4630   1.512   0.412   0.578  0.0147  0.0870 -0.5280
  308TMC3    C2 4631   1.534   0.486   0.689  0.3644  0.5144 -0.1569
  308TMC3    C3 4632   1.643   0.456   0.767 -0.3931  0.9642  0.0504
  308TMC3    C4 4633   1.588   0.300   0.548  0.0731  0.0536  0.0221
  308TMC3    C5 4634   1.675   0.259   0.645  0.4675  0.4571  0.7430
  308TMC3    C6 4635   1.712   0.338   0.747 -0.7215  0.3838  0.1162
  308TMC3     C 4636   1.416   0.446   0.482  0.4046  0.8446  0.0859
  308TMC3     O 4637   1.391   0.364   0.393 -0.1782 -0.6305 -0.4823
  308TMC3     H 4638   1.477   0.573   0.723  2.1310  1.8623 -0.6387
  308TMC3    H1 4639   1.572   0.237   0.461  1.8163  1.5012 -1.3431
  308TMC3    H2 4640   1.772   0.301   0.829 -1.3426  1.2027  0.9365
  308TMC3    C7 4641   1.786   0.195   0.580  0.0973  0.8481 -0.0314
  308TMC3    C8 4642   1.661   0.520   0.897 -0.4876  0.3227 -0.3897
  308TMC3    O1 4643   1.758   0.091   0.524  0.0682  0.5782 -0.5350
  308TMC3    O2 4644   1.671   0.452   0.995  0.4040  0.2012  0.0662
  309MPD2     C 4645   1.429   1.436  17.094 -0.1953 -0.1118 -0.0636
  309MPD2    C1 4646   1.370   1.483  16.974  0.4884  0.2855  0.7520
  309MPD2    C2 4647   1.266   1.581  16.983 -0.8034 -0.4065  0.3237
  309MPD2    C3 4648   1.219   1.602  17.113 -0.5007  0.5235 -0.5071
  309MPD2    C4 4649   1.284   1.558  17.225  0.6753  0.4124  0.4367
  309MPD2    C5 4650   1.388   1.478  17.216  0.3079  0.1019 -0.3789
  309MPD2     H 4651   1.213   1.625  16.900  1.2900 -0.4287 -1.0221
  309MPD2    H1 4652   1.244   1.587  17.321  0.7715 -0.0586  0.6171
  309MPD2    H2 4653   1.521   1.379  17.084 -0.6163 -0.8585  0.4103
  309MPD2    H3 4654   1.442   1.447  17.304  1.3809  1.4879 -0.5578
  309MPD2     N 4655   1.103   1.677  17.142  0.5029  0.4587 -0.2487
  309MPD2    H5 4656   1.071   1.669  17.238  4.3709  1.3888  1.1226
  309MPD2    N1 4657   1.414   1.439  16.848  0.4138 -0.5267  0.0213
  309MPD2    H7 4658   1.364   1.495  16.779  1.0968  0.7258  0.5382
  310TMC3    C1 4659   1.555   1.334  16.691  0.0795  0.1917  0.2706
  310TMC3    C2 4660   1.534   1.443  16.605  0.2123 -0.1368 -0.0272
  310TMC3    C3 4661   1.634   1.476  16.517 -0.0196  0.0983 -0.5674
  310TMC3    C4 4662   1.662   1.253  16.682  0.1407 -0.1163 -0.0167
  310TMC3    C5 4663   1.747   1.280  16.574  1.2232 -0.1987 -0.6724
  310TMC3    C6 4664   1.744   1.398  16.493 -0.2164 -0.2251  0.0047
  310TMC3     C 4665   1.503   1.337  16.830  0.1552 -0.2102  0.1841
  310TMC3     O 4666   1.535   1.247  16.901 -0.9820 -0.5260  0.0151
  310TMC3     H 4667   1.447   1.508  16.609 -0.4319 -0.9737 -0.7541
  310TMC3    H1 4668   1.675   1.165  16.743  0.0138 -1.0984 -1.4157
  310TMC3    H2 4669   1.812   1.418  16.411  0.6879 -1.6377  0.4224
  310TMC3    C7 4670   1.857   1.191  16.545  0.5712 -0.2017  0.1466
  310TMC3    C8 4671   1.610   1.571  16.409  0.2259 -0.0282 -0.3625
  310TMC3    O1 4672   1.832   1.080  16.584  0.1900 -0.2411 -0.0967
  310TMC3    O2 4673   1.496   1.568  16.368 -0.0368  0.1680 -0.5599
  311MPD2     C 4674   3.540   2.749  12.520 -0.2858  0.9603 -0.6644
  311MPD2    C1 4675   3.526   2.887  12.492 -0.0067 -0.2719  0.2472
  311MPD2    C2 4676   3.393   2.930  12.483 -0.4568  0.1786  0.1588
  311MPD2    C3 4677   3.283   2.855  12.499 -0.4580  0.8775 -1.0292
  311MPD2    C4 4678   3.301   2.726  12.547  0.4564 -0.2719  0.1613
  311MPD2    C5 4679   3.426   2.672  12.548 -0.2054  0.4589 -0.0172
  311MPD2     H 4680   3.377   3.036  12.471  2.2910  0.5759 -0.0271
  311MPD2    H1 4681   3.223   2.660  12.585 -0.7037 -0.2254 -2.1357
  311MPD2    H2 4682   3.631   2.689  12.521 -0.7760  0.2271  0.8892
  311MPD2    H3 4683   3.435   2.570  12.583  2.0075  1.1226  1.3403
  311MPD2     N 4684   3.157   2.922  12.488 -0.2919 -0.5496  0.3375
  311MPD2    H5 4685   3.151   3.023  12.479 -0.7361 -0.5240  0.9136
  311MPD2    N1 4686   3.632   2.974  12.459 -0.1577  0.1049 -0.0950
  311MPD2    H7 4687   3.605   3.070  12.438 -1.8011  0.2929  3.0005
  312TMC3    C1 4688   2.927   2.952  12.522 -0.2126  0.3583 -0.7069
  312TMC3    C2 4689   2.805   2.916  12.466 -0.3388 -0.0655 -0.3362
  312TMC3    C3 4690   2.710   3.010  12.474 -0.8263  0.5162 -0.4377
  312TMC3    C4 4691   2.944   3.067  12.592 -0.2218 -0.3526  0.0040
  312TMC3    C5 4692   2.837   3.151  12.608 -0.2414 -0.4412 -0.6130
  312TMC3    C6 4693   2.730   3.130  12.529  0.2024 -0.0151  0.7352
  312TMC3     C 4694   3.036   2.855  12.513 -0.1428  0.0991  0.3442
  312TMC3     O 4695   3.015   2.735  12.524  0.2872 -0.4341 -0.0058
  312TMC3     H 4696   2.803   2.826  12.406 -2.3632  0.1805 -0.6307
  312TMC3    H1 4697   3.040   3.093  12.635  0.1104  1.3210 -1.7536
  312TMC3    H2 4698   2.654   3.206  12.543 -1.7231 -2.0371  1.2049
  312TMC3    C7 4699   2.864   3.286  12.648  0.5108 -0.2920 -0.5845
  312TMC3    C8 4700   2.582   2.974  12.435 -0.0142 -0.2386 -0.1072
  312TMC3    O1 4701   2.809   3.377  12.589  0.1663  0.1608  0.3923
  312TMC3    O2 4702   2.576   2.896  12.339  0.3311 -0.0022  0.2659
  313MPD2     C 4703   3.326   1.835  10.152 -0.0315  0.0218  0.1780
  313MPD2    C1 4704   3.224   1.909  10.110  0.0055  0.3826 -0.1980
  313MPD2    C2 4705   3.171   1.892   9.985  0.0788  0.0022  0.2344
  313MPD2    C3 4706   3.226   1.797   9.900  0.1231  0.2865  0.3150
  313MPD2    C4 4707   3.329   1.717   9.954  0.2891 -0.4445  0.0082
  313MPD2    C5 4708   3.382   1.739  10.075 -0.9576  0.5307  0.2877
  313MPD2     H 4709   3.075   1.940   9.968 -1.2698 -2.9913 -0.6773
  313MPD2    H1 4710   3.377   1.645   9.888  1.1368  1.7871 -1.8586
  313MPD2    H2 4711   3.363   1.838  10.254 -0.2112 -0.8865  0.2655
  313MPD2    H3 4712   3.466   1.678  10.106 -0.8516 -0.0156 -1.0586
  313MPD2     N 4713   3.170   1.782   9.770 -0.0514  0.4930 -0.3598
  313MPD2    H5 4714   3.093   1.842   9.744 -0.8274  0.0356  0.8774
  313MPD2    N1 4715   3.147   1.994  10.195 -0.2160 -0.4465  0.4448
  313MPD2    H7 4716   3.063   2.043  10.165 -0.0507  0.6148  1.6868
  314TMC3    C1 4717   3.086   2.131  10.385  0.8525 -1.1116 -0.4540
  314TMC3    C2 4718   3.138   2.204  10.489 -0.2644  0.3162 -0.2498
  314TMC3    C3 4719   3.055   2.300  10.549 -0.3007  0.0048  0.4663
  314TMC3    C4 4720   2.953   2.149  10.343  0.0704 -0.8673 -0.1536
  314TMC3    C5 4721   2.884   2.249  10.392  0.3864 -0.0371 -0.1752
  314TMC3    C6 4722   2.929   2.324  10.500 -0.1572  0.2629 -0.0312
  314TMC3     C 4723   3.177   2.018  10.331  0.0720  0.5308  0.3524
  314TMC3     O 4724   3.281   2.001  10.391  0.2948  0.4543 -0.4685
  314TMC3     H 4725   3.245   2.202  10.508 -0.0082 -0.2698 -1.7001
  314TMC3    H1 4726   2.911   2.089  10.264  0.9084 -1.1267 -0.4014
  314TMC3    H2 4727   2.875   2.405  10.546 -2.2158 -0.5060 -1.1074
  314TMC3    C7 4728   2.803   2.323  10.300 -0.1620 -0.1886  1.2977
  314TMC3    C8 4729   3.118   2.412  10.616 -0.0176  0.1516  0.2597
  314TMC3    O1 4730   2.741   2.260  10.216 -0.1426 -0.1183  0.5057
  314TMC3    O2 4731   3.052   2.513  10.635  0.0437  0.3221 -0.1646
  315MPD2     C 4732   2.354   1.316  17.446  0.1283 -0.1549  0.2759
  315MPD2    C1 4733   2.494   1.289  17.451 -0.1671  0.5139  0.4301
  315MPD2    C2 4734   2.584   1.341  17.359  0.0961  0.2510 -0.0546
  315MPD2    C3 4735   2.543   1.435  17.273 -0.0744  0.3162  0.6548
  315MPD2    C4 4736   2.413   1.477  17.278  0.2153  0.2457 -0.4705
  315MPD2    C5 4737   2.318   1.406  17.348 -0.2751 -0.1173  0.4315
  315MPD2     H 4738   2.686   1.306  17.359 -0.9278 -2.7449  0.4553
  315MPD2    H1 4739   2.384   1.567  17.225  2.1645 -0.3845 -2.5817
  315MPD2    H2 4740   2.291   1.269  17.521  1.2875  0.2242  1.4900
  315MPD2    H3 4741   2.213   1.433  17.339  0.4670  2.6323 -0.1612
  315MPD2     N 4742   2.646   1.508  17.212  0.9767  0.3299  0.0097
  315MPD2    H5 4743   2.741   1.481  17.237  0.7236  0.4426  1.0850
  315MPD2    N1 4744   2.541   1.193  17.538 -0.2313 -0.0255 -0.7662
  315MPD2    H7 4745   2.634   1.156  17.529  0.3948  0.8001  2.2822
  316TMC3    C1 4746   2.752   1.655  17.069  0.4600 -0.1488 -0.3765
  316TMC3    C2 4747   2.841   1.666  17.167 -0.2495  0.9321 -0.1027
  316TMC3    C3 4748   2.956   1.731  17.119  0.6440  0.3870 -0.1373
  316TMC3    C4 4749   2.772   1.680  16.934  0.3219 -0.1834 -0.2915
  316TMC3    C5 4750   2.875   1.754  16.897 -0.9612 -0.2082  0.6817
  316TMC3    C6 4751   2.970   1.784  16.991 -0.0833  0.8604 -0.2423
  316TMC3     C 4752   2.630   1.586  17.094  0.1615  0.0560 -0.1693
  316TMC3     O 4753   2.528   1.616  17.029  0.1657  0.5040  0.2109
  316TMC3     H 4754   2.823   1.639  17.271  0.3921 -0.8742 -0.4555
  316TMC3    H1 4755   2.699   1.648  16.860 -0.4472  1.5531 -0.2795
  316TMC3    H2 4756   3.064   1.826  16.956 -0.3114  0.9084 -0.8109
  316TMC3    C7 4757   2.900   1.775  16.751 -0.0003  0.5504 -0.0235
  316TMC3    C8 4758   3.065   1.746  17.205 -0.9759  0.4494  0.5577
  316TMC3    O1 4759   3.013   1.772  16.714 -0.1848  0.3972 -0.3360
  316TMC3    O2 4760   3.153   1.824  17.170  0.2024  0.9707  0.1246
  317MPD2     C 4761   4.237   0.268  13.004  0.1230 -0.4627  1.0257
  317MPD2    C1 4762   4.283   0.170  12.915 -0.8739 -0.6629  0.8916
  317MPD2    C2 4763   4.386   0.086  12.951  0.3151  0.9963 -0.2697
  317MPD2    C3 4764   4.456   0.102  13.070  0.3600 -0.8989 -0.0215
  317MPD2    C4 4765   4.418   0.202  13.154  0.7054 -0.1082 -0.7173
  317MPD2    C5 4766   4.307   0.278  13.123 -0.3019  0.4438 -0.0804
  317MPD2     H 4767   4.422   0.007  12.886 -2.8195 -1.2684  0.7396
  317MPD2    H1 4768   4.466   0.209  13.250 -0.7310  0.1291 -0.0224
  317MPD2    H2 4769   4.169   0.346  12.971  1.4830  0.8470  1.3578
  317MPD2    H3 4770   4.276   0.354  13.194  1.0850  2.0989 -1.2659
  317MPD2     N 4771   4.560   0.008  13.105  0.1846 -0.1380 -0.4464
  317MPD2    H5 4772   4.586   4.653  13.049 -0.9508 -0.7856 -0.0513
  317MPD2    N1 4773   4.216   0.150  12.786  0.4004 -0.5590  0.2285
  317MPD2    H7 4774   4.254   0.091  12.713  0.3053  0.0209 -0.2898
  318TMC3    C1 4775   0.019   4.631  13.206 -0.4389 -0.0189  1.2070
  318TMC3    C2 4776   4.708   4.501  13.182  0.1991  0.2880 -0.6633
  318TMC3    C3 4777   0.057   4.395  13.219 -0.5717 -0.7263  0.3970
  318TMC3    C4 4778   0.143   4.652  13.264 -0.0060 -0.0241 -0.1709
  318TMC3    C5 4779   0.219   4.537  13.301 -0.4292  0.1528 -0.6062
  318TMC3    C6 4780   0.179   4.408  13.278  0.3985  0.4504 -0.6908
  318TMC3     C 4781   4.649   0.017  13.216  0.5838  0.2152 -0.1744
  318TMC3     O 4782   4.682   0.116  13.280 -0.0959 -0.1777 -0.5258
  318TMC3     H 4783   4.605   4.483  13.155  0.5141  0.2612 -1.8502
  318TMC3    H1 4784   0.180   0.029  13.272 -0.5830  0.0768  1.2079
  318TMC3    H2 4785   0.233   4.322  13.317 -0.2849 -0.6213 -2.1255
  318TMC3    C7 4786   0.330   4.572  13.386  0.0088  0.8773 -0.0950
  318TMC3    C8 4787   0.030   4.267  13.152  0.5212 -0.5468  0.0354
  318TMC3    O1 4788   0.336   4.687  13.424  0.5409 -0.4571 -0.4621
  318TMC3    O2 4789   0.086   4.168  13.195 -0.3607 -0.5528 -0.1057
  319MPD2     C 4790   0.983   1.232  16.586 -0.7281  0.0358 -0.7857
  319MPD2    C1 4791   0.895   1.234  16.688  0.2438  0.2640 -0.7333
  319MPD2    C2 4792   0.761   1.264  16.654 -0.6550 -0.4537 -0.3883
  319MPD2    C3 4793   0.730   1.309  16.530 -0.5529 -0.3501  0.5532
  319MPD2    C4 4794   0.824   1.313  16.427 -0.1193  0.2540 -0.5450
  319MPD2    C5 4795   0.951   1.266  16.461  0.5812 -0.0394 -0.1987
  319MPD2     H 4796   0.684   1.265  16.731 -0.2168  1.6729  0.0198
  319MPD2    H1 4797   0.804   1.343  16.325 -0.4019 -0.5969 -0.7368
  319MPD2    H2 4798   1.081   1.194  16.611 -0.6694 -0.5447 -1.9080
  319MPD2    H3 4799   1.025   1.238  16.386  0.6827 -0.3157  0.0060
  319MPD2     N 4800   0.594   1.332  16.478 -0.6018  0.7387  0.7210
  319MPD2    H5 4801   0.583   1.357  16.380  2.3536  2.5365  0.8684
  319MPD2    N1 4802   0.927   1.197  16.822  0.2761 -0.1425 -0.6037
  319MPD2    H7 4803   0.848   1.183  16.885 -0.5177 -0.2160 -1.6147
  320TMC3    C1 4804   0.370   1.258  16.442 -0.1993  0.7042 -0.1057
  320TMC3    C2 4805   0.371   1.344  16.329  0.3907 -0.0497 -0.0698
  320TMC3    C3 4806   0.325   1.292  16.208 -0.5067 -0.0418  0.1104
  320TMC3    C4 4807   0.308   1.136  16.438 -0.3822  0.2823 -0.1789
  320TMC3    C5 4808   0.269   1.086  16.319  0.6263 -0.0924  0.0621
  320TMC3    C6 4809   0.271   1.162  16.202 -0.0020 -0.0121 -0.8967
  320TMC3     C 4810   0.483   1.271  16.536 -0.5387  0.4012  0.0972
  320TMC3     O 4811   0.473   1.216  16.645  0.0517  0.5157 -0.0092
  320TMC3     H 4812   0.399   1.448  16.336  0.8546 -0.1138 -0.9088
  320TMC3    H1 4813   0.300   1.087  16.534  1.1096  1.2044  0.4228
  320TMC3    H2 4814   0.239   1.122  16.107 -2.7330  1.2771 -0.5148
  320TMC3    C7 4815   0.287   0.942  16.292 -0.1904  0.6545 -1.5938
  320TMC3    C8 4816   0.350   1.373  16.091 -0.7150 -1.1463 -0.2556
  320TMC3    O1 4817   0.251   0.907  16.180 -0.1458 -0.1108 -0.8457
  320TMC3    O2 4818   0.426   1.467  16.117 -0.0118  0.0072  0.2147
  321TMC3    C1 4819   1.064   1.137  17.002 -0.0246 -0.0178 -0.9790
  321TMC3    C2 4820   0.970   1.044  17.041 -0.1803 -0.3727 -0.2235
  321TMC3    C3 4821   0.986   0.993  17.170 -0.5671 -0.2475  0.0918
  321TMC3    C4 4822   1.158   1.193  17.082 -1.1788  0.5642 -1.0011
  321TMC3    C5 4823   1.150   1.161  17.217 -0.0619 -0.2312  1.1328
  321TMC3    C6 4824   1.063   1.066  17.262 -0.8290 -0.2720  0.3605
  321TMC3     C 4825   1.058   1.184  16.868  0.8770 -0.4811  1.2992
  321TMC3     O 4826   1.165   1.227  16.829  0.2572 -0.2778  0.1774
  321TMC3     H 4827   0.920   0.983  16.967 -0.0819 -1.3648  0.5266
  321TMC3    H1 4828   1.239   1.257  17.049 -0.1806 -1.3821 -2.3370
  321TMC3    H2 4829   1.089   1.025  17.359 -0.0751 -1.2136 -0.2386
  321TMC3    C7 4830   1.278   1.141  17.275 -0.5172 -0.8458  0.1445
  321TMC3    C8 4831   1.013   0.848  17.181 -0.2607 -0.3299 -0.3007
  321TMC3    O1 4832   1.338   1.037  17.242 -0.1582  0.4965  0.4505
  321TMC3    O2 4833   0.913   0.775  17.174  0.6285 -0.4531  0.0303
  322MPD2     C 4834   4.228   2.435  13.647 -0.1762  0.5020 -0.7223
  322MPD2    C1 4835   4.297   2.386  13.757  0.2267  0.3167 -1.0288
  322MPD2    C2 4836   4.325   2.252  13.762 -0.5221 -0.1776 -0.6997
  322MPD2    C3 4837   4.275   2.169  13.662 -0.1193 -0.0219 -0.3535
  322MPD2    C4 4838   4.204   2.220  13.554  0.5976  0.2988  0.0375
  322MPD2    C5 4839   4.186   2.359  13.541 -0.3249  0.1747 -0.1407
  322MPD2     H 4840   4.382   2.210  13.844  0.0063 -0.4893 -1.2234
  322MPD2    H1 4841   4.158   2.154  13.481 -2.3427  1.5946  0.7428
  322MPD2    H2 4842   4.208   2.541  13.648  0.4464  0.6118  0.6112
  322MPD2    H3 4843   4.143   2.405  13.453 -2.3322  0.5073  1.0249
  322MPD2     N 4844   4.289   2.032  13.692  0.2968  0.0377 -0.6428
  322MPD2    H5 4845   4.314   2.010  13.788  1.1812 -2.5086 -1.4660
  322MPD2    N1 4846   4.362   2.477  13.849  0.0121 -0.9021 -0.4672
  322MPD2    H7 4847   4.379   2.574  13.822 -3.6728 -0.0464  0.3122
  323TMC3    C1 4848   4.467   2.548  14.050 -0.8111  0.4449  0.3199
  323TMC3    C2 4849   4.546   2.627  13.978  0.0608  0.0981 -0.4880
  323TMC3    C3 4850   4.664   2.661  14.042 -0.5208  0.3882  0.4364
  323TMC3    C4 4851   4.497   2.510  14.181  0.3703 -0.2333 -0.3645
  323TMC3    C5 4852   4.613   2.546  14.233 -0.8849  0.0646  0.1949
  323TMC3    C6 4853   4.701   2.621  14.164  0.3603 -0.2101  0.5141
  323TMC3     C 4854   4.400   2.444  13.978  0.4012  0.7348  0.2122
  323TMC3     O 4855   4.382   2.340  14.044  0.3249 -0.3223 -0.0483
  323TMC3     H 4856   4.536   2.650  13.872  0.8342 -3.6527 -1.3631
  323TMC3    H1 4857   4.428   2.448  14.236 -0.1247 -0.8631 -1.6754
  323TMC3    H2 4858   0.073   2.646  14.205 -0.3910  3.0631  0.2993
  323TMC3    C7 4859   4.648   2.465  14.344  0.1197  0.3216 -0.6042
  323TMC3    C8 4860   0.041   2.723  13.960 -0.2922 -0.5306 -0.5520
  323TMC3    O1 4861   4.563   2.375  14.372 -0.6562 -0.7607  0.4855
  323TMC3    O2 4862   0.157   2.711  14.003 -0.0060 -0.8407  0.4182
  324MPD2     C 4863   1.500   3.115  14.119  0.5352  0.7286 -0.0392
  324MPD2    C1 4864   1.540   3.252  14.111 -0.8473 -0.4330 -0.6096
  324MPD2    C2 4865   1.444   3.351  14.098 -0.1313  0.2533 -0.1393
  324MPD2    C3 4866   1.307   3.321  14.092  0.5157  0.1192  0.0599
  324MPD2    C4 4867   1.273   3.184  14.112  0.5611 -0.2500 -0.2220
  324MPD2    C5 4868   1.366   3.085  14.118 -0.6354 -0.5686 -0.3341
  324MPD2     H 4869   1.478   3.454  14.089  1.5685 -0.2090  0.9035
  324MPD2    H1 4870   1.170   3.150  14.107  0.1502  0.8896  0.3994
  324MPD2    H2 4871   1.569   3.036  14.144 -0.1667  0.2305  0.3168
  324MPD2    H3 4872   1.338   2.986  14.150 -0.9898 -0.1058  0.7825
  324MPD2     N 4873   1.201   3.415  14.099  0.1369  0.4503  0.3310
  324MPD2    H5 4874   1.115   3.371  14.131  0.8967 -0.5974  0.9328
  324MPD2    N1 4875   1.669   3.308  14.134 -1.0049 -0.2430  0.4903
  324MPD2    H7 4876   1.673   3.409  14.129 -0.3548 -0.3010 -0.1678
  325TMC3    C1 4877   1.084   3.621  14.108 -0.0750 -0.2622  0.5044
  325TMC3    C2 4878   1.011   3.575  14.215 -0.0800  0.5228 -0.5544
  325TMC3    C3 4879   0.902   3.645  14.258  0.2067  0.2821  0.1263
  325TMC3    C4 4880   1.074   3.749  14.078  0.1261  0.4311 -0.8506
  325TMC3    C5 4881   0.972   3.823  14.130 -0.0661  0.3473  0.3094
  325TMC3    C6 4882   0.882   3.771  14.218  0.3655  0.0724 -0.0070
  325TMC3     C 4883   1.208   3.550  14.082 -0.0967  0.1167  0.0754
  325TMC3     O 4884   1.301   3.619  14.043  0.8659 -0.2377 -0.0525
  325TMC3     H 4885   1.039   3.483  14.264 -1.3767 -0.7309 -2.1733
  325TMC3    H1 4886   1.136   3.794  14.001 -0.0908  2.0137 -0.0976
  325TMC3    H2 4887   0.779   3.804  14.227 -0.0876 -1.8662  1.9480
  325TMC3    C7 4888   0.951   3.955  14.069  0.0315 -0.8084  0.2413
  325TMC3    C8 4889   0.780   3.557  14.277  0.6156 -0.7425  0.1399
  325TMC3    O1 4890   0.975   3.971  13.952  0.1784  0.7332  0.1098
  325TMC3    O2 4891   0.789   3.442  14.241  0.2621  0.2328 -0.0533
  326MPD2     C 4892   2.466   0.280  10.994 -0.1032  0.2913 -0.8347
  326MPD2    C1 4893   2.492   0.192  10.894  0.1920 -0.3397  0.5678
  326MPD2    C2 4894   2.621   0.173  10.857  0.2216 -0.4127 -0.2964
  326MPD2    C3 4895   2.730   0.251  10.913  0.3258  0.2473  0.1793
  326MPD2    C4 4896   2.698   0.341  11.008  0.2400  0.2463  0.3945
  326MPD2    C5 4897   2.569   0.344  11.059 -0.1940  0.2231  0.3325
  326MPD2     H 4898   2.633   0.095  10.783  1.3395  0.8871 -1.5056
  326MPD2    H1 4899   2.765   0.409  11.060 -0.1955  2.0514 -1.4185
  326MPD2    H2 4900   2.366   0.308  11.023  0.1673  0.5362 -0.1383
  326MPD2    H3 4901   2.543   0.412  11.140 -0.2478 -0.5644  0.9763
  326MPD2     N 4902   2.865   0.250  10.865 -0.2335  0.4412 -0.1029
  326MPD2    H5 4903   2.933   0.313  10.905 -1.4489  1.1267  0.8762
  326MPD2    N1 4904   2.393   0.126  10.819 -0.1431  0.4981  0.0355
  326MPD2    H7 4905   2.420   0.061  10.746 -1.2503  0.3970 -0.2880
  327TMC3    C1 4906   2.194   0.030  10.777  0.6572  0.2381 -0.1096
  327TMC3    C2 4907   2.090   0.059  10.700 -0.2370 -0.1651  0.1736
  327TMC3    C3 4908   2.013   4.678  10.658 -0.0423  0.3415 -0.4287
  327TMC3    C4 4909   2.207   4.626  10.833 -1.1238  0.3373 -0.5888
  327TMC3    C5 4910   2.117   4.526  10.794  0.3873 -0.8284 -0.8461
  327TMC3    C6 4911   2.015   4.557  10.717  0.0577  0.7908  0.2276
  327TMC3     C 4912   2.255   0.141  10.840  0.6152  0.0104  0.2833
  327TMC3     O 4913   2.196   0.199  10.929  0.0797 -0.7579 -0.4448
  327TMC3     H 4914   2.078   0.161  10.665  0.5285 -0.3617 -0.6670
  327TMC3    H1 4915   2.282   4.609  10.910 -0.9784 -0.6191 -0.9358
  327TMC3    H2 4916   1.949   4.475  10.691 -0.4611  1.3152 -0.1165
  327TMC3    C7 4917   2.114   4.387  10.855 -0.2135 -0.4125 -0.5294
  327TMC3    C8 4918   1.903   4.708  10.568 -0.5610 -0.1282  0.1713
  327TMC3    O1 4919   2.020   4.305  10.848 -0.4575 -0.3712  0.9736
  327TMC3    O2 4920   1.872   0.103  10.567 -0.2938  0.6643  0.1988
  328MPD2     C 4921   0.321   4.510  16.604  0.3279  0.2469  0.4001
  328MPD2    C1 4922   0.297   4.515  16.472 -0.2095  0.0199  0.3133
  328MPD2    C2 4923   0.307   4.637  16.403 -0.7617  0.2275  0.8827
  328MPD2    C3 4924   0.348   0.023  16.480 -0.5896 -0.2459 -0.5786
  328MPD2    C4 4925   0.377   0.009  16.614  0.3902 -0.8060  0.6770
  328MPD2    C5 4926   0.360   4.620  16.678 -0.9548  0.0896 -0.1691
  328MPD2     H 4927   0.265   4.654  16.305  1.4762  1.5811  0.1570
  328MPD2    H1 4928   0.391   0.098  16.674 -3.0384  1.7027 -2.2630
  328MPD2    H2 4929   0.306   4.419  16.660 -0.7229 -0.2739 -0.7313
  328MPD2    H3 4930   0.361   4.609  16.786 -3.5101 -3.1466 -0.4929
  328MPD2     N 4931   0.375   0.151  16.425 -0.6802 -0.2949  0.4331
  328MPD2    H5 4932   0.420   0.215  16.489  0.3160 -0.3182 -0.2490
  328MPD2    N1 4933   0.242   4.401  16.412  0.3109  0.4702 -0.1377
  328MPD2    H7 4934   0.242   4.318  16.472  0.7171  0.7727  0.2790
  329TMC3    C1 4935   0.168   4.238  16.270 -0.5285 -0.6431 -0.4873
  329TMC3    C2 4936   0.041   4.234  16.326 -0.4421 -0.4374 -0.6755
  329TMC3    C3 4937   4.669   4.144  16.293  0.0095 -0.4819 -0.1509
  329TMC3    C4 4938   0.206   4.152  16.174  0.1577 -0.2936  0.1223
  329TMC3    C5 4939   0.113   4.051  16.141  0.2663 -0.0483  0.3513
  329TMC3    C6 4940   4.708   4.046  16.202  0.2072 -0.6613  1.0158
  329TMC3     C 4941   0.231   4.370  16.278 -1.1282 -0.4548 -0.2721
  329TMC3     O 4942   0.254   4.441  16.180 -0.4057 -0.2101 -0.8154
  329TMC3     H 4943   0.018   4.322  16.386  1.0601 -0.1959 -0.4522
  329TMC3    H1 4944   0.304   4.168  16.131 -0.3647  1.0223 -0.5656
  329TMC3    H2 4945   4.635   3.971  16.173  0.6758 -0.7612  0.0748
  329TMC3    C7 4946   0.166   3.975  16.030 -0.2329 -0.2350  0.4425
  329TMC3    C8 4947   4.539   4.135  16.355  0.5652 -0.1598 -0.2489
  329TMC3    O1 4948   0.287   3.989  16.010 -0.3725  0.1426  0.0018
  329TMC3    O2 4949   4.451   4.082  16.288 -0.0680 -0.1004  0.0269
  330TMC3    C1 4950   2.711   4.177   9.421 -0.0469 -0.0028 -0.0444
  330TMC3    C2 4951   2.666   4.123   9.306  0.1107 -0.2922 -0.2090
  330TMC3    C3 4952   2.674   3.985   9.294  0.5163  0.5322  0.4853
  330TMC3    C4 4953   2.782   4.110   9.521 -0.3871  0.2591 -0.6620
  330TMC3    C5 4954   2.792   3.976   9.495 -0.0010  0.0205  0.2530
  330TMC3    C6 4955   2.741   3.915   9.386  0.0450  0.1853 -0.4321
  330TMC3     C 4956   2.697   4.321   9.446 -0.5962 -0.4891 -0.7484
  330TMC3     O 4957   2.758   4.378   9.536 -0.0087  0.0522  0.0640
  330TMC3     H 4958   2.624   4.179   9.223  0.3510  0.4355  0.1564
  330TMC3    H1 4959   2.796   4.163   9.614  0.0855 -2.0124  0.5726
  330TMC3    H2 4960   2.749   3.807   9.381  2.0562  0.3547 -0.8916
  330TMC3    C7 4961   2.834   3.882   9.601 -0.0543 -0.0659 -0.0646
  330TMC3    C8 4962   2.617   3.923   9.179  0.6155  0.0318  0.7856
  330TMC3    O1 4963   2.799   3.764   9.590 -0.3414  0.0685  0.6998
  330TMC3    O2 4964   2.589   3.991   9.082  0.2665  0.0269  0.1306
  331MPD2     C 4965   0.561   2.333  12.862  0.4110  0.0123 -0.1002
  331MPD2    C1 4966   0.650   2.403  12.788  0.2189 -0.0513  0.7370
  331MPD2    C2 4967   0.710   2.334  12.685  0.4344 -0.2304  0.2382
  331MPD2    C3 4968   0.685   2.202  12.664  0.3015 -0.4919  0.1644
  331MPD2    C4 4969   0.604   2.132  12.741  0.1690 -0.0491 -0.5853
  331MPD2    C5 4970   0.534   2.203  12.835  0.5984 -0.8283  0.1757
  331MPD2     H 4971   0.780   2.389  12.622 -0.0395  0.0114 -0.0759
  331MPD2    H1 4972   0.584   2.027  12.719  1.4552  0.2704 -3.2355
  331MPD2    H2 4973   0.501   2.381  12.937 -0.1038 -1.9272  0.7234
  331MPD2    H3 4974   0.462   2.156  12.901 -2.2853  1.3177 -1.4281
  331MPD2     N 4975   0.760   2.155  12.551 -0.2829  0.0976 -0.3825
  331MPD2    H5 4976   0.804   2.230  12.498 -1.1863 -0.0027 -1.2819
  331MPD2    N1 4977   0.673   2.535  12.822 -0.0012  0.0700 -0.8247
  331MPD2    H7 4978   0.619   2.576  12.898  2.0303 -0.4972  0.9232
  332TMC3    C1 4979   0.861   2.014  12.400 -0.4688 -0.6671 -0.2657
  332TMC3    C2 4980   0.837   2.111  12.306  0.0465 -0.2113  0.4485
  332TMC3    C3 4981   0.940   2.151  12.229  0.6594  0.8701  0.5068
  332TMC3    C4 4982   0.980   1.946  12.422 -0.0355 -0.1898 -0.4142
  332TMC3    C5 4983   1.083   1.999  12.340 -0.0401 -0.3498  0.2960
  332TMC3    C6 4984   1.067   2.103  12.248 -1.2179 -0.1950 -0.8259
  332TMC3     C 4985   0.778   2.027  12.518 -0.0516 -0.0709 -0.4224
  332TMC3     O 4986   0.766   1.931  12.591 -0.3645  0.7429  0.4857
  332TMC3     H 4987   0.741   2.160  12.294 -0.7331 -1.1138  3.0148
  332TMC3    H1 4988   0.996   1.875  12.502 -0.6744  0.5846  0.4003
  332TMC3    H2 4989   1.141   2.150  12.185 -0.0104  0.4010  1.0636
  332TMC3    C7 4990   1.218   1.952  12.359  0.0494 -0.0321 -0.0712
  332TMC3    C8 4991   0.938   2.282  12.168  0.6497 -0.4526 -0.3213
  332TMC3    O1 4992   1.235   1.846  12.418 -0.2217  0.1453  0.3536
  332TMC3    O2 4993   1.046   2.338  12.162  0.0185 -0.2194  0.5712
  333MPD2     C 4994   1.037   3.192  10.926 -0.2042 -0.1433 -0.0097
  333MPD2    C1 4995   1.134   3.108  10.869  0.4489  0.5335  0.2204
  333MPD2    C2 4996   1.161   2.987  10.927  0.2932 -0.2699  0.0772
  333MPD2    C3 4997   1.100   2.950  11.048 -0.0891 -0.5854  0.2361
  333MPD2    C4 4998   1.007   3.030  11.105 -0.3231 -0.0826  0.5286
  333MPD2    C5 4999   0.982   3.150  11.043  0.1188  0.2082  0.9659
  333MPD2     H 5000   1.228   2.912  10.887  0.9630  0.7797 -0.7776
  333MPD2    H1 5001   0.950   3.001  11.192 -0.6509  1.3631  0.7837
  333MPD2    H2 5002   1.004   3.285  10.880  0.4945  0.8167  1.4177
  333MPD2    H3 5003   0.920   3.219  11.100  0.9669  0.0877  2.0273
  333MPD2     N 5004   1.132   2.817  11.101  0.1730 -0.3818  0.2112
  333MPD2    H5 5005   1.193   2.758  11.044  1.0880  1.1008 -0.3249
  333MPD2    N1 5006   1.186   3.148  10.739 -0.8593 -0.1753  0.1821
  333MPD2    H7 5007   1.169   3.245  10.714 -0.4197 -0.6603 -2.0064
  334TMC3    C1 5008   1.298   3.122  10.530 -0.6583  0.4548 -0.5997
  334TMC3    C2 5009   1.386   3.036  10.464 -0.9153  0.3261 -0.7785
  334TMC3    C3 5010   1.479   3.091  10.375 -0.3736  0.5978 -0.3076
  334TMC3    C4 5011   1.312   3.255  10.500 -0.5928 -0.6264  0.6094
  334TMC3    C5 5012   1.393   3.297  10.402  0.7010 -0.2122  0.1001
  334TMC3    C6 5013   1.473   3.218  10.328  0.3018  0.2807 -0.3264
  334TMC3     C 5014   1.254   3.062  10.660  0.4595 -0.1787 -0.9336
  334TMC3     O 5015   1.262   2.941  10.666  0.5905 -0.2595 -0.5021
  334TMC3     H 5016   1.386   2.930  10.484 -0.0392  0.5851  0.5346
  334TMC3    H1 5017   1.253   3.329  10.554 -1.5434 -2.4881  2.1003
  334TMC3    H2 5018   1.540   3.263  10.256  0.4602  0.6468  0.0507
  334TMC3    C7 5019   1.368   3.432  10.348  0.5530  0.2124  0.6283
  334TMC3    C8 5020   1.557   2.988  10.308  1.1665  0.6600 -0.0346
  334TMC3    O1 5021   1.460   3.519  10.344  0.1419  0.7806  0.0878
  334TMC3    O2 5022   1.512   2.876  10.288  0.0152  0.0754  0.0184
  335TMC3    C1 5023   0.994   4.323  17.609  0.4413  0.2259  0.1103
  335TMC3    C2 5024   1.010   4.192  17.563 -0.5114 -0.1334  0.3753
  335TMC3    C3 5025   1.134   4.142  17.529  0.0027  0.9350 -0.1694
  335TMC3    C4 5026   1.105   4.408  17.613  0.1328 -0.1521  0.1789
  335TMC3    C5 5027   1.225   4.357  17.576 -0.3789  0.1924 -0.3424
  335TMC3    C6 5028   1.236   4.226  17.533 -0.1124  0.0853  0.2204
  335TMC3     C 5029   0.897   4.333   0.009 -0.5137 -0.0146 -0.1955
  335TMC3     O 5030   0.801   4.261   0.014 -0.0809  0.0341 -0.6324
  335TMC3     H 5031   0.928   4.121  17.573 -0.4605 -0.2997 -0.3869
  335TMC3    H1 5032   1.096   4.514  17.634  0.5223 -0.0517 -0.1604
  335TMC3    H2 5033   1.329   4.179  17.503 -1.9846 -1.5606 -3.0805
  335TMC3    C7 5034   1.338   4.442  17.584 -0.2255  0.4050  0.1048
  335TMC3    C8 5035   1.149   4.012  17.454 -0.3212 -0.0094  0.4387
  335TMC3    O1 5036   1.348   4.533  17.666  0.4215 -0.1130 -0.4694
  335TMC3    O2 5037   1.261   3.960  17.442 -0.2025 -0.4162 -0.1048
  336MPD2     C 5038   0.695   2.523  16.509  0.5283  0.2557 -0.4181
  336MPD2    C1 5039   0.693   2.504  16.372 -0.4511  0.6158  0.2942
  336MPD2    C2 5040   0.711   2.376  16.318 -0.0376 -0.0459  0.0939
  336MPD2    C3 5041   0.739   2.271  16.407 -0.1476  0.0987  0.6738
  336MPD2    C4 5042   0.738   2.293  16.546  0.0128  1.1635  0.6861
  336MPD2    C5 5043   0.719   2.422  16.596 -0.2023 -0.1635 -0.3673
  336MPD2     H 5044   0.706   2.355  16.212 -2.6353  0.3304  0.1353
  336MPD2    H1 5045   0.759   2.213  16.616  0.5102  1.1837  0.5658
  336MPD2    H2 5046   0.692   2.628  16.539 -0.2301  0.4328 -1.1005
  336MPD2    H3 5047   0.723   2.436  16.703  0.3305  2.9268 -0.7946
  336MPD2     N 5048   0.766   2.135  16.371  0.4591  0.1854 -0.1161
  336MPD2    H5 5049   0.752   2.072  16.450 -2.4943  0.5572 -0.3501
  336MPD2    N1 5050   0.686   2.621  16.296  0.5903  0.0874  0.1458
  336MPD2    H7 5051   0.686   2.707  16.349  0.5248  0.9220 -1.2266
  337TMC3    C1 5052   0.710   2.770  16.114  0.2536  0.4118 -0.2649
  337TMC3    C2 5053   0.617   2.812  16.017 -0.0488  0.1506 -0.3914
  337TMC3    C3 5054   0.614   2.945  15.991  0.1383 -0.3286 -0.3450
  337TMC3    C4 5055   0.782   2.856  16.198  0.0644 -0.6011 -0.3383
  337TMC3    C5 5056   0.777   2.990  16.165 -0.0673 -0.0819  0.2923
  337TMC3    C6 5057   0.703   3.031  16.050  0.1833 -0.7127 -0.0288
  337TMC3     C 5058   0.695   2.634  16.160  0.1304  0.0142  0.6986
  337TMC3     O 5059   0.679   2.542  16.081 -0.0960 -0.0809  0.1097
  337TMC3     H 5060   0.550   2.738  15.976 -0.7490  1.3693 -1.4546
  337TMC3    H1 5061   0.842   2.827  16.283 -3.6570 -0.9797  2.1487
  337TMC3    H2 5062   0.677   3.134  16.030 -0.7987 -1.1699 -1.0705
  337TMC3    C7 5063   0.803   3.090  16.256  0.4640  0.0666  0.4837
  337TMC3    C8 5064   0.485   3.002  15.982 -0.5430 -0.1007  0.5597
  337TMC3    O1 5065   0.797   3.208  16.217  0.0927 -0.6485  0.1485
  337TMC3    O2 5066   0.465   3.094  16.060  0.1820  0.4585 -0.4488
  338MPD2     C 5067   1.166   1.525   0.877  0.7547  0.9765 -0.0626
  338MPD2    C1 5068   1.048   1.541   0.802  0.0811  0.0363  0.0075
  338MPD2    C2 5069   0.941   1.607   0.854 -0.2265  0.3298  0.3831
  338MPD2    C3 5070   0.952   1.655   0.985 -0.7465 -0.1784 -0.1261
  338MPD2    C4 5071   1.066   1.638   1.058  0.2249 -0.4324  0.0068
  338MPD2    C5 5072   1.175   1.574   1.008  0.7163 -0.2029  0.0291
  338MPD2     H 5073   0.847   1.618   0.802 -0.2894 -1.1248  0.1858
  338MPD2    H1 5074   1.060   1.685   1.156 -0.0551 -1.0331  0.2762
  338MPD2    H2 5075   1.254   1.481   0.831 -1.0188 -1.0462 -1.5516
  338MPD2    H3 5076   1.263   1.576   1.072 -0.5777  0.1611  1.7951
  338MPD2     N 5077   0.837   1.717   1.032 -0.2827 -0.2206  0.5159
  338MPD2    H5 5078   0.761   1.728   0.965 -1.7993  1.2271  2.4999
  338MPD2    N1 5079   1.033   1.490   0.678  0.2178 -0.3693 -0.0490
  338MPD2    H7 5080   0.947   1.513   0.630 -0.1688 -0.9641  0.3560
  339TMC3    C1 5081   0.659   1.796   1.180  0.5564 -0.1707 -0.0215
  339TMC3    C2 5082   0.599   1.767   1.302  0.3340  0.0760 -0.0883
  339TMC3    C3 5083   0.462   1.768   1.316  0.0012 -0.0588 -0.2214
  339TMC3    C4 5084   0.589   1.838   1.078 -0.1179 -0.2991  0.9090
  339TMC3    C5 5085   0.455   1.854   1.099  0.6691 -1.0319 -0.3302
  339TMC3    C6 5086   0.390   1.814   1.211 -0.4734 -0.6056  0.2380
  339TMC3     C 5087   0.802   1.760   1.161  0.0945  0.4963  0.1064
  339TMC3     O 5088   0.875   1.748   1.263  0.0359  0.0193  0.3729
  339TMC3     H 5089   0.667   1.737   1.381  0.3210 -0.3447 -0.2413
  339TMC3    H1 5090   0.639   1.884   0.993  2.6290 -0.9966  2.1441
  339TMC3    H2 5091   0.281   1.807   1.206 -0.3547 -0.9201 -1.6168
  339TMC3    C7 5092   0.373   1.913   0.989 -1.2012  0.3750  0.5975
  339TMC3    C8 5093   0.394   1.750   1.437  0.1101 -0.7146 -0.0431
  339TMC3    O1 5094   0.438   1.949   0.894 -0.7894  0.0383  0.2949
  339TMC3    O2 5095   0.292   1.817   1.447 -0.0679 -0.3093  0.7785
  340MPD2     C 5096   1.098   4.514   9.972 -0.7905  0.2348 -0.3203
  340MPD2    C1 5097   1.053   4.383   9.976 -0.5329  0.0522  0.5497
  340MPD2    C2 5098   1.151   4.284   9.991  0.8731  0.1331  0.3099
  340MPD2    C3 5099   1.287   4.311   9.972  0.2925 -0.2866 -0.3889
  340MPD2    C4 5100   1.334   4.440   9.970 -0.1913 -0.3876 -0.2582
  340MPD2    C5 5101   1.236   4.544   9.975  0.4053 -0.0419 -0.0747
  340MPD2     H 5102   1.118   4.182  10.008  0.8129  0.3193  1.3063
  340MPD2    H1 5103   1.440   4.459   9.967 -0.3272  0.2126 -1.3749
  340MPD2    H2 5104   1.037   4.604   9.972 -1.6635 -0.3514  0.5205
  340MPD2    H3 5105   1.268   4.648   9.980  0.9191 -0.1766 -0.7240
  340MPD2     N 5106   1.386   4.210   9.963  0.0464 -0.5320  0.1470
  340MPD2    H5 5107   1.477   4.249   9.940 -0.5760  0.3830 -0.7777
  340MPD2    N1 5108   0.910   4.366   9.966  0.7628  0.4200  0.3141
  340MPD2    H7 5109   0.852   4.448   9.966 -0.2093 -0.2777 -1.8395
  341TMC3    C1 5110   0.898   4.136   9.891 -0.3730  0.6243  0.5397
  341TMC3    C2 5111   0.882   4.007   9.927 -0.2931 -0.1357  0.1038
  341TMC3    C3 5112   0.950   3.909   9.864 -0.1178 -0.3026  0.3675
  341TMC3    C4 5113   0.969   4.173   9.778 -0.1968  0.1247 -1.2550
  341TMC3    C5 5114   1.038   4.072   9.716  0.0803 -0.2336 -0.2496
  341TMC3    C6 5115   1.038   3.946   9.765 -0.1696  0.5291  0.2052
  341TMC3     C 5116   0.841   4.243   9.974  0.5228  0.2830  0.4216
  341TMC3     O 5117   0.721   4.222   9.990  0.3703  0.1080 -0.3115
  341TMC3     H 5118   0.818   3.982  10.011 -2.4865  1.3108 -1.1444
  341TMC3    H1 5119   0.955   4.274   9.743 -0.1893  0.5146 -0.1125
  341TMC3    H2 5120   1.084   3.865   9.710 -0.1111  0.2068  0.7314
  341TMC3    C7 5121   1.152   4.111   9.642  0.3333 -0.1350 -0.1049
  341TMC3    C8 5122   0.892   3.783   9.858 -0.0984  0.8082  0.0998
  341TMC3    O1 5123   1.218   4.018   9.604  0.1095 -0.5816 -0.2793
  341TMC3    O2 5124   0.774   3.774   9.896  0.4321  0.0696  0.2640
  342MPD2     C 5125   3.509   2.748  17.380  0.9050 -0.2706  0.1251
  342MPD2    C1 5126   3.639   2.751  17.342  0.2944  0.2884 -0.7441
  342MPD2    C2 5127   3.700   2.867  17.312 -0.1394 -0.7437 -1.0690
  342MPD2    C3 5128   3.638   2.983  17.322 -0.0376  0.8665 -0.4788
  342MPD2    C4 5129   3.511   2.988  17.380 -0.0950  0.0799  0.3216
  342MPD2    C5 5130   3.444   2.866  17.398  0.6016  0.1740  0.2931
  342MPD2     H 5131   3.807   2.866  17.293  0.1776 -2.0380  0.8315
  342MPD2    H1 5132   3.461   3.082  17.397  1.3847  0.9327 -0.0821
  342MPD2    H2 5133   3.454   2.658  17.404  2.1266 -0.6319  1.5601
  342MPD2    H3 5134   3.341   2.871  17.431 -0.0217 -3.7215 -1.0445
  342MPD2     N 5135   3.694   3.109  17.303  0.5106  0.5727 -1.1873
  342MPD2    H5 5136   3.638   3.188  17.334  1.7544  0.4426  1.3748
  342MPD2    N1 5137   3.711   2.633  17.310 -0.7062  0.0837  0.9076
  342MPD2    H7 5138   3.810   2.649  17.296 -0.8361  0.2661  0.1779
  343TMC3    C1 5139   3.754   2.412  17.257  1.0238  1.2226  0.1392
  343TMC3    C2 5140   3.879   2.446  17.212  0.6945  0.4447  0.1283
  343TMC3    C3 5141   3.959   2.349  17.157  0.5000  0.0602  0.2387
  343TMC3    C4 5142   3.705   2.287  17.247  0.1379 -0.3563 -0.2213
  343TMC3    C5 5143   3.782   2.194  17.178  0.0282  0.2799 -0.0338
  343TMC3    C6 5144   3.907   2.224  17.131  0.0230 -0.0447  1.2582
  343TMC3     C 5145   3.659   2.507  17.310  0.5686  0.4526  0.0723
  343TMC3     O 5146   3.542   2.474  17.295 -0.2581  0.2872  0.5758
  343TMC3     H 5147   3.909   2.550  17.207  0.6715  0.5084  1.2890
  343TMC3    H1 5148   3.604   2.253  17.266  0.6467 -2.8047 -1.8278
  343TMC3    H2 5149   3.953   2.140  17.081  0.3723 -0.0662  1.6184
  343TMC3    C7 5150   3.718   2.074  17.132  0.5297  0.0988  0.5867
  343TMC3    C8 5151   4.081   2.398  17.090 -0.3886 -0.7923  0.7890
  343TMC3    O1 5152   3.629   2.022  17.205 -0.1962 -0.5961  0.2378
  343TMC3    O2 5153   4.096   2.518  17.087 -0.2071 -0.2588 -0.0276
  344MPD2     C 5154   0.340   2.200  10.420  0.0704  0.8848  0.5168
  344MPD2    C1 5155   0.216   2.201  10.354  0.3727 -1.1026 -0.0571
  344MPD2    C2 5156   0.186   2.297  10.263 -0.9115  0.0485 -0.1622
  344MPD2    C3 5157   0.266   2.411  10.253  0.2599  0.6886 -0.4448
  344MPD2    C4 5158   0.379   2.417  10.330 -0.1088 -0.1228 -0.4268
  344MPD2    C5 5159   0.412   2.319  10.421 -0.1468  0.8810  0.2587
  344MPD2     H 5160   0.109   2.288  10.186  0.0678 -0.8835 -1.0344
  344MPD2    H1 5161   0.440   2.506  10.334 -0.5951  0.3126 -2.7827
  344MPD2    H2 5162   0.364   2.129  10.499 -1.5207  2.1619  2.1790
  344MPD2    H3 5163   0.496   2.339  10.486  1.2464 -0.9128 -1.0027
  344MPD2     N 5164   0.254   2.516  10.156  0.5440 -0.3142 -0.6031
  344MPD2    H5 5165   0.333   2.580  10.153 -2.6644  3.6884  1.4380
  344MPD2    N1 5166   0.128   2.095  10.366 -0.1612  0.5739  0.1224
  344MPD2    H7 5167   0.042   2.100  10.311 -0.8434 -1.7525  0.9443
  345TMC3    C1 5168   0.148   2.673  10.007 -0.2527 -0.0120 -0.3137
  345TMC3    C2 5169   0.259   2.757  10.019  0.2227 -0.1741  0.2501
  345TMC3    C3 5170   0.244   2.888   9.985  0.0857 -0.3735 -0.2641
  345TMC3    C4 5171   0.026   2.728   9.974 -0.8237  0.3074  0.1988
  345TMC3    C5 5172   0.018   2.854   9.933  0.3696  0.0274  0.0792
  345TMC3    C6 5173   0.127   2.936   9.939  0.5914  0.3308 -0.1921
  345TMC3     C 5174   0.143   2.548  10.082 -0.7217  0.1282  0.2123
  345TMC3     O 5175   0.038   2.489  10.080  0.0611  0.2808  0.3267
  345TMC3     H 5176   0.349   2.723  10.069 -0.5066  0.6215  2.1021
  345TMC3    H1 5177   4.667   2.660   9.977 -1.3855  1.0627  1.7378
  345TMC3    H2 5178   0.114   3.040   9.914  2.2977  0.4043 -0.8259
  345TMC3    C7 5179   4.615   2.916   9.894  0.2832 -0.8510  0.8036
  345TMC3    C8 5180   0.344   2.986  10.016 -0.3865 -0.4479  0.1873
  345TMC3    O1 5181   4.619   3.038   9.876  0.1431 -0.0236 -0.4094
  345TMC3    O2 5182   0.304   3.097  10.047  0.4321 -0.1176  0.0992
  346MPD2     C 5183   0.060   3.768  14.074 -0.5535 -0.2333 -0.5487
  346MPD2    C1 5184   0.070   3.887  14.005 -0.5485  0.2156  1.0652
  346MPD2    C2 5185   0.090   4.004  14.080 -0.5172 -0.4519 -0.4314
  346MPD2    C3 5186   0.106   4.003  14.217  0.0333 -0.6684 -0.2669
  346MPD2    C4 5187   0.080   3.879  14.273  0.1593  0.9639  0.4808
  346MPD2    C5 5188   0.044   3.766  14.207  0.2362  0.4990 -0.0373
  346MPD2     H 5189   0.108   4.098  14.028  0.0738 -0.6109 -0.5222
  346MPD2    H1 5190   0.097   3.863  14.379  2.1406  2.5984  0.4084
  346MPD2    H2 5191   0.049   3.676  14.016 -3.3102 -1.2545  1.6234
  346MPD2    H3 5192   0.010   3.679  14.263 -1.9927  0.7440 -1.0107
  346MPD2     N 5193   0.152   4.122  14.283  0.6937 -0.1961 -0.3870
  346MPD2    H5 5194   0.179   4.204  14.229 -0.1148  1.3535  1.6170
  346MPD2    N1 5195   0.057   3.889  13.868 -0.4505  0.2938  0.0150
  346MPD2    H7 5196   0.050   3.973  13.812 -2.2533  1.3373  1.8429
  347TMC3    C1 5197   0.231   4.256  14.475  0.5528 -0.3933 -0.9731
  347TMC3    C2 5198   0.331   4.326  14.406  0.3222 -0.5512 -0.2257
  347TMC3    C3 5199   0.437   4.381  14.475  0.3832  0.7551  0.1686
  347TMC3    C4 5200   0.237   4.260  14.615  0.3956  0.0085  0.3554
  347TMC3    C5 5201   0.342   4.324  14.676  0.2316 -0.0173 -0.7645
  347TMC3    C6 5202   0.440   4.387  14.608 -0.3893  0.5260 -0.4567
  347TMC3     C 5203   0.170   4.131  14.423  0.5397  1.2154  0.4248
  347TMC3     O 5204   0.138   4.042  14.502 -0.0145  0.3681 -0.2315
  347TMC3     H 5205   0.333   4.341  14.299  0.2855  1.5897  0.0815
  347TMC3    H1 5206   0.154   4.211  14.665  0.0181  1.1181  0.7960
  347TMC3    H2 5207   0.521   4.432  14.664 -0.0086 -0.5268 -0.1562
  347TMC3    C7 5208   0.360   4.290  14.810  0.0327  0.7435 -0.6527
  347TMC3    C8 5209   0.575   4.352  14.427  0.0407 -0.0924  0.1281
  347TMC3    O1 5210   0.270   4.216  14.848  0.0961  0.3163  0.2938
  347TMC3    O2 5211   0.655   4.324  14.515 -0.4541 -0.1079  0.5718
  348MPD2     C 5212   2.996   3.543  12.047 -0.4557  0.2514 -0.3869
  348MPD2    C1 5213   3.106   3.563  11.959  0.0582  0.3622 -0.2080
  348MPD2    C2 5214   3.076   3.616  11.833 -0.2833 -0.2180  0.2971
  348MPD2    C3 5215   2.950   3.652  11.798 -0.1697  0.4477  0.3012
  348MPD2    C4 5216   2.844   3.615  11.879  0.2271  0.4942 -0.1197
  348MPD2    C5 5217   2.869   3.568  12.006  0.1663  0.6416  0.7804
  348MPD2     H 5218   3.155   3.626  11.759  0.8389 -0.3488  1.4740
  348MPD2    H1 5219   2.738   3.636  11.864  0.3466  0.6902 -0.6881
  348MPD2    H2 5220   3.007   3.505  12.148 -1.1273 -0.5532 -0.6128
  348MPD2    H3 5221   2.785   3.541  12.069 -0.2980 -1.5309 -0.7783
  348MPD2     N 5222   2.919   3.712  11.674 -0.1360  0.3354  0.2903
  348MPD2    H5 5223   2.994   3.730  11.608  0.6118 -1.8759  0.5138
  348MPD2    N1 5224   3.236   3.531  11.991  0.2060 -0.3234 -0.7275
  348MPD2    H7 5225   3.296   3.546  11.909  1.2458 -0.7393 -0.0468
  349TMC3    C1 5226   3.419   3.424  12.067  0.1097 -0.8737  0.2850
  349TMC3    C2 5227   3.463   3.299  12.104  0.2521  0.0666 -1.0055
  349TMC3    C3 5228   3.558   3.235  12.024  0.4761 -0.9757  0.2562
  349TMC3    C4 5229   3.487   3.496  11.967 -0.4352  0.5019 -1.2371
  349TMC3    C5 5230   3.591   3.434  11.898 -0.2213  0.0504 -0.3644
  349TMC3    C6 5231   3.613   3.299  11.919 -0.0626 -0.4011  0.5882
  349TMC3     C 5232   3.282   3.465  12.098 -0.5745  0.0132  0.1551
  349TMC3     O 5233   3.221   3.403  12.182 -0.6222 -0.2018  0.6666
  349TMC3     H 5234   3.402   3.238  12.171  0.0023 -0.3797 -1.6409
  349TMC3    H1 5235   3.459   3.600  11.951 -0.3015  0.8027  0.5052
  349TMC3    H2 5236   3.675   3.248  11.847 -1.2657 -0.8811 -0.1028
  349TMC3    C7 5237   3.608   3.485  11.766  0.4145  0.8201  0.0534
  349TMC3    C8 5238   3.621   3.111  12.076  0.1342  0.0246 -0.4401
  349TMC3    O1 5239   3.579   3.415  11.672 -0.2481  0.3205 -0.7138
  349TMC3    O2 5240   3.594   3.069  12.186  0.1540  0.4477  0.4047
  350MPD2     C 5241   2.383   1.845   9.903  0.2592  0.0173  0.1372
  350MPD2    C1 5242   2.396   1.712   9.867  0.2486 -0.3637 -0.0723
  350MPD2    C2 5243   2.505   1.678   9.790  0.3379  0.3602  0.3112
  350MPD2    C3 5244   2.605   1.772   9.764 -0.0644  0.7678  0.2766
  350MPD2    C4 5245   2.592   1.904   9.809 -0.3657 -0.0791 -0.2296
  350MPD2    C5 5246   2.475   1.930   9.878  0.1958 -0.2958 -0.5074
  350MPD2     H 5247   2.510   1.583   9.737  3.4196  0.4971  0.3650
  350MPD2    H1 5248   2.665   1.984   9.802 -0.5072  0.1686  1.2512
  350MPD2    H2 5249   2.292   1.882   9.950 -0.4922 -0.7773 -0.6813
  350MPD2    H3 5250   2.456   2.029   9.919  4.2649  0.0328  0.6117
  350MPD2     N 5251   2.706   1.732   9.682 -0.3847  0.5879 -0.1372
  350MPD2    H5 5252   2.711   1.632   9.671  0.0315  0.7401 -1.3621
  350MPD2    N1 5253   2.306   1.616   9.895 -1.3498  0.1047  0.1370
  350MPD2    H7 5254   2.333   1.520   9.878  0.5529  0.8256 -0.9203
  351TMC3    C1 5255   2.111   1.517   9.969 -0.1104  0.0623  0.2713
  351TMC3    C2 5256   2.183   1.410  10.016  0.1084 -0.2422 -0.1306
  351TMC3    C3 5257   2.142   1.283   9.989  0.3616  0.9211  0.5748
  351TMC3    C4 5258   1.993   1.492   9.902  0.0959 -0.3407 -0.6458
  351TMC3    C5 5259   1.954   1.362   9.881 -0.3886 -0.3973 -0.1079
  351TMC3    C6 5260   2.027   1.258   9.919  0.6425  0.0221  0.0390
  351TMC3     C 5261   2.180   1.636   9.936 -0.8620  0.2973 -0.3626
  351TMC3     O 5262   2.104   1.730   9.921 -0.3296 -0.4423  0.2256
  351TMC3     H 5263   2.261   1.425  10.090 -0.5118  1.9074  0.0990
  351TMC3    H1 5264   1.926   1.568   9.865  0.1682 -0.2011 -0.4898
  351TMC3    H2 5265   1.996   1.158   9.893  2.0690 -0.6147  0.7822
  351TMC3    C7 5266   1.838   1.343   9.793  0.1607  0.0213  0.6228
  351TMC3    C8 5267   2.226   1.171  10.030  0.2451 -0.1172  0.1094
  351TMC3    O1 5268   1.812   1.441   9.729  0.3496 -0.3821  0.5432
  351TMC3    O2 5269   2.343   1.195  10.059  0.7294 -0.6864 -0.1670
  352MPD2     C 5270   0.944   3.887   1.392  0.1853 -0.1528  0.0633
  352MPD2    C1 5271   0.815   3.892   1.333 -0.1571  0.5672  0.0700
  352MPD2    C2 5272   0.715   3.807   1.376  0.0722 -0.5638  0.2773
  352MPD2    C3 5273   0.740   3.713   1.475  0.3176  0.2642 -0.2339
  352MPD2    C4 5274   0.866   3.717   1.541 -0.0147 -0.2392 -0.1925
  352MPD2    C5 5275   0.962   3.803   1.497 -0.1423  0.0681 -0.3463
  352MPD2     H 5276   0.618   3.819   1.328 -0.8097  0.3489  2.2512
  352MPD2    H1 5277   0.908   3.655   1.620  2.5289  1.9437  0.1619
  352MPD2    H2 5278   1.024   3.956   1.365 -0.7437  0.0267 -2.2708
  352MPD2    H3 5279   1.053   3.794   1.555  1.1544 -0.0508 -2.3871
  352MPD2     N 5280   0.646   3.613   1.510  0.3937  0.0917 -0.9582
  352MPD2    H5 5281   0.681   3.553   1.584  2.1680 -1.6151 -3.1844
  352MPD2    N1 5282   0.793   3.992   1.230 -0.2057  0.1880  0.7405
  352MPD2    H7 5283   0.874   4.048   1.207 -0.5937  0.2192 -0.5356
  353TMC3    C1 5284   0.459   3.466   1.476 -0.4943  0.4828  0.3598
  353TMC3    C2 5285   0.493   3.394   1.587  0.2608 -1.1777 -0.7273
  353TMC3    C3 5286   0.441   3.267   1.611  0.1207 -0.4191 -0.2246
  353TMC3    C4 5287   0.366   3.412   1.390  0.3670  0.1367 -0.1246
  353TMC3    C5 5288   0.311   3.285   1.413 -0.3717  0.4929  0.4548
  353TMC3    C6 5289   0.346   3.216   1.525  0.4379 -1.1924 -0.3136
  353TMC3     C 5290   0.538   3.584   1.431  0.1624  0.2615  0.3155
  353TMC3     O 5291   0.498   3.634   1.324  0.1298 -0.0342 -0.2302
  353TMC3     H 5292   0.571   3.431   1.653 -1.1162 -1.0824  0.8299
  353TMC3    H1 5293   0.356   3.455   1.291 -0.5493  0.4044  0.0810
  353TMC3    H2 5294   0.288   3.126   1.539  2.1234 -2.1223  0.6734
  353TMC3    C7 5295   0.188   3.245   1.353 -0.3272 -0.1218  0.1592
  353TMC3    C8 5296   0.518   3.174   1.687 -0.3003  0.0269 -0.5908
  353TMC3    O1 5297   0.155   3.131   1.375  0.7450  0.8923 -0.0688
  353TMC3    O2 5298   0.596   3.222   1.769  0.1666  0.4605 -0.1217
  354TMC3    C1 5299   2.669   0.231  13.491  0.1670 -0.2552 -0.0102
  354TMC3    C2 5300   2.632   0.363  13.481 -0.7343  0.1349 -0.4753
  354TMC3    C3 5301   2.633   0.414  13.352 -0.3302 -0.6573 -0.4716
  354TMC3    C4 5302   2.698   0.160  13.383 -0.0827  0.6597  1.4099
  354TMC3    C5 5303   2.696   0.210  13.256 -0.6146 -0.0925  0.0005
  354TMC3    C6 5304   2.662   0.337  13.233 -0.1439 -0.3915 -0.0571
  354TMC3     C 5305   2.669   0.177  13.627  0.6107 -0.4456 -0.4791
  354TMC3     O 5306   2.635   0.254  13.714  0.3837 -0.1706  0.6119
  354TMC3     H 5307   2.623   0.427  13.568 -1.5047  1.3254 -1.4339
  354TMC3    H1 5308   2.741   0.060  13.384  1.6162  1.3711 -1.7109
  354TMC3    H2 5309   2.679   0.393  13.142  2.9040  0.6767  1.1843
  354TMC3    C7 5310   2.735   0.124  13.144 -0.0745 -0.2072 -0.0057
  354TMC3    C8 5311   2.612   0.556  13.345 -0.0188 -0.1078 -0.6528
  354TMC3    O1 5312   2.726   0.004  13.165 -0.3164 -0.0268  0.2838
  354TMC3    O2 5313   2.629   0.617  13.452 -0.4875 -0.0551  0.2886
  355MPD2     C 5314   2.687   1.028  11.171 -0.1956 -0.0527 -0.1453
  355MPD2    C1 5315   2.747   1.062  11.051 -0.5565 -0.0464 -0.3362
  355MPD2    C2 5316   2.884   1.039  11.033 -0.1101 -0.4498 -0.0773
  355MPD2    C3 5317   2.965   1.003  11.137  0.3627 -0.1775  0.2483
  355MPD2    C4 5318   2.902   0.982  11.264  0.0676  0.4912 -0.2310
  355MPD2    C5 5319   2.768   0.988  11.275  0.1700  0.0763  0.0973
  355MPD2     H 5320   2.938   1.062  10.942 -0.3969  1.2928  0.2060
  355MPD2    H1 5321   2.965   0.968  11.352 -1.7695  1.9143  1.2937
  355MPD2    H2 5322   2.580   1.039  11.186 -0.5263  0.9844 -3.2952
  355MPD2    H3 5323   2.729   0.958  11.372 -1.8557 -0.4419 -0.8796
  355MPD2     N 5324   3.107   1.006  11.134  0.5436 -0.3444 -0.2438
  355MPD2    H5 5325   3.160   0.987  11.218 -0.1690  2.4157  0.8373
  355MPD2    N1 5326   2.658   1.107  10.948 -0.7298  0.0370  0.3410
  355MPD2    H7 5327   2.573   1.158  10.968 -1.0283  0.0566 -0.9660
  356TMC3    C1 5328   3.318   1.095  11.085  0.2931  0.4697  0.2517
  356TMC3    C2 5329   3.403   1.153  10.997 -0.4804  0.1625  0.9858
  356TMC3    C3 5330   3.527   1.194  11.038 -0.0023  0.2231  0.2872
  356TMC3    C4 5331   3.351   1.094  11.217  0.0007  0.1131  0.0123
  356TMC3    C5 5332   3.477   1.132  11.260  0.0211  0.3642 -0.1999
  356TMC3    C6 5333   3.568   1.177  11.167  0.5642 -1.4080 -0.1036
  356TMC3     C 5334   3.183   1.066  11.038  0.1209  0.3717 -0.2922
  356TMC3     O 5335   3.162   1.096  10.920 -0.8154  0.3613 -0.0548
  356TMC3     H 5336   3.385   1.171  10.892  2.7187  1.8367  0.7344
  356TMC3    H1 5337   3.284   1.059  11.295 -1.4834  2.2200 -0.3064
  356TMC3    H2 5338   3.674   1.192  11.189  0.0764  0.1345  1.1911
  356TMC3    C7 5339   3.500   1.137  11.402  0.1491  0.4370  0.1226
  356TMC3    C8 5340   3.621   1.229  10.928 -0.8299 -0.0148  0.0116
  356TMC3    O1 5341   3.434   1.073  11.478 -0.4123 -0.0217 -0.0803
  356TMC3    O2 5342   3.599   1.175  10.817  0.2593 -0.2017 -0.3942
  357MPD2     C 5343   1.597   0.453   1.616 -0.0408 -0.7438 -0.4552
  357MPD2    C1 5344   1.664   0.572   1.623 -0.1941 -0.0333  0.6716
  357MPD2    C2 5345   1.672   0.631   1.746 -0.0112  0.0111 -0.0491
  357MPD2    C3 5346   1.629   0.572   1.865  0.1647 -0.5482  0.2681
  357MPD2    C4 5347   1.571   0.443   1.849  0.2256 -0.0213 -0.1828
  357MPD2    C5 5348   1.549   0.389   1.724  0.4800 -0.3483  0.5253
  357MPD2     H 5349   1.725   0.726   1.754  1.5385 -0.9855  1.4663
  357MPD2    H1 5350   1.520   0.393   1.930  1.2334 -0.4634  0.1746
  357MPD2    H2 5351   1.576   0.398   1.525 -2.3034 -3.5765  1.7821
  357MPD2    H3 5352   1.495   0.298   1.701  1.7856 -1.1429  0.5860
  357MPD2     N 5353   1.635   0.630   1.993 -0.8886 -0.0966  0.2582
  357MPD2    H5 5354   1.588   0.585   2.071  0.3054  1.0111  1.6003
  357MPD2    N1 5355   1.736   0.606   1.508  0.1167 -0.1555 -0.0627
  357MPD2    H7 5356   1.731   0.540   1.431 -1.8931  1.7410 -1.5869
  358TMC3    C1 5357   1.877   0.720   1.373 -0.5822  0.9541  0.4924
  358TMC3    C2 5358   1.889   0.605   1.296 -0.0619 -0.2076 -0.2192
  358TMC3    C3 5359   1.947   0.619   1.168  0.0254  0.2572  0.3361
  358TMC3    C4 5360   1.929   0.840   1.336  0.1314  0.6117  0.6157
  358TMC3    C5 5361   1.984   0.855   1.213  0.0974  0.9450  0.7622
  358TMC3    C6 5362   1.997   0.745   1.129 -0.7794 -0.5036  0.3589
  358TMC3     C 5363   1.812   0.718   1.499 -0.6858  0.2731  0.3754
  358TMC3     O 5364   1.819   0.818   1.569 -0.0542 -0.2658 -0.1185
  358TMC3     H 5365   1.871   0.509   1.343 -1.5078  0.5170  0.7245
  358TMC3    H1 5366   1.906   0.924   1.399 -0.1557  0.2396  1.0100
  358TMC3    H2 5367   2.069   0.754   1.049 -1.7249 -0.5733 -0.4936
  358TMC3    C7 5368   2.084   0.955   1.192 -0.7519 -0.3119 -0.2970
  358TMC3    C8 5369   2.007   0.505   1.095 -0.7059 -0.0194  0.7868
  358TMC3    O1 5370   2.120   0.988   1.079  0.4539  0.0207 -0.1419
  358TMC3    O2 5371   2.104   0.526   1.027 -0.3824 -0.4947  0.1023
  359MPD2     C 5372   3.009   4.177  12.774 -0.2044  0.8679  0.3997
  359MPD2    C1 5373   2.948   4.106  12.671  0.0256  0.2981 -0.3224
  359MPD2    C2 5374   2.809   4.104  12.667  0.5316 -0.1813  0.3817
  359MPD2    C3 5375   2.735   4.178  12.758 -0.0809  0.1313  0.2545
  359MPD2    C4 5376   2.797   4.255  12.853  0.1778  0.4091 -0.6451
  359MPD2    C5 5377   2.932   4.242  12.859  0.6147 -0.1752 -0.4695
  359MPD2     H 5378   2.760   4.042  12.592 -0.1928 -0.2415  0.9055
  359MPD2    H1 5379   2.739   4.307  12.929 -0.0415  0.9181 -1.1590
  359MPD2    H2 5380   3.115   4.182  12.792 -0.0910 -1.0047  0.2161
  359MPD2    H3 5381   2.985   4.290  12.940  1.4798 -1.2367 -0.4031
  359MPD2     N 5382   2.595   4.182  12.765 -0.1198  0.4285  0.3239
  359MPD2    H5 5383   2.554   4.238  12.839 -0.4007  2.7090 -1.5347
  359MPD2    N1 5384   3.008   4.036  12.567  0.0601 -0.3596 -0.0564
  359MPD2    H7 5385   2.941   4.007  12.497  0.5249 -1.6787  0.0521
  360TMC3    C1 5386   3.193   3.965  12.433  0.0171 -0.2157 -0.0397
  360TMC3    C2 5387   3.320   3.989  12.403 -0.4261 -0.3759  0.5525
  360TMC3    C3 5388   3.363   3.957  12.280 -0.4250 -0.4222  0.1778
  360TMC3    C4 5389   3.102   3.910  12.341 -0.3172 -0.6736  0.1200
  360TMC3    C5 5390   3.146   3.881  12.216  0.3648  0.1088 -0.7314
  360TMC3    C6 5391   3.280   3.901  12.185 -0.2471  0.4182 -0.1142
  360TMC3     C 5392   3.148   4.034  12.553 -0.4222  0.2038  0.2380
  360TMC3     O 5393   3.230   4.078  12.630 -0.8160 -0.2376 -0.6014
  360TMC3     H 5394   3.370   4.065  12.463 -1.3206  0.2170  0.5555
  360TMC3    H1 5395   2.997   3.895  12.363 -0.7458  1.1067 -0.7649
  360TMC3    H2 5396   3.324   3.883  12.088  1.6995  0.8724  0.6942
  360TMC3    C7 5397   3.065   3.889  12.095 -0.4343  0.3046  0.6493
  360TMC3    C8 5398   3.430   4.079  12.233 -0.5190  0.7509 -0.3740
  360TMC3    O1 5399   3.129   3.889  11.989 -0.1659  0.4935  0.1896
  360TMC3    O2 5400   3.387   4.190  12.256 -0.7461  0.3536 -0.3372
  361MPD2     C 5401   0.193   3.313  16.327  0.0949  0.2046 -0.1165
  361MPD2    C1 5402   0.124   3.287  16.445 -0.7290 -0.0373 -0.2094
  361MPD2    C2 5403   0.201   3.251  16.551 -0.1952 -0.3161 -0.2348
  361MPD2    C3 5404   0.333   3.226  16.541  0.2035  0.6583  0.0915
  361MPD2    C4 5405   0.396   3.244  16.421 -0.1360 -0.0594  0.3858
  361MPD2    C5 5406   0.323   3.287  16.310 -0.4053  0.1615 -0.5722
  361MPD2     H 5407   0.149   3.222  16.641 -0.8312 -0.4372 -0.6449
  361MPD2    H1 5408   0.502   3.221  16.410 -0.1518  0.6074 -1.0890
  361MPD2    H2 5409   0.137   3.338  16.238 -2.0873 -0.1006  1.1503
  361MPD2    H3 5410   0.367   3.304  16.213  0.1693 -0.9265 -0.4941
  361MPD2     N 5411   0.416   3.188  16.649 -0.0285 -0.5453 -0.4822
  361MPD2    H5 5412   0.506   3.151  16.619  0.1472 -2.1355  1.9608
  361MPD2    N1 5413   4.712   3.321  16.458  0.1038  0.2194  0.3656
  361MPD2    H7 5414   4.662   3.365  16.381 -1.0643  2.1674  2.2570
  362TMC3    C1 5415   4.498   3.337  16.563 -0.0781  0.8261 -0.3230
  362TMC3    C2 5416   4.405   3.276  16.643 -0.0731 -0.5586 -0.0752
  362TMC3    C3 5417   4.281   3.338  16.651 -0.9919 -0.1719 -0.1419
  362TMC3    C4 5418   4.476   3.452  16.497 -0.4247 -0.3829 -0.8159
  362TMC3    C5 5419   4.348   3.493  16.496 -0.1185 -0.2923 -0.1117
  362TMC3    C6 5420   4.251   3.447  16.576  0.0755  0.7941 -0.4050
  362TMC3     C 5421   4.632   3.287  16.566  0.0974  0.8861  0.1726
  362TMC3     O 5422   4.655   3.198  16.649 -0.7571 -0.1313  0.5263
  362TMC3     H 5423   4.423   3.193  16.709 -0.3559 -0.5109  0.0637
  362TMC3    H1 5424   4.552   3.499  16.436  0.5082 -0.2424  0.4461
  362TMC3    H2 5425   4.151   3.490  16.575 -0.1082  0.4013  0.8869
  362TMC3    C7 5426   4.321   3.601  16.398 -0.8128 -0.3609 -0.1961
  362TMC3    C8 5427   4.172   3.275  16.733  0.0859  0.0933 -0.0326
  362TMC3    O1 5428   4.412   3.672  16.356  0.3159 -0.8064  0.0947
  362TMC3    O2 5429   4.160   3.153  16.734 -0.3187 -1.0897 -0.3275
  363TMC3    C1 5430   3.014   0.974   9.077  0.2398  0.2543 -0.2039
  363TMC3    C2 5431   3.143   0.935   9.098 -1.0622 -0.5344 -0.4150
  363TMC3    C3 5432   3.246   1.027   9.101  0.7111  0.3790  1.0409
  363TMC3    C4 5433   2.987   1.109   9.070 -0.5297 -0.2015 -0.3302
  363TMC3    C5 5434   3.089   1.196   9.067  0.0484 -0.0784  0.1430
  363TMC3    C6 5435   3.221   1.156   9.074  0.3185 -0.0782  0.1131
  363TMC3     C 5436   2.938   0.889   8.983  0.5467 -0.1177  0.0028
  363TMC3     O 5437   2.993   0.796   8.925 -0.5230 -0.3708  0.3980
  363TMC3     H 5438   3.172   0.831   9.099 -1.2880 -0.5650  1.6657
  363TMC3    H1 5439   2.893   1.162   9.058 -1.6821 -2.6622 -2.2822
  363TMC3    H2 5440   3.294   1.229   9.040 -0.6969 -0.0575 -2.0358
  363TMC3    C7 5441   3.065   1.331   9.104  0.0797 -0.1106  0.5784
  363TMC3    C8 5442   3.382   0.988   9.142  0.1103  0.5585 -0.2797
  363TMC3    O1 5443   2.967   1.378   9.049 -0.6708  0.2111  0.0934
  363TMC3    O2 5444   3.454   1.083   9.144 -0.5211 -0.0302  0.1896
  364MPD2     C 5445   1.579   4.617  10.198 -0.0682 -0.3568  0.5601
  364MPD2    C1 5446   1.646   0.005  10.229 -0.1491  0.0142  0.3182
  364MPD2    C2 5447   1.736   0.006  10.332 -0.1349  0.0160 -0.0205
  364MPD2    C3 5448   1.768   4.607  10.387 -0.4016  0.5854  0.7831
  364MPD2    C4 5449   1.703   4.489  10.357  0.0294 -0.2610 -0.6534
  364MPD2    C5 5450   1.609   4.500  10.261 -0.1080  0.5504 -0.0029
  364MPD2     H 5451   1.786   0.097  10.363  0.5731 -0.3285 -0.1620
  364MPD2    H1 5452   1.713   4.404  10.424 -1.5143  0.2253  0.1776
  364MPD2    H2 5453   1.506   4.611  10.118  0.2809  1.6341  0.1106
  364MPD2    H3 5454   1.554   4.414  10.225 -2.1970  2.4281 -1.3324
  364MPD2     N 5455   1.860   4.602  10.492 -0.2808 -0.1164 -0.5127
  364MPD2    H5 5456   1.890   4.509  10.519 -0.8570  0.4597  2.0862
  364MPD2    N1 5457   1.615   0.120  10.151  0.0310  0.0310  0.1798
  364MPD2    H7 5458   1.574   0.102  10.060 -0.2078  2.1698 -0.1365
  365TMC3    C1 5459   1.641   0.320  10.051 -0.4479 -0.6793  0.0966
  365TMC3    C2 5460   1.713   0.278   9.942  0.1665  0.6075  0.8361
  365TMC3    C3 5461   1.786   0.373   9.866 -0.2093  0.5225 -0.1027
  365TMC3    C4 5462   1.635   0.454  10.084  0.0694  0.0623 -0.4323
  365TMC3    C5 5463   1.718   0.539  10.011  0.4261  0.4376  0.6458
  365TMC3    C6 5464   1.787   0.505   9.898  0.5079  0.0770 -0.6546
  365TMC3     C 5465   1.666   0.241  10.166 -0.6288  0.0871  1.0148
  365TMC3     O 5466   1.731   0.292  10.259 -0.0154 -0.0066  0.1267
  365TMC3     H 5467   1.729   0.176   9.907  0.5747  0.8533  0.3112
  365TMC3    H1 5468   1.582   0.491  10.172  0.1208  2.0566 -1.2246
  365TMC3    H2 5469   1.845   0.584   9.852 -0.3231  0.6435 -0.7372
  365TMC3    C7 5470   1.776   0.636  10.099 -0.0137  1.1033 -0.4376
  365TMC3    C8 5471   1.904   0.326   9.792  0.0998  0.3988  0.2356
  365TMC3    O1 5472   1.821   0.743  10.050 -0.3522 -0.1681 -0.2202
  365TMC3    O2 5473   1.970   0.408   9.736 -0.1288 -0.0318 -0.0209
  366MPD2     C 5474   0.089   1.604  15.097  0.5592  0.0149  0.4239
  366MPD2    C1 5475   0.160   1.664  15.204 -0.3402 -0.2466  0.6743
  366MPD2    C2 5476   0.222   1.580  15.296 -0.6340  0.0541 -0.2720
  366MPD2    C3 5477   0.200   1.443  15.285 -0.5934 -0.3453 -0.4149
  366MPD2    C4 5478   0.131   1.389  15.172 -0.2227  0.8465  0.1406
  366MPD2    C5 5479   0.074   1.470  15.088 -0.3437 -0.2052  0.4302
  366MPD2     H 5480   0.285   1.612  15.378  0.9097 -1.3929 -0.8771
  366MPD2    H1 5481   0.118   1.282  15.161  4.0560  0.2810  0.5597
  366MPD2    H2 5482   0.049   1.665  15.018  1.3601  0.9845  0.7710
  366MPD2    H3 5483   0.007   1.436  15.010  0.1489 -0.6939  0.2189
  366MPD2     N 5484   0.281   1.369  15.363  0.5457  0.0162 -0.4186
  366MPD2    H5 5485   0.337   1.425  15.427 -2.1788 -1.1313  2.9485
  366MPD2    N1 5486   0.190   1.797  15.216 -0.0062  0.2812  0.3587
  366MPD2    H7 5487   0.246   1.830  15.295  0.6182 -0.7121  0.3279
  367TMC3    C1 5488   0.247   2.005  15.142  0.6134 -0.7696 -0.5447
  367TMC3    C2 5489   0.368   1.983  15.204 -0.0179 -0.0067 -0.5655
  367TMC3    C3 5490   0.444   2.100  15.226 -0.1382 -0.5471  0.3128
  367TMC3    C4 5491   0.207   2.123  15.089  0.1493  0.2501 -0.5159
  367TMC3    C5 5492   0.289   2.231  15.108  0.5104 -0.7189 -0.1864
  367TMC3    C6 5493   0.403   2.223  15.188 -0.4292  0.3174 -0.3378
  367TMC3     C 5494   0.162   1.890  15.124  0.5916 -0.8499  0.5355
  367TMC3     O 5495   0.079   1.885  15.033 -0.1420  0.6452  0.0312
  367TMC3     H 5496   0.401   1.884  15.234  0.4802  0.4479  0.3835
  367TMC3    H1 5497   0.120   2.135  15.026  0.4466  0.1816 -0.9373
  367TMC3    H2 5498   0.476   2.303  15.189 -0.4750  0.3745 -1.3491
  367TMC3    C7 5499   0.239   2.365  15.090  0.2304  0.1454  0.6270
  367TMC3    C8 5500   0.563   2.084  15.305 -0.2860 -0.1740  0.6699
  367TMC3    O1 5501   0.282   2.448  15.169 -0.0374  0.4537  0.7483
  367TMC3    O2 5502   0.632   1.985  15.282 -0.0970 -0.2530  0.5603
  368MPD2     C 5503   0.926   3.373  13.396  0.4332  0.3314 -0.1085
  368MPD2    C1 5504   0.923   3.450  13.283  0.0227  0.1679 -0.0363
  368MPD2    C2 5505   1.023   3.549  13.272 -1.0774 -1.1076  0.1590
  368MPD2    C3 5506   1.135   3.549  13.358 -0.2386  0.7687 -0.2541
  368MPD2    C4 5507   1.132   3.464  13.468  0.2322  0.0446  0.4376
  368MPD2    C5 5508   1.027   3.381  13.490  0.0466 -0.1584  0.2669
  368MPD2     H 5509   1.032   3.619  13.190 -0.5715 -0.3556  0.8609
  368MPD2    H1 5510   1.201   3.465  13.552 -0.1765 -0.0997  0.7773
  368MPD2    H2 5511   0.847   3.303  13.421 -0.1665  1.2409  0.5388
  368MPD2    H3 5512   1.012   3.326  13.583  1.2920 -3.1439 -1.3104
  368MPD2     N 5513   1.246   3.633  13.338  0.1326  0.0898 -0.5153
  368MPD2    H5 5514   1.331   3.594  13.377  0.1337 -1.1119 -1.7056
  368MPD2    N1 5515   0.823   3.420  13.187  0.2082 -0.6398  0.4425
  368MPD2    H7 5516   0.750   3.352  13.206 -2.8758  2.1508 -1.3208
  369TMC3    C1 5517   0.686   3.488  13.009  0.2064 -1.0833 -0.0765
  369TMC3    C2 5518   0.671   3.534  12.881  1.2203 -0.1989  0.1274
  369TMC3    C3 5519   0.545   3.570  12.833 -0.1319  0.0011 -0.1348
  369TMC3    C4 5520   0.580   3.474  13.095 -0.3600 -0.1381 -0.0441
  369TMC3    C5 5521   0.457   3.505  13.046 -0.0176  0.3980 -0.6847
  369TMC3    C6 5522   0.435   3.544  12.916 -0.4439 -0.8306  0.0488
  369TMC3     C 5523   0.816   3.494  13.065  0.0360  0.3908 -0.2498
  369TMC3     O 5524   0.888   3.577  13.011 -0.4443  0.4985 -0.6525
  369TMC3     H 5525   0.762   3.545  12.823  0.6469 -2.0279 -1.1364
  369TMC3    H1 5526   0.584   3.448  13.200  0.0814 -2.7633 -0.7196
  369TMC3    H2 5527   0.333   3.572  12.892 -0.1928 -0.5858 -0.7667
  369TMC3    C7 5528   0.346   3.440  13.120  0.6979  0.2148 -0.2673
  369TMC3    C8 5529   0.522   3.625  12.700 -0.4699  0.8874  0.1321
  369TMC3    O1 5530   0.383   3.346  13.183  0.3774  0.2893 -0.0929
  369TMC3    O2 5531   0.413   3.611  12.649  0.8209  0.0438  0.2197
  370TMC3    C1 5532   1.120   4.031  15.819  0.3980  0.8601  0.3324
  370TMC3    C2 5533   1.011   3.967  15.886  0.1602  0.8128  0.8669
  370TMC3    C3 5534   0.989   3.836  15.871  0.7052  0.0514 -0.4562
  370TMC3    C4 5535   1.198   3.959  15.734 -0.6097  0.3260 -0.5753
  370TMC3    C5 5536   1.167   3.826  15.707 -0.3300  0.3849 -0.5153
  370TMC3    C6 5537   1.059   3.768  15.771 -0.0393 -0.4067 -1.0914
  370TMC3     C 5538   1.188   4.099  15.928  0.6248  0.7180 -0.6563
  370TMC3     O 5539   1.182   4.053  16.042 -0.2863 -0.3383  0.2793
  370TMC3     H 5540   0.970   4.034  15.961  1.1008  1.0053  1.2223
  370TMC3    H1 5541   1.291   4.001  15.699 -0.2264  0.9262  1.1523
  370TMC3    H2 5542   1.038   3.662  15.761 -0.3614 -0.4558  0.1335
  370TMC3    C7 5543   1.248   3.759  15.607 -0.0508  0.0077 -0.7996
  370TMC3    C8 5544   0.956   3.758  15.987 -0.1074 -0.4576 -0.5926
  370TMC3    O1 5545   1.287   3.816  15.506  0.2073 -0.1613  0.2002
  370TMC3    O2 5546   0.990   3.640  15.982  0.6587  0.2440  0.5656
  371TMC3    C1 5547   2.446   2.118  15.359 -0.1144  0.4313  0.1456
  371TMC3    C2 5548   2.314   2.096  15.378  0.5483 -0.5020  0.0054
  371TMC3    C3 5549   2.229   2.198  15.357 -0.9641 -0.1292 -0.3936
  371TMC3    C4 5550   2.492   2.226  15.286 -0.5180  0.1250  0.2836
  371TMC3    C5 5551   2.403   2.328  15.263  0.1006  0.4572 -0.5392
  371TMC3    C6 5552   2.272   2.318  15.300  0.2982 -0.7229 -0.2114
  371TMC3     C 5553   2.550   2.038  15.420 -0.1037 -0.2347  0.2143
  371TMC3     O 5554   2.666   2.080  15.412  0.4112  0.7838 -0.4868
  371TMC3     H 5555   2.288   2.021  15.451  0.4148  0.3599  0.8438
  371TMC3    H1 5556   2.599   2.232  15.271 -0.5729  3.0191  1.0285
  371TMC3    H2 5557   2.196   2.386  15.265 -0.1510  0.6352  3.4376
  371TMC3    C7 5558   2.443   2.462  15.219 -0.5731 -0.1656 -0.5254
  371TMC3    C8 5559   2.092   2.193  15.409  0.5876 -0.2934 -0.2520
  371TMC3    O1 5560   2.364   2.557  15.232  0.0960  0.5165 -0.2588
  371TMC3    O2 5561   2.048   2.082  15.426 -0.2463 -0.2502 -0.4433
  372MPD2     C 5562   1.551   3.533  12.939  0.5785 -0.0543  0.8696
  372MPD2    C1 5563   1.674   3.504  12.989  0.4900  0.1589  0.3480
  372MPD2    C2 5564   1.682   3.429  13.105  0.2936 -0.3072  1.0744
  372MPD2    C3 5565   1.576   3.380  13.173 -0.2077  0.1188 -1.3611
  372MPD2    C4 5566   1.454   3.423  13.126 -0.0450  0.2562 -0.0749
  372MPD2    C5 5567   1.443   3.487  13.009 -0.4607 -0.5845 -0.1129
  372MPD2     H 5568   1.781   3.412  13.146  0.3944  0.7308  1.2613
  372MPD2    H1 5569   1.357   3.404  13.172  0.0364 -0.4087 -0.1770
  372MPD2    H2 5570   1.532   3.591  12.850 -1.2084 -0.2391  1.1374
  372MPD2    H3 5571   1.345   3.507  12.967  0.0806  0.4493 -0.8981
  372MPD2     N 5572   1.593   3.291  13.274  0.4042  0.4968  0.1398
  372MPD2    H5 5573   1.687   3.254  13.285 -0.4597 -0.8517  2.9308
  372MPD2    N1 5574   1.795   3.545  12.928  0.2300  0.6778 -0.7514
  372MPD2    H7 5575   1.879   3.505  12.969 -0.6618  1.2230  1.6036
  373TMC3    C1 5576   1.529   3.143  13.442  0.0790  0.4666  0.6108
  373TMC3    C2 5577   1.452   3.131  13.550  0.3655  0.7238 -0.2529
  373TMC3    C3 5578   1.455   3.008  13.612  0.7179  0.5471 -0.3503
  373TMC3    C4 5579   1.620   3.050  13.392  0.1522 -0.0516  0.0601
  373TMC3    C5 5580   1.614   2.930  13.457  0.4333 -0.2428  0.7384
  373TMC3    C6 5581   1.521   2.900  13.555  0.3891  0.5117 -0.0787
  373TMC3     C 5582   1.490   3.245  13.352 -0.1242  0.0363  0.5084
  373TMC3     O 5583   1.370   3.269  13.355  0.5253  0.4923  0.1545
  373TMC3     H 5584   1.410   3.217  13.599  1.1958  0.2886  1.2134
  373TMC3    H1 5585   1.675   3.068  13.300  1.9222 -0.0950  1.1228
  373TMC3    H2 5586   1.534   2.809  13.612 -0.9031  1.1329  1.2172
  373TMC3    C7 5587   1.727   2.840  13.431 -0.4684  0.0696  0.0665
  373TMC3    C8 5588   1.357   2.997  13.718 -0.7057  0.0825 -0.3894
  373TMC3    O1 5589   1.720   2.722  13.460 -0.3770  0.2830  0.5357
  373TMC3    O2 5590   1.249   3.055  13.700  0.1883  0.2390  0.3127
  374TMC3    C1 5591   2.221   3.537   9.374 -0.5335 -0.3732 -0.0136
  374TMC3    C2 5592   2.268   3.656   9.439  0.1165  0.1752 -0.2605
  374TMC3    C3 5593   2.249   3.784   9.384 -0.0959 -0.1937  0.2156
  374TMC3    C4 5594   2.163   3.556   9.249 -0.1176  0.0886 -0.1933
  374TMC3    C5 5595   2.146   3.687   9.198  0.8948 -0.3594  0.1770
  374TMC3    C6 5596   2.177   3.799   9.268  0.0905 -0.1646 -0.0287
  374TMC3     C 5597   2.217   3.406   9.443 -0.4420 -0.3262 -0.0364
  374TMC3     O 5598   2.162   3.316   9.378  0.1655  0.2061 -0.2873
  374TMC3     H 5599   2.310   3.644   9.538  1.0078 -0.8640 -0.7700
  374TMC3    H1 5600   2.127   3.470   9.193  2.2889 -1.1015  0.0624
  374TMC3    H2 5601   2.165   3.894   9.216 -1.2981 -1.6787 -2.4383
  374TMC3    C7 5602   2.098   3.711   9.065  0.1601 -0.3302 -0.0010
  374TMC3    C8 5603   2.293   3.906   9.449  0.1349 -0.2894 -0.2210
  374TMC3    O1 5604   2.118   3.824   9.021 -0.0657 -0.1086  0.2028
  374TMC3    O2 5605   2.263   4.008   9.390  0.5189 -0.0047 -0.0020
  375MPD2     C 5606   2.687   4.234  16.963  0.3206  0.0405 -0.4018
  375MPD2    C1 5607   2.578   4.204  16.887 -0.1029 -0.4950 -0.6523
  375MPD2    C2 5608   2.599   4.192  16.750 -0.3880 -0.2618  0.7671
  375MPD2    C3 5609   2.723   4.210  16.687 -0.7570  0.3503 -0.0497
  375MPD2    C4 5610   2.830   4.241  16.767 -1.3076  0.0119 -0.5474
  375MPD2    C5 5611   2.811   4.257  16.909 -0.5737 -0.4806  0.0375
  375MPD2     H 5612   2.511   4.171  16.690  0.3665  3.8669 -1.7508
  375MPD2    H1 5613   2.932   4.241  16.732 -0.9891 -0.5862  0.3925
  375MPD2    H2 5614   2.688   4.242  17.071  2.9769  0.0929 -0.4248
  375MPD2    H3 5615   2.894   4.280  16.974 -1.6940  0.8969  0.9731
  375MPD2     N 5616   2.741   4.227  16.540  0.2078 -0.1771  0.9015
  375MPD2    H5 5617   2.835   4.253  16.512 -0.2471  0.5817  0.0640
  375MPD2    N1 5618   2.442   4.200  16.930 -0.5987  0.1648  0.2574
  375MPD2    H7 5619   2.376   4.166  16.862 -1.0635 -1.7652  1.6849
  376TMC3    C1 5620   2.691   4.222  16.304 -0.2117  0.1119 -0.7483
  376TMC3    C2 5621   2.825   4.217  16.275  0.0400 -0.7177  0.1929
  376TMC3    C3 5622   2.871   4.179  16.155  0.0641  0.4071  0.1637
  376TMC3    C4 5623   2.600   4.202  16.211  0.1610  0.7448 -0.6109
  376TMC3    C5 5624   2.644   4.160  16.090 -0.6415  0.4077  0.7171
  376TMC3    C6 5625   2.781   4.151  16.059  0.0226 -0.2294 -1.3119
  376TMC3     C 5626   2.645   4.195  16.438 -0.5542  0.1604 -0.5890
  376TMC3     O 5627   2.533   4.152  16.458  0.1595 -0.1111 -0.4871
  376TMC3     H 5628   2.901   4.232  16.351  0.4990 -0.8992 -0.2317
  376TMC3    H1 5629   2.495   4.213  16.239 -0.5759 -1.1644 -2.6106
  376TMC3    H2 5630   2.810   4.148  15.955 -2.0578 -0.5426 -1.8685
  376TMC3    C7 5631   2.555   4.164  15.975 -0.2956 -0.7581  0.0231
  376TMC3    C8 5632   3.012   4.199  16.126 -0.3566 -0.0673  0.3125
  376TMC3    O1 5633   2.609   4.169  15.863 -0.2900 -0.2520  0.4554
  376TMC3    O2 5634   3.072   4.281  16.191  0.0777  0.2290 -0.4357
  377MPD2     C 5635   0.034   3.536  12.251  0.1179 -0.0160  0.2356
  377MPD2    C1 5636   0.119   3.503  12.350 -0.2664  0.0468  0.1247
  377MPD2    C2 5637   0.079   3.509  12.483 -0.4152 -0.1348  0.0798
  377MPD2    C3 5638   4.677   3.549  12.516 -0.6358 -0.2791 -0.0829
  377MPD2    C4 5639   4.600   3.588  12.414  0.0260 -0.0584  0.1539
  377MPD2    C5 5640   4.636   3.582  12.286  0.1567  0.1202  0.3810
  377MPD2     H 5641   0.145   3.485  12.565  1.9104  0.3163 -1.6780
  377MPD2    H1 5642   4.497   3.619  12.427  0.3341  0.3896  1.4793
  377MPD2    H2 5643   0.074   3.527  12.151 -0.9088  0.5123 -0.2236
  377MPD2    H3 5644   4.569   3.615  12.207  2.4351 -1.0749 -2.0255
  377MPD2     N 5645   4.624   3.543  12.641  0.5357  0.3002 -0.6994
  377MPD2    H5 5646   4.534   3.590  12.649  0.2029 -0.2663 -1.0712
  377MPD2    N1 5647   0.249   3.459  12.319  0.1552 -0.5401 -0.6955
  377MPD2    H7 5648   0.289   3.461  12.226  0.8825 -0.0386 -0.3667
  378TMC3    C1 5649   0.648   3.476  12.257 -0.2523  0.1433 -0.2462
  378TMC3    C2 5650   0.514   3.441  12.255 -0.1361  0.1657 -0.5442
  378TMC3    C3 5651   0.469   3.383  12.370  0.9979  0.3545 -0.2001
  378TMC3    C4 5652   0.737   3.444  12.352 -0.3806  0.3348 -0.2039
  378TMC3    C5 5653   0.691   3.371  12.455 -0.3970 -0.0883 -0.4960
  378TMC3    C6 5654   0.559   3.335  12.456 -0.3073  0.2403 -0.2476
  378TMC3     C 5655   0.688   3.555  12.137  0.2054 -0.2374  0.7204
  378TMC3     O 5656   0.613   3.568  12.041 -0.1005 -0.3074 -0.7080
  378TMC3     H 5657   0.451   3.466  12.170 -0.8923  0.0763 -0.0078
  378TMC3    H1 5658   0.839   3.480  12.362 -0.8929  1.7538 -0.1722
  378TMC3    H2 5659   0.519   3.299  12.550  1.4481  2.4222  1.3540
  378TMC3    C7 5660   0.764   3.352  12.576 -0.5674 -0.4125  0.0553
  378TMC3    C8 5661   0.333   3.399  12.414  0.3772  0.0523  0.2008
  378TMC3    O1 5662   0.699   3.330  12.681  0.0158  0.4422 -0.2224
  378TMC3    O2 5663   0.301   3.338  12.517 -0.4825 -0.1541  0.4922
  379MPD2     C 5664   1.775   1.841  16.001 -0.0303  0.0435 -0.0174
  379MPD2    C1 5665   1.650   1.792  16.026  0.4976  1.3914  0.2941
  379MPD2    C2 5666   1.620   1.720  16.145  0.1786  1.2703  0.4615
  379MPD2    C3 5667   1.724   1.698  16.235 -0.6090 -0.8232  0.3296
  379MPD2    C4 5668   1.858   1.742  16.199 -0.0028  0.6525  0.3208
  379MPD2    C5 5669   1.877   1.810  16.087 -0.1857  0.0733  0.7337
  379MPD2     H 5670   1.523   1.674  16.160 -0.3078  2.6678  1.6755
  379MPD2    H1 5671   1.942   1.734  16.267 -0.1117  2.6060  0.7067
  379MPD2    H2 5672   1.797   1.890  15.907  0.7261  0.1390  0.2144
  379MPD2    H3 5673   1.977   1.841  16.058 -0.4559  1.8174  1.6412
  379MPD2     N 5674   1.717   1.629  16.354  0.0318 -0.0586  0.0312
  379MPD2    H5 5675   1.803   1.608  16.403  0.2323  1.8372  0.5281
  379MPD2    N1 5676   1.555   1.816  15.926 -0.2754  0.2972  0.6223
  379MPD2    H7 5677   1.586   1.866  15.844  0.9564  0.2925  1.0916
  380TMC3    C1 5678   1.347   1.834  15.819 -0.9628  0.4057  0.1513
  380TMC3    C2 5679   1.405   1.828  15.691 -0.2734  1.0388  0.1105
  380TMC3    C3 5680   1.349   1.889  15.583 -0.0141 -0.0508 -0.8887
  380TMC3    C4 5681   1.213   1.881  15.827 -0.5480  0.3490 -0.4278
  380TMC3    C5 5682   1.162   1.937  15.713 -0.6222  0.3508  0.0708
  380TMC3    C6 5683   1.228   1.948  15.597  0.3302 -0.6493 -0.2870
  380TMC3     C 5684   1.414   1.806  15.942 -0.9940 -0.2500 -0.2220
  380TMC3     O 5685   1.337   1.811  16.037 -0.1478  0.0250 -0.4618
  380TMC3     H 5686   1.503   1.782  15.678 -0.0486  1.7069 -0.5071
  380TMC3    H1 5687   1.154   1.883  15.918 -0.5239 -2.0134 -0.3780
  380TMC3    H2 5688   1.196   2.016  15.520  1.2662  0.2797  0.1461
  380TMC3    C7 5689   1.051   2.026  15.735 -0.0380  1.0169 -0.8117
  380TMC3    C8 5690   1.431   1.929  15.466 -0.4864  0.0323 -0.2581
  380TMC3    O1 5691   1.011   2.047  15.850 -0.1030 -0.0376  0.3507
  380TMC3    O2 5692   1.382   2.014  15.394 -0.8897 -0.0313 -0.0362
  381TMC3    C1 5693   0.879   3.253  15.730  1.1182 -0.1353  0.0013
  381TMC3    C2 5694   0.999   3.218  15.792  0.0105  1.0122  0.8305
  381TMC3    C3 5695   1.027   3.278  15.917 -0.2494 -0.5834 -0.1087
  381TMC3    C4 5696   0.787   3.328  15.794 -0.5106 -0.0203  0.0093
  381TMC3    C5 5697   0.803   3.370  15.923 -0.2010  0.8446  0.0288
  381TMC3    C6 5698   0.932   3.362  15.972  0.0553 -0.5431 -0.6189
  381TMC3     C 5699   0.857   3.206  15.595 -0.7526 -0.1119 -1.2611
  381TMC3     O 5700   0.852   3.086  15.582 -0.3716 -0.0585 -0.5653
  381TMC3     H 5701   1.073   3.182  15.722 -0.3661  1.9948 -0.0650
  381TMC3    H1 5702   0.698   3.349  15.736 -0.9572 -0.3008  0.5954
  381TMC3    H2 5703   0.948   3.416  16.064 -0.4202  0.7992 -1.3166
  381TMC3    C7 5704   0.708   3.470  15.964  0.0120 -0.2691 -0.7341
  381TMC3    C8 5705   1.160   3.312  15.922  0.3850  0.5841 -0.0527
  381TMC3    O1 5706   0.626   3.517  15.889  0.9050  0.5260  0.4867
  381TMC3    O2 5707   1.250   3.243  15.868  0.1053 -0.2830  0.7129
  382MPD2     C 5708   0.574   0.920  17.028  0.1115 -0.0323 -0.9229
  382MPD2    C1 5709   0.453   0.916  17.091  0.2717  0.3126  0.7865
  382MPD2    C2 5710   0.383   0.800  17.093  0.1292  0.7111 -0.0620
  382MPD2    C3 5711   0.419   0.696  17.014 -0.0230 -0.4278  0.2950
  382MPD2    C4 5712   0.535   0.698  16.953 -0.5215  0.0734 -0.5191
  382MPD2    C5 5713   0.613   0.807  16.961  0.3614  0.2959  0.2274
  382MPD2     H 5714   0.280   0.798  17.127 -0.1043 -1.3095 -0.8771
  382MPD2    H1 5715   0.580   0.612  16.905 -0.6044 -0.3530  0.1651
  382MPD2    H2 5716   0.640   1.005  17.028  0.3739 -0.2374 -2.1576
  382MPD2    H3 5717   0.709   0.799  16.910 -1.1094  1.6959 -2.7439
  382MPD2     N 5718   0.348   0.577  17.008  0.1809 -0.1027 -0.0046
  382MPD2    H5 5719   0.372   0.502  16.943 -1.9953 -1.0422  0.2734
  382MPD2    N1 5720   0.391   1.024  17.154 -0.3697 -1.1524  0.0306
  382MPD2    H7 5721   0.310   1.004  17.212 -0.6286 -1.6548 -0.5125
  383TMC3    C1 5722   0.170   0.433  17.032 -0.4355 -0.1265 -0.0985
  383TMC3    C2 5723   0.156   0.403  16.898 -0.0717 -0.4767  0.7110
  383TMC3    C3 5724   0.090   0.279  16.874  0.3809  0.1309  0.5420
  383TMC3    C4 5725   0.116   0.356  17.127 -0.3803  0.4918 -0.3574
  383TMC3    C5 5726   0.053   0.234  17.098 -0.7295 -0.2872 -0.1193
  383TMC3    C6 5727   0.035   0.199  16.966 -0.5581  0.1446  0.1819
  383TMC3     C 5728   0.237   0.557  17.078 -0.1493  0.2350 -0.3682
  383TMC3     O 5729   0.189   0.607  17.175  0.4376  0.2150  0.0844
  383TMC3     H 5730   0.199   0.465  16.821  0.2143  0.2836  1.4965
  383TMC3    H1 5731   0.115   0.388  17.231  0.8070  0.7648 -0.4407
  383TMC3    H2 5732   4.719   0.103  16.936  1.0152 -0.7084  0.7079
  383TMC3    C7 5733   4.700   0.169  17.199 -0.5666  0.6049 -0.5923
  383TMC3    C8 5734   0.065   0.249  16.732  0.7191 -0.4506  0.2941
  383TMC3    O1 5735   4.653   0.240  17.288 -0.4846  0.8233 -0.0322
  383TMC3    O2 5736   0.130   0.303  16.647  0.1767  0.4505  0.1026
  384MPD2     C 5737   2.140   1.568  11.418  0.2573 -0.4969 -0.1118
  384MPD2    C1 5738   2.159   1.559  11.559  0.1853  1.2803  0.6567
  384MPD2    C2 5739   2.234   1.453  11.599  0.2575  0.5973 -0.0781
  384MPD2    C3 5740   2.271   1.350  11.514 -0.4403 -0.5341 -0.1215
  384MPD2    C4 5741   2.240   1.356  11.382  0.3932 -0.0786  0.7070
  384MPD2    C5 5742   2.185   1.470  11.330  0.4507  0.8980  0.0212
  384MPD2     H 5743   2.270   1.453  11.701  1.2019 -2.6579 -0.4294
  384MPD2    H1 5744   2.257   1.280  11.307 -2.0923  2.3404 -2.2953
  384MPD2    H2 5745   2.091   1.656  11.378  2.0337  0.9964  1.0185
  384MPD2    H3 5746   2.177   1.474  11.222 -0.7201 -1.2193  0.0375
  384MPD2     N 5747   2.334   1.236  11.570 -0.0358 -0.3505 -0.2423
  384MPD2    H5 5748   2.358   1.242  11.669 -0.2743  1.0679 -0.2670
  384MPD2    N1 5749   2.129   1.663  11.653  0.1871  0.4081  0.0807
  384MPD2    H7 5750   2.155   1.640  11.748 -0.1569 -0.6859 -0.0878
  385TMC3    C1 5751   2.412   1.021  11.606 -0.3706 -0.1936 -0.3192
  385TMC3    C2 5752   2.338   0.907  11.609  0.1093  0.5944 -0.2185
  385TMC3    C3 5753   2.268   0.886  11.722  0.1741  0.6591 -0.6826
  385TMC3    C4 5754   2.452   1.082  11.722 -0.5369  0.0687  0.7548
  385TMC3    C5 5755   2.388   1.043  11.836  0.1157  0.3418  0.1113
  385TMC3    C6 5756   2.294   0.951  11.840 -0.2034 -0.6373 -0.7998
  385TMC3     C 5757   2.365   1.114  11.503  0.6008  0.2351 -0.6798
  385TMC3     O 5758   2.336   1.078  11.390 -0.4203  0.3877  0.4763
  385TMC3     H 5759   2.310   0.847  11.523 -3.2615  0.2639  1.1154
  385TMC3    H1 5760   2.521   1.165  11.724  0.6205 -0.8552 -1.6440
  385TMC3    H2 5761   2.234   0.940  11.929  0.4410 -0.4566 -0.3402
  385TMC3    C7 5762   2.366   1.157  11.924 -0.0269  0.7703 -0.0780
  385TMC3    C8 5763   2.148   0.795  11.723 -0.3099  1.1144  0.0039
  385TMC3    O1 5764   2.372   1.266  11.865  0.2221 -0.6303  0.6546
  385TMC3    O2 5765   2.111   0.768  11.837  0.4633 -0.3248 -0.1841
  386TMC3    C1 5766   1.372   3.926  11.407  0.2009  1.1345  0.5847
  386TMC3    C2 5767   1.397   3.970  11.283 -0.3729 -0.2089  0.8318
  386TMC3    C3 5768   1.322   4.078  11.232  0.4930  0.3929 -0.5019
  386TMC3    C4 5769   1.271   3.970  11.482  0.5928  0.3484 -0.8820
  386TMC3    C5 5770   1.184   4.058  11.427 -0.3363 -0.4842 -0.3167
  386TMC3    C6 5771   1.206   4.112  11.303 -1.0074  0.1621 -0.6803
  386TMC3     C 5772   1.464   3.827  11.467 -1.0566  0.0904 -0.1633
  386TMC3     O 5773   1.461   3.810  11.585  0.0391 -0.3464  0.0230
  386TMC3     H 5774   1.480   3.940  11.220 -1.2798 -2.8520  0.9166
  386TMC3    H1 5775   1.252   3.931  11.582 -0.2951  1.3709 -0.6500
  386TMC3    H2 5776   1.136   4.177  11.251  1.6373  3.0274 -0.6346
  386TMC3    C7 5777   1.054   4.060  11.487 -0.4811  0.2586  0.9523
  386TMC3    C8 5778   1.338   4.119  11.088  0.4012 -0.3304 -0.0968
  386TMC3    O1 5779   1.033   3.968  11.564 -0.1628  0.2633  0.2733
  386TMC3    O2 5780   1.239   4.158  11.025 -0.0079 -0.2589  0.5245
  387MPD2     C 5781   3.801   4.079   9.548 -0.4959  0.3525 -0.3338
  387MPD2    C1 5782   3.917   4.045   9.607  0.7075  0.4221 -0.3630
  387MPD2    C2 5783   3.955   3.911   9.596 -0.2487 -0.3639 -0.1239
  387MPD2    C3 5784   3.886   3.813   9.526 -0.6404  0.4003  0.1154
  387MPD2    C4 5785   3.768   3.855   9.468  0.3669 -0.8640 -0.0038
  387MPD2    C5 5786   3.727   3.984   9.487 -0.9412 -0.5843  0.0347
  387MPD2     H 5787   4.053   3.878   9.627 -0.5159 -1.6381 -0.6452
  387MPD2    H1 5788   3.708   3.796   9.400  0.0680 -0.1632 -0.3357
  387MPD2    H2 5789   3.762   4.180   9.540  1.3215  1.3037  2.8242
  387MPD2    H3 5790   3.631   4.011   9.445 -0.1581  1.9670 -0.0967
  387MPD2     N 5791   3.947   3.687   9.511  0.3613  0.2140 -1.1658
  387MPD2    H5 5792   4.039   3.674   9.551 -0.7407  1.2992  1.7607
  387MPD2    N1 5793   4.002   4.142   9.655 -0.0452  0.3550 -0.0092
  387MPD2    H7 5794   4.090   4.106   9.689  1.2015  0.8999 -2.6732
  388TMC3    C1 5795   4.116   4.336   9.662  0.1283 -0.0239 -0.2796
  388TMC3    C2 5796   4.125   4.450   9.740 -0.2473 -0.0674  0.4562
  388TMC3    C3 5797   4.247   4.467   9.801  0.0182 -0.1091 -0.8295
  388TMC3    C4 5798   4.228   4.253   9.631 -0.0880 -0.2673 -0.8863
  388TMC3    C5 5799   4.349   4.293   9.682 -0.5002 -0.0060  0.6903
  388TMC3    C6 5800   4.355   4.389   9.777 -0.5736 -0.2217 -0.1977
  388TMC3     C 5801   3.995   4.278   9.638  0.2246  0.3967 -0.2246
  388TMC3     O 5802   3.899   4.352   9.613 -0.4810  0.2911  0.0494
  388TMC3     H 5803   4.045   4.522   9.756 -0.1839 -0.4533  2.5105
  388TMC3    H1 5804   4.205   4.173   9.562 -0.8871  1.7368 -2.9536
  388TMC3    H2 5805   4.449   4.407   9.828  0.0360 -0.2977 -1.2794
  388TMC3    C7 5806   4.458   4.206   9.673  0.4532 -0.3514  0.4383
  388TMC3    C8 5807   4.254   4.568   9.903 -0.5199 -0.0860  0.8155
  388TMC3    O1 5808   4.560   4.225   9.741 -0.9600 -0.0425  0.5424
  388TMC3    O2 5809   4.154   4.638   9.915 -0.3843 -0.0322  0.0267
  389MPD2     C 5810   3.907   2.458  11.098 -0.1622  0.1197  0.1670
  389MPD2    C1 5811   3.870   2.357  11.013 -0.4026  0.0675  0.2387
  389MPD2    C2 5812   3.808   2.244  11.064 -0.3399  0.1824  0.0950
  389MPD2    C3 5813   3.777   2.232  11.197 -0.7330 -0.2478  0.7449
  389MPD2    C4 5814   3.812   2.337  11.281 -0.2123  0.8121 -0.3374
  389MPD2    C5 5815   3.873   2.448  11.232  0.1379  0.4947  0.5852
  389MPD2     H 5816   3.785   2.163  10.996  1.3801 -0.1486 -0.0906
  389MPD2    H1 5817   3.797   2.336  11.389  1.6303  0.6853 -0.0906
  389MPD2    H2 5818   3.961   2.547  11.069 -2.7031  1.4659 -0.4332
  389MPD2    H3 5819   3.911   2.519  11.304  1.4856  1.2235 -0.8317
  389MPD2     N 5820   3.722   2.114  11.258 -0.7907 -0.5420 -0.5361
  389MPD2    H5 5821   3.716   2.130  11.358 -1.1444 -0.8062 -0.5153
  389MPD2    N1 5822   3.896   2.374  10.874 -0.1169  0.1048  0.1858
  389MPD2    H7 5823   3.953   2.449  10.835  0.7233 -0.1882  0.8614
  390TMC3    C1 5824   3.606   1.912  11.276 -0.4098  0.2341 -0.3600
  390TMC3    C2 5825   3.592   1.783  11.238 -0.4377  0.3432 -0.4037
  390TMC3    C3 5826   3.485   1.715  11.302  0.1321  0.1195 -0.3874
  390TMC3    C4 5827   3.521   1.977  11.364  0.2963 -0.3004 -0.2380
  390TMC3    C5 5828   3.417   1.914  11.421 -1.0388 -0.2237  0.2887
  390TMC3    C6 5829   3.401   1.782  11.391  0.0970 -0.2598 -0.7666
  390TMC3     C 5830   3.691   1.998  11.196 -0.7582 -0.1893 -0.0947
  390TMC3     O 5831   3.690   1.976  11.076  0.2180  0.8239 -0.2108
  390TMC3     H 5832   3.644   1.733  11.156  0.6955  1.0095 -0.0846
  390TMC3    H1 5833   3.519   2.082  11.389  0.2832 -0.2388 -0.4923
  390TMC3    H2 5834   3.316   1.737  11.441 -1.6713  1.4532 -2.1938
  390TMC3    C7 5835   3.296   1.988  11.398  0.2537 -0.1550  0.3942
  390TMC3    C8 5836   3.415   1.611  11.224  0.2395  0.2296  0.1403
  390TMC3    O1 5837   3.285   2.105  11.422  0.0723 -0.2898  0.3204
  390TMC3    O2 5838   3.411   1.619  11.103 -0.4578 -0.3261  0.5389
  391MPD2     C 5839   2.575   3.557  10.932 -0.0304 -0.7465  0.2535
  391MPD2    C1 5840   2.705   3.612  10.921 -0.1610  0.2167 -0.6609
  391MPD2    C2 5841   2.756   3.648  10.798 -0.1076 -0.1315  0.4511
  391MPD2    C3 5842   2.673   3.647  10.684 -0.3619  0.1753  0.9008
  391MPD2    C4 5843   2.554   3.576  10.692 -0.7490 -0.2897 -0.5653
  391MPD2    C5 5844   2.503   3.540  10.815  0.5132 -0.0070  0.1654
  391MPD2     H 5845   2.852   3.696  10.784  0.8700 -2.4548 -0.6656
  391MPD2    H1 5846   2.486   3.560  10.609 -0.3963  3.3329 -1.5487
  391MPD2    H2 5847   2.524   3.532  11.024  1.4501 -1.4525  0.8878
  391MPD2    H3 5848   2.403   3.497  10.817 -0.0295  1.1763 -0.9933
  391MPD2     N 5849   2.714   3.713  10.567  0.0457 -0.2326  0.1532
  391MPD2    H5 5850   2.800   3.767  10.565 -0.6532  0.7840 -4.0780
  391MPD2    N1 5851   2.785   3.628  11.039 -0.1526  0.4127 -0.1114
  391MPD2    H7 5852   2.878   3.668  11.031  0.0665 -0.2330 -0.8192
  392TMC3    C1 5853   2.703   3.808  10.347 -0.5771 -0.1970 -0.6949
  392TMC3    C2 5854   2.664   3.798  10.215 -0.3243 -0.3584  0.5695
  392TMC3    C3 5855   2.713   3.890  10.132 -0.2923  0.5264 -0.2149
  392TMC3    C4 5856   2.774   3.916  10.386  0.2210  0.1977 -0.6375
  392TMC3    C5 5857   2.840   3.998  10.299  0.1471 -0.1178 -0.5218
  392TMC3    C6 5858   2.796   3.990  10.171  0.0111  0.3254 -0.7028
  392TMC3     C 5859   2.656   3.706  10.444 -0.1198 -0.1537  0.1893
  392TMC3     O 5860   2.560   3.632  10.405 -0.2777 -0.3434  0.2564
  392TMC3     H 5861   2.604   3.713  10.185 -2.1758  1.1132  0.1214
  392TMC3    H1 5862   2.785   3.933  10.493  0.3667  3.4611 -1.1575
  392TMC3    H2 5863   2.850   4.041  10.092 -0.1521  1.8799  0.1858
  392TMC3    C7 5864   2.949   4.081  10.347  0.2447 -0.1810 -0.0172
  392TMC3    C8 5865   2.637   3.901  10.012 -0.5536  0.7485  0.2622
  392TMC3    O1 5866   3.009   4.052  10.448  0.2151 -0.0044  0.1528
  392TMC3    O2 5867   2.548   3.814   9.996  0.0602 -0.5224  0.3082
  393TMC3    C1 5868   2.521   1.889  10.285  0.5021  0.3855 -0.4334
  393TMC3    C2 5869   2.440   1.783  10.308  0.2806 -0.2019  0.4033
  393TMC3    C3 5870   2.467   1.659  10.247  0.0501  0.6435 -0.5826
  393TMC3    C4 5871   2.634   1.879  10.215 -0.1816  0.1814  0.1049
  393TMC3    C5 5872   2.663   1.755  10.162 -0.2521  0.2153  0.3404
  393TMC3    C6 5873   2.580   1.645  10.175  0.1503  0.7652 -0.6371
  393TMC3     C 5874   2.466   2.022  10.294 -0.5241  0.1230  0.0145
  393TMC3     O 5875   2.455   2.090  10.189 -0.3021  0.1309 -0.1153
  393TMC3     H 5876   2.352   1.805  10.368  0.9931  0.6399  1.1470
  393TMC3    H1 5877   2.696   1.966  10.198  0.4169 -0.5032 -1.1880
  393TMC3    H2 5878   2.609   1.552  10.128 -0.6016  0.3466 -0.2642
  393TMC3    C7 5879   2.803   1.730  10.137 -0.0166  0.5796  0.1323
  393TMC3    C8 5880   2.383   1.542  10.266  0.1269 -0.5074  0.2801
  393TMC3    O1 5881   2.891   1.798  10.187  0.4273  0.5064 -0.3743
  393TMC3    O2 5882   2.428   1.433  10.234 -0.0514  0.3547  0.3022
  394TMC3    C1 5883   3.839   2.356  10.645  0.0688 -0.4605  0.1843
  394TMC3    C2 5884   3.729   2.343  10.563  0.0915  0.0758 -0.1663
  394TMC3    C3 5885   3.736   2.398  10.436  0.3198  0.5841  0.6109
  394TMC3    C4 5886   3.953   2.412  10.607 -0.6431 -0.2161 -0.4519
  394TMC3    C5 5887   3.955   2.466  10.482  0.2385  0.3275  0.0263
  394TMC3    C6 5888   3.848   2.457  10.390 -0.5144  0.0426  0.2370
  394TMC3     C 5889   3.824   2.300  10.781 -0.1136 -0.5832 -0.0094
  394TMC3     O 5890   3.739   2.212  10.792 -0.8034 -0.0450  0.2742
  394TMC3     H 5891   3.633   2.308  10.600  0.9025 -0.9446  0.9797
  394TMC3    H1 5892   4.041   2.421  10.671 -0.3030 -2.4322 -0.6030
  394TMC3    H2 5893   3.869   2.487  10.288 -0.1313 -2.5174 -0.4464
  394TMC3    C7 5894   4.078   2.527  10.436 -0.0599  0.6186  0.1287
  394TMC3    C8 5895   3.650   2.339  10.342 -0.4857 -0.1210  0.4890
  394TMC3    O1 5896   4.069   2.613  10.355 -0.1723 -0.5884  0.3734
  394TMC3    O2 5897   3.532   2.339  10.379  0.3638 -0.0343 -0.6271
  395TMC3    C1 5898   3.962   4.163  14.895  1.2982  0.5017  0.5318
  395TMC3    C2 5899   3.952   4.086  14.779 -0.5324 -0.1538 -0.2194
  395TMC3    C3 5900   4.055   4.103  14.683  0.4990 -0.7432  0.0752
  395TMC3    C4 5901   4.042   4.274  14.899  0.1912  0.1015 -1.2303
  395TMC3    C5 5902   4.130   4.286  14.797 -0.2361 -0.0772  0.7465
  395TMC3    C6 5903   4.153   4.188  14.704 -0.2835 -0.7265 -0.6980
  395TMC3     C 5904   3.835   4.174  14.971  0.0068  0.0426  0.0974
  395TMC3     O 5905   3.795   4.288  14.995  0.0325  0.0465  0.0857
  395TMC3     H 5906   3.863   4.031  14.754 -0.6272 -0.5240  0.9385
  395TMC3    H1 5907   4.033   4.355  14.971 -1.0120 -3.4961  2.6799
  395TMC3    H2 5908   4.224   4.219  14.629  0.3357  2.0341  1.0182
  395TMC3    C7 5909   4.176   4.422  14.762  0.4787 -0.8075  0.3892
  395TMC3    C8 5910   4.012   4.120  14.547 -0.2180 -1.0203  0.0276
  395TMC3    O1 5911   4.169   4.514  14.850  0.2763 -0.0382 -0.4257
  395TMC3    O2 5912   4.082   4.193  14.484 -0.7025 -0.3512 -0.2914
  396MPD2     C 5913   2.788   0.485   0.039  0.2803  0.5793 -0.6319
  396MPD2    C1 5914   2.892   0.418  17.679  0.4914  0.9753 -0.7259
  396MPD2    C2 5915   2.941   0.488  17.570  0.0881  0.1512 -0.2115
  396MPD2    C3 5916   2.887   0.605  17.523 -0.6155 -0.0230  0.4059
  396MPD2    C4 5917   2.771   0.656  17.579 -0.1315 -0.0526 -0.1379
  396MPD2    C5 5918   2.729   0.599  17.698 -0.2099 -0.5301 -0.0237
  396MPD2     H 5919   3.035   0.461  17.522  0.9813  1.6672  0.7028
  396MPD2    H1 5920   2.719   0.744  17.542  0.8448  1.0454  1.0811
  396MPD2    H2 5921   2.741   0.451   0.131 -1.6894  1.2443 -1.3827
  396MPD2    H3 5922   2.641   0.640   0.043 -0.5519  0.1154 -1.2051
  396MPD2     N 5923   2.962   0.671  17.420 -0.1462 -0.4371  0.2895
  396MPD2    H5 5924   3.054   0.636  17.395  0.9009  1.2461  1.9146
  396MPD2    N1 5925   2.945   0.307   0.038  0.4232 -0.5219  0.1641
  396MPD2    H7 5926   2.918   0.280   0.132  1.2582  3.5844  1.5543
  397TMC3    C1 5927   3.091   0.111   0.062 -1.2137 -0.0875 -0.4742
  397TMC3    C2 5928   3.184   0.038  17.687  0.0658 -0.2624  0.8897
  397TMC3    C3 5929   3.144   4.633  17.657 -0.3129  0.8665 -0.1430
  397TMC3    C4 5930   2.997   0.045   0.140  0.1990  0.1041 -0.2812
  397TMC3    C5 5931   2.969   4.644   0.107 -0.2044  0.0086  0.1925
  397TMC3    C6 5932   3.032   4.577   0.011 -0.7996 -0.2824  0.2647
  397TMC3     C 5933   3.048   0.230  17.683 -0.0642 -0.0909  0.1975
  397TMC3     O 5934   3.079   0.231  17.569  0.1108 -0.0854 -0.7459
  397TMC3     H 5935   3.251   0.094  17.623 -1.0894 -1.2454 -1.1522
  397TMC3    H1 5936   2.927   0.104   0.198 -1.5111 -1.0945 -1.1379
  397TMC3    H2 5937   3.007   4.474  17.690  0.4822 -0.6063  0.3352
  397TMC3    C7 5938   2.908   4.557   0.206 -0.2630  0.5101 -0.0174
  397TMC3    C8 5939   3.181   4.581  17.524 -0.0589 -0.9127 -0.0967
  397TMC3    O1 5940   2.846   4.458   0.163 -0.2096  0.0610  1.2390
  397TMC3    O2 5941   3.104   4.506  17.462 -0.4222  0.4324  0.2610
  398MPD2     C 5942   1.365   1.520   0.376 -0.5110 -0.1171  0.0666
  398MPD2    C1 5943   1.465   1.424   0.375 -0.1579  0.7977  0.8082
  398MPD2    C2 5944   1.562   1.411   0.474 -0.0406 -0.5007  0.4220
  398MPD2    C3 5945   1.558   1.491   0.585  0.1083  0.8454 -0.6315
  398MPD2    C4 5946   1.452   1.585   0.594  0.2904  0.3830  0.0436
  398MPD2    C5 5947   1.363   1.598   0.492  0.1680 -0.0660  0.8023
  398MPD2     H 5948   1.637   1.332   0.472  0.9634  0.4321  1.1371
  398MPD2    H1 5949   1.434   1.649   0.679 -0.7794 -0.0253  0.1216
  398MPD2    H2 5950   1.290   1.541   0.301 -0.2983  0.4536  0.0158
  398MPD2    H3 5951   1.284   1.671   0.504 -0.9816 -1.0151 -1.0572
  398MPD2     N 5952   1.655   1.479   0.680  0.5327  0.1338 -0.4684
  398MPD2    H5 5953   1.719   1.400   0.673  0.4607 -0.1166  1.6307
  398MPD2    N1 5954   1.471   1.321   0.286  0.2179  0.1586 -0.4461
  398MPD2    H7 5955   1.542   1.249   0.303 -1.1155 -1.1850 -0.5614
  399TMC3    C1 5956   1.375   1.142   0.142  0.8221  0.8422  0.3329
  399TMC3    C2 5957   1.472   1.056   0.194 -0.1787 -0.2279 -0.6969
  399TMC3    C3 5958   1.451   0.920   0.186 -0.0687 -0.5323  0.8998
  399TMC3    C4 5959   1.265   1.091   0.072 -0.3724  0.8312 -0.6978
  399TMC3    C5 5960   1.250   0.960   0.061 -0.5376  0.3347 -0.5536
  399TMC3    C6 5961   1.333   0.876   0.125  0.2416 -0.0245 -0.0513
  399TMC3     C 5962   1.370   1.279   0.193  0.3223  0.0404 -0.0649
  399TMC3     O 5963   1.288   1.357   0.141  0.4281  0.1917  0.1100
  399TMC3     H 5964   1.558   1.106   0.238 -1.2413 -0.2618  1.4174
  399TMC3    H1 5965   1.199   1.163   0.025  0.7778  2.1012 -0.3760
  399TMC3    H2 5966   1.316   0.769   0.116  0.2262  0.0095 -0.4312
  399TMC3    C7 5967   1.153   0.916  17.665  0.0030 -0.3081  0.5612
  399TMC3    C8 5968   1.555   0.832   0.224 -0.8215 -0.4470  0.1555
  399TMC3    O1 5969   1.106   1.003  17.590 -0.0959 -0.2727 -0.2467
  399TMC3    O2 5970   1.642   0.885   0.292 -0.5242 -0.1298 -0.3497
  400TMC3    C1 5971   0.324   0.333  16.287  0.0241  0.0055 -0.4721
  400TMC3    C2 5972   0.240   0.367  16.180 -0.0969  0.6079 -0.3044
  400TMC3    C3 5973   0.164   0.478  16.188 -0.1448 -0.9739 -0.0585
  400TMC3    C4 5974   0.326   0.412  16.399 -0.0283  0.4156 -0.0548
  400TMC3    C5 5975   0.230   0.512  16.417 -0.6281 -0.4052  0.1383
  400TMC3    C6 5976   0.155   0.545  16.309  0.0144  0.2873  0.2254
  400TMC3     C 5977   0.312   0.193  16.312  0.0895  0.0036  0.2919
  400TMC3     O 5978   0.233   0.133  16.242  0.3882 -0.5688 -0.1470
  400TMC3     H 5979   0.255   0.326  16.081 -2.0583 -0.9143  0.0154
  400TMC3    H1 5980   0.385   0.385  16.486 -0.2010 -0.6140 -0.2564
  400TMC3    H2 5981   0.091   0.632  16.302  1.2987  0.9719 -2.8715
  400TMC3    C7 5982   0.238   0.604  16.527 -0.0408  0.3229 -0.2123
  400TMC3    C8 5983   0.027   0.453  16.141  0.1230 -0.0480 -0.0680
  400TMC3    O1 5984   0.320   0.576  16.614  0.1759 -0.2042 -0.3325
  400TMC3    O2 5985   4.669   0.540  16.137  0.3951  0.2072 -0.2699
  401MPD2     C 5986   3.044   2.980  17.403  0.0352 -0.2752 -0.3465
  401MPD2    C1 5987   3.079   2.966  17.539  0.0740 -0.5383 -0.4780
  401MPD2    C2 5988   3.115   2.846  17.595  0.1430 -0.1099  0.2743
  401MPD2    C3 5989   3.119   2.742  17.508 -0.2283  0.4912 -0.3204
  401MPD2    C4 5990   3.095   2.753  17.373 -0.2665  0.2839 -0.1489
  401MPD2    C5 5991   3.064   2.875  17.324  0.2171  0.4431  0.7781
  401MPD2     H 5992   3.121   2.830  17.702 -0.0211  0.3557  0.3533
  401MPD2    H1 5993   3.108   2.667  17.308  0.6037  1.3914 -1.4413
  401MPD2    H2 5994   3.021   3.072  17.349  1.1309  0.5993  0.6635
  401MPD2    H3 5995   3.062   2.887  17.217 -1.7145 -1.0496  0.6558
  401MPD2     N 5996   3.167   2.625  17.572 -0.3340  0.1209 -0.0791
  401MPD2    H5 5997   3.177   2.632  17.673  0.2454  0.4880 -0.1571
  401MPD2    N1 5998   3.053   3.077  17.629 -0.7780  0.0312  0.2159
  401MPD2    H7 5999   3.077   3.060   0.024  3.9025  0.4268 -0.8861
  402TMC3    C1 6000   3.224   2.405  17.622  0.7511 -0.2610 -0.3639
  402TMC3    C2 6001   3.205   2.435   0.049 -0.2926  0.2535 -0.5368
  402TMC3    C3 6002   3.289   2.377   0.134 -0.1919  0.2325 -0.2481
  402TMC3    C4 6003   3.319   2.320  17.571 -0.3203  0.4646 -0.1224
  402TMC3    C5 6004   3.401   2.260  17.664  0.7280 -0.5989  0.3276
  402TMC3    C6 6005   3.387   2.289   0.097 -0.0463 -0.2197 -0.9838
  402TMC3     C 6006   3.198   2.505  17.520 -0.1390 -0.2538  0.6400
  402TMC3     O 6007   3.193   2.466  17.406 -0.1073 -0.3592 -0.3578
  402TMC3     H 6008   3.128   2.501   0.086  1.0101  2.6473 -2.1171
  402TMC3    H1 6009   3.337   2.298  17.467  1.0900  1.4211 -0.0698
  402TMC3    H2 6010   3.448   2.242   0.173  0.1728  0.0043 -1.0233
  402TMC3    C7 6011   3.514   2.176  17.618 -0.3297  0.5818 -0.4985
  402TMC3    C8 6012   3.245   2.347   0.270  0.1063 -0.3346  0.3243
  402TMC3    O1 6013   3.563   2.202  17.510  0.4229  0.3885  0.6014
  402TMC3    O2 6014   3.265   2.237   0.315 -0.4788  0.6396  0.0768
  403MPD2     C 6015   1.365   1.910  13.406 -0.5319  1.1077 -0.6169
  403MPD2    C1 6016   1.466   1.811  13.379 -0.2760 -0.2167 -0.4543
  403MPD2    C2 6017   1.594   1.828  13.433 -0.2660 -0.7019 -0.4443
  403MPD2    C3 6018   1.624   1.920  13.524  0.0455 -0.0405  0.1274
  403MPD2    C4 6019   1.524   2.011  13.564 -0.6530  0.1895 -0.1595
  403MPD2    C5 6020   1.395   2.006  13.503 -1.0680 -0.0107 -0.1475
  403MPD2     H 6021   1.660   1.742  13.424 -0.1048 -0.5489 -0.7582
  403MPD2    H1 6022   1.552   2.094  13.628 -1.0219 -0.0127  0.2587
  403MPD2    H2 6023   1.266   1.910  13.364 -0.4755 -2.4080 -0.7691
  403MPD2    H3 6024   1.327   2.084  13.534  0.6617  1.3730  0.1715
  403MPD2     N 6025   1.753   1.925  13.566 -0.0269 -0.8935  0.3094
  403MPD2    H5 6026   1.810   1.855  13.519  2.3488  1.7602 -0.7495
  403MPD2    N1 6027   1.431   1.698  13.300 -1.1325  0.4653  0.7201
  403MPD2    H7 6028   1.335   1.684  13.269  0.4953 -3.9353 -2.3290
  404TMC3    C1 6029   1.446   1.490  13.187 -0.6418  0.3847  0.2235
  404TMC3    C2 6030   1.322   1.445  13.226  0.1281  0.0301 -0.3267
  404TMC3    C3 6031   1.263   1.346  13.148  0.0652 -0.5765 -0.6841
  404TMC3    C4 6032   1.501   1.459  13.068  0.0302 -0.2996  0.4574
  404TMC3    C5 6033   1.439   1.368  12.993  0.6511 -0.4061  0.6562
  404TMC3    C6 6034   1.320   1.309  13.033  0.0097 -0.6645 -0.8377
  404TMC3     C 6035   1.516   1.601  13.245  0.4081  0.5644 -0.4517
  404TMC3     O 6036   1.639   1.596  13.244  0.0773 -0.3352 -0.2022
  404TMC3     H 6037   1.274   1.468  13.320  0.9039  0.4976 -0.0462
  404TMC3    H1 6038   1.599   1.493  13.040  0.7395 -1.1568  1.8846
  404TMC3    H2 6039   1.259   1.255  12.962  0.5792 -1.9635 -0.3389
  404TMC3    C7 6040   1.471   1.360  12.848  0.4386  0.3528  0.4708
  404TMC3    C8 6041   1.159   1.258  13.194 -0.6092  0.0325 -0.2775
  404TMC3    O1 6042   1.548   1.448  12.801  0.2255  0.0618  0.4225
  404TMC3    O2 6043   1.113   1.184  13.109  0.1847  0.7002 -0.0194
  405MPD2     C 6044   1.831   2.239  14.259 -0.4171 -0.5570 -0.0770
  405MPD2    C1 6045   1.796   2.105  14.247  0.8417 -0.1601 -0.0075
  405MPD2    C2 6046   1.709   2.063  14.151 -0.3269 -0.0168  0.3019
  405MPD2    C3 6047   1.640   2.159  14.083 -0.0474 -0.0286  0.1563
  405MPD2    C4 6048   1.664   2.295  14.091  0.2979 -0.1151 -0.8659
  405MPD2    C5 6049   1.763   2.332  14.186  0.4102  0.1129 -0.4489
  405MPD2     H 6050   1.712   1.955  14.137 -0.3101  0.2980 -2.0577
  405MPD2    H1 6051   1.611   2.373  14.037  0.2187 -0.5085 -1.3596
  405MPD2    H2 6052   1.914   2.277  14.317 -0.2509 -0.9943 -0.0260
  405MPD2    H3 6053   1.796   2.436  14.192 -1.3356  0.4923  2.3497
  405MPD2     N 6054   1.555   2.100  13.988 -0.2329  0.4174 -0.3167
  405MPD2    H5 6055   1.535   2.000  13.987  1.1170  0.1556 -0.3295
  405MPD2    N1 6056   1.857   2.006  14.324 -1.2408  0.2807  0.0648
  405MPD2    H7 6057   1.843   1.908  14.301  2.4678 -0.0762 -0.7731
  406TMC3    C1 6058   1.144   2.126  13.830 -0.7500 -0.2665 -0.0892
  406TMC3    C2 6059   1.115   2.019  13.908  0.1115  0.3100 -0.4794
  406TMC3    C3 6060   1.214   1.935  13.945  0.5222  0.3866  0.4278
  406TMC3    C4 6061   1.272   2.150  13.797 -0.4076 -0.2967  0.1760
  406TMC3    C5 6062   1.378   2.072  13.840  0.1430  0.0328 -0.7007
  406TMC3    C6 6063   1.343   1.967  13.922 -0.4561  0.0303  0.4986
  406TMC3     C 6064   1.060   2.237  13.828  0.3378 -0.4858 -0.2772
  406TMC3     O 6065   1.061   2.314  13.731  0.3447  0.0614 -0.1805
  406TMC3     H 6066   1.012   1.996  13.933  0.5701 -0.6149  0.5607
  406TMC3    H1 6067   1.290   2.249  13.756 -1.1023 -0.1514  0.2075
  406TMC3    H2 6068   1.422   1.894  13.940 -1.1072 -1.4977 -2.7900
  406TMC3    C7 6069   1.487   2.160  13.891  0.2881 -0.1052 -0.8457
  406TMC3    C8 6070   1.187   1.849  14.066 -0.1098  0.0541 -0.2880
  406TMC3    O1 6071   1.489   2.277  13.861 -0.9796 -0.0406  0.5494
  406TMC3    O2 6072   1.078   1.836  14.113  0.2484  0.1231  0.3570
  407MPD2     C 6073   3.273   3.615   9.506 -0.1810 -0.8664 -0.0940
  407MPD2    C1 6074   3.410   3.600   9.493 -0.3760  0.1582 -0.6955
  407MPD2    C2 6075   3.496   3.642   9.591  0.2736  0.1762  0.1660
  407MPD2    C3 6076   3.452   3.703   9.705  0.0353 -0.1091  1.0454
  407MPD2    C4 6077   3.313   3.732   9.714 -0.2410  0.6512  0.0132
  407MPD2    C5 6078   3.225   3.678   9.622  0.0756 -0.3621  0.7201
  407MPD2     H 6079   3.603   3.629   9.575  0.0270 -1.2975 -0.3497
  407MPD2    H1 6080   3.270   3.783   9.799  0.3754  0.1800  0.6130
  407MPD2    H2 6081   3.203   3.580   9.432  0.6938 -1.1346 -0.7993
  407MPD2    H3 6082   3.119   3.675   9.646 -0.9129  0.6024 -3.5425
  407MPD2     N 6083   3.544   3.766   9.795 -0.0757  0.1875 -0.0232
  407MPD2    H5 6084   3.510   3.829   9.867  1.4884  0.1364  0.7404
  407MPD2    N1 6085   3.467   3.547   9.371 -0.0718  0.1844 -0.0114
  407MPD2    H7 6086   3.568   3.540   9.366 -0.0348  1.2390 -0.8375
  408TMC3    C1 6087   3.487   3.497   9.145  0.3522 -0.3132 -0.0026
  408TMC3    C2 6088   3.614   3.452   9.163  0.1959 -0.3747 -0.0305
  408TMC3    C3 6089   3.720   3.503   9.096  0.4811 -0.1323  0.8886
  408TMC3    C4 6090   3.466   3.606   9.068 -0.2665  0.2087 -0.2810
  408TMC3    C5 6091   3.576   3.671   9.011  0.3597  1.3912 -0.6981
  408TMC3    C6 6092   3.702   3.610   9.015  0.0620 -0.5532  0.4401
  408TMC3     C 6093   3.403   3.501   9.264 -0.1524 -0.6633 -0.2977
  408TMC3     O 6094   3.284   3.477   9.245 -0.3600  0.4950  1.3672
  408TMC3     H 6095   3.623   3.388   9.250  1.2065 -0.6435 -0.3344
  408TMC3    H1 6096   3.373   3.661   9.075 -1.0216 -0.9033 -1.4029
  408TMC3    H2 6097   3.789   3.650   8.963 -1.9651  0.3549 -2.2349
  408TMC3    C7 6098   3.565   3.804   8.956 -0.1111 -0.1976 -0.6985
  408TMC3    C8 6099   3.852   3.439   9.115 -0.8014  0.7538 -0.2181
  408TMC3    O1 6100   3.669   3.868   8.970  0.0542  0.3645  0.4241
  408TMC3    O2 6101   3.847   3.325   9.161  0.7455  0.3394  0.0457
  409MPD2     C 6102   3.627   4.021  16.245  0.6978  0.4190 -0.8164
  409MPD2    C1 6103   3.662   4.083  16.365 -0.3622  0.2514 -0.5950
  409MPD2    C2 6104   3.758   4.175  16.365 -0.1834  0.0602 -0.7191
  409MPD2    C3 6105   3.810   4.234  16.248 -0.6665  0.1539  0.0220
  409MPD2    C4 6106   3.783   4.172  16.129 -0.1234  0.1151  0.0430
  409MPD2    C5 6107   3.691   4.066  16.131 -0.1113 -0.6893  0.3816
  409MPD2     H 6108   3.782   4.215  16.463  0.5408 -2.1645  0.0143
  409MPD2    H1 6109   3.813   4.217  16.036  0.4064 -0.0890  0.1151
  409MPD2    H2 6110   3.556   3.940  16.233  0.0223  0.6882  1.3847
  409MPD2    H3 6111   3.667   4.026  16.033  0.3308 -1.0393  0.4154
  409MPD2     N 6112   3.891   4.350  16.239 -0.2762  0.2295  0.0865
  409MPD2    H5 6113   3.936   4.372  16.151  1.3595  0.9823  1.1238
  409MPD2    N1 6114   3.610   4.043  16.491  0.2194  0.2757  0.2566
  409MPD2    H7 6115   3.649   4.085  16.574 -1.8755 -1.9898  2.4144
  410TMC3    C1 6116   4.014   4.531  16.309  0.3049  0.4788  0.0800
  410TMC3    C2 6117   4.083   4.571  16.418 -0.4466  0.3149 -0.8782
  410TMC3    C3 6118   4.080   4.707  16.455 -1.0537 -0.0477  0.6534
  410TMC3    C4 6119   3.956   4.623  16.224  0.3081  0.2027  0.2769
  410TMC3    C5 6120   3.964   0.026  16.265 -0.4034 -0.3172 -0.2136
  410TMC3    C6 6121   4.016   0.076  16.379  0.5141 -0.3841 -0.1757
  410TMC3     C 6122   3.931   4.421  16.340 -0.0582 -0.2381  0.4020
  410TMC3     O 6123   3.918   4.395  16.460  0.1880  0.5942  1.1169
  410TMC3     H 6124   4.132   4.494  16.476 -1.4008 -0.2659 -0.8615
  410TMC3    H1 6125   3.891   4.595  16.141  1.6326 -0.5577 -0.5131
  410TMC3    H2 6126   4.040   0.179  16.400 -1.0619 -0.5736  2.6554
  410TMC3    C7 6127   3.943   0.120  16.160  0.4271 -0.3910  0.7155
  410TMC3    C8 6128   4.199   0.022  16.534 -0.2573  0.6635 -0.2190
  410TMC3    O1 6129   3.968   0.087  16.047  0.1612  0.2266  0.2406
  410TMC3    O2 6130   4.189   0.128  16.596  0.4574  0.0248  0.1349
  411MPD2     C 6131   3.847   0.426  14.788  0.3754 -0.4923 -0.1476
  411MPD2    C1 6132   3.858   0.451  14.651  0.3992  1.0381 -0.0658
  411MPD2    C2 6133   3.839   0.347  14.563 -0.4026  0.0530  0.1737
  411MPD2    C3 6134   3.811   0.225  14.609  0.5362 -0.2728  0.0079
  411MPD2    C4 6135   3.790   0.202  14.748  0.3559  0.6867  0.1691
  411MPD2    C5 6136   3.822   0.300  14.836 -0.5822  0.6935  0.0986
  411MPD2     H 6137   3.813   0.373  14.461 -3.5595 -0.3018  0.8693
  411MPD2    H1 6138   3.783   0.100  14.785  0.8743  0.6773  0.2541
  411MPD2    H2 6139   3.877   0.494  14.867  1.0250 -2.9700  1.7176
  411MPD2    H3 6140   3.829   0.282  14.942 -2.2162  0.2107  0.1303
  411MPD2     N 6141   3.775   0.118  14.520 -0.5293 -0.1511  0.1563
  411MPD2    H5 6142   3.753   0.028  14.563 -0.2709 -0.2442  0.0940
  411MPD2    N1 6143   3.882   0.584  14.598 -0.0366  0.6418  0.6465
  411MPD2    H7 6144   3.879   0.590  14.497 -1.2525 -0.9899  0.5865
  412TMC3    C1 6145   3.753   4.716  14.329 -0.1018  0.1142  0.2042
  412TMC3    C2 6146   3.638   4.653  14.368  0.2778  0.1996  0.4535
  412TMC3    C3 6147   3.566   4.597  14.268 -0.0085 -0.1977  0.6430
  412TMC3    C4 6148   3.792   4.723  14.199 -0.3373  0.2067 -0.0721
  412TMC3    C5 6149   3.711   4.660  14.104  0.5052 -0.0293  0.5453
  412TMC3    C6 6150   3.607   4.589  14.140  0.1167 -0.3374  0.5588
  412TMC3     C 6151   3.786   0.120  14.389 -0.2372  0.0824  0.0440
  412TMC3     O 6152   3.821   0.213  14.317 -0.6500 -0.0659  0.5999
  412TMC3     H 6153   3.593   4.671  14.465 -0.1504  1.2368  0.0631
  412TMC3    H1 6154   3.877   0.057  14.166  1.1376 -1.2158  1.1448
  412TMC3    H2 6155   3.544   4.540  14.066 -2.1573 -0.4946  2.5751
  412TMC3    C7 6156   3.680   0.001  13.978  0.3908 -0.0978  0.4855
  412TMC3    C8 6157   3.426   4.607  14.287 -0.6699 -0.0568  0.7252
  412TMC3    O1 6158   3.565   4.714  13.941  0.0986  0.0972 -0.1289
  412TMC3    O2 6159   3.370   4.558  14.387 -0.5258  0.6068 -0.0938
  413MPD2     C 6160   0.981   3.775  15.147  0.4565 -0.8109  1.0351
  413MPD2    C1 6161   0.907   3.695  15.068 -0.3132  0.4274 -0.0569
  413MPD2    C2 6162   0.970   3.607  14.984 -0.1835 -0.0664 -1.3263
  413MPD2    C3 6163   1.105   3.583  14.982  0.4344 -1.0388  0.1550
  413MPD2    C4 6164   1.174   3.654  15.079 -0.2086  0.6006 -0.5342
  413MPD2    C5 6165   1.111   3.748  15.155  0.1744 -0.3855 -0.0597
  413MPD2     H 6166   0.900   3.543  14.932 -1.8050  1.1860 -0.6992
  413MPD2    H1 6167   1.277   3.625  15.096 -0.6512 -0.1227  0.9874
  413MPD2    H2 6168   0.939   3.827  15.232 -0.7988 -0.5659  0.2492
  413MPD2    H3 6169   1.179   3.790  15.228 -0.4697 -1.7628  1.3338
  413MPD2     N 6170   1.156   3.483  14.903 -0.5141 -0.1932  0.3758
  413MPD2    H5 6171   1.083   3.438  14.849  1.2604 -0.5940 -1.6946
  413MPD2    N1 6172   0.768   3.721  15.067  0.2354 -0.2666 -0.0832
  413MPD2    H7 6173   0.746   3.794  15.134 -1.0274 -2.0767  1.4996
  414TMC3    C1 6174   1.310   3.312  14.843  0.8006 -0.3485 -0.4416
  414TMC3    C2 6175   1.374   3.218  14.914 -1.0361  0.3074  0.0149
  414TMC3    C3 6176   1.370   3.089  14.869 -0.0933 -0.1725  0.1199
  414TMC3    C4 6177   1.244   3.279  14.733 -0.0046 -0.0685 -0.2435
  414TMC3    C5 6178   1.251   3.153  14.679 -0.1486  0.4029 -0.9685
  414TMC3    C6 6179   1.307   3.054  14.754  0.4244 -0.1665 -0.3236
  414TMC3     C 6180   1.294   3.446  14.901 -0.0892  0.0521 -0.0373
  414TMC3     O 6181   1.396   3.506  14.926 -0.5052  0.3412 -0.1023
  414TMC3     H 6182   1.409   3.248  15.011 -0.2974  0.7340 -0.3842
  414TMC3    H1 6183   1.211   3.369  14.681  1.0162  0.5236  0.1265
  414TMC3    H2 6184   1.299   2.953  14.715 -2.2764 -0.2514  0.3945
  414TMC3    C7 6185   1.180   3.137  14.558 -0.1995 -0.2821  0.4558
  414TMC3    C8 6186   1.457   2.978  14.924 -0.3398 -0.0505  0.5104
  414TMC3    O1 6187   1.080   3.210  14.558  0.4330  0.2326  0.8013
  414TMC3    O2 6188   1.443   2.865  14.874 -0.2135  0.0187 -0.1677
  415TMC3    C1 6189   1.460   1.415   9.971  0.0641  0.2963 -0.1171
  415TMC3    C2 6190   1.520   1.517   9.903 -0.6271 -0.0835  0.1704
  415TMC3    C3 6191   1.480   1.536   9.778 -0.5960 -0.2081 -0.2085
  415TMC3    C4 6192   1.365   1.337   9.912  0.3115  0.3157 -0.0599
  415TMC3    C5 6193   1.327   1.357   9.787  0.0778  1.2978 -0.3272
  415TMC3    C6 6194   1.384   1.459   9.718 -0.1380  0.2302 -0.4838
  415TMC3     C 6195   1.488   1.412  10.110  0.2552 -0.8068  0.0787
  415TMC3     O 6196   1.603   1.377  10.143  0.1354  0.3176  0.4716
  415TMC3     H 6197   1.598   1.570   9.956 -0.4541  1.0069 -1.1928
  415TMC3    H1 6198   1.335   1.258   9.980 -1.1706  1.2699  0.3760
  415TMC3    H2 6199   1.346   1.476   9.617  0.6561 -0.0658 -0.8318
  415TMC3    C7 6200   1.246   1.261   9.725  0.2731  0.1795  0.6616
  415TMC3    C8 6201   1.508   1.665   9.714 -0.3703 -0.8184 -0.0312
  415TMC3    O1 6202   1.234   1.274   9.601 -0.6730  0.7691  0.3696
  415TMC3    O2 6203   1.422   1.726   9.649 -0.0289 -0.1106  0.5278
  416MPD2     C 6204   3.368   0.075  11.652  0.2476 -0.8778  0.3218
  416MPD2    C1 6205   3.271   0.109  11.558 -0.2561 -0.0870 -1.0235
  416MPD2    C2 6206   3.198   0.009  11.497 -0.6217  1.0334 -0.7927
  416MPD2    C3 6207   3.213   4.601  11.531 -0.0706  0.2993 -0.5983
  416MPD2    C4 6208   3.304   4.570  11.631  0.4400  0.3326 -0.0793
  416MPD2    C5 6209   3.391   4.667  11.678  0.3599 -0.1008 -0.2475
  416MPD2     H 6210   3.125   0.047  11.427 -0.7152  2.7209  0.2160
  416MPD2    H1 6211   3.316   4.467  11.661 -0.8114 -0.0100 -0.7885
  416MPD2    H2 6212   3.433   0.143  11.706 -0.4475 -1.1013  1.4512
  416MPD2    H3 6213   3.461   4.640  11.755  1.5363  0.8956 -0.9683
  416MPD2     N 6214   3.127   4.498  11.488 -0.1916 -0.4096  0.1876
  416MPD2    H5 6215   3.129   4.403  11.525 -1.9505 -1.1910 -1.7619
  416MPD2    N1 6216   3.233   0.243  11.547  0.5952  1.4948 -0.6170
  416MPD2    H7 6217   3.269   0.311  11.613 -1.1052 -0.2949  2.1601
  417TMC3    C1 6218   3.097   0.442  11.499 -0.0863 -0.1427 -0.1573
  417TMC3    C2 6219   3.063   0.472  11.623 -0.2355  0.7885  0.4192
  417TMC3    C3 6220   2.964   0.559  11.650 -0.1291 -0.5473  0.0863
  417TMC3    C4 6221   3.037   0.517  11.394 -0.4238  0.8310 -0.1246
  417TMC3    C5 6222   2.923   0.590  11.421  1.0293  0.2633 -0.3553
  417TMC3    C6 6223   2.889   0.618  11.552  0.1714  0.4633  0.1296
  417TMC3     C 6224   3.137   0.304  11.466 -0.7445 -0.7108  0.2713
  417TMC3     O 6225   3.082   0.257  11.364 -0.6128 -0.1935  0.2284
  417TMC3     H 6226   3.102   0.409  11.703 -0.0638 -1.5159 -1.4790
  417TMC3    H1 6227   3.051   0.482  11.292  0.9059  0.1297  0.3013
  417TMC3    H2 6228   2.802   0.677  11.578  1.0581  2.7082 -2.0037
  417TMC3    C7 6229   2.843   0.631  11.314  0.2149  0.1037 -1.4348
  417TMC3    C8 6230   2.915   0.573  11.787 -0.0088  0.0947 -0.1210
  417TMC3    O1 6231   2.911   0.646  11.217  0.3069  0.4917 -0.7078
  417TMC3    O2 6232   2.861   0.683  11.810 -0.0182 -0.1847 -0.5764
  418TMC3    C1 6233   1.967   1.394   0.897 -0.6172  0.3309  0.2534
  418TMC3    C2 6234   1.875   1.479   0.841 -0.0583  0.0642 -0.1981
  418TMC3    C3 6235   1.752   1.491   0.902 -0.5000 -0.7163 -0.2667
  418TMC3    C4 6236   1.928   1.319   0.999 -0.4218  1.2724 -0.5296
  418TMC3    C5 6237   1.803   1.330   1.052 -0.0954 -1.0725  0.8390
  418TMC3    C6 6238   1.707   1.414   0.998 -0.1869  0.4536 -0.4798
  418TMC3     C 6239   2.097   1.396   0.837  0.1681 -0.6050 -0.2044
  418TMC3     O 6240   2.136   1.509   0.804 -0.2226  0.6686 -0.2711
  418TMC3     H 6241   1.904   1.557   0.771  1.7647  1.2105  1.8052
  418TMC3    H1 6242   1.998   1.246   1.039  0.0326  0.4804 -2.7754
  418TMC3    H2 6243   1.610   1.423   1.046  1.1987 -1.7081  2.6975
  418TMC3    C7 6244   1.741   1.216   1.117 -0.0620 -0.4431 -0.3980
  418TMC3    C8 6245   1.642   1.530   0.812  0.3775  0.4148  0.1737
  418TMC3    O1 6246   1.665   1.233   1.215  0.1680  0.4630 -0.3681
  418TMC3    O2 6247   1.542   1.569   0.869 -0.1167  0.2731  0.3533
  419MPD2     C 6248   4.506   0.055  12.281  1.1055  0.4484  0.1855
  419MPD2    C1 6249   4.627   0.105  12.330 -0.0084  0.1101 -0.9189
  419MPD2    C2 6250   4.617   0.214  12.416  0.6297  0.4330  1.0884
  419MPD2    C3 6251   4.487   0.265  12.456  0.2606  0.9387  0.2644
  419MPD2    C4 6252   4.380   0.218  12.391 -0.2680 -0.0086 -0.3502
  419MPD2    C5 6253   4.392   0.119  12.303 -0.1599 -0.0198  0.4977
  419MPD2     H 6254   4.706   0.264  12.454  1.8161 -0.5840 -0.3289
  419MPD2    H1 6255   4.278   0.247  12.415 -0.0820 -0.5370  1.0943
  419MPD2    H2 6256   4.507   4.690  12.220  1.3827  0.8278 -0.3686
  419MPD2    H3 6257   4.305   0.085  12.248 -0.2507  2.8544 -1.1143
  419MPD2     N 6258   4.484   0.357  12.561  0.2774  0.3349 -0.7265
  419MPD2    H5 6259   4.575   0.383  12.596  0.2417 -0.9946  0.3209
  419MPD2    N1 6260   0.024   0.055  12.302 -0.1824 -0.1385  0.6174
  419MPD2    H7 6261   0.102   0.100  12.348  0.0054 -1.7995  1.9056
  420TMC3    C1 6262   4.386   0.502  12.731  0.4984 -0.1413 -0.4873
  420TMC3    C2 6263   4.278   0.578  12.760  0.2989 -0.0297  0.2734
  420TMC3    C3 6264   4.281   0.638  12.883  1.1876  1.0026  1.1173
  420TMC3    C4 6265   4.481   0.475  12.824  0.2243  0.0795  0.4051
  420TMC3    C5 6266   4.477   0.540  12.948 -0.3681 -1.0002 -0.4110
  420TMC3    C6 6267   4.367   0.615  12.986 -0.8138  0.0160  0.6232
  420TMC3     C 6268   4.368   0.423  12.602  0.0178 -0.3869 -0.1356
  420TMC3     O 6269   4.263   0.440  12.537  0.6828 -0.2580 -0.0551
  420TMC3     H 6270   4.201   0.588  12.685 -0.6639 -1.3858  1.0825
  420TMC3    H1 6271   4.557   0.398  12.818  0.1783 -0.1497  2.8368
  420TMC3    H2 6272   4.366   0.648  13.089 -1.3631  0.1267  0.5832
  420TMC3    C7 6273   4.581   0.512  13.047  1.3884  1.2458 -0.3031
  420TMC3    C8 6274   4.157   0.708  12.919 -0.5328  0.4021 -0.1207
  420TMC3    O1 6275   4.627   0.400  13.043 -0.2667 -0.1521  0.4528
  420TMC3    O2 6276   4.057   0.679  12.856  0.1931  0.4483  0.6017
  421TMC3    C1 6277   1.951   1.992  13.662 -0.1831 -0.3613  0.4297
  421TMC3    C2 6278   2.017   2.109  13.663 -0.2343  0.0654 -0.1705
  421TMC3    C3 6279   2.153   2.098  13.661 -0.3451 -0.1082  0.5873
  421TMC3    C4 6280   1.999   1.865  13.674 -0.1914 -0.1276 -1.0847
  421TMC3    C5 6281   2.134   1.863  13.685  0.0577 -0.2895 -0.0845
  421TMC3    C6 6282   2.210   1.973  13.677 -0.0924  0.4653  0.0770
  421TMC3     C 6283   1.813   2.009  13.660  0.2330  0.6452 -0.3682
  421TMC3     O 6284   1.765   2.105  13.710 -0.3141  0.3785 -0.3692
  421TMC3     H 6285   1.956   2.197  13.679  0.1401  0.5492 -1.3807
  421TMC3    H1 6286   1.931   1.782  13.691 -1.0171  0.3926 -1.8405
  421TMC3    H2 6287   2.318   1.963  13.669  0.0739  0.4904  2.1194
  421TMC3    C7 6288   2.200   1.734  13.701 -0.3629 -0.1819 -0.4753
  421TMC3    C8 6289   2.235   2.219  13.678 -0.1193 -0.3963  0.3112
  421TMC3    O1 6290   2.319   1.736  13.725 -0.4052 -0.3368 -0.3579
  421TMC3    O2 6291   2.344   2.188  13.727  0.3755  0.0929 -0.6800
  422TMC3    C1 6292   4.001   3.093  12.241 -0.2079  0.5675  0.5609
  422TMC3    C2 6293   3.947   3.215  12.220 -0.1861 -0.1749  0.4366
  422TMC3    C3 6294   3.845   3.255  12.301  0.0751  0.1818  0.8693
  422TMC3    C4 6295   3.950   3.011  12.332  0.4058 -0.0885  0.2800
  422TMC3    C5 6296   3.842   3.047  12.413 -0.2762  0.5449  0.4189
  422TMC3    C6 6297   3.785   3.170  12.400  0.1419 -0.2191  0.6895
  422TMC3     C 6298   4.101   3.069  12.139  0.1499  0.3046 -0.2190
  422TMC3     O 6299   4.144   3.165  12.078 -0.1339 -0.0983  0.0195
  422TMC3     H 6300   3.998   3.290  12.161  0.2535 -0.3120  0.6432
  422TMC3    H1 6301   3.985   2.909  12.341 -0.5009 -0.2857  1.6068
  422TMC3    H2 6302   3.717   3.210  12.475 -2.3491  0.4878 -1.9626
  422TMC3    C7 6303   3.766   2.936  12.460  0.1307  0.0342 -0.3041
  422TMC3    C8 6304   3.822   3.395  12.306  0.5747  0.1375  0.7131
  422TMC3    O1 6305   3.820   2.823  12.468  0.2624  0.5234 -0.2125
  422TMC3    O2 6306   3.912   3.466  12.264 -0.2603  0.0447  0.2441
  423MPD2     C 6307   1.180   4.146   0.628 -1.0570 -0.7488 -0.3896
  423MPD2    C1 6308   1.045   4.132   0.601  0.0845  0.1208  0.6006
  423MPD2    C2 6309   1.006   4.057   0.492 -0.0196  0.1648  0.1584
  423MPD2    C3 6310   1.094   3.994   0.413 -0.4207 -0.2914  0.2306
  423MPD2    C4 6311   1.227   3.999   0.453  0.6855  0.3537 -0.1112
  423MPD2    C5 6312   1.270   4.076   0.555 -0.6976  0.3122 -0.4529
  423MPD2     H 6313   0.900   4.056   0.468 -0.2500  1.4195  1.1169
  423MPD2    H1 6314   1.304   3.942   0.403  1.8872  1.5068  0.4497
  423MPD2    H2 6315   1.215   4.203   0.714 -1.5069 -1.0399 -0.0098
  423MPD2    H3 6316   1.375   4.091   0.577 -0.9336 -2.2537  2.5291
  423MPD2     N 6317   1.060   3.915   0.298  0.0363 -0.3639 -0.6623
  423MPD2    H5 6318   1.139   3.865   0.258 -0.5850 -0.5179 -1.7116
  423MPD2    N1 6319   0.943   4.185   0.686  0.6162  0.0116  0.4331
  423MPD2    H7 6320   0.850   4.185   0.647  0.9370 -1.1893 -0.3408
  424TMC3    C1 6321   0.822   4.215   0.882 -0.6532 -0.4029 -0.3375
  424TMC3    C2 6322   0.810   4.148   1.002 -0.5914 -0.2343 -0.0268
  424TMC3    C3 6323   0.689   4.132   1.065  0.0918 -0.2126  0.0504
  424TMC3    C4 6324   0.717   4.268   0.826  0.0517  0.6971 -0.5900
  424TMC3    C5 6325   0.594   4.252   0.887 -0.1832  0.3607  0.3336
  424TMC3    C6 6326   0.577   4.173   1.002 -0.0736 -0.5464 -0.3187
  424TMC3     C 6327   0.960   4.205   0.824 -0.1509 -0.8846 -0.5580
  424TMC3     O 6328   1.060   4.191   0.893  0.1447 -0.4020  0.2979
  424TMC3     H 6329   0.904   4.111   1.042  0.2415  1.4800 -0.3788
  424TMC3    H1 6330   0.730   4.329   0.738  0.2346 -0.7111 -1.5274
  424TMC3    H2 6331   0.479   4.146   1.040  0.1775  1.6832  1.9338
  424TMC3    C7 6332   0.491   4.343   0.847  0.5350 -0.0372 -0.3568
  424TMC3    C8 6333   0.675   4.021   1.172  0.4711  0.0821  0.2629
  424TMC3    O1 6334   0.519   4.423   0.761  0.6938  0.2496  0.2324
  424TMC3    O2 6335   0.567   3.968   1.186  0.1900  0.2373  0.0792
  425MPD2     C 6336   4.590   3.396  16.906 -0.2438 -0.3293  0.7209
  425MPD2    C1 6337   4.541   3.281  16.959  0.5980 -0.5524  0.3961
  425MPD2    C2 6338   4.418   3.280  17.021 -0.2089 -0.2823 -0.0765
  425MPD2    C3 6339   4.340   3.398  17.031 -0.4594 -0.3842 -0.1485
  425MPD2    C4 6340   4.385   3.513  16.975 -0.2829 -0.0930  0.6519
  425MPD2    C5 6341   4.509   3.511  16.916  0.5731  0.0137  0.2175
  425MPD2     H 6342   4.376   3.187  17.059 -0.6342 -0.6292 -1.3957
  425MPD2    H1 6343   4.339   3.611  16.979 -1.2576 -0.5988  1.9553
  425MPD2    H2 6344   4.692   3.401  16.868  0.1457  0.0577  1.7892
  425MPD2    H3 6345   4.544   3.604  16.871 -0.4097  1.4612  2.4441
  425MPD2     N 6346   4.216   3.388  17.093 -0.3895  0.2947 -0.0030
  425MPD2    H5 6347   4.191   3.292  17.116 -0.9129  0.4854  0.2270
  425MPD2    N1 6348   4.623   3.167  16.951 -0.5208 -0.2728  0.4668
  425MPD2    H7 6349   4.689   3.172  16.874 -0.5426  0.8807  0.5199
  426TMC3    C1 6350   4.705   2.948  16.994  0.3246  0.3134 -0.3457
  426TMC3    C2 6351   0.062   2.951  16.885 -0.1454 -0.3815  0.3303
  426TMC3    C3 6352   0.145   2.842  16.862  0.3391 -0.0865  0.2193
  426TMC3    C4 6353   4.694   2.831  17.070 -0.6557  0.3905  0.0374
  426TMC3    C5 6354   0.050   2.726  17.044 -0.2033  0.0561 -0.6684
  426TMC3    C6 6355   0.139   2.728  16.936 -0.6516  0.2174  0.1005
  426TMC3     C 6356   4.609   3.051  17.031 -0.6164  0.4111  0.8505
  426TMC3     O 6357   4.538   3.022  17.122 -0.2499  0.3024  0.0855
  426TMC3     H 6358   0.058   3.019  16.801  0.0911 -1.2831 -0.4147
  426TMC3    H1 6359   4.624   2.832  17.152  0.1727  1.2243  0.7359
  426TMC3    H2 6360   0.194   2.641  16.904 -2.5473 -1.2795  0.9429
  426TMC3    C7 6361   0.028   2.598  17.102 -0.2921 -0.5603 -0.3757
  426TMC3    C8 6362   0.172   2.823  16.723  0.7754 -0.6828  0.0837
  426TMC3    O1 6363   0.115   2.516  17.076 -0.1609 -0.4011  0.1191
  426TMC3    O2 6364   0.190   2.921  16.653 -0.2472 -0.4922 -0.5487
  427MPD2     C 6365   3.233   0.832  14.614  0.0485 -0.2317 -0.4235
  427MPD2    C1 6366   3.200   0.731  14.699 -0.5047 -0.7140 -0.6098
  427MPD2    C2 6367   3.079   0.671  14.690 -0.1889  0.2811 -0.2851
  427MPD2    C3 6368   2.984   0.721  14.603 -0.4218  0.4659  0.6553
  427MPD2    C4 6369   3.017   0.831  14.528 -0.2424  1.1129  0.2022
  427MPD2    C5 6370   3.139   0.884  14.532  0.2713  0.8954  0.2306
  427MPD2     H 6371   3.062   0.583  14.750  1.9220 -0.3272 -0.5724
  427MPD2    H1 6372   2.944   0.867  14.456  0.5393  1.4536 -0.4197
  427MPD2    H2 6373   3.328   0.884  14.622 -1.3608  2.1443  0.7024
  427MPD2    H3 6374   3.167   0.965  14.465  0.9330 -1.4815 -2.3860
  427MPD2     N 6375   2.855   0.662  14.572 -0.2795  0.8475  0.3474
  427MPD2    H5 6376   2.800   0.714  14.505 -1.2366  0.7892  1.0893
  427MPD2    N1 6377   3.293   0.685  14.800 -0.4044 -0.0458  0.1243
  427MPD2    H7 6378   3.256   0.617  14.866 -2.8524  0.1638 -1.0065
  428TMC3    C1 6379   3.505   0.652  14.911  0.4644  0.1669  0.1903
  428TMC3    C2 6380   3.447   0.553  14.984 -0.5428 -0.5777 -1.0797
  428TMC3    C3 6381   3.522   0.489  15.083 -0.2563  0.4530 -0.5104
  428TMC3    C4 6382   3.621   0.712  14.956 -0.8139  0.1438  0.1800
  428TMC3    C5 6383   3.690   0.654  15.067  1.0100 -0.0996 -0.1323
  428TMC3    C6 6384   3.641   0.545  15.131  0.2462  0.1977 -0.5940
  428TMC3     C 6385   3.421   0.731  14.818  0.3132  0.2378 -0.5618
  428TMC3     O 6386   3.473   0.840  14.782 -0.4813 -0.1170 -0.5949
  428TMC3     H 6387   3.353   0.511  14.950 -0.5897  0.2018 -1.8966
  428TMC3    H1 6388   3.660   0.804  14.915  0.5216  0.1204  1.3694
  428TMC3    H2 6389   3.701   0.502  15.210 -0.2370 -0.5187 -0.6157
  428TMC3    C7 6390   3.794   0.725  15.138 -0.5446 -0.5198 -0.0799
  428TMC3    C8 6391   3.466   0.374  15.157 -0.5898 -0.2822  0.5824
  428TMC3    O1 6392   3.776   0.733  15.259  0.0309  0.6675 -0.2834
  428TMC3    O2 6393   3.396   0.301  15.092 -0.2420 -0.3238 -0.1182
  429MPD2     C 6394   4.095   0.614  17.185  0.6888 -0.2256 -0.9101
  429MPD2    C1 6395   4.096   0.605  17.047 -0.0693 -0.5752  0.7939
  429MPD2    C2 6396   4.134   0.718  16.979 -0.7129 -0.4039  0.2113
  429MPD2    C3 6397   4.163   0.839  17.038  0.5858 -0.7746  0.7349
  429MPD2    C4 6398   4.165   0.836  17.174  0.5228  0.4049  0.7039
  429MPD2    C5 6399   4.141   0.728  17.250 -0.2710 -0.0922  0.7550
  429MPD2     H 6400   4.131   0.718  16.870  0.5198 -0.4203  0.1735
  429MPD2    H1 6401   4.199   0.920  17.233 -1.5444 -0.3330  2.9237
  429MPD2    H2 6402   4.081   0.525  17.245  1.2174 -0.1589 -0.6877
  429MPD2    H3 6403   4.152   0.734  17.358  0.0360 -2.1825  0.8404
  429MPD2     N 6404   4.200   0.949  16.956 -0.1863 -0.2052  0.3848
  429MPD2    H5 6405   4.213   0.931  16.857  1.2366  1.1595  0.3349
  429MPD2    N1 6406   4.068   0.493  16.966  0.0907  0.2071  0.0560
  429MPD2    H7 6407   4.064   0.519  16.868 -3.8717  0.3720  0.2731
  430TMC3    C1 6408   4.271   1.146  16.885  0.3755 -0.0092 -1.0130
  430TMC3    C2 6409   4.168   1.186  16.809  0.1051  0.5325 -0.1293
  430TMC3    C3 6410   4.189   1.184  16.677 -0.0213  0.5616 -0.4856
  430TMC3    C4 6411   4.395   1.107  16.839 -0.8041 -0.0531  0.4848
  430TMC3    C5 6412   4.410   1.117  16.703 -0.2997 -0.6726 -0.6174
  430TMC3    C6 6413   4.307   1.165  16.622  0.1559 -0.2423 -0.2301
  430TMC3     C 6414   4.227   1.068  17.000  0.3902 -0.1931 -0.3456
  430TMC3     O 6415   4.238   1.130  17.103 -0.9360  0.7126 -0.1032
  430TMC3     H 6416   4.069   1.194  16.853  0.2334 -1.3460  0.5119
  430TMC3    H1 6417   4.467   1.063  16.907  1.6492  2.4363 -0.5099
  430TMC3    H2 6418   4.319   1.165  16.514 -0.7562  0.0832 -0.3289
  430TMC3    C7 6419   4.531   1.072  16.639  0.5419 -0.2296  0.8002
  430TMC3    C8 6420   4.072   1.187  16.592  0.2230 -0.1161 -0.1176
  430TMC3    O1 6421   4.538   1.069  16.517 -0.0293 -0.6839  0.2267
  430TMC3    O2 6422   4.078   1.099  16.503  0.1895 -0.5013 -0.1640
  431MPD2     C 6423   0.800   0.233  12.689 -0.5619 -0.6425  0.1006
  431MPD2    C1 6424   0.777   0.285  12.564  0.1444  0.8211  0.0853
  431MPD2    C2 6425   0.684   0.226  12.487  0.8831  0.0426 -0.2395
  431MPD2    C3 6426   0.606   0.123  12.543 -0.0656  0.1116  0.2293
  431MPD2    C4 6427   0.633   0.083  12.671  0.3953 -0.6288  0.6258
  431MPD2    C5 6428   0.718   0.144  12.751  0.0908 -0.1197 -0.6708
  431MPD2     H 6429   0.664   0.258  12.385 -3.3745 -2.9795 -0.3495
  431MPD2    H1 6430   0.587   4.720  12.715 -0.3076 -1.4408 -1.7470
  431MPD2    H2 6431   0.876   0.282  12.748 -1.3390 -2.1814  2.3838
  431MPD2    H3 6432   0.741   0.096  12.846 -0.0722 -3.1716 -2.1699
  431MPD2     N 6433   0.516   0.052  12.466  0.5094  0.0787  0.4566
  431MPD2    H5 6434   0.450   4.722  12.520 -2.0259  1.1711 -1.5560
  431MPD2    N1 6435   0.852   0.389  12.498  1.0126  0.1763 -0.5153
  431MPD2    H7 6436   0.816   0.431  12.413  0.0912 -1.6471 -1.0286
  432TMC3    C1 6437   0.424   4.684  12.261 -0.7187  0.1453  0.4541
  432TMC3    C2 6438   0.472   4.635  12.140  0.4105 -0.0398  0.0902
  432TMC3    C3 6439   0.371   4.603  12.053 -1.2999 -0.5644  0.1537
  432TMC3    C4 6440   0.289   4.696  12.293 -0.2366 -0.3993 -0.1697
  432TMC3    C5 6441   0.196   4.657  12.198  0.3340 -0.2352  0.1699
  432TMC3    C6 6442   0.240   4.607  12.079 -0.0869  0.6309 -0.7509
  432TMC3     C 6443   0.520   0.041  12.328 -0.2830  0.2234  0.3465
  432TMC3     O 6444   0.626   0.051  12.265  0.3388  0.1088  0.1598
  432TMC3     H 6445   0.572   4.595  12.132  0.9549  1.3036  0.2142
  432TMC3    H1 6446   0.257   0.005  12.390 -2.2887 -1.0078 -0.6320
  432TMC3    H2 6447   0.165   4.568  12.011 -0.3257 -0.7641  0.3274
  432TMC3    C7 6448   0.054   4.681  12.209 -0.5565  0.2363 -0.7847
  432TMC3    C8 6449   0.419   4.628  11.914 -0.3466  0.2942  0.5749
  432TMC3    O1 6450   4.704   4.619  12.135 -0.0343 -0.0455  0.6300
  432TMC3    O2 6451   0.330   4.629  11.832 -0.1345 -0.0453 -0.3172
  433MPD2     C 6452   4.034   4.275  10.982  0.3701  0.0137  0.0960
  433MPD2    C1 6453   3.938   4.182  11.016  0.1647 -0.0785 -0.5194
  433MPD2    C2 6454   3.955   4.124  11.140 -0.1681  0.1587  0.5396
  433MPD2    C3 6455   4.059   4.151  11.226  0.1851  0.2576 -0.5980
  433MPD2    C4 6456   4.148   4.245  11.185  0.4988  0.7301  0.3769
  433MPD2    C5 6457   4.128   4.302  11.066 -0.0365 -0.3244  0.3761
  433MPD2     H 6458   3.887   4.048  11.176  0.0008 -0.0308  0.4626
  433MPD2    H1 6459   4.239   4.273  11.238  1.2894 -0.0043 -0.5934
  433MPD2    H2 6460   4.023   4.331  10.890 -2.5563 -0.6850  0.0309
  433MPD2    H3 6461   4.199   4.380  11.040  2.2262 -1.8822  1.9079
  433MPD2     N 6462   4.065   4.081  11.352  0.1926 -0.3969 -0.1733
  433MPD2    H5 6463   3.982   4.026  11.374  1.0397 -0.8713  1.8139
  433MPD2    N1 6464   3.827   4.158  10.928 -0.1725  0.0820 -0.1212
  433MPD2    H7 6465   3.838   4.190  10.832 -2.4697 -0.3978 -0.5239
  434TMC3    C1 6466   3.659   4.011  10.839 -0.3788 -1.2203 -0.4038
  434TMC3    C2 6467   3.624   3.882  10.868 -0.0635  0.6071  0.3147
  434TMC3    C3 6468   3.585   3.805  10.761  0.0941  0.1551  0.2288
  434TMC3    C4 6469   3.664   4.063  10.707 -0.4960 -0.1776  0.8378
  434TMC3    C5 6470   3.617   3.985  10.609  0.6284 -0.0638 -0.0442
  434TMC3    C6 6471   3.571   3.858  10.631  0.3028  0.3901 -0.3807
  434TMC3     C 6472   3.733   4.064  10.951  0.4966  0.6379 -0.9971
  434TMC3     O 6473   3.701   4.019  11.062  0.2806 -0.4795 -0.0129
  434TMC3     H 6474   3.615   3.837  10.966 -0.5689 -0.5517 -0.2667
  434TMC3    H1 6475   3.699   4.162  10.679  0.9766 -1.6453 -2.4535
  434TMC3    H2 6476   3.574   3.775  10.561 -1.2211  1.4815 -1.7358
  434TMC3    C7 6477   3.689   3.988  10.485  0.0284  0.2670  0.6213
  434TMC3    C8 6478   3.658   3.677  10.768 -0.5718  0.6335 -0.7288
  434TMC3    O1 6479   3.654   4.060  10.392  0.4741  0.2094  0.7036
  434TMC3    O2 6480   3.764   3.676  10.826  0.6330 -0.4456  0.3330
  435MPD2     C 6481   1.608   3.913  15.148 -0.3650 -0.8724  0.3021
  435MPD2    C1 6482   1.534   3.899  15.262  0.0366 -0.4257  0.4170
  435MPD2    C2 6483   1.583   3.822  15.367  0.0015 -0.6718 -0.2705
  435MPD2    C3 6484   1.710   3.761  15.363  0.0102 -0.2100  0.9991
  435MPD2    C4 6485   1.789   3.783  15.255  1.0457 -0.0780  1.0556
  435MPD2    C5 6486   1.733   3.852  15.149  0.0291  0.2239  0.4198
  435MPD2     H 6487   1.521   3.800  15.453  0.0643  0.1370 -0.0182
  435MPD2    H1 6488   1.891   3.749  15.243  1.1860  0.5319  0.5085
  435MPD2    H2 6489   1.585   3.963  15.054 -0.2481 -2.4893 -0.5862
  435MPD2    H3 6490   1.784   3.849  15.054  1.2070 -1.4188  1.1006
  435MPD2     N 6491   1.757   3.669  15.462 -0.1113 -0.7226 -0.3411
  435MPD2    H5 6492   1.680   3.632  15.517  0.0480  2.2925  1.9011
  435MPD2    N1 6493   1.397   3.943  15.271 -0.4988  0.5717  0.4030
  435MPD2    H7 6494   1.344   3.913  15.352 -1.2323 -1.6267 -0.9218
  436TMC3    C1 6495   1.027   4.109  15.344  0.1468 -0.8748  0.1579
  436TMC3    C2 6496   1.150   4.060  15.327 -0.6181  0.1159 -0.1819
  436TMC3    C3 6497   1.205   4.075  15.200  0.6274  0.4625  0.1653
  436TMC3    C4 6498   0.946   4.164  15.250 -0.3155 -0.5806 -0.8167
  436TMC3    C5 6499   0.999   4.165  15.126 -0.1218 -0.1451 -0.6392
  436TMC3    C6 6500   1.128   4.130  15.094  0.5646 -0.0186  0.7608
  436TMC3     C 6501   0.951   4.057  15.465 -0.4451 -0.4661  0.4142
  436TMC3     O 6502   0.959   3.937  15.479  0.1623 -0.1560  0.0537
  436TMC3     H 6503   1.213   4.035  15.412 -1.5185 -1.3237  0.0733
  436TMC3    H1 6504   0.842   4.186  15.270  0.2615  1.3752  0.0917
  436TMC3    H2 6505   1.163   4.126  14.991 -2.7499 -0.7422 -0.3186
  436TMC3    C7 6506   0.895   4.158  15.018  0.3328  0.1603  0.4565
  436TMC3    C8 6507   1.344   4.024  15.175  0.2157  0.3892  0.3236
  436TMC3    O1 6508   0.947   4.194  14.911 -0.0701  0.3886 -0.4543
  436TMC3    O2 6509   1.382   4.050  15.064 -0.3844  0.3606 -0.3545
  437TMC3    C1 6510   0.064   1.601  11.459 -0.1101 -0.4561 -0.3700
  437TMC3    C2 6511   0.019   1.697  11.372 -0.1752 -0.7054  0.4711
  437TMC3    C3 6512   0.104   1.755  11.283 -0.3354 -0.5086  0.9958
  437TMC3    C4 6513   0.201   1.567  11.469  0.6069  0.6180 -0.1080
  437TMC3    C5 6514   0.282   1.646  11.383  0.7840 -1.2255  0.3489
  437TMC3    C6 6515   0.234   1.729  11.284 -0.2016 -0.1776  0.7945
  437TMC3     C 6516   4.685   1.527  11.530  0.5446 -0.1104  0.9835
  437TMC3     O 6517   4.586   1.518  11.456  0.3273  0.2667 -0.3609
  437TMC3     H 6518   4.641   1.724  11.388  0.5404  1.1149  2.0290
  437TMC3    H1 6519   0.239   1.487  11.530 -2.0450 -1.2556 -0.9057
  437TMC3    H2 6520   0.294   1.798  11.224  1.2291 -0.8026  1.5203
  437TMC3    C7 6521   0.415   1.605  11.375 -0.7060 -0.7921  0.3787
  437TMC3    C8 6522   0.059   1.882  11.227  0.0093 -0.3852  0.1214
  437TMC3    O1 6523   0.452   1.614  11.257 -0.0512  0.0754 -0.2384
  437TMC3    O2 6524   0.120   1.908  11.125 -0.1382 -0.7379 -0.4990
  438MPD2     C 6525   1.858   1.597  16.727  0.6336  0.0439 -0.0553
  438MPD2    C1 6526   1.977   1.537  16.759  0.3860  0.8169 -0.2838
  438MPD2    C2 6527   1.984   1.458  16.876 -0.5458  0.3715 -0.1451
  438MPD2    C3 6528   1.877   1.459  16.968  0.0894 -0.0515  0.1538
  438MPD2    C4 6529   1.765   1.534  16.937  0.0424  0.7420 -0.4085
  438MPD2    C5 6530   1.750   1.584  16.814  0.2776 -0.0833 -0.3740
  438MPD2     H 6531   2.074   1.398  16.884 -1.9393 -1.9325 -1.7816
  438MPD2    H1 6532   1.680   1.542  17.003 -0.6558 -0.5786 -1.1344
  438MPD2    H2 6533   1.843   1.658  16.639  1.8737  0.7159  0.2022
  438MPD2    H3 6534   1.658   1.631  16.780  1.1334  2.0584  0.2233
  438MPD2     N 6535   1.888   1.391  17.092 -0.2616 -0.9633  0.4943
  438MPD2    H5 6536   1.983   1.362  17.115 -0.6268 -0.8432  2.1435
  438MPD2    N1 6537   2.094   1.535  16.672 -0.4281  0.1762 -0.1183
  438MPD2    H7 6538   2.176   1.494  16.714 -1.2992  1.3953  2.8151
  439TMC3    C1 6539   2.245   1.590  16.504 -0.5790 -0.6829 -0.2087
  439TMC3    C2 6540   2.271   1.633  16.372  0.2746 -0.2746 -0.2884
  439TMC3    C3 6541   2.402   1.643  16.335  0.1794 -0.2096  0.2216
  439TMC3    C4 6542   2.344   1.568  16.597  0.3677 -0.1784  0.5308
  439TMC3    C5 6543   2.475   1.574  16.551 -0.0353  0.4871  0.1877
  439TMC3    C6 6544   2.507   1.616  16.422 -0.0473 -0.0057  0.8314
  439TMC3     C 6545   2.106   1.586  16.543  0.2224  0.2364  0.4102
  439TMC3     O 6546   2.016   1.615  16.464 -0.4019  0.2063  0.1178
  439TMC3     H 6547   2.187   1.648  16.305  0.5481  0.2441 -0.5091
  439TMC3    H1 6548   2.329   1.561  16.705  4.0606  1.9462  1.1979
  439TMC3    H2 6549   2.609   1.624  16.387 -1.2458  1.0768 -2.4134
  439TMC3    C7 6550   2.582   1.500  16.619  0.6516 -0.2104  0.2525
  439TMC3    C8 6551   2.447   1.629  16.194  0.2894  1.0604  0.0737
  439TMC3    O1 6552   2.689   1.503  16.565  0.2995 -0.3746  0.2697
  439TMC3    O2 6553   2.554   1.670  16.158  0.2863  0.0409  0.0214
  440MPD2     C 6554   1.393   2.394  14.499  0.3435 -0.6443 -0.1798
  440MPD2    C1 6555   1.431   2.493  14.590  0.4801 -0.0210  0.4400
  440MPD2    C2 6556   1.563   2.490  14.628 -0.1401  0.6668 -0.2305
  440MPD2    C3 6557   1.654   2.392  14.581  0.6912 -0.7356  0.7302
  440MPD2    C4 6558   1.614   2.298  14.496 -1.4023 -0.0213 -0.2728
  440MPD2    C5 6559   1.486   2.305  14.459 -0.4494 -0.0208 -0.1376
  440MPD2     H 6560   1.596   2.573  14.688 -0.3627 -0.1968  1.0836
  440MPD2    H1 6561   1.675   2.216  14.460 -0.6903  1.1562 -1.7153
  440MPD2    H2 6562   1.287   2.377  14.480  0.0422 -1.3735  2.0925
  440MPD2    H3 6563   1.457   2.227  14.389 -0.7478 -0.3499  0.3499
  440MPD2     N 6564   1.783   2.386  14.627  0.0480 -0.1561  0.1439
  440MPD2    H5 6565   1.839   2.314  14.583 -0.0437 -0.4549  0.5206
  440MPD2    N1 6566   1.337   2.579  14.651  0.3873  0.0536  0.2850
  440MPD2    H7 6567   1.367   2.639  14.728 -1.0061  2.0187 -0.6968
  441TMC3    C1 6568   1.949   2.405  14.798 -0.1281  0.0489 -0.2022
  441TMC3    C2 6569   1.984   2.484  14.898  0.1823 -0.1773  1.0256
  441TMC3    C3 6570   1.983   2.454  15.026 -0.0721  0.4315  0.5408
  441TMC3    C4 6571   1.918   2.278  14.835  0.0997 -0.1534  0.3622
  441TMC3    C5 6572   1.897   2.250  14.962  0.0240 -0.3947  0.2874
  441TMC3    C6 6573   1.926   2.337  15.063  0.0723  0.4081  0.3216
  441TMC3     C 6574   1.845   2.468  14.725 -0.1994  1.3293 -0.1653
  441TMC3     O 6575   1.815   2.574  14.773 -0.4610 -0.0469 -0.4072
  441TMC3     H 6576   2.015   2.584  14.870  0.5433 -0.4851  0.3179
  441TMC3    H1 6577   1.886   2.207  14.760 -1.9500 -0.3938  1.4455
  441TMC3    H2 6578   1.912   2.321  15.169 -1.3688 -0.2494  0.0349
  441TMC3    C7 6579   1.883   2.113  14.998 -0.1015 -0.4000  0.0772
  441TMC3    C8 6580   1.940   2.562  15.111 -1.3006  0.4927  0.4870
  441TMC3    O1 6581   1.932   2.034  14.920 -0.0899  0.2784  0.6782
  441TMC3    O2 6582   1.978   2.573  15.226  0.5036  0.1941 -0.2269
  442MPD2     C 6583   4.250   3.198  16.313  0.0730  0.2485  0.0008
  442MPD2    C1 6584   4.138   3.120  16.286  0.2480  0.1879 -0.5751
  442MPD2    C2 6585   4.150   3.004  16.208 -0.7006  0.2791  0.6312
  442MPD2    C3 6586   4.268   2.980  16.135  0.4653 -0.8858  0.3196
  442MPD2    C4 6587   4.368   3.073  16.147  0.1414 -0.0046  0.1297
  442MPD2    C5 6588   4.360   3.177  16.236  0.4675 -0.0980 -0.0855
  442MPD2     H 6589   4.061   2.943  16.197 -0.1055 -0.7798  1.8124
  442MPD2    H1 6590   4.457   3.050  16.089  1.1756  2.5659  0.7147
  442MPD2    H2 6591   4.237   3.286  16.375 -1.3599  0.3657 -0.4438
  442MPD2    H3 6592   4.433   3.257  16.247 -1.8011  1.9657 -0.0898
  442MPD2     N 6593   4.288   2.869  16.057  0.8724 -0.3506  0.0119
  442MPD2    H5 6594   4.360   2.870  15.986  0.5333 -0.0665 -0.3339
  442MPD2    N1 6595   4.013   3.149  16.347 -0.5666  0.2713  0.1168
  442MPD2    H7 6596   3.950   3.070  16.356 -1.6268  1.0385 -0.5147
  443TMC3    C1 6597   3.838   3.277  16.457 -0.7216  0.8168 -0.1445
  443TMC3    C2 6598   3.759   3.383  16.443  0.0304 -0.2213 -0.5285
  443TMC3    C3 6599   3.631   3.376  16.495 -0.9934 -0.3340  0.8312
  443TMC3    C4 6600   3.788   3.164  16.524  0.3431 -0.1708 -0.0300
  443TMC3    C5 6601   3.657   3.155  16.560  0.1802 -0.6235 -0.7415
  443TMC3    C6 6602   3.578   3.270  16.567 -0.4939  0.5574  0.2795
  443TMC3     C 6603   3.967   3.275  16.386 -0.1200 -0.1651  0.2788
  443TMC3     O 6604   4.021   3.381  16.351 -0.2069 -0.7608  0.5314
  443TMC3     H 6605   3.785   3.477  16.396 -0.1815  1.1183  2.0334
  443TMC3    H1 6606   3.849   3.075  16.537 -0.1532 -0.3205  1.3134
  443TMC3    H2 6607   3.473   3.267  16.593 -0.6491 -1.0492 -0.5963
  443TMC3    C7 6608   3.617   3.037  16.628  0.0764 -0.9731 -0.4792
  443TMC3    C8 6609   3.542   3.490  16.482  0.3421  0.8211 -0.4968
  443TMC3    O1 6610   3.665   2.929  16.600  0.2026  0.2033  0.6456
  443TMC3    O2 6611   3.471   3.499  16.581  0.1324 -1.3267 -0.2954
  444MPD2     C 6612   4.342   2.466  16.957 -0.0674  0.1525  0.4328
  444MPD2    C1 6613   4.306   2.341  17.007  0.3739 -0.3197 -0.2328
  444MPD2    C2 6614   4.395   2.234  16.994 -0.2256 -0.4031 -0.1933
  444MPD2    C3 6615   4.521   2.253  16.947 -0.1655 -0.8980 -0.3701
  444MPD2    C4 6616   4.553   2.379  16.900 -0.0067 -0.4016 -0.8746
  444MPD2    C5 6617   4.462   2.481  16.890  0.3295  0.5873 -0.5627
  444MPD2     H 6618   4.351   2.137  17.014  1.6168 -1.0271  0.8516
  444MPD2    H1 6619   4.649   2.393  16.851  0.4942 -0.9858 -0.0530
  444MPD2    H2 6620   4.271   2.548  16.953 -0.4180 -0.1860 -0.4093
  444MPD2    H3 6621   4.486   2.579  16.849  1.1589  1.2301  1.4780
  444MPD2     N 6622   4.611   2.143  16.939 -0.1644 -0.6575  0.1776
  444MPD2    H5 6623   4.575   2.050  16.957  1.0120 -1.4684 -1.6434
  444MPD2    N1 6624   4.183   2.310  17.076  0.6906  0.3760  0.1448
  444MPD2    H7 6625   4.171   2.217  17.114 -0.8837  1.0056  1.1744
  445TMC3    C1 6626   0.083   2.016  16.948  0.0496  0.5439 -0.9401
  445TMC3    C2 6627   0.011   1.926  17.022 -0.9354  0.0455 -0.0617
  445TMC3    C3 6628   0.075   1.812  17.059  0.6402 -0.4599 -0.8549
  445TMC3    C4 6629   0.212   1.988  16.901 -0.9083 -0.0910 -0.5841
  445TMC3    C5 6630   0.274   1.870  16.945 -0.6976  0.4470  0.3582
  445TMC3    C6 6631   0.203   1.772  17.013 -0.0357  0.1524  0.1635
  445TMC3     C 6632   0.020   2.147  16.912  0.5254 -0.0944 -0.6846
  445TMC3     O 6633   0.100   2.234  16.882 -0.1134 -0.5326 -0.4715
  445TMC3     H 6634   4.632   1.938  17.049 -0.0212  2.9611  2.1229
  445TMC3    H1 6635   0.273   2.068  16.861 -2.1902  0.3071 -1.7203
  445TMC3    H2 6636   0.251   1.681  17.047 -0.0964 -0.3814 -1.1597
  445TMC3    C7 6637   0.399   1.834  16.880 -0.1743  0.2066  0.2870
  445TMC3    C8 6638   0.011   1.751  17.170  0.3219 -0.5736 -0.3692
  445TMC3    O1 6639   0.429   1.916  16.792 -0.6022  0.0177 -0.1142
  445TMC3    O2 6640   4.682   1.825  17.253  0.5148 -0.4543  0.1190
  446MPD2     C 6641   3.630   3.391  11.290 -0.6440  0.2801 -0.3789
  446MPD2    C1 6642   3.599   3.432  11.158 -0.8677  0.2069 -0.3908
  446MPD2    C2 6643   3.683   3.529  11.107 -0.1019 -0.3702 -0.8924
  446MPD2    C3 6644   3.793   3.576  11.179  0.4176  0.0761 -0.2774
  446MPD2    C4 6645   3.811   3.542  11.310 -0.1651  0.0455  0.1953
  446MPD2    C5 6646   3.727   3.452  11.368 -0.3936  0.0993 -0.1256
  446MPD2     H 6647   3.669   3.563  11.005 -0.6501  0.4719 -0.5408
  446MPD2    H1 6648   3.893   3.568  11.376  2.1732 -0.5393 -2.4898
  446MPD2    H2 6649   3.581   3.307  11.337 -1.4616  0.6756 -0.5161
  446MPD2    H3 6650   3.742   3.413  11.468  4.0036  1.7115 -0.1279
  446MPD2     N 6651   3.873   3.666  11.108  0.1487 -0.2166  0.1893
  446MPD2    H5 6652   3.854   3.663  11.009  0.5021 -0.6855  0.1331
  446MPD2    N1 6653   3.507   3.372  11.067 -0.2607 -0.1480  0.2647
  446MPD2    H7 6654   3.514   3.402  10.970  1.0127 -0.0197  0.3899
  447TMC3    C1 6655   4.059   3.825  11.077  0.1037  0.4847  0.0667
  447TMC3    C2 6656   4.018   3.846  10.950 -0.1266 -0.0137 -0.1806
  447TMC3    C3 6657   4.116   3.903  10.873 -0.4695  0.1915  0.3508
  447TMC3    C4 6658   4.185   3.851  11.116 -0.5716  0.5164  0.7363
  447TMC3    C5 6659   4.274   3.910  11.036  0.3155 -0.1396  0.5209
  447TMC3    C6 6660   4.239   3.932  10.906 -0.2581  0.0995 -0.3436
  447TMC3     C 6661   3.979   3.742  11.159  0.4102  0.3494 -0.1507
  447TMC3     O 6662   3.999   3.776  11.272  0.1405  0.1852 -0.1046
  447TMC3     H 6663   3.919   3.835  10.906 -0.6041  1.5611  0.4857
  447TMC3    H1 6664   4.215   3.829  11.217  1.6915  1.2807  0.2335
  447TMC3    H2 6665   4.307   3.980  10.836  0.7489  0.1369  0.6526
  447TMC3    C7 6666   4.416   3.902  11.061 -0.7980 -0.4775 -0.1466
  447TMC3    C8 6667   4.087   3.897  10.731  0.0047 -0.2376 -0.7868
  447TMC3    O1 6668   4.487   3.881  10.964  0.2706  0.9833  0.3279
  447TMC3    O2 6669   3.970   3.903  10.691  0.2209 -0.4141  0.6207
  448TMC3    C1 6670   2.747   3.233  16.823 -0.5307 -0.2180 -0.2871
  448TMC3    C2 6671   2.674   3.145  16.746  0.2139  0.2460 -1.1440
  448TMC3    C3 6672   2.610   3.036  16.811 -0.0846 -0.2379  0.4304
  448TMC3    C4 6673   2.777   3.206  16.952  0.0120 -0.4598 -0.8209
  448TMC3    C5 6674   2.726   3.093  17.003  0.0919  0.5584 -0.4176
  448TMC3    C6 6675   2.639   3.004  16.945 -0.5756  0.3581 -0.6656
  448TMC3     C 6676   2.777   3.366  16.761  0.2091  1.0285  0.5486
  448TMC3     O 6677   2.750   3.377  16.644  0.0302  0.2857  0.3031
  448TMC3     H 6678   2.657   3.171  16.642 -1.3290  0.9225 -0.7155
  448TMC3    H1 6679   2.843   3.266  17.014  0.3935  0.8867 -2.5135
  448TMC3    H2 6680   2.612   2.910  16.994 -1.0002  1.3086  0.9247
  448TMC3    C7 6681   2.723   3.099  17.152  0.8779 -0.1339  0.6494
  448TMC3    C8 6682   2.534   2.946  16.726 -0.4918  0.2908  0.3300
  448TMC3    O1 6683   2.758   3.207  17.202  0.0337  0.2257 -0.0140
  448TMC3    O2 6684   2.544   2.828  16.758  0.2445  0.2458  0.6941
  449MPD2     C 6685   3.879   2.472  13.911 -0.3569  0.5340  0.0201
  449MPD2    C1 6686   3.764   2.397  13.911  0.4553  0.6976  0.5272
  449MPD2    C2 6687   3.753   2.293  14.001 -0.3881  0.1094  0.2492
  449MPD2    C3 6688   3.852   2.278  14.105  0.2546 -0.0821 -0.2220
  449MPD2    C4 6689   3.961   2.360  14.118 -0.1541  0.3599 -0.3610
  449MPD2    C5 6690   3.971   2.459  14.018 -0.5239  0.2611  1.3514
  449MPD2     H 6691   3.672   2.221  13.996  0.2045 -0.5023 -0.7456
  449MPD2    H1 6692   4.046   2.343  14.184  0.4018  0.9279 -0.9171
  449MPD2    H2 6693   3.902   2.550  13.840  0.6465 -0.1258 -0.3737
  449MPD2    H3 6694   4.049   2.533  14.028 -0.3211  0.5956 -2.4208
  449MPD2     N 6695   3.829   2.175  14.199  0.6798 -0.2651  0.2296
  449MPD2    H5 6696   3.755   2.111  14.174  0.0779 -0.1655  1.7507
  449MPD2    N1 6697   3.670   2.403  13.807 -0.0160 -0.4529 -0.1371
  449MPD2    H7 6698   3.591   2.339  13.808 -1.2323  1.0370 -0.9051
  450TMC3    C1 6699   3.553   2.451  13.607 -0.1248  0.6470  0.7369
  450TMC3    C2 6700   3.585   2.392  13.489  0.2931  0.5382  0.1746
  450TMC3    C3 6701   3.507   2.283  13.452  0.2337  0.0432 -1.0880
  450TMC3    C4 6702   3.450   2.396  13.679 -0.0744  0.0845  0.2668
  450TMC3    C5 6703   3.378   2.285  13.646 -0.5996 -0.7081  0.4896
  450TMC3    C6 6704   3.408   2.221  13.525 -0.6417  0.2681  0.5334
  450TMC3     C 6705   3.675   2.478  13.688  0.3527 -0.0799 -0.1142
  450TMC3     O 6706   3.772   2.525  13.629 -0.0941  0.0792  0.7956
  450TMC3     H 6707   3.661   2.439  13.428  0.0791 -2.1575 -2.1674
  450TMC3    H1 6708   3.420   2.452  13.767 -1.3117  2.1409 -1.4425
  450TMC3    H2 6709   3.360   2.130  13.490  1.2518  0.6588 -3.0887
  450TMC3    C7 6710   3.386   2.198  13.761  0.3086  0.0682 -0.3978
  450TMC3    C8 6711   3.573   2.203  13.345  0.3339 -0.2030  0.5824
  450TMC3    O1 6712   3.456   2.244  13.853  0.1694 -1.2694  0.1232
  450TMC3    O2 6713   3.503   2.114  13.306  0.4257 -0.0722 -0.6891
  451MPD2     C 6714   4.686   0.701   1.367 -0.3389  0.0264 -0.1784
  451MPD2    C1 6715   0.085   0.749   1.391 -0.7903 -0.0304  0.1559
  451MPD2    C2 6716   0.197   0.674   1.352  0.6024 -0.4811 -0.7485
  451MPD2    C3 6717   0.186   0.549   1.287  0.2961  0.0255  0.4630
  451MPD2    C4 6718   0.062   0.510   1.251 -0.5565 -0.0473 -0.3741
  451MPD2    C5 6719   4.678   0.585   1.294 -0.5263 -0.7202  0.5024
  451MPD2     H 6720   0.293   0.722   1.359  0.0151  0.8353 -1.8434
  451MPD2    H1 6721   0.049   0.413   1.205  0.6587 -0.6891  0.6244
  451MPD2    H2 6722   4.600   0.757   1.402  0.0319  0.2425  0.3798
  451MPD2    H3 6723   4.579   0.550   1.267 -0.4102  0.7712 -1.8626
  451MPD2     N 6724   0.295   0.462   1.255 -0.2830 -0.1361 -0.0679
  451MPD2    H5 6725   0.279   0.380   1.196 -1.4014  0.0322  0.0173
  451MPD2    N1 6726   0.087   0.876   1.452  0.3505 -0.3780 -0.6583
  451MPD2    H7 6727   4.724   0.918   1.477  1.2127  0.4678  1.0151
  452TMC3    C1 6728   0.514   0.378   1.236  0.2392  0.6259  0.4715
  452TMC3    C2 6729   0.628   0.349   1.304 -0.0980 -0.3662  0.9484
  452TMC3    C3 6730   0.724   0.267   1.251 -0.6122  0.2185  0.0766
  452TMC3    C4 6731   0.491   0.319   1.113  0.0395 -0.1073  0.3721
  452TMC3    C5 6732   0.589   0.247   1.062 -0.3256 -0.5849  0.1053
  452TMC3    C6 6733   0.701   0.216   1.128  0.4150  0.0046 -0.2632
  452TMC3     C 6734   0.424   0.480   1.291  0.1900  0.1385  0.1269
  452TMC3     O 6735   0.478   0.576   1.349 -0.6389  0.1213 -0.5002
  452TMC3     H 6736   0.638   0.377   1.409 -0.0071 -0.7144  1.0318
  452TMC3    H1 6737   0.412   0.359   1.050 -0.7032 -0.0453  1.3389
  452TMC3    H2 6738   0.769   0.150   1.075  0.8906  0.2049  0.0941
  452TMC3    C7 6739   0.596   0.210   0.925  0.0871 -0.4243  0.7361
  452TMC3    C8 6740   0.797   0.189   1.353 -0.0525 -0.1841  0.0665
  452TMC3    O1 6741   0.707   0.201   0.871 -0.0663 -0.2871 -0.3284
  452TMC3    O2 6742   0.751   0.192   1.468 -0.1467  0.3282 -0.1149
  453TMC3    C1 6743   1.548   2.802  11.659  0.0313  0.3075 -0.7760
  453TMC3    C2 6744   1.460   2.704  11.679  0.1926 -0.1449  0.1945
  453TMC3    C3 6745   1.353   2.718  11.608 -0.3359 -0.4429  0.2086
  453TMC3    C4 6746   1.530   2.902  11.571  0.2348 -0.1903 -0.4350
  453TMC3    C5 6747   1.422   2.906  11.492 -0.5415 -0.1636 -0.0784
  453TMC3    C6 6748   1.330   2.818  11.516  0.0255  0.0357  0.0543
  453TMC3     C 6749   1.685   2.790  11.717 -0.2866  0.7582 -0.4037
  453TMC3     O 6750   1.741   2.897  11.723  0.8063 -0.9940 -0.3475
  453TMC3     H 6751   1.471   2.630  11.757 -0.1792 -0.7173 -0.3040
  453TMC3    H1 6752   1.613   2.967  11.550 -0.9772  1.3528 -0.4365
  453TMC3    H2 6753   1.245   2.825  11.448 -0.5499  1.0315  0.8783
  453TMC3    C7 6754   1.463   2.902  11.350  0.9121  0.4842  0.1801
  453TMC3    C8 6755   1.261   2.614  11.621  0.8060  0.9951 -0.8574
  453TMC3    O1 6756   1.434   2.799  11.292 -0.6063 -0.0178  0.3003
  453TMC3    O2 6757   1.142   2.646  11.615  0.2025  0.4266 -0.2845
  454MPD2     C 6758   0.627   1.695  16.175  0.1994 -0.5877 -0.6603
  454MPD2    C1 6759   0.557   1.812  16.170 -0.8829  0.5618 -0.1505
  454MPD2    C2 6760   0.486   1.856  16.280  0.2333  0.0800 -0.8492
  454MPD2    C3 6761   0.469   1.779  16.394  0.3177 -0.2091  0.1577
  454MPD2    C4 6762   0.531   1.657  16.391  0.5299  0.1273  0.1742
  454MPD2    C5 6763   0.625   1.623  16.292  0.3678 -0.5476  0.7420
  454MPD2     H 6764   0.430   1.949  16.271  0.2183  0.3837  2.3081
  454MPD2    H1 6765   0.524   1.586  16.472  0.4857 -0.2738 -0.1765
  454MPD2    H2 6766   0.685   1.652  16.094  0.0959 -0.1568 -0.9624
  454MPD2    H3 6767   0.686   1.534  16.305 -0.9031 -1.8467 -2.4621
  454MPD2     N 6768   0.368   1.800  16.492  0.4307 -0.1027 -0.0396
  454MPD2    H5 6769   0.331   1.722  16.545 -0.3807  0.0328 -0.4128
  454MPD2    N1 6770   0.546   1.889  16.053 -0.3253 -0.2065 -0.2196
  454MPD2    H7 6771   0.494   1.976  16.063 -0.5779 -0.4016  0.1671
  455TMC3    C1 6772   0.180   1.917  16.545  1.0718 -0.2542  0.2746
  455TMC3    C2 6773   0.133   2.033  16.596 -0.0179 -0.4386  0.4639
  455TMC3    C3 6774   0.006   2.076  16.549 -0.0331 -0.7298  0.1791
  455TMC3    C4 6775   0.102   1.832  16.466  0.4210 -0.1770 -0.6208
  455TMC3    C5 6776   4.709   1.885  16.418 -0.0285 -0.7347  0.3235
  455TMC3    C6 6777   4.660   2.003  16.458  0.6467  0.1185  0.0058
  455TMC3     C 6778   0.315   1.921  16.494  0.3088  0.1383  0.6621
  455TMC3     O 6779   0.371   2.030  16.484  0.0580 -0.5362  0.2224
  455TMC3     H 6780   0.206   2.105  16.632  1.6938 -1.3644 -1.2160
  455TMC3    H1 6781   0.136   1.745  16.411  1.6491 -0.8063  1.1348
  455TMC3    H2 6782   4.563   2.028  16.416  1.2899  0.8647 -1.0218
  455TMC3    C7 6783   4.646   1.823  16.304 -0.6302 -0.1579  1.0380
  455TMC3    C8 6784   4.720   2.222  16.542  0.2300  0.0042  0.4779
  455TMC3    O1 6785   4.597   1.893  16.217 -0.0440  0.0866 -0.2264
  455TMC3    O2 6786   4.616   2.272  16.586  0.5573 -0.3574 -0.5064
  456MPD2     C 6787   2.597   2.472  15.577 -0.3054 -0.2421  0.0152
  456MPD2    C1 6788   2.683   2.437  15.672 -0.8232  0.5689  0.1206
  456MPD2    C2 6789   2.636   2.405  15.802  0.1929 -0.4290  0.3406
  456MPD2    C3 6790   2.504   2.426  15.831 -0.4536  0.4236  0.4999
  456MPD2    C4 6791   2.417   2.456  15.725 -0.4641 -0.0379  0.0443
  456MPD2    C5 6792   2.461   2.476  15.600  0.2566  0.5045  1.2997
  456MPD2     H 6793   2.704   2.371  15.879 -0.1289 -1.7068  0.0493
  456MPD2    H1 6794   2.311   2.471  15.742 -0.9786 -0.9541 -2.4279
  456MPD2    H2 6795   2.630   2.502  15.478  0.4098  0.2421  0.4029
  456MPD2    H3 6796   2.392   2.510  15.523 -1.1476 -3.7456  0.6926
  456MPD2     N 6797   2.459   2.405  15.961  0.3475  0.2549 -0.2917
  456MPD2    H5 6798   2.534   2.405  16.030 -2.5744 -0.6459  2.8895
  456MPD2    N1 6799   2.821   2.455  15.647  0.4735 -0.5582 -0.9074
  456MPD2    H7 6800   2.839   2.516  15.567  0.3845  1.2462  0.4615
  457TMC3    C1 6801   2.320   2.350  16.134  0.2994  0.1983 -0.3823
  457TMC3    C2 6802   2.278   2.454  16.214  0.3296 -0.7665  0.1528
  457TMC3    C3 6803   2.304   2.438  16.347  0.1869  0.1181  0.5810
  457TMC3    C4 6804   2.387   2.238  16.182 -0.6133  0.8417 -0.0094
  457TMC3    C5 6805   2.422   2.232  16.311 -0.4814  0.5893  0.3619
  457TMC3    C6 6806   2.374   2.331  16.401 -0.3493  0.0063 -0.8247
  457TMC3     C 6807   2.328   2.384  16.000 -0.3752 -0.2674 -0.5318
  457TMC3     O 6808   2.222   2.378  15.936 -0.5108  0.3951 -0.6773
  457TMC3     H 6809   2.229   2.541  16.171 -1.2309 -1.4188  0.6253
  457TMC3    H1 6810   2.399   2.152  16.116 -2.3287  1.5526 -1.2244
  457TMC3    H2 6811   2.399   2.322  16.506 -0.0612 -1.8838 -1.0553
  457TMC3    C7 6812   2.487   2.119  16.377 -0.1763 -0.0153  0.7135
  457TMC3    C8 6813   2.325   2.557  16.425  0.4513  0.1059  0.4087
  457TMC3    O1 6814   2.455   2.109  16.493  0.3767  0.0754  0.4466
  457TMC3    O2 6815   2.420   2.550  16.503  0.2855 -0.4344 -0.5600
  458MPD2     C 6816   0.883   1.477  11.556 -0.7412 -0.4353 -0.0734
  458MPD2    C1 6817   0.795   1.466  11.657 -0.4150  0.1011  0.3145
  458MPD2    C2 6818   0.656   1.480  11.633  0.0443 -0.1850 -0.2207
  458MPD2    C3 6819   0.610   1.510  11.505  1.3435  0.6138 -0.5714
  458MPD2    C4 6820   0.701   1.506  11.400 -0.1463  0.3866 -0.4452
  458MPD2    C5 6821   0.834   1.486  11.430 -0.0916 -0.3174 -0.7024
  458MPD2     H 6822   0.579   1.479  11.709 -1.0541 -1.6578 -1.3591
  458MPD2    H1 6823   0.665   1.533  11.302  0.4350 -0.1386 -0.8016
  458MPD2    H2 6824   0.991   1.469  11.570 -0.7544  0.3356  0.4371
  458MPD2    H3 6825   0.897   1.509  11.344  2.0179  0.3175  1.0004
  458MPD2     N 6826   0.472   1.551  11.488 -0.7854  0.3789 -0.1828
  458MPD2    H5 6827   0.420   1.551  11.574  0.2175  1.8281  0.4326
  458MPD2    N1 6828   0.855   1.450  11.782 -0.0671  0.1242 -0.0275
  458MPD2    H7 6829   0.956   1.458  11.784  0.0794 -1.4930 -0.4286
  459TMC3    C1 6830   0.893   1.399  12.009 -0.4707 -0.1597  0.3623
  459TMC3    C2 6831   0.990   1.493  12.005 -0.4247 -0.2257 -0.3015
  459TMC3    C3 6832   1.101   1.471  12.088 -0.2030  0.5880 -0.5410
  459TMC3    C4 6833   0.895   1.288  12.089  0.6913  0.6165  0.1624
  459TMC3    C5 6834   1.009   1.272  12.160  0.5107 -0.4715  0.5145
  459TMC3    C6 6835   1.113   1.362  12.165 -0.0067  0.1358 -0.1958
  459TMC3     C 6836   0.798   1.399  11.899  0.0702 -0.1566  0.1733
  459TMC3     O 6837   0.692   1.344  11.908  0.8902 -0.5028 -0.1492
  459TMC3     H 6838   0.986   1.575  11.934  0.1772 -0.5000 -0.6514
  459TMC3    H1 6839   0.812   1.218  12.093  3.2286 -2.4950 -1.5215
  459TMC3    H2 6840   1.204   1.347  12.221  0.3177 -0.9464 -1.0126
  459TMC3    C7 6841   1.008   1.185  12.280  0.0711 -0.1995 -0.2386
  459TMC3    C8 6842   1.216   1.558  12.077  0.0081  0.3403 -0.0880
  459TMC3    O1 6843   1.103   1.204  12.360 -0.1886  0.7793 -0.4302
  459TMC3    O2 6844   1.324   1.520  12.104  0.0770 -0.2641 -0.7557
  460MPD2     C 6845   4.342   3.820  10.484 -0.0372  0.5210  0.5305
  460MPD2    C1 6846   4.220   3.864  10.521 -0.1800 -0.3167  0.1254
  460MPD2    C2 6847   4.127   3.889  10.424  0.0331 -0.3649  0.4327
  460MPD2    C3 6848   4.155   3.876  10.288 -0.2930 -0.1016  0.0813
  460MPD2    C4 6849   4.281   3.829  10.251 -0.2799 -0.0220  0.5324
  460MPD2    C5 6850   4.376   3.807  10.349  0.5684 -0.0603  0.0348
  460MPD2     H 6851   4.027   3.912  10.457  0.4041  1.7478  0.0582
  460MPD2    H1 6852   4.305   3.807  10.147  3.2347  1.5812  0.9915
  460MPD2    H2 6853   4.420   3.797  10.557 -0.2804  2.2752  1.3510
  460MPD2    H3 6854   4.471   3.762  10.321 -1.1959 -2.7033 -1.6549
  460MPD2     N 6855   4.052   3.902  10.199 -0.9666  0.3359 -0.1051
  460MPD2    H5 6856   3.967   3.947  10.232 -1.5042 -0.3787 -0.5161
  460MPD2    N1 6857   4.200   3.866  10.659  0.1332  0.1297  0.3422
  460MPD2    H7 6858   4.281   3.850  10.719  0.0472  0.6758  0.6051
  461TMC3    C1 6859   3.925   3.915  10.017  0.3897  0.0071  0.6592
  461TMC3    C2 6860   3.869   3.815   9.941  0.2474 -0.0617  0.3800
  461TMC3    C3 6861   3.747   3.851   9.883 -0.8176 -0.3574 -0.0882
  461TMC3    C4 6862   3.883   4.040  10.021  0.3430 -0.4221  0.4691
  461TMC3    C5 6863   3.762   4.070   9.958 -0.0599 -0.2646 -0.5075
  461TMC3    C6 6864   3.688   3.975   9.888  0.3983 -0.6268  0.3525
  461TMC3     C 6865   4.050   3.877  10.065 -0.3153 -0.0741  0.0282
  461TMC3     O 6866   4.106   3.784  10.009 -0.0801  0.2156  0.2146
  461TMC3     H 6867   3.899   3.711   9.940 -0.3634 -0.2369 -0.1838
  461TMC3    H1 6868   3.952   4.111  10.064 -0.0976  0.4848 -0.3354
  461TMC3    H2 6869   3.621   4.001   9.806  1.4705  1.5348  0.1462
  461TMC3    C7 6870   3.737   4.208   9.927 -0.0564 -0.8503  0.1243
  461TMC3    C8 6871   3.683   3.751   9.801  0.3815  0.4016  0.5275
  461TMC3    O1 6872   3.654   4.236   9.845  0.0784  0.5273  0.0916
  461TMC3    O2 6873   3.755   3.661   9.772  0.1893 -0.3521 -0.0139
  462TMC3    C1 6874   4.340   0.100  17.066  0.1014  0.4316  0.7113
  462TMC3    C2 6875   4.359   4.705  16.993 -0.7978  0.4183 -0.3479
  462TMC3    C3 6876   4.282   4.595  17.035 -0.2723 -0.4779  0.0493
  462TMC3    C4 6877   4.256   0.110  17.175 -0.3424 -0.7270 -0.6931
  462TMC3    C5 6878   4.192   4.719  17.215  0.4851  0.9218  0.1287
  462TMC3    C6 6879   4.206   4.603  17.149  0.3685 -0.0613  0.2794
  462TMC3     C 6880   4.411   0.212  17.013 -0.0872 -0.7169 -0.4416
  462TMC3     O 6881   4.457   0.189  16.903 -0.5298  0.1650 -0.2178
  462TMC3     H 6882   4.409   4.703  16.897 -0.0294  1.0568  0.0420
  462TMC3    H1 6883   4.256   0.196  17.241 -6.1711 -0.7019 -0.7121
  462TMC3    H2 6884   4.130   4.527  17.164 -1.8961  2.2602  0.4287
  462TMC3    C7 6885   4.107   4.711  17.331 -0.4460 -0.4777 -0.5186
  462TMC3    C8 6886   4.249   4.491  16.935  0.4675 -0.4628  0.6552
  462TMC3    O1 6887   4.113   4.603  17.389 -0.3537  0.6142  0.0769
  462TMC3    O2 6888   4.144   4.429  16.957 -0.7966 -0.0856  0.0531
  463MPD2     C 6889   0.352   3.503   1.951  0.0314  0.2944  0.4806
  463MPD2    C1 6890   0.311   3.556   1.832 -0.3883 -0.7578 -0.9396
  463MPD2    C2 6891   0.376   3.673   1.778 -0.2131 -0.2518  0.5454
  463MPD2    C3 6892   0.486   3.728   1.847 -0.8153  0.2999  0.4940
  463MPD2    C4 6893   0.526   3.664   1.966 -0.4529  0.2384  0.0412
  463MPD2    C5 6894   0.468   3.551   2.013 -1.3345 -0.7376  1.0116
  463MPD2     H 6895   0.341   3.710   1.683 -0.5357  2.0287  1.5705
  463MPD2    H1 6896   0.603   3.703   2.032  1.7506 -1.5644 -1.4552
  463MPD2    H2 6897   0.305   3.413   1.989  1.6911 -0.5964  0.4228
  463MPD2    H3 6898   0.502   3.517   2.110 -0.8737 -1.0315  0.7493
  463MPD2     N 6899   0.563   3.837   1.794  0.0732 -0.1761 -0.1025
  463MPD2    H5 6900   0.639   3.872   1.851  0.8113 -3.1538  0.6999
  463MPD2    N1 6901   0.213   3.496   1.753 -0.2488 -0.8147  0.6920
  463MPD2    H7 6902   0.182   3.548   1.672 -2.9783 -1.4808  1.3083
  464TMC3    C1 6903   0.034   3.372   1.677 -0.6614  0.3688  0.1944
  464TMC3    C2 6904   4.698   3.483   1.631 -0.7970  0.0767 -0.0111
  464TMC3    C3 6905   4.599   3.471   1.541  0.1549  0.8528  0.4190
  464TMC3    C4 6906   4.724   3.250   1.634 -0.7982 -0.5491 -0.1170
  464TMC3    C5 6907   4.618   3.241   1.544  0.6840  0.5969 -0.5417
  464TMC3    C6 6908   4.559   3.350   1.490 -0.1064 -0.4631  0.6006
  464TMC3     C 6909   0.150   3.374   1.767 -0.6504 -0.0653 -0.4685
  464TMC3     O 6910   0.180   3.277   1.835  0.1738 -0.1267 -0.4651
  464TMC3     H 6911   4.721   3.580   1.673 -1.4959  0.1738  0.1445
  464TMC3    H1 6912   0.048   3.158   1.664  1.4971  1.1893  1.4600
  464TMC3    H2 6913   4.479   3.347   1.416  1.2498 -1.7866 -0.8037
  464TMC3    C7 6914   4.572   3.104   1.517 -0.1363 -0.2298  0.3017
  464TMC3    C8 6915   4.568   3.587   1.456 -0.2652  0.0006 -0.3423
  464TMC3    O1 6916   4.631   3.009   1.572  0.1099 -0.8240  1.0004
  464TMC3    O2 6917   4.642   3.687   1.445 -0.6072 -0.1183 -0.2612
  465MPD2     C 6918   2.029   2.118  16.080  0.9157  0.0483  0.9051
  465MPD2    C1 6919   1.940   2.112  16.181 -0.9115 -0.6755 -0.7006
  465MPD2    C2 6920   1.806   2.131  16.166  0.1139  0.2194  0.6964
  465MPD2    C3 6921   1.754   2.167  16.040  0.2499 -0.3312 -0.1938
  465MPD2    C4 6922   1.849   2.172  15.937 -1.0268  0.3103  0.0970
  465MPD2    C5 6923   1.983   2.146  15.957 -0.1024  0.1854  0.0359
  465MPD2     H 6924   1.735   2.131  16.248 -1.2556 -0.8591 -0.4956
  465MPD2    H1 6925   1.823   2.202  15.836  2.4117  2.1294 -0.2677
  465MPD2    H2 6926   2.134   2.091  16.086  0.3955 -1.5624  3.0702
  465MPD2    H3 6927   2.064   2.154  15.885  0.2764  0.9379  0.5393
  465MPD2     N 6928   1.615   2.179  16.035  0.0176  0.1574  0.4247
  465MPD2    H5 6929   1.561   2.170  16.121 -1.0202  4.1946  0.1822
  465MPD2    N1 6930   1.981   2.073  16.313 -0.2524 -0.4182  0.2420
  465MPD2    H7 6931   1.909   2.092  16.383 -0.7174  1.5374 -0.7498
  466TMC3    C1 6932   1.221   2.164  16.090 -0.6889 -0.0907  0.0470
  466TMC3    C2 6933   1.147   2.260  16.023  0.3411 -0.1880  0.5175
  466TMC3    C3 6934   1.197   2.318  15.918  0.0349 -0.5929 -0.3821
  466TMC3    C4 6935   1.351   2.133  16.052 -0.0380  1.0463  0.1264
  466TMC3    C5 6936   1.401   2.211  15.951  0.3870  0.3637  0.5142
  466TMC3    C6 6937   1.321   2.289  15.873 -0.0155 -0.3190 -0.2026
  466TMC3     C 6938   1.180   2.131  16.225 -0.0458  0.4056 -0.1048
  466TMC3     O 6939   1.103   2.208  16.277  0.2763  0.5953  0.0271
  466TMC3     H 6940   1.056   2.301  16.066  0.9538  0.8203  0.8459
  466TMC3    H1 6941   1.413   2.062  16.105 -0.9195 -1.4780 -2.2130
  466TMC3    H2 6942   1.363   2.349  15.793  2.0338  1.6252  2.3629
  466TMC3    C7 6943   1.542   2.209  15.922 -0.5520  0.0817  0.3330
  466TMC3    C8 6944   1.149   2.449  15.882  0.7623  0.2959  0.5717
  466TMC3    O1 6945   1.574   2.235  15.806  0.5240 -0.2995  0.4664
  466TMC3    O2 6946   1.130   2.470  15.763 -0.7281 -0.2213 -0.5484
  467TMC3    C1 6947   2.615   0.705  13.776 -0.2370  0.6330 -0.4747
  467TMC3    C2 6948   2.563   0.791  13.685 -0.0096  0.0965 -0.2373
  467TMC3    C3 6949   2.425   0.777  13.655 -0.0105 -0.4327 -0.3949
  467TMC3    C4 6950   2.533   0.621  13.844 -0.1457  0.1730 -0.3529
  467TMC3    C5 6951   2.399   0.620  13.826 -0.7932  0.5380 -0.1483
  467TMC3    C6 6952   2.339   0.699  13.733 -0.2873  0.7794 -0.0595
  467TMC3     C 6953   2.753   0.676  13.781 -0.1921  0.3835  1.2427
  467TMC3     O 6954   2.796   0.642  13.887  0.0500 -0.0903 -0.5434
  467TMC3     H 6955   2.636   0.853  13.636 -0.2981  2.3819  2.2346
  467TMC3    H1 6956   2.581   0.558  13.918 -0.9098  2.7753  2.3537
  467TMC3    H2 6957   2.237   0.694  13.698 -0.4639 -0.4263  0.6662
  467TMC3    C7 6958   2.319   0.577  13.936  0.4681 -0.0547 -0.6116
  467TMC3    C8 6959   2.369   0.866  13.552 -0.8474  0.8714 -0.3625
  467TMC3    O1 6960   2.356   0.464  13.972 -0.3845  0.3738  0.3007
  467TMC3    O2 6961   2.280   0.826  13.476 -0.0402 -0.2853 -0.3772
  468MPD2     C 6962   1.024   3.776  10.193  0.6010  0.5731  0.7446
  468MPD2    C1 6963   1.144   3.802  10.258 -0.0162 -0.4763 -0.2238
  468MPD2    C2 6964   1.220   3.689  10.284 -0.2488 -0.2256  0.1631
  468MPD2    C3 6965   1.174   3.561  10.267 -0.0691  0.4696 -0.2800
  468MPD2    C4 6966   1.060   3.538  10.204  0.3289  0.1374 -0.3432
  468MPD2    C5 6967   0.993   3.646  10.161 -0.1500  0.1266  0.0148
  468MPD2     H 6968   1.314   3.707  10.336  0.2267  0.7001 -1.0312
  468MPD2    H1 6969   1.031   3.434  10.190 -0.0243  0.1247  0.4737
  468MPD2    H2 6970   0.957   3.854  10.160  4.8445  3.8551 -0.1550
  468MPD2    H3 6971   0.908   3.627  10.095  1.2012 -3.2868 -0.7587
  468MPD2     N 6972   1.236   3.447  10.328  0.5585 -0.7564  0.4698
  468MPD2    H5 6973   1.184   3.360  10.334 -1.0252  0.1076 -0.6502
  468MPD2    N1 6974   1.187   3.937  10.293  0.2297  0.2481 -0.0099
  468MPD2    H7 6975   1.277   3.938  10.340 -1.2657 -1.8660  2.8107
  469TMC3    C1 6976   1.205   4.170  10.303 -0.1179 -0.2860 -0.6966
  469TMC3    C2 6977   1.337   4.162  10.321 -0.4638 -0.1234 -0.2916
  469TMC3    C3 6978   1.400   4.264  10.374 -0.2357  0.0396 -0.3330
  469TMC3    C4 6979   1.143   4.289  10.307  0.1308  1.1440  0.5949
  469TMC3    C5 6980   1.208   4.405  10.352 -0.9760  0.2532  0.6121
  469TMC3    C6 6981   1.336   4.387  10.400 -0.0235 -0.1138 -0.1518
  469TMC3     C 6982   1.121   4.058  10.275 -0.7481  0.1317  0.9682
  469TMC3     O 6983   1.016   4.078  10.222  0.4098  0.2523  0.3808
  469TMC3     H 6984   1.399   4.077  10.295 -0.7502 -0.2296 -0.6417
  469TMC3    H1 6985   1.036   4.285  10.291  0.0935 -0.1827  1.1469
  469TMC3    H2 6986   1.394   4.464  10.451 -0.9951  0.8197 -0.4593
  469TMC3    C7 6987   1.126   4.504  10.418 -0.1760  0.1467  0.3770
  469TMC3    C8 6988   1.500   4.217  10.463  0.1995  0.6309  0.8131
  469TMC3    O1 6989   1.012   4.494  10.379 -0.8142 -0.5598  0.0656
  469TMC3    O2 6990   1.594   4.155  10.419  0.2699  0.6597  0.6727
  470TMC3    C1 6991   4.560   0.262   1.613 -0.4717 -0.6034  0.3983
  470TMC3    C2 6992   4.449   0.291   1.539  0.1518  0.7581 -0.0999
  470TMC3    C3 6993   4.401   0.420   1.552  0.0862 -0.0255 -0.4778
  470TMC3    C4 6994   4.622   0.352   1.696 -0.3745  0.0635  0.7739
  470TMC3    C5 6995   4.564   0.477   1.723  0.3169  0.7446  0.5988
  470TMC3    C6 6996   4.453   0.510   1.646  0.2281 -0.5495  0.2146
  470TMC3     C 6997   4.636   0.155   1.548 -0.7288  1.1980  0.7188
  470TMC3     O 6998   4.582   0.072   1.476 -0.0907 -0.3247 -0.5694
  470TMC3     H 6999   4.405   0.221   1.469  0.8456 -0.5036  0.7239
  470TMC3    H1 7000   4.697   0.311   1.763  2.6778 -2.3475 -4.0426
  470TMC3    H2 7001   4.414   0.611   1.652  0.8825 -0.2183 -1.1768
  470TMC3    C7 7002   4.548   0.496   1.867  0.2505  0.1128  0.0667
  470TMC3    C8 7003   4.289   0.476   1.481  0.2230  0.2526  0.9365
  470TMC3    O1 7004   4.646   0.499   1.945 -0.4628  0.4167  0.0612
  470TMC3    O2 7005   4.262   0.596   1.494 -0.5896  0.1924 -0.4360
  471MPD2     C 7006   3.618   1.376  16.441  0.5359 -0.8905 -0.4526
  471MPD2    C1 7007   3.681   1.251  16.424  0.0618  0.0663 -0.4940
  471MPD2    C2 7008   3.808   1.226  16.475 -1.1163 -0.2660  0.5378
  471MPD2    C3 7009   3.870   1.331  16.549  0.2475  0.1910 -0.4386
  471MPD2    C4 7010   3.808   1.447  16.577 -0.0048  0.3840  0.0459
  471MPD2    C5 7011   3.689   1.471  16.511  0.3433  1.0694  0.1156
  471MPD2     H 7012   3.860   1.133  16.454  0.2093  1.3270 -3.1661
  471MPD2    H1 7013   3.852   1.520  16.643 -0.2148  1.0745 -0.5879
  471MPD2    H2 7014   3.531   1.402  16.382  1.1033  0.3079 -0.7726
  471MPD2    H3 7015   3.640   1.567  16.511 -0.8973  0.4422  0.8887
  471MPD2     N 7016   3.998   1.299  16.611 -0.0212 -0.2287  0.5259
  471MPD2    H5 7017   4.032   1.369  16.676  0.1913 -1.1428  1.3889
  471MPD2    N1 7018   3.624   1.138  16.363  0.2054 -0.1605  0.0965
  471MPD2    H7 7019   3.677   1.051  16.361 -1.9999 -1.4730 -1.5795
  472TMC3    C1 7020   3.460   0.983  16.296 -0.2693 -0.2677  0.6796
  472TMC3    C2 7021   3.326   0.962  16.297 -0.3295  0.2141  0.3577
  472TMC3    C3 7022   3.295   0.829  16.299  0.7547  1.0008  0.5315
  472TMC3    C4 7023   3.559   0.890  16.304 -0.4389 -0.2133  0.5988
  472TMC3    C5 7024   3.513   0.760  16.298 -0.0579 -0.3630 -0.5378
  472TMC3    C6 7025   3.381   0.724  16.300  0.6774  0.1188 -0.1162
  472TMC3     C 7026   3.499   1.125  16.316 -0.3076 -0.7000 -0.0696
  472TMC3     O 7027   3.408   1.210  16.320  0.5064 -0.8650  0.1599
  472TMC3     H 7028   3.250   1.039  16.299 -2.5869 -2.0566  1.4573
  472TMC3    H1 7029   3.666   0.903  16.298 -0.5497  0.4092 -0.0102
  472TMC3    H2 7030   3.353   0.619  16.296  1.7156 -0.1373 -0.6518
  472TMC3    C7 7031   3.604   0.647  16.281 -0.0044  0.5490  0.1457
  472TMC3    C8 7032   3.157   0.796  16.321  0.3326 -0.5733  0.1194
  472TMC3    O1 7033   3.560   0.545  16.337 -0.1736 -0.5160 -0.5443
  472TMC3    O2 7034   3.079   0.873  16.262  1.1081  0.0415  0.1465
  473MPD2     C 7035   4.025   3.340  13.429 -0.3831 -0.6426  0.4453
  473MPD2    C1 7036   4.085   3.438  13.351  0.8491  0.4909 -0.5358
  473MPD2    C2 7037   4.180   3.531  13.414 -0.0033  0.7143  0.3686
  473MPD2    C3 7038   4.211   3.524  13.554  0.1567 -0.3465  0.2785
  473MPD2    C4 7039   4.142   3.431  13.626  0.3325 -0.4095  0.1927
  473MPD2    C5 7040   4.052   3.344  13.562 -0.2452  0.2752 -0.1960
  473MPD2     H 7041   4.222   3.608  13.350 -1.9057  1.2505 -0.2263
  473MPD2    H1 7042   4.155   3.430  13.734  2.8259  1.0581 -0.0797
  473MPD2    H2 7043   3.958   3.268  13.384 -0.4900 -1.0525  1.2794
  473MPD2    H3 7044   4.009   3.268  13.625 -2.8999  1.8773 -0.0890
  473MPD2     N 7045   4.297   3.606  13.628 -0.3563  0.2225  0.5485
  473MPD2    H5 7046   4.316   3.594  13.727  0.1508  0.0427  0.4337
  473MPD2    N1 7047   4.065   3.463  13.209  0.4071  0.8457  0.1454
  473MPD2    H7 7048   4.125   3.529  13.161 -0.0942 -1.1067 -3.1101
  474TMC3    C1 7049   4.408   3.801  13.670  0.6057  0.0361 -0.6537
  474TMC3    C2 7050   4.379   3.931  13.630  0.1124  0.1676  0.0813
  474TMC3    C3 7051   4.377   4.028  13.726 -0.2160 -0.6875 -0.2651
  474TMC3    C4 7052   4.422   3.764  13.796  0.0052 -0.3472  0.4582
  474TMC3    C5 7053   4.422   3.862  13.888  0.0779  0.2063  0.2056
  474TMC3    C6 7054   4.391   3.996  13.861 -0.4023  0.1566  0.1361
  474TMC3     C 7055   4.364   3.708  13.572 -0.0257 -0.8406 -0.0652
  474TMC3     O 7056   4.356   3.751  13.460  0.2118  0.2321 -0.1423
  474TMC3     H 7057   4.347   3.958  13.530  1.3221  1.5249  0.0593
  474TMC3    H1 7058   4.460   3.666  13.823  1.3394 -0.5752 -2.1781
  474TMC3    H2 7059   4.377   4.065  13.943 -0.6233  0.9158 -0.5360
  474TMC3    C7 7060   4.408   3.813  14.015 -0.9012 -0.2750 -0.3251
  474TMC3    C8 7061   4.295   4.145  13.689 -0.5746  0.0891 -0.2005
  474TMC3    O1 7062   4.366   3.699  14.021 -0.2833  0.1732  0.4861
  474TMC3    O2 7063   4.237   4.139  13.578 -0.0597  0.6483 -0.2741
  475MPD2     C 7064   3.126   1.401   9.904 -0.2472  0.0588 -0.4945
  475MPD2    C1 7065   3.016   1.423   9.824  0.2620  0.2324 -0.4154
  475MPD2    C2 7066   2.912   1.504   9.870  0.4125 -0.1305 -0.2590
  475MPD2    C3 7067   2.918   1.565   9.989  0.0456 -0.3271 -0.5126
  475MPD2    C4 7068   3.027   1.546  10.066 -0.5726  0.4482  0.1269
  475MPD2    C5 7069   3.131   1.464  10.026 -0.3811  0.2590  0.1930
  475MPD2     H 7070   2.822   1.514   9.811  0.9218  4.2256 -0.2940
  475MPD2    H1 7071   3.045   1.602  10.157  0.8894  0.7505 -0.3435
  475MPD2    H2 7072   3.213   1.347   9.868  0.4657  0.0236  1.2948
  475MPD2    H3 7073   3.220   1.460  10.087  0.3151 -1.0141 -0.9044
  475MPD2     N 7074   2.807   1.642  10.029  0.0910  0.1521  0.9351
  475MPD2    H5 7075   2.723   1.632   9.974 -0.7786  0.4682  2.1939
  475MPD2    N1 7076   3.022   1.378   9.688 -0.5505  0.0360 -0.1440
  475MPD2    H7 7077   3.111   1.343   9.656 -0.6113 -0.2968  0.0529
  476TMC3    C1 7078   2.963   1.506   9.515  0.0419  0.4705  0.1390
  476TMC3    C2 7079   2.862   1.599   9.516  0.1521  0.2110 -0.0590
  476TMC3    C3 7080   2.894   1.731   9.542  0.0275  0.1701 -0.7508
  476TMC3    C4 7081   3.094   1.543   9.544  0.0744 -1.3037 -0.0425
  476TMC3    C5 7082   3.119   1.677   9.574  0.3147  0.0990 -0.1760
  476TMC3    C6 7083   3.021   1.770   9.576 -0.1897 -0.4955  0.0544
  476TMC3     C 7084   2.915   1.400   9.600  0.8450 -0.1823  1.0402
  476TMC3     O 7085   2.795   1.387   9.609 -0.4641 -0.0418 -0.3233
  476TMC3     H 7086   2.766   1.569   9.478  0.6872  0.9226 -1.9667
  476TMC3    H1 7087   3.178   1.474   9.542 -0.1454 -1.5403 -1.1491
  476TMC3    H2 7088   3.035   1.876   9.593 -2.9459  0.0198 -0.8945
  476TMC3    C7 7089   3.222   1.697   9.673 -0.4160  0.5266  0.0878
  476TMC3    C8 7090   2.793   1.810   9.607  0.1032 -0.2825  0.5622
  476TMC3    O1 7091   3.320   1.622   9.674  0.2089  0.1454  0.3230
  476TMC3    O2 7092   2.796   1.930   9.604  0.2919 -0.2305  0.2742
  477MPD2     C 7093   4.488   2.801  11.011 -0.3068  0.0221  0.1992
  477MPD2    C1 7094   4.402   2.769  11.110  0.5053 -0.5243 -0.0648
  477MPD2    C2 7095   4.446   2.707  11.229  0.3235 -0.1890 -0.0605
  477MPD2    C3 7096   4.577   2.685  11.251 -0.2060  0.4342 -0.9957
  477MPD2    C4 7097   4.661   2.698  11.145  0.1179  1.0121 -0.6841
  477MPD2    C5 7098   4.619   2.770  11.033 -0.6900 -1.2142  0.7191
  477MPD2     H 7099   4.376   2.677  11.305 -0.1275 -2.4504 -1.3726
  477MPD2    H1 7100   0.041   2.676  11.153 -0.0715  0.6478  0.8634
  477MPD2    H2 7101   4.455   2.846  10.919  3.1762 -0.2634 -1.1617
  477MPD2    H3 7102   4.695   2.798  10.961 -1.9341 -0.9018 -0.4864
  477MPD2     N 7103   4.624   2.651  11.381 -1.1896  0.1556  0.0907
  477MPD2    H5 7104   4.562   2.661  11.461 -0.2684 -1.7458  1.0434
  477MPD2    N1 7105   4.264   2.815  11.086  0.4295  1.2007 -0.5423
  477MPD2    H7 7106   4.258   2.871  11.002  2.3551  0.5981 -1.0805
  478TMC3    C1 7107   4.044   2.856  11.143  0.0884  0.4859 -0.7192
  478TMC3    C2 7108   3.984   2.901  11.257 -0.3901  0.1408  0.7734
  478TMC3    C3 7109   3.935   3.031  11.257  0.0494  0.1314  0.1124
  478TMC3    C4 7110   4.032   2.925  11.024 -0.0408 -0.4232  0.2440
  478TMC3    C5 7111   3.966   3.047  11.027 -0.6843  0.2636  0.2167
  478TMC3    C6 7112   3.922   3.104  11.146  0.9322 -0.1298  0.1917
  478TMC3     C 7113   4.157   2.774  11.168  0.0784  0.6707  0.4598
  478TMC3     O 7114   4.147   2.705  11.271  0.7309  0.1298  0.4357
  478TMC3     H 7115   3.994   2.846  11.350 -1.3014 -0.7492  0.3323
  478TMC3    H1 7116   4.082   2.893  10.933  0.4287  2.2265 -0.4146
  478TMC3    H2 7117   3.859   3.193  11.148  2.8017  1.1908  0.0784
  478TMC3    C7 7118   3.888   3.067  10.912  0.6573 -0.2656 -0.0403
  478TMC3    C8 7119   3.891   3.074  11.381 -0.2112 -0.0777  0.6429
  478TMC3    O1 7120   3.864   2.965  10.844  0.0876 -0.1238 -0.4915
  478TMC3    O2 7121   3.814   3.006  11.450  0.3011  0.3514 -0.1689
  479MPD2     C 7122   4.072   0.932  15.012  0.5344  0.5863  0.2719
  479MPD2    C1 7123   3.997   0.869  15.107 -0.3784  0.1413 -0.4370
  479MPD2    C2 7124   4.028   0.884  15.241 -0.1861  0.5575  0.5416
  479MPD2    C3 7125   4.124   0.965  15.287  0.1163  0.5385  0.6448
  479MPD2    C4 7126   4.204   1.020  15.189  0.1741 -0.3962  0.0178
  479MPD2    C5 7127   4.175   0.999  15.056 -0.4311 -0.2138 -0.1397
  479MPD2     H 7128   3.975   0.819  15.310 -2.2633 -0.5899 -2.1291
  479MPD2    H1 7129   4.295   1.075  15.206 -0.1631  0.3822 -0.7286
  479MPD2    H2 7130   4.058   0.923  14.905 -0.6337  1.0388  0.3890
  479MPD2    H3 7131   4.249   1.046  14.992 -0.0665  1.9506  1.8465
  479MPD2     N 7132   4.163   0.999  15.420 -0.7261 -0.4294  0.1591
  479MPD2    H5 7133   4.239   1.065  15.428 -1.3642  0.0218  2.6642
  479MPD2    N1 7134   3.887   0.790  15.063  0.4670  0.1500 -0.1948
  479MPD2    H7 7135   3.877   0.779  14.963  0.6657 -0.0307 -0.1945
  480TMC3    C1 7136   3.827   0.781  15.660  0.4262 -0.6045 -0.1492
  480TMC3    C2 7137   3.729   0.867  15.616  0.3412 -0.2303 -0.5544
  480TMC3    C3 7138   3.760   0.971  15.534 -0.0419 -0.4757  0.7179
  480TMC3    C4 7139   3.957   0.801  15.618  0.1358  1.5494  0.2201
  480TMC3    C5 7140   3.978   0.914  15.546  0.8204  0.2798 -0.3257
  480TMC3    C6 7141   3.889   1.006  15.497 -0.1638  0.8627  0.4507
  480TMC3     C 7142   3.799   0.648  15.705 -0.1292  0.0369  0.5348
  480TMC3     O 7143   3.880   0.563  15.668 -0.4075 -0.2586 -0.2580
  480TMC3     H 7144   3.623   0.847  15.629 -0.1568  1.8531 -1.5127
  480TMC3    H1 7145   4.040   0.737  15.645  0.5716  1.5654 -1.0919
  480TMC3    H2 7146   3.918   1.097  15.444  2.1183  0.8881  1.7738
  480TMC3    C7 7147   4.112   0.950  15.538  0.0930 -0.1939 -0.3318
  480TMC3    C8 7148   3.649   1.020  15.454  0.0051  0.0346 -0.0096
  480TMC3    O1 7149   4.166   0.956  15.645 -1.1705 -0.0945  0.2935
  480TMC3    O2 7150   3.531   1.023  15.491 -0.4032 -0.0496 -0.3456
  481MPD2     C 7151   0.774   0.195  13.822  0.6628 -0.1163  0.2987
  481MPD2    C1 7152   0.674   0.118  13.878 -0.7111  0.1994 -1.1102
  481MPD2    C2 7153   0.685   0.083  14.012  0.2622 -0.2131 -0.4293
  481MPD2    C3 7154   0.806   0.105  14.085 -0.4298 -0.0171 -1.1685
  481MPD2    C4 7155   0.920   0.158  14.014  0.1588  0.2909  0.1451
  481MPD2    C5 7156   0.891   0.209  13.894  1.1360 -0.4075  0.7257
  481MPD2     H 7157   0.605   0.024  14.056  0.8484  0.2802  1.3207
  481MPD2    H1 7158   1.015   0.175  14.063  0.5601 -1.1786 -0.1157
  481MPD2    H2 7159   0.771   0.227  13.719 -0.2486 -1.3849 -0.0567
  481MPD2    H3 7160   0.968   0.263  13.841  0.1383 -1.4481 -1.8147
  481MPD2     N 7161   0.820   0.074  14.224 -0.9208  0.1709  0.2869
  481MPD2    H5 7162   0.904   0.102  14.274  0.3636 -1.5307 -0.9191
  481MPD2    N1 7163   0.555   0.097  13.798 -0.5827  0.6318 -0.7048
  481MPD2    H7 7164   0.559   0.131  13.702  0.0466 -2.5465 -1.8002
  482TMC3    C1 7165   0.338   0.042  13.747  0.2231 -0.6910  0.2746
  482TMC3    C2 7166   0.239   4.673  13.741 -0.3914  0.1159 -0.6257
  482TMC3    C3 7167   0.123   4.696  13.666  0.3399 -0.0567 -0.1969
  482TMC3    C4 7168   0.325   0.159  13.689  0.3101 -0.2736  0.4982
  482TMC3    C5 7169   0.217   0.177  13.604 -0.0219  0.8710  0.0704
  482TMC3    C6 7170   0.115   0.083  13.589 -0.1595 -0.8955  0.3451
  482TMC3     C 7171   0.452   0.008  13.829 -0.1898 -0.0178 -0.3090
  482TMC3     O 7172   0.440   4.651  13.921  0.4230  0.0557 -0.0018
  482TMC3     H 7173   0.239   4.576  13.789 -0.8688  0.3149 -0.2161
  482TMC3    H1 7174   0.388   0.245  13.712  1.3321 -1.0585  0.6097
  482TMC3    H2 7175   0.034   0.098  13.519  0.9302  0.5175 -0.6002
  482TMC3    C7 7176   0.183   0.314  13.592 -0.5308 -0.1038 -0.2734
  482TMC3    C8 7177   0.029   4.583  13.649 -0.4005  0.5514  0.3501
  482TMC3    O1 7178   0.196   0.393  13.684 -0.5543  0.3527  0.1567
  482TMC3    O2 7179   0.058   4.478  13.702  0.2015  0.1122 -0.2050
  483TMC3    C1 7180   3.002   3.289   0.014 -0.2387  0.2223 -0.1897
  483TMC3    C2 7181   3.043   3.416   0.014  0.1049  0.2243  0.2806
  483TMC3    C3 7182   3.050   3.483   0.126 -0.6154  0.3686 -0.1291
  483TMC3    C4 7183   2.961   3.220   0.121  0.2147  0.5856  0.2039
  483TMC3    C5 7184   2.954   3.295   0.234  0.3393 -0.1739  0.2663
  483TMC3    C6 7185   2.998   3.425   0.240  0.2307  0.9645  0.3271
  483TMC3     C 7186   3.031   3.205  17.598  0.3830 -0.0361  0.8342
  483TMC3     O 7187   3.035   3.269  17.495 -0.0974  0.1303  0.2945
  483TMC3     H 7188   3.069   3.463  17.622  4.1452  2.5176  2.5548
  483TMC3    H1 7189   2.932   3.116   0.123 -1.6827  1.1891  4.0580
  483TMC3    H2 7190   3.003   3.477   0.335  3.8208  0.6395  0.3346
  483TMC3    C7 7191   2.940   3.216   0.359  0.9105  0.8545 -0.5466
  483TMC3    C8 7192   3.077   3.623   0.104  0.2389  0.1605  0.2977
  483TMC3    O1 7193   2.944   3.092   0.348  0.2380  0.5818 -0.5725
  483TMC3    O2 7194   3.151   3.659   0.010  0.1925  0.1425 -0.3290
  484MPD2     C 7195   1.211   1.923  11.990 -0.3444 -0.3093  0.2383
  484MPD2    C1 7196   1.264   1.798  12.005 -0.0957  0.5343 -0.2333
  484MPD2    C2 7197   1.401   1.775  11.970  0.6064  0.6697 -0.1972
  484MPD2    C3 7198   1.483   1.885  11.946  0.0608  0.3082 -1.2271
  484MPD2    C4 7199   1.422   2.008  11.954 -0.1968 -0.2796 -1.0495
  484MPD2    C5 7200   1.289   2.031  11.969  0.5115  0.2241  0.7470
  484MPD2     H 7201   1.450   1.679  11.979  0.0298  0.5514  1.6389
  484MPD2    H1 7202   1.480   2.099  11.941 -0.8417  0.6600  2.7847
  484MPD2    H2 7203   1.105   1.936  12.010 -0.5003  1.1005 -1.5839
  484MPD2    H3 7204   1.241   2.127  11.979  0.0647 -0.0620  1.2831
  484MPD2     N 7205   1.623   1.885  11.926  0.1746 -0.0296 -0.5037
  484MPD2    H5 7206   1.662   1.972  11.889  0.9413  0.3722  1.2611
  484MPD2    N1 7207   1.183   1.690  12.053 -0.0510  0.8306 -0.6197
  484MPD2    H7 7208   1.085   1.710  12.073 -0.4823 -1.2562 -0.6145
  485TMC3    C1 7209   1.848   1.790  11.909 -0.1607 -0.2349  0.1515
  485TMC3    C2 7210   1.940   1.764  12.006 -0.1338  0.3401 -0.3465
  485TMC3    C3 7211   2.076   1.763  11.975  0.3181  0.2332  0.2719
  485TMC3    C4 7212   1.882   1.827  11.781 -0.2902 -0.1173  0.8544
  485TMC3    C5 7213   2.012   1.837  11.754 -0.0772  0.1273  0.3751
  485TMC3    C6 7214   2.112   1.800  11.845  1.1161  0.6753  0.0342
  485TMC3     C 7215   1.703   1.774  11.943 -0.2571 -0.4461 -0.6384
  485TMC3     O 7216   1.680   1.668  12.000  0.2246  0.6854 -0.5389
  485TMC3     H 7217   1.903   1.733  12.103  0.4238 -0.2828 -0.3384
  485TMC3    H1 7218   1.811   1.842  11.700  0.3357 -0.3532  0.2635
  485TMC3    H2 7219   2.215   1.830  11.828  1.0121  0.4630 -1.0092
  485TMC3    C7 7220   2.050   1.774  11.629 -0.0500  0.3179  0.1126
  485TMC3    C8 7221   2.157   1.646  12.009 -0.2999 -0.5430 -0.6422
  485TMC3    O1 7222   1.990   1.802  11.524  0.2245 -0.5015 -0.0397
  485TMC3    O2 7223   2.236   1.613  11.923  0.1406 -1.0964 -0.3326
  486MPD2     C 7224   3.145   0.845  12.793 -0.0474  0.1060  0.1808
  486MPD2    C1 7225   3.140   0.810  12.659  0.0591  0.0796  0.3076
  486MPD2    C2 7226   3.145   0.902  12.551  0.0547 -1.0605  0.1165
  486MPD2    C3 7227   3.130   1.036  12.576 -0.2187  0.1828  0.2360
  486MPD2    C4 7228   3.125   1.072  12.710 -0.1007  0.2857  0.7879
  486MPD2    C5 7229   3.139   0.976  12.812 -0.1276  0.0761 -0.0709
  486MPD2     H 7230   3.149   0.858  12.452  0.1702  0.6173 -0.6271
  486MPD2    H1 7231   3.113   1.176  12.737 -4.2938  0.0384 -0.0607
  486MPD2    H2 7232   3.176   0.779  12.873 -1.0638  1.8731  2.0369
  486MPD2    H3 7233   3.142   1.007  12.916 -1.1428  2.6456 -0.8071
  486MPD2     N 7234   3.100   1.129  12.471  0.1427  1.3217  0.2883
  486MPD2    H5 7235   3.113   1.099  12.375  1.0988  3.1797 -0.1610
  486MPD2    N1 7236   3.155   0.669  12.641  0.5957 -0.7110 -0.2832
  486MPD2    H7 7237   3.146   0.611  12.724  0.6221  0.2065  0.3556
  487TMC3    C1 7238   3.169   0.457  12.547  0.5008 -0.0020 -0.0069
  487TMC3    C2 7239   3.130   0.374  12.459  0.5459  0.0859  0.0669
  487TMC3    C3 7240   3.130   0.241  12.482 -0.7638  0.2708  0.0354
  487TMC3    C4 7241   3.235   0.416  12.661  0.2560 -0.2593 -0.0340
  487TMC3    C5 7242   3.253   0.285  12.677  0.1415 -0.3667 -0.0246
  487TMC3    C6 7243   3.207   0.196  12.583  0.3320 -0.5627  0.2974
  487TMC3     C 7244   3.150   0.595  12.522  0.0576  0.5827  0.4298
  487TMC3     O 7245   3.128   0.635  12.409 -1.1382 -0.0446 -0.2437
  487TMC3     H 7246   3.076   0.415  12.375  2.3330 -0.0577 -1.1488
  487TMC3    H1 7247   3.274   0.486  12.734 -2.2519  0.7316  0.3733
  487TMC3    H2 7248   3.203   0.090  12.603 -2.0086 -1.1284 -3.1008
  487TMC3    C7 7249   3.234   0.249  12.822  0.0083 -0.1528 -0.5222
  487TMC3    C8 7250   3.004   0.168  12.480  0.3199  0.0557 -0.0904
  487TMC3    O1 7251   3.233   0.346  12.895  0.0556  0.4899  0.4675
  487TMC3    O2 7252   2.997   0.054  12.433 -0.0758  0.1546  0.1191
  488MPD2     C 7253   3.732   2.460  16.027  0.8924 -0.1040 -0.5440
  488MPD2    C1 7254   3.716   2.566  16.110  0.6860  0.5273 -0.0174
  488MPD2    C2 7255   3.677   2.547  16.236 -0.4128 -0.5340  0.0755
  488MPD2    C3 7256   3.642   2.419  16.278  0.2384 -0.1729 -0.9015
  488MPD2    C4 7257   3.652   2.310  16.193  0.5172 -0.3948  1.1134
  488MPD2    C5 7258   3.710   2.334  16.073 -0.4838 -0.9031  0.0768
  488MPD2     H 7259   3.666   2.628  16.307  0.9544 -1.7430  1.6466
  488MPD2    H1 7260   3.619   2.210  16.219  0.1440 -0.4721  0.3223
  488MPD2    H2 7261   3.759   2.462  15.922 -0.5928  0.0712 -0.9248
  488MPD2    H3 7262   3.721   2.244  16.014  2.1583  0.6984 -1.9051
  488MPD2     N 7263   3.595   2.400  16.404  0.5454 -0.4642  0.1787
  488MPD2    H5 7264   3.594   2.486  16.459 -1.4228 -0.4799  0.1676
  488MPD2    N1 7265   3.753   2.700  16.078  0.2576  0.0115 -0.3122
  488MPD2    H7 7266   3.755   2.766  16.155 -1.8899  0.0011 -0.2360
  489TMC3    C1 7267   3.509   2.293  16.600  0.1129 -0.2032 -0.3625
  489TMC3    C2 7268   3.577   2.378  16.684 -0.3332  0.1469 -0.4290
  489TMC3    C3 7269   3.512   2.425  16.800  0.3205 -0.5517  0.1980
  489TMC3    C4 7270   3.371   2.263  16.620  0.3238 -0.4114 -0.2221
  489TMC3    C5 7271   3.312   2.310  16.736 -0.4521 -0.3967 -0.5284
  489TMC3    C6 7272   3.380   2.394  16.823 -0.3484 -0.1008 -0.1849
  489TMC3     C 7273   3.563   2.276  16.466  0.7716  0.6982  1.0238
  489TMC3     O 7274   3.567   2.158  16.424 -0.0076 -0.1083  0.4864
  489TMC3     H 7275   3.674   2.415  16.653 -0.5633  1.4976  0.4374
  489TMC3    H1 7276   3.331   2.192  16.548 -0.7314  0.0035 -0.0491
  489TMC3    H2 7277   3.333   2.434  16.913  0.0558 -0.3714  0.1488
  489TMC3    C7 7278   3.168   2.331  16.745  0.2884  0.8129 -0.6005
  489TMC3    C8 7279   3.566   2.552  16.849 -0.4109 -0.9232 -0.3236
  489TMC3    O1 7280   3.128   2.404  16.832  0.1192 -0.3059 -0.3238
  489TMC3    O2 7281   3.670   2.595  16.800 -0.3562  0.3011  0.9669
  490MPD2     C 7282   4.428   1.191   0.172  0.2984  1.1553  0.1701
  490MPD2    C1 7283   4.334   1.286   0.176  0.3990 -0.2885  0.3049
  490MPD2    C2 7284   4.365   1.420   0.192  0.4758  0.3238  0.0947
  490MPD2    C3 7285   4.491   1.458   0.212 -0.4136  0.4583  0.5204
  490MPD2    C4 7286   4.595   1.366   0.199 -0.2928 -0.0549  0.0706
  490MPD2    C5 7287   4.560   1.235   0.168  0.2090  0.1854 -0.6852
  490MPD2     H 7288   4.276   1.480   0.206  0.8338  0.5395  1.4536
  490MPD2    H1 7289   4.699   1.396   0.203  0.1438 -1.2305 -2.1250
  490MPD2    H2 7290   4.412   1.085   0.155  0.8399  0.6320  2.9625
  490MPD2    H3 7291   4.641   1.164   0.156  1.4367  1.5043 -0.2229
  490MPD2     N 7292   4.533   1.591   0.231  0.1821  0.4006 -0.7916
  490MPD2    H5 7293   4.634   1.601   0.229  0.2271  0.2580  0.8435
  490MPD2    N1 7294   4.198   1.251   0.158 -0.2169  0.0081  0.1495
  490MPD2    H7 7295   4.123   1.315   0.179  0.1337  1.0575 -1.8144
  491TMC3    C1 7296   4.015   1.107   0.113 -0.0949 -0.2429  0.4019
  491TMC3    C2 7297   3.947   1.181   0.205  0.6851  0.1081 -0.0868
  491TMC3    C3 7298   3.811   1.181   0.188  0.0031 -0.3349 -0.5051
  491TMC3    C4 7299   3.966   1.044  17.702 -0.1338 -0.2021 -0.7860
  491TMC3    C5 7300   3.832   1.060  17.697 -0.1739 -0.3086  0.1631
  491TMC3    C6 7301   3.750   1.126   0.079  0.1927 -0.6318 -0.3764
  491TMC3     C 7302   4.156   1.133   0.092  0.1493  0.4984  0.3606
  491TMC3     O 7303   4.219   1.048   0.033  0.1123  0.1442 -0.1836
  491TMC3     H 7304   3.995   1.221   0.293 -0.2466 -2.1732  1.4675
  491TMC3    H1 7305   4.025   1.025  17.612 -1.5751 -1.3193 -1.4866
  491TMC3    H2 7306   3.642   1.122   0.071  0.2354  1.5665 -2.1581
  491TMC3    C7 7307   3.756   1.001  17.585  0.2127 -0.3813  0.6907
  491TMC3    C8 7308   3.716   1.244   0.287  0.3588  0.6404  0.0821
  491TMC3    O1 7309   3.660   0.933  17.605 -0.2127  0.2081  0.2478
  491TMC3    O2 7310   3.620   1.302   0.233 -0.0303 -0.3218 -0.1756
  492MPD2     C 7311   0.091   1.489  10.902  0.6284  0.8302 -0.5145
  492MPD2    C1 7312   4.700   1.550  10.848  0.0350  0.0655  0.3190
  492MPD2    C2 7313   4.599   1.571  10.938  0.5461 -0.5202 -0.1971
  492MPD2    C3 7314   4.605   1.545  11.074 -0.2519 -0.2890 -0.2100
  492MPD2    C4 7315   4.712   1.472  11.117  0.2888 -0.7058  0.4189
  492MPD2    C5 7316   0.090   1.445  11.031 -0.2540  0.2695  0.5700
  492MPD2     H 7317   4.511   1.629  10.913  0.2553 -0.8530  0.0534
  492MPD2    H1 7318   4.717   1.443  11.221  2.0248  1.7123  1.0164
  492MPD2    H2 7319   0.179   1.478  10.840  0.3635 -1.1845 -0.5386
  492MPD2    H3 7320   0.187   1.407  11.060 -0.4273 -1.8549 -1.6992
  492MPD2     N 7321   4.501   1.575  11.170  0.1577 -0.5658  0.7723
  492MPD2    H5 7322   4.506   1.534  11.263  0.7299 -3.6347 -0.5875
  492MPD2    N1 7323   4.699   1.607  10.720  0.1565 -0.1351  1.0519
  492MPD2    H7 7324   0.064   1.613  10.673 -0.0526 -0.8874  0.5386
  493TMC3    C1 7325   4.643   1.710  10.527  0.1862 -0.1853  0.6688
  493TMC3    C2 7326   0.016   1.801  10.540 -0.2343 -0.3671  0.0134
  493TMC3    C3 7327   0.031   1.875  10.431  0.1083  0.0162 -0.5883
  493TMC3    C4 7328   4.557   1.692  10.420 -0.4561  0.7369  0.1014
  493TMC3    C5 7329   4.600   1.750  10.303 -0.4865 -0.5549  0.1966
  493TMC3    C6 7330   4.698   1.849  10.308 -0.2037  0.1018  0.9445
  493TMC3     C 7331   4.593   1.651  10.650  0.5393 -0.0029  0.0603
  493TMC3     O 7332   4.474   1.633  10.667  0.1072 -0.2687  0.4356
  493TMC3     H 7333   0.059   1.830  10.635  3.1910  0.1335 -1.6868
  493TMC3    H1 7334   4.473   1.623  10.428 -0.4942  0.3943 -3.3227
  493TMC3    H2 7335   4.725   1.905  10.220 -0.5725  1.6789  1.8361
  493TMC3    C7 7336   4.523   1.733  10.179  0.2421 -0.1433 -0.4758
  493TMC3    C8 7337   0.136   1.983  10.452  0.4437 -0.5263 -0.3952
  493TMC3    O1 7338   4.437   1.649  10.185  0.7190  0.2610  0.2222
  493TMC3    O2 7339   0.213   1.958  10.541 -0.2677 -0.3925 -0.2947
  494TMC3    C1 7340   0.168   3.532   0.253 -0.0127  0.1119  0.1495
  494TMC3    C2 7341   0.100   3.431   0.310 -0.0427  0.1507  0.4485
  494TMC3    C3 7342   0.048   3.331   0.235  0.1211 -0.2696 -0.7797
  494TMC3    C4 7343   0.184   3.535   0.113 -0.3221 -0.3127  0.3165
  494TMC3    C5 7344   0.120   3.440   0.038  0.5427 -0.6889  0.1663
  494TMC3    C6 7345   0.046   3.345   0.101 -0.0522 -0.5049  0.6255
  494TMC3     C 7346   0.175   3.649   0.333  0.4622  0.6439 -0.3908
  494TMC3     O 7347   0.128   3.650   0.448  0.3720 -0.4619  0.1425
  494TMC3     H 7348   0.109   3.415   0.417 -0.5518 -1.2005  0.2813
  494TMC3    H1 7349   0.253   3.599   0.059 -1.9580  1.8102  0.7168
  494TMC3    H2 7350   4.712   3.286   0.033  0.9018  1.1334 -1.6343
  494TMC3    C7 7351   0.144   3.437  17.598 -0.3331 -0.3164 -0.1971
  494TMC3    C8 7352   4.688   3.237   0.301 -0.2929 -0.5651 -0.3370
  494TMC3    O1 7353   0.171   3.546  17.549  0.3485  0.7803  0.3907
  494TMC3    O2 7354   4.640   3.270   0.407 -0.3167  0.1912  0.1871
  495TMC3    C1 7355   3.900   0.820  14.582  0.2346 -0.4593  0.4568
  495TMC3    C2 7356   3.820   0.806  14.472  0.0392 -0.0805  0.3880
  495TMC3    C3 7357   3.695   0.866  14.481  0.0754  0.8546  0.2609
  495TMC3    C4 7358   3.892   0.926  14.668  0.0149 -0.3426 -1.2405
  495TMC3    C5 7359   3.771   0.987  14.677  0.0445  0.4801 -0.4228
  495TMC3    C6 7360   3.670   0.950  14.587 -0.0729  0.4548  0.2657
  495TMC3     C 7361   3.908   0.699  14.669  0.1253  0.1274  0.0106
  495TMC3     O 7362   3.910   0.724  14.790  0.1615  0.2237  0.4393
  495TMC3     H 7363   3.843   0.739  14.390  2.8191 -0.4104  1.4242
  495TMC3    H1 7364   3.980   0.948  14.727  0.1497 -1.2916 -1.0824
  495TMC3    H2 7365   3.572   0.994  14.603 -0.2007  0.3735 -0.3219
  495TMC3    C7 7366   3.758   1.056  14.802 -0.4658 -0.2917 -0.3313
  495TMC3    C8 7367   3.587   0.812  14.402  0.3209  0.0644  0.5897
  495TMC3    O1 7368   3.861   1.074  14.867 -0.0998 -0.2917  0.3395
  495TMC3    O2 7369   3.491   0.765  14.453  0.1006  0.6660 -0.4793
  496MPD2     C 7370   1.408   1.156  15.752 -0.1202 -0.0577 -0.1818
  496MPD2    C1 7371   1.319   1.138  15.653  0.4304 -0.4818  0.2552
  496MPD2    C2 7372   1.183   1.136  15.684 -0.0806 -0.0606  0.2604
  496MPD2    C3 7373   1.145   1.160  15.818 -0.0913  0.1010  0.2180
  496MPD2    C4 7374   1.247   1.186  15.914  0.4147  0.7843 -0.1735
  496MPD2    C5 7375   1.382   1.185  15.879  0.3293  0.1899 -0.3332
  496MPD2     H 7376   1.110   1.114  15.608  1.1188  0.2422 -0.9708
  496MPD2    H1 7377   1.223   1.203  16.019 -1.2368  3.5187 -0.9950
  496MPD2    H2 7378   1.514   1.154  15.728 -0.1259  0.2756 -0.2403
  496MPD2    H3 7379   1.460   1.202  15.952  0.4222 -0.1369 -0.3570
  496MPD2     N 7380   1.015   1.137  15.869 -0.0387 -0.0219 -0.6204
  496MPD2    H5 7381   0.995   1.159  15.966  0.6967 -0.2466 -0.4201
  496MPD2    N1 7382   1.361   1.103  15.522  0.0206 -0.4263  1.1239
  496MPD2    H7 7383   1.453   1.061  15.518  0.3998  0.5560 -0.4433
  497TMC3    C1 7384   0.789   1.083  15.888  0.7213  0.2691 -1.2610
  497TMC3    C2 7385   0.668   1.063  15.827 -0.4219 -0.5050  0.2589
  497TMC3    C3 7386   0.561   1.039  15.907 -0.8430 -0.4085 -0.4364
  497TMC3    C4 7387   0.797   1.075  16.026  0.4967 -0.2451  0.4995
  497TMC3    C5 7388   0.680   1.055  16.098  0.1539  0.0749  0.1803
  497TMC3    C6 7389   0.558   1.050  16.041  0.3221  0.1979  0.1583
  497TMC3     C 7390   0.905   1.092  15.802 -0.2702 -0.0223  0.3667
  497TMC3     O 7391   0.894   1.072  15.682 -0.3826  0.4892  0.3402
  497TMC3     H 7392   0.652   1.075  15.721 -2.2673 -3.6748  0.1836
  497TMC3    H1 7393   0.887   1.093  16.083  2.7248 -2.0636 -2.4762
  497TMC3    H2 7394   0.471   1.014  16.095  0.8872 -0.5912  0.5427
  497TMC3    C7 7395   0.681   1.058  16.245 -0.2560  0.2030  1.0609
  497TMC3    C8 7396   0.434   1.003  15.843 -0.5838  0.0356  0.4114
  497TMC3    O1 7397   0.578   1.104  16.292  0.4503 -0.2040 -0.1832
  497TMC3    O2 7398   0.334   1.024  15.908  0.4620 -0.1648  0.1634
  498MPD2     C 7399   1.842   2.039   9.688 -0.1990  0.0808  0.8489
  498MPD2    C1 7400   1.913   1.921   9.691  0.2832 -0.1272 -0.2641
  498MPD2    C2 7401   1.839   1.803   9.704  0.3838 -0.1903  0.6413
  498MPD2    C3 7402   1.704   1.808   9.711 -0.1804 -0.0233 -0.0956
  498MPD2    C4 7403   1.631   1.924   9.719 -0.3527 -0.5663  0.2996
  498MPD2    C5 7404   1.710   2.042   9.702  0.2515 -0.4361  0.3906
  498MPD2     H 7405   1.900   1.713   9.702 -1.2391 -1.3413  2.6381
  498MPD2    H1 7406   1.523   1.931   9.725 -0.3464  0.0227 -0.2114
  498MPD2    H2 7407   1.887   2.136   9.667 -0.0555  0.4639  2.9215
  498MPD2    H3 7408   1.648   2.131   9.705  1.4575  0.4741 -1.6072
  498MPD2     N 7409   1.641   1.682   9.725 -0.2020 -0.0712 -0.4077
  498MPD2    H5 7410   1.700   1.600   9.735 -0.7247 -0.5407 -1.2568
  498MPD2    N1 7411   2.047   1.901   9.664 -0.3244  0.0240 -0.2511
  498MPD2    H7 7412   2.084   1.807   9.669 -2.9555 -1.0161 -0.8635
  499TMC3    C1 7413   2.266   1.960   9.600  0.0068 -0.0729 -0.5620
  499TMC3    C2 7414   2.298   1.831   9.579  0.1867  0.5052 -0.7926
  499TMC3    C3 7415   2.407   1.810   9.499  0.5632 -0.0437 -0.4229
  499TMC3    C4 7416   2.345   2.061   9.548  0.0306  0.0852  0.2105
  499TMC3    C5 7417   2.459   2.034   9.481  0.0242  1.0731 -0.2945
  499TMC3    C6 7418   2.497   1.908   9.461 -0.1493 -0.2328  0.3875
  499TMC3     C 7419   2.132   2.006   9.641  0.0078  0.5965  0.2209
  499TMC3     O 7420   2.113   2.125   9.649 -0.8306  0.3512  0.3432
  499TMC3     H 7421   2.236   1.746   9.607  1.8626 -0.4843 -0.0037
  499TMC3    H1 7422   2.321   2.161   9.580 -2.9480 -0.3913 -0.4935
  499TMC3    H2 7423   2.582   1.888   9.397 -0.8723  1.7127 -1.1767
  499TMC3    C7 7424   2.530   2.142   9.433 -0.0088 -0.0932  0.3070
  499TMC3    C8 7425   2.443   1.678   9.457  0.5366  0.0153  0.3847
  499TMC3    O1 7426   2.465   2.245   9.421  0.0132  0.7275 -0.1176
  499TMC3    O2 7427   2.556   1.665   9.413  0.3526  0.0958 -0.5546
  500MPD2     C 7428   3.508   2.859  10.484  1.1688  0.9270  0.5467
  500MPD2    C1 7429   3.538   2.976  10.415 -0.4909 -0.7019  0.0758
  500MPD2    C2 7430   3.438   3.048  10.363 -0.4233 -0.2265  0.6750
  500MPD2    C3 7431   3.308   2.997  10.371 -0.4708 -0.1722  0.2146
  500MPD2    C4 7432   3.278   2.884  10.440 -0.5068  0.0866 -0.1807
  500MPD2    C5 7433   3.377   2.813  10.496  0.2989  0.1826 -0.3475
  500MPD2     H 7434   3.464   3.140  10.310  0.5597 -1.1771 -0.4915
  500MPD2    H1 7435   3.179   2.844  10.461 -0.1773 -0.6761 -0.0733
  500MPD2    H2 7436   3.580   2.800  10.538  0.5639 -0.3682 -0.0682
  500MPD2    H3 7437   3.355   2.725  10.556 -0.2964  0.7027  0.1912
  500MPD2     N 7438   3.201   3.065  10.305 -0.3383 -0.5047  0.0395
  500MPD2    H5 7439   3.117   3.008  10.302 -1.0716  0.5287  0.7584
  500MPD2    N1 7440   3.665   3.030  10.422  0.6409 -0.0874 -0.0669
  500MPD2    H7 7441   3.677   3.122  10.381 -0.4034 -0.1521 -0.5040
  501TMC3    C1 7442   3.886   3.065  10.467 -0.3983  0.2182  0.3076
  501TMC3    C2 7443   3.861   3.202  10.456  0.4241 -0.4765  0.1936
  501TMC3    C3 7444   3.974   3.281  10.468 -0.5729  0.9007 -0.4280
  501TMC3    C4 7445   4.013   3.010  10.485 -0.2749  0.7058  0.0294
  501TMC3    C5 7446   4.113   3.102  10.495 -0.3421  0.7167 -0.0902
  501TMC3    C6 7447   4.097   3.237  10.498 -0.5241 -0.4020 -0.3113
  501TMC3     C 7448   3.779   2.974  10.473  0.5765  0.3377  0.1916
  501TMC3     O 7449   3.796   2.864  10.522  0.2346  0.7104 -0.6915
  501TMC3     H 7450   3.763   3.242  10.434  0.9653  0.7278 -0.0148
  501TMC3    H1 7451   4.029   2.903  10.482 -1.2473  0.5459  0.7456
  501TMC3    H2 7452   4.171   3.313  10.520 -2.5893  1.5978 -0.3575
  501TMC3    C7 7453   4.239   3.051  10.531 -0.1635 -0.6692 -0.5162
  501TMC3    C8 7454   3.964   3.419  10.448 -0.4843 -0.5060 -0.2945
  501TMC3    O1 7455   4.260   2.931  10.515  0.1230  0.1862  0.3742
  501TMC3    O2 7456   4.020   3.493  10.530  0.1625  0.0512  0.1356
  502TMC3    C1 7457   3.393   1.814  15.551 -0.4846  0.4798 -0.1843
  502TMC3    C2 7458   3.387   1.946  15.523 -0.3068  0.0721 -0.2053
  502TMC3    C3 7459   3.277   1.982  15.447 -0.5841  0.2655 -0.0495
  502TMC3    C4 7460   3.302   1.724  15.495 -0.5556  0.2153 -0.3492
  502TMC3    C5 7461   3.201   1.764  15.419  0.3513 -0.8210  0.4651
  502TMC3    C6 7462   3.180   1.893  15.398 -0.5184  0.0239  1.0634
  502TMC3     C 7463   3.442   1.792  15.684 -0.4363  0.1699  0.2683
  502TMC3     O 7464   3.540   1.859  15.725 -0.1700  0.4430 -0.3702
  502TMC3     H 7465   3.457   2.025  15.551 -1.1413  0.3263  1.1713
  502TMC3    H1 7466   3.313   1.619  15.518  0.2488 -0.0132 -1.7500
  502TMC3    H2 7467   3.111   1.932  15.323  0.0659  1.4608  1.2803
  502TMC3    C7 7468   3.119   1.652  15.366  0.2102  0.4072 -0.2077
  502TMC3    C8 7469   3.273   2.112  15.389 -0.2769 -0.6296  0.2444
  502TMC3    O1 7470   3.170   1.543  15.350  0.1625  0.1720 -0.2848
  502TMC3    O2 7471   3.353   2.135  15.298  0.0110  0.5912  0.1289
  503MPD2     C 7472   0.456   2.462  16.766  0.9468  0.1866  0.2101
  503MPD2    C1 7473   0.516   2.504  16.883 -0.6779  0.3348 -0.4579
  503MPD2    C2 7474   0.570   2.410  16.970 -0.0012  0.7739 -0.0392
  503MPD2    C3 7475   0.570   2.276  16.936 -0.5252 -0.7118  0.0849
  503MPD2    C4 7476   0.503   2.238  16.821 -0.3577  0.0279 -0.1199
  503MPD2    C5 7477   0.451   2.328  16.734  0.2745 -0.8100  0.1451
  503MPD2     H 7478   0.613   2.447  17.062  0.4272  1.6699 -0.6024
  503MPD2    H1 7479   0.494   2.137  16.782  1.5421 -0.1676 -0.0542
  503MPD2    H2 7480   0.415   2.534  16.696 -0.0440 -1.5510 -0.9858
  503MPD2    H3 7481   0.403   2.293  16.643 -0.2072  0.8501 -0.2356
  503MPD2     N 7482   0.635   2.173  17.019 -0.3530  0.6617 -0.1189
  503MPD2    H5 7483   0.648   2.187  17.119 -1.4636  1.4658 -0.0801
  503MPD2    N1 7484   0.540   2.641  16.904  0.5000  0.3437 -1.1372
  503MPD2    H7 7485   0.552   2.661  17.002 -0.0503  2.6488 -1.5384
  504TMC3    C1 7486   0.732   1.964  17.066 -0.3813  0.0634 -0.9240
  504TMC3    C2 7487   0.710   1.982  17.204 -0.5402  0.4185  0.5339
  504TMC3    C3 7488   0.797   1.910  17.293 -0.3752  0.1151 -0.9601
  504TMC3    C4 7489   0.839   1.889  17.030  0.0165 -0.0878  0.3416
  504TMC3    C5 7490   0.928   1.835  17.119 -0.1002 -0.0202  0.2040
  504TMC3    C6 7491   0.911   1.835  17.253  0.1566 -0.0577  0.0935
  504TMC3     C 7492   0.678   2.059  16.967 -0.7946 -0.4356 -0.8494
  504TMC3     O 7493   0.712   2.040  16.849  0.0782  0.8081  0.2993
  504TMC3     H 7494   0.627   2.044  17.237  0.8423  0.5666  3.7161
  504TMC3    H1 7495   0.859   1.877  16.924 -2.0820 -0.8405  0.0333
  504TMC3    H2 7496   0.985   1.808  17.327 -1.0410  1.5949  1.9056
  504TMC3    C7 7497   1.043   1.764  17.055  0.1578 -0.5804 -1.1414
  504TMC3    C8 7498   0.766   1.940  17.436  0.7342  0.1658  1.0815
  504TMC3    O1 7499   1.086   1.815  16.951  0.2093 -0.1528  0.0344
  504TMC3    O2 7500   0.700   2.042  17.454  0.2012  1.0959 -0.1093
  505MPD2     C 7501   0.918   0.705  10.761  0.2891  0.1522 -0.6464
  505MPD2    C1 7502   0.991   0.682  10.642 -0.0108 -0.3655  0.2750
  505MPD2    C2 7503   1.128   0.699  10.643 -0.6710 -0.0160  0.0267
  505MPD2    C3 7504   1.195   0.755  10.751  0.3091 -1.2854  0.2309
  505MPD2    C4 7505   1.124   0.788  10.861 -0.1778 -0.0258  0.3872
  505MPD2    C5 7506   0.986   0.765  10.868  0.0475  0.2591 -0.8041
  505MPD2     H 7507   1.189   0.665  10.560 -0.1332 -0.0713  0.4469
  505MPD2    H1 7508   1.170   0.841  10.944 -0.6940 -1.0635  1.3392
  505MPD2    H2 7509   0.811   0.693  10.767  0.5206 -1.2294  0.7067
  505MPD2    H3 7510   0.925   0.791  10.953  1.9661  1.6057  0.1678
  505MPD2     N 7511   1.337   0.765  10.742 -1.2152  0.5428  0.5592
  505MPD2    H5 7512   1.373   0.733  10.653 -1.1177 -0.0466  0.8151
  505MPD2    N1 7513   0.922   0.643  10.527 -0.0152 -0.6199  0.1421
  505MPD2    H7 7514   0.821   0.638  10.536 -0.2435  1.5315 -1.1424
  506TMC3    C1 7515   0.879   0.572  10.301 -0.4139 -0.1406 -0.7106
  506TMC3    C2 7516   0.892   0.639  10.182 -0.1269 -0.0054 -0.0506
  506TMC3    C3 7517   0.923   0.563  10.068 -0.1598 -0.8694  0.1446
  506TMC3    C4 7518   0.896   0.435  10.301  0.3713  0.3363  0.4801
  506TMC3    C5 7519   0.930   0.367  10.191  0.3057 -0.4801 -0.1548
  506TMC3    C6 7520   0.928   0.422  10.065  0.9061 -0.6715 -0.0372
  506TMC3     C 7521   0.972   0.631  10.401 -0.4798  0.3900 -0.4798
  506TMC3     O 7522   1.091   0.631  10.361  0.1959 -0.0435 -0.1827
  506TMC3     H 7523   0.890   0.748  10.184 -0.0170 -0.0311  1.5009
  506TMC3    H1 7524   0.911   0.384  10.395 -0.3236  0.8532  0.8654
  506TMC3    H2 7525   0.968   0.380   9.974 -0.7343 -1.1552 -0.5362
  506TMC3    C7 7526   1.051   0.282  10.211  0.1432  0.8582 -0.1391
  506TMC3    C8 7527   0.936   0.625   9.939  0.4511 -0.3791  0.6554
  506TMC3    O1 7528   1.063   0.163  10.183 -0.2948 -0.3445 -0.1638
  506TMC3    O2 7529   0.900   0.562   9.840 -0.4838 -0.6808  0.1665
  507TMC3    C1 7530   1.793   1.826  14.704  0.3220  0.2614 -0.2282
  507TMC3    C2 7531   1.775   1.709  14.637 -0.7645  0.3719 -0.5204
  507TMC3    C3 7532   1.820   1.702  14.510 -0.0454  0.6150  0.1745
  507TMC3    C4 7533   1.848   1.938  14.644  0.1365  0.0001  0.2916
  507TMC3    C5 7534   1.912   1.915  14.527 -0.1320  0.6369  0.1441
  507TMC3    C6 7535   1.907   1.794  14.456 -0.4008  0.4215 -0.5417
  507TMC3     C 7536   1.696   1.834  14.817 -0.1465  0.8641  0.2375
  507TMC3     O 7537   1.668   1.738  14.884 -0.2254  0.0945 -0.4455
  507TMC3     H 7538   1.725   1.620  14.674  0.0744 -0.6232 -1.7680
  507TMC3    H1 7539   1.854   2.032  14.698 -1.3147 -0.7425  1.7429
  507TMC3    H2 7540   1.961   1.778  14.363 -0.6298  0.4919 -0.6857
  507TMC3    C7 7541   1.916   2.034  14.446  0.1703 -0.6566 -0.3006
  507TMC3    C8 7542   1.713   1.684  14.408  0.5808  0.8769  0.3070
  507TMC3    O1 7543   1.927   2.139  14.510 -0.2911 -0.1023  0.4700
  507TMC3    O2 7544   1.724   1.750  14.306 -0.0577  0.4503  0.2909
  508MPD2     C 7545   2.186   4.137  15.970  1.0664  0.2934 -0.6252
  508MPD2    C1 7546   2.310   4.175  15.925  0.1583  0.2091 -0.4151
  508MPD2    C2 7547   2.335   4.209  15.790 -0.0240  0.2299 -0.6050
  508MPD2    C3 7548   2.226   4.237  15.710  0.0350  0.4011 -0.1675
  508MPD2    C4 7549   2.099   4.214  15.757 -0.0077  0.1785 -0.2161
  508MPD2    C5 7550   2.077   4.166  15.887  0.3402  0.1111 -0.4427
  508MPD2     H 7551   2.436   4.235  15.759  0.8842 -1.3826  0.9130
  508MPD2    H1 7552   2.005   4.230  15.707  0.1862  2.2770  0.0852
  508MPD2    H2 7553   2.163   4.090  16.065  1.6216 -1.4643 -1.3673
  508MPD2    H3 7554   1.972   4.144  15.902  0.5094  0.5425  1.3529
  508MPD2     N 7555   2.249   4.284  15.579 -0.4190  0.0005  0.2173
  508MPD2    H5 7556   2.342   4.318  15.556 -0.9283  0.4425 -1.1658
  508MPD2    N1 7557   2.419   4.147  16.011  0.9820 -0.3500  0.0804
  508MPD2    H7 7558   2.390   4.126  16.106  1.9942 -4.0115 -0.4183
  509TMC3    C1 7559   2.212   4.625  15.325 -0.3800  0.0936  0.1537
  509TMC3    C2 7560   2.345   4.624  15.301 -0.3849  0.1519  0.7557
  509TMC3    C3 7561   2.401   4.499  15.314 -0.1168 -0.4161 -0.5317
  509TMC3    C4 7562   2.139   4.521  15.377 -0.0496 -0.0334  0.1657
  509TMC3    C5 7563   2.204   4.405  15.396  0.8335  0.0217 -0.7697
  509TMC3    C6 7564   2.333   4.388  15.366 -0.6899  0.5768  0.1069
  509TMC3     C 7565   2.131   0.005  15.265  0.9901 -0.7407  0.5540
  509TMC3     O 7566   2.028   0.028  15.327 -0.3502 -0.3369 -0.1681
  509TMC3     H 7567   2.395   4.711  15.260 -0.0551 -0.4902 -0.1982
  509TMC3    H1 7568   2.032   4.532  15.384  0.0465  1.3599 -0.5212
  509TMC3    H2 7569   2.389   4.299  15.392 -1.3724 -0.3238 -1.4852
  509TMC3    C7 7570   2.147   4.326  15.499 -0.8523  0.1422 -0.1204
  509TMC3    C8 7571   2.530   4.474  15.259 -0.1394  0.5397  0.5041
  509TMC3    O1 7572   2.027   4.316  15.505 -0.1199  0.1060 -0.0473
  509TMC3    O2 7573   2.565   4.361  15.242  0.0239 -0.6545 -0.2299
  510MPD2     C 7574   0.021   1.167  14.214 -0.0071 -0.4261 -0.3406
  510MPD2    C1 7575   0.095   1.102  14.303 -0.4385  1.0941  0.2158
  510MPD2    C2 7576   0.229   1.079  14.275  0.6537  0.1101 -0.0789
  510MPD2    C3 7577   0.290   1.118  14.164  0.3332 -0.4726  0.2467
  510MPD2    C4 7578   0.209   1.180  14.071  0.6229 -0.1874 -0.3427
  510MPD2    C5 7579   0.082   1.213  14.099  0.5474  0.0603  0.1612
  510MPD2     H 7580   0.292   1.039  14.353  1.0792  1.0680  0.0653
  510MPD2    H1 7581   0.252   1.208  13.976 -0.4483  1.5219 -0.3235
  510MPD2    H2 7582   4.644   1.196  14.237  0.8717  2.2514  0.1687
  510MPD2    H3 7583   0.027   1.275  14.029  1.7558  0.2806 -0.5892
  510MPD2     N 7584   0.428   1.108  14.158 -0.0730  0.1676 -0.7547
  510MPD2    H5 7585   0.472   1.071  14.241  0.1651 -1.5767 -1.6576
  510MPD2    N1 7586   0.036   1.079  14.426 -0.6102  0.1689  0.0918
  510MPD2    H7 7587   4.668   1.112  14.446  0.3357  2.0166  1.5257
  511TMC3    C1 7588   0.021   0.997  14.644 -0.5849 -0.9560 -0.1362
  511TMC3    C2 7589   4.669   1.114  14.678 -0.0089  0.4609 -0.1635
  511TMC3    C3 7590   4.598   1.112  14.794 -0.2731 -0.1251  0.3133
  511TMC3    C4 7591   0.015   0.885  14.725 -0.5077 -0.2390 -0.6130
  511TMC3    C5 7592   4.659   0.887  14.833  0.6996  0.2267 -0.2209
  511TMC3    C6 7593   4.583   0.999  14.861 -0.6959 -0.5503  0.4783
  511TMC3     C 7594   0.094   1.001  14.522 -0.1335 -0.3883 -0.0308
  511TMC3     O 7595   0.185   0.920  14.508 -0.5931  0.7878  0.3118
  511TMC3     H 7596   4.694   1.212  14.638  1.4033  0.0183 -0.3659
  511TMC3    H1 7597   0.066   0.796  14.691  2.6024  1.4580 -0.4738
  511TMC3    H2 7598   4.512   1.003  14.942  0.1356 -0.7393  1.2113
  511TMC3    C7 7599   4.596   0.767  14.871 -0.3227 -0.4653  0.2994
  511TMC3    C8 7600   4.572   1.231  14.873 -0.4602 -0.0185  0.1995
  511TMC3    O1 7601   4.478   0.773  14.896  0.6898 -0.6324 -0.5946
  511TMC3    O2 7602   4.567   1.225  14.995  0.3142 -0.5748 -0.0672
  512TMC3    C1 7603   3.664   0.613  13.009  0.6112  0.0487  0.0461
  512TMC3    C2 7604   3.761   0.585  13.106  0.1433 -0.2347 -1.0018
  512TMC3    C3 7605   3.824   0.465  13.096  0.5820  0.0625 -0.1200
  512TMC3    C4 7606   3.639   0.523  12.907  0.5139 -0.2497  0.1312
  512TMC3    C5 7607   3.692   0.398  12.908 -0.0003 -0.3526  0.2947
  512TMC3    C6 7608   3.788   0.366  13.005 -0.3064 -0.5388  0.0935
  512TMC3     C 7609   3.586   0.736  13.028  0.2360 -0.4544 -0.0667
  512TMC3     O 7610   3.523   0.780  12.930 -0.4836 -0.3308 -0.7497
  512TMC3     H 7611   3.804   0.650  13.182 -0.0224 -2.7020  1.1873
  512TMC3    H1 7612   3.557   0.549  12.841  0.9460 -0.6138 -0.5510
  512TMC3    H2 7613   3.833   0.268  13.016  0.4276 -0.2232 -0.1447
  512TMC3    C7 7614   3.641   0.306  12.815  1.2478 -0.3389 -0.0111
  512TMC3    C8 7615   3.927   0.431  13.187  0.1061  0.6544  0.6126
  512TMC3    O1 7616   3.556   0.351  12.739  0.3393  0.2119 -0.5132
  512TMC3    O2 7617   3.930   0.311  13.215  0.6235 -0.3786 -0.0214
  513MPD2     C 7618   1.526   0.660  12.963  0.9932 -0.8376  0.0425
  513MPD2    C1 7619   1.421   0.619  13.046 -0.7305 -0.6237 -0.0100
  513MPD2    C2 7620   1.429   0.646  13.179  0.8664 -0.0243  0.4869
  513MPD2    C3 7621   1.539   0.709  13.231 -0.1630 -0.3531 -0.3486
  513MPD2    C4 7622   1.649   0.738  13.154 -0.4475  0.7833  0.4412
  513MPD2    C5 7623   1.638   0.716  13.021 -0.2405 -0.0126 -0.8043
  513MPD2     H 7624   1.356   0.609  13.250  0.1834  1.7652  0.7063
  513MPD2    H1 7625   1.739   0.780  13.198 -1.4883  0.8158  2.5531
  513MPD2    H2 7626   1.515   0.652  12.856  0.0578 -1.6462  0.1975
  513MPD2    H3 7627   1.725   0.732  12.959 -0.8317  0.5027 -1.5116
  513MPD2     N 7628   1.536   0.736  13.369 -0.0251 -0.0479 -0.1983
  513MPD2    H5 7629   1.457   0.700  13.422  1.2459 -0.2147  1.5908
  513MPD2    N1 7630   1.319   0.537  12.987 -0.3852 -0.3001 -0.0381
  513MPD2    H7 7631   1.341   0.508  12.892 -0.3426 -1.6736  0.3855
  514TMC3    C1 7632   1.117   0.409  12.973 -0.3961 -0.4142 -0.1432
  514TMC3    C2 7633   1.184   0.337  12.880 -0.1949  0.3231  0.8287
  514TMC3    C3 7634   1.162   0.199  12.894  0.2056 -0.3065 -0.2302
  514TMC3    C4 7635   1.024   0.353  13.057  0.2204 -0.2938  0.4439
  514TMC3    C5 7636   1.022   0.221  13.083 -0.0535  0.1055 -0.3212
  514TMC3    C6 7637   1.094   0.140  12.994  0.9226 -0.0861 -0.5699
  514TMC3     C 7638   1.206   0.497  13.054  0.1443 -0.5279  0.5356
  514TMC3     O 7639   1.190   0.483  13.174  0.2355 -0.3201 -0.0587
  514TMC3     H 7640   1.241   0.381  12.799 -1.2734 -0.2123 -0.2273
  514TMC3    H1 7641   0.960   0.416  13.118 -0.3337  0.0821 -0.5363
  514TMC3    H2 7642   1.076   0.034  13.005  3.7314 -0.3688  1.1280
  514TMC3    C7 7643   1.026   0.168  13.218 -0.6989  0.2094 -0.1120
  514TMC3    C8 7644   1.197   0.107  12.784  0.0348 -0.1211 -0.0466
  514TMC3    O1 7645   1.011   0.046  13.240  0.0573  0.0184  0.0845
  514TMC3    O2 7646   1.236   4.720  12.814  0.1638  0.0953 -0.0474
  515MPD2     C 7647   3.702   2.723  15.433  0.0907 -1.1198 -0.4819
  515MPD2    C1 7648   3.791   2.617  15.402 -0.5472 -0.3786  0.1482
  515MPD2    C2 7649   3.919   2.639  15.426  0.4090  0.1596 -0.3923
  515MPD2    C3 7650   3.962   2.750  15.492  0.0543 -0.2907 -0.0963
  515MPD2    C4 7651   3.871   2.840  15.538 -1.0817  0.4841  0.5950
  515MPD2    C5 7652   3.740   2.831  15.500 -0.5662 -0.2049  0.0241
  515MPD2     H 7653   3.983   2.558  15.391  1.0206 -0.6383  2.5588
  515MPD2    H1 7654   3.906   2.922  15.598  0.6922 -0.4912  0.9062
  515MPD2    H2 7655   3.597   2.724  15.406  0.3907  0.1742 -1.6172
  515MPD2    H3 7656   3.670   2.911  15.520  1.1641  0.7451  2.2578
  515MPD2     N 7657   4.098   2.783  15.504 -0.7603 -0.2385 -0.0974
  515MPD2    H5 7658   4.110   2.869  15.556  0.7401 -0.8430  0.5598
  515MPD2    N1 7659   3.752   2.505  15.321 -0.1007 -0.8549  0.1461
  515MPD2    H7 7660   3.826   2.443  15.288 -1.0201 -1.6996 -0.3121
  516TMC3    C1 7661   3.614   2.345  15.227 -0.4620 -0.5318 -0.0076
  516TMC3    C2 7662   3.544   2.353  15.105  0.1128 -0.0600 -0.6771
  516TMC3    C3 7663   3.581   2.261  15.014  0.3340  0.0867  0.3111
  516TMC3    C4 7664   3.683   2.235  15.267  0.7767 -0.0804 -0.1699
  516TMC3    C5 7665   3.701   2.138  15.177  0.4648 -0.1602 -0.8617
  516TMC3    C6 7666   3.667   2.146  15.047  0.4527 -0.0284 -0.1657
  516TMC3     C 7667   3.622   2.467  15.299 -0.3785 -0.2029 -0.7488
  516TMC3     O 7668   3.518   2.528  15.323  0.5540 -0.0789  0.1386
  516TMC3     H 7669   3.481   2.437  15.078 -0.1457 -0.3117 -0.8460
  516TMC3    H1 7670   3.734   2.245  15.362  1.6564  0.7080 -0.7195
  516TMC3    H2 7671   3.685   2.073  14.969 -1.1574  0.4269 -0.9779
  516TMC3    C7 7672   3.715   2.002  15.225 -0.1971 -0.1327  0.0107
  516TMC3    C8 7673   3.537   2.263  14.879  0.1753 -0.3771 -0.0559
  516TMC3    O1 7674   3.743   1.983  15.339  0.2526  0.2695 -0.1826
  516TMC3    O2 7675   3.414   2.277  14.871 -0.1228  0.5725 -0.0271
  517MPD2     C 7676   3.466   3.796  17.164  0.1579 -0.6723 -0.3392
  517MPD2    C1 7677   3.585   3.812  17.234  0.1015  0.8383 -0.6921
  517MPD2    C2 7678   3.604   3.927  17.310  0.7009  0.0444 -0.6858
  517MPD2    C3 7679   3.505   4.023  17.322 -0.0987  1.1335 -0.2346
  517MPD2    C4 7680   3.390   4.009  17.246 -0.8365 -0.0443 -0.5918
  517MPD2    C5 7681   3.373   3.894  17.168  0.2475 -0.2072 -0.2981
  517MPD2     H 7682   3.698   3.939  17.362  1.1996 -0.2904 -1.5027
  517MPD2    H1 7683   3.317   4.089  17.244  0.2154  1.0176  2.8628
  517MPD2    H2 7684   3.447   3.705  17.108  0.5779  0.5477 -2.4789
  517MPD2    H3 7685   3.283   3.873  17.111 -0.0351  0.5593 -0.1280
  517MPD2     N 7686   3.510   4.125  17.420  0.3839 -0.0025  0.9247
  517MPD2    H5 7687   3.423   4.176  17.430  0.0255 -0.2639 -0.8055
  517MPD2    N1 7688   3.683   3.710  17.235 -0.4495  0.2616  0.2475
  517MPD2    H7 7689   3.773   3.731  17.277 -0.9201 -0.3642  1.5634
  518TMC3    C1 7690   3.783   3.499  17.204 -0.2014 -0.3787  0.2331
  518TMC3    C2 7691   3.759   3.374  17.251  0.4927  0.0353 -0.0701
  518TMC3    C3 7692   3.854   3.278  17.237 -0.3244  0.2480 -0.8370
  518TMC3    C4 7693   3.901   3.540  17.154 -0.3328  0.1569 -0.3734
  518TMC3    C5 7694   4.000   3.448  17.154 -0.9971 -0.8332  0.2417
  518TMC3    C6 7695   3.976   3.312  17.183  0.0409  0.1993 -0.4319
  518TMC3     C 7696   3.669   3.578  17.187  0.0532 -1.2513  0.2408
  518TMC3     O 7697   3.564   3.521  17.154  0.8371 -0.3659  0.4921
  518TMC3     H 7698   3.663   3.354  17.298  0.7647 -0.9444  0.0679
  518TMC3    H1 7699   3.898   3.641  17.117 -0.2972 -0.1141 -1.1036
  518TMC3    H2 7700   4.048   3.233  17.166 -1.6934 -1.4394 -0.2051
  518TMC3    C7 7701   4.125   3.493  17.105 -0.3747 -0.1736 -0.0974
  518TMC3    C8 7702   3.826   3.137  17.259  0.6234  0.3587  0.0031
  518TMC3    O1 7703   4.139   3.609  17.070 -0.5273  0.2355 -0.4513
  518TMC3    O2 7704   3.917   3.063  17.216 -0.6819 -0.0388 -0.2602
  519MPD2     C 7705   0.550   2.128  14.421 -0.0153 -0.0389  0.2236
  519MPD2    C1 7706   0.506   2.101  14.290  0.6602 -0.7402 -0.0949
  519MPD2    C2 7707   0.526   1.972  14.236 -0.2676 -0.2168 -0.0376
  519MPD2    C3 7708   0.596   1.879  14.309  0.2341 -0.0495  0.0542
  519MPD2    C4 7709   0.653   1.911  14.429 -0.4917  0.3251 -0.2046
  519MPD2    C5 7710   0.632   2.036  14.483 -0.4421  0.1310 -0.3974
  519MPD2     H 7711   0.502   1.961  14.131  0.6149  1.8938 -0.4571
  519MPD2    H1 7712   0.719   1.836  14.470 -1.9417 -0.6483  0.3227
  519MPD2    H2 7713   0.528   2.219  14.477 -2.2511 -1.4775  1.7131
  519MPD2    H3 7714   0.668   2.067  14.580 -0.0321  0.2804 -0.5967
  519MPD2     N 7715   0.622   1.746  14.260  0.0642 -0.3048  0.3855
  519MPD2    H5 7716   0.693   1.687  14.302 -0.8105 -0.1447  2.0765
  519MPD2    N1 7717   0.437   2.201  14.217 -0.1640 -0.2751 -0.3544
  519MPD2    H7 7718   0.420   2.287  14.267 -2.0334 -1.6351  1.3131
  520TMC3    C1 7719   0.641   1.590  14.095 -0.0792  0.5544  1.1365
  520TMC3    C2 7720   0.567   1.521  14.003 -0.0208 -0.1398  0.2866
  520TMC3    C3 7721   0.634   1.485  13.887  0.2551 -0.2244 -0.2071
  520TMC3    C4 7722   0.773   1.613  14.079 -0.6481 -0.0112 -0.5260
  520TMC3    C5 7723   0.841   1.568  13.966 -0.6373  0.1457 -0.1117
  520TMC3    C6 7724   0.768   1.511  13.863 -0.1013 -0.6711  0.0311
  520TMC3     C 7725   0.568   1.702  14.143 -0.5527 -0.0745  0.8571
  520TMC3     O 7726   0.470   1.735  14.071  0.8341 -0.2284 -0.2781
  520TMC3     H 7727   0.461   1.504  14.013 -0.0974 -1.0027 -1.8762
  520TMC3    H1 7728   0.823   1.668  14.158 -1.0519 -2.6563  1.5758
  520TMC3    H2 7729   0.819   1.469  13.778  1.5053  0.6794  0.3179
  520TMC3    C7 7730   0.983   1.544  13.972 -0.9312 -0.0036 -0.7562
  520TMC3    C8 7731   0.559   1.453  13.772 -0.7464  0.0801 -0.5331
  520TMC3    O1 7732   1.039   1.518  14.076 -0.3118 -0.4083  0.4965
  520TMC3    O2 7733   0.622   1.397  13.683  0.2263 -0.2709  0.2995
  521MPD2     C 7734   1.624   4.543  17.566 -0.1544 -0.2622  1.2070
  521MPD2    C1 7735   1.576   4.440  17.492  0.5228 -0.0467 -0.2226
  521MPD2    C2 7736   1.663   4.370  17.413  0.3994 -0.1002  0.4255
  521MPD2    C3 7737   1.797   4.395  17.388  0.4631 -0.3694 -0.9129
  521MPD2    C4 7738   1.839   4.507  17.459  0.3165  0.2690 -0.2104
  521MPD2    C5 7739   1.753   4.584  17.533  0.2449 -0.5233  0.1806
  521MPD2     H 7740   1.619   4.286  17.360 -0.5360  1.6001 -1.5157
  521MPD2    H1 7741   1.938   4.548  17.444  0.6940 -0.5231  0.1394
  521MPD2    H2 7742   1.566   4.608  17.630 -0.5097 -0.0730  0.6902
  521MPD2    H3 7743   1.787   4.676  17.578 -0.5433  0.7507 -1.8599
  521MPD2     N 7744   1.870   4.314  17.303 -0.3270 -0.2968 -0.2466
  521MPD2    H5 7745   1.813   4.241  17.260 -0.3638 -0.7728  0.6009
  521MPD2    N1 7746   1.445   4.392  17.505  0.0505 -0.6070  0.2709
  521MPD2    H7 7747   1.423   4.316  17.441  1.7529 -2.0209  1.3628
  522TMC3    C1 7748   2.066   4.237  17.189 -0.4822 -0.0145  0.4986
  522TMC3    C2 7749   2.201   4.223  17.195 -0.6218 -0.2252  0.1787
  522TMC3    C3 7750   2.261   4.176  17.080 -0.4844  0.2141  0.4522
  522TMC3    C4 7751   1.999   4.206  17.078 -0.0838 -0.1039  0.0261
  522TMC3    C5 7752   2.057   4.150  16.965  0.2152 -0.3640 -0.3312
  522TMC3    C6 7753   2.187   4.128  16.972  0.3898  0.4041 -0.3525
  522TMC3     C 7754   2.007   4.317  17.294 -0.1427  0.3230 -0.5830
  522TMC3     O 7755   2.089   4.390  17.354 -0.6553 -0.0362  0.0788
  522TMC3     H 7756   2.255   4.251  17.285  2.7234 -2.8480 -0.9828
  522TMC3    H1 7757   1.893   4.224  17.070  0.0272  0.5951  0.0441
  522TMC3    H2 7758   2.239   4.058  16.907 -0.5857 -0.1758 -0.4987
  522TMC3    C7 7759   1.977   4.086  16.861  0.1944  0.1272 -0.0816
  522TMC3    C8 7760   2.391   4.223  17.056  0.0286  0.2585 -0.2850
  522TMC3    O1 7761   2.029   3.988  16.811  0.0828 -0.0820 -0.2126
  522TMC3    O2 7762   2.446   4.275  17.154  0.0987  0.4090  0.1252
  523MPD2     C 7763   3.870   4.509  10.092 -0.3929  0.3651 -0.0944
  523MPD2    C1 7764   3.798   4.434  10.000 -0.1390 -0.3665 -0.3876
  523MPD2    C2 7765   3.739   4.507   9.894  0.1084  0.3652 -0.1450
  523MPD2    C3 7766   3.746   4.646   9.887  0.9106  0.7913  0.2270
  523MPD2    C4 7767   3.808   4.718   9.988 -0.2461  0.4612 -0.7817
  523MPD2    C5 7768   3.881   4.648  10.082  0.1168 -0.4421  0.5586
  523MPD2     H 7769   3.684   4.455   9.817 -2.3463 -0.7151  2.3345
  523MPD2    H1 7770   3.817   0.100   9.995  1.6004  0.5427 -4.2798
  523MPD2    H2 7771   3.910   4.457  10.178 -1.5985 -0.0159  0.2331
  523MPD2    H3 7772   3.935   4.710  10.153 -0.3106  2.0097 -1.2804
  523MPD2     N 7773   3.700   4.710   9.771 -0.4611  0.0107  0.1286
  523MPD2    H5 7774   3.646   4.651   9.708 -0.5766 -1.8451  1.9482
  523MPD2    N1 7775   3.794   4.295  10.016 -0.6019  0.3829  0.2797
  523MPD2    H7 7776   3.821   4.255  10.105 -1.7766  0.1542  0.5247
  524TMC3    C1 7777   3.671   0.146   9.604  0.9875 -0.0062 -0.3018
  524TMC3    C2 7778   3.568   0.070   9.549 -0.1483  0.8643  0.3011
  524TMC3    C3 7779   3.527   0.103   9.419  0.1780  0.0266 -0.3559
  524TMC3    C4 7780   3.728   0.248   9.543 -0.2505  0.0435 -0.5345
  524TMC3    C5 7781   3.693   0.267   9.414  0.1927  0.2499 -0.0464
  524TMC3    C6 7782   3.594   0.203   9.346  0.4304 -0.3667  0.3309
  524TMC3     C 7783   3.735   0.110   9.725 -0.9568  0.0557 -0.3333
  524TMC3     O 7784   3.826   0.180   9.768  0.1106 -0.0779  0.3573
  524TMC3     H 7785   3.515   4.719   9.604  0.7502  0.5207  0.6804
  524TMC3    H1 7786   3.800   0.316   9.588 -0.9806  0.6875 -0.3521
  524TMC3    H2 7787   3.571   0.220   9.242  1.2451  0.9994  0.3749
  524TMC3    C7 7788   3.742   0.393   9.355 -0.2408  0.3381 -0.0050
  524TMC3    C8 7789   3.457   0.007   9.338 -0.7987 -0.1980  0.5235
  524TMC3    O1 7790   3.852   0.431   9.401 -0.2604 -0.2014  0.1724
  524TMC3    O2 7791   3.404   0.058   9.238  0.2117 -0.0958  0.2283
  525MPD2     C 7792   1.966   1.653  14.138 -0.0729  0.7459  0.7115
  525MPD2    C1 7793   2.106   1.653  14.148  0.3679 -0.0053  0.2104
  525MPD2    C2 7794   2.176   1.751  14.077 -0.6566 -0.4006  0.2922
  525MPD2    C3 7795   2.105   1.863  14.040 -0.2812  0.1008  0.5842
  525MPD2    C4 7796   1.965   1.862  14.036  0.8079  1.0293 -0.2678
  525MPD2    C5 7797   1.898   1.745  14.064 -0.2008  0.0410 -0.2271
  525MPD2     H 7798   2.284   1.745  14.076 -0.7177 -1.2985 -1.8492
  525MPD2    H1 7799   1.912   1.946  13.993 -1.1011 -0.5768 -1.0458
  525MPD2    H2 7800   1.899   1.574  14.169  0.9325 -0.1732  0.5598
  525MPD2    H3 7801   1.792   1.727  14.047 -0.5942  1.7548  0.3616
  525MPD2     N 7802   2.161   1.988  14.005  0.1980 -0.4220  0.7585
  525MPD2    H5 7803   2.099   2.068  13.994  0.4020 -0.6040 -1.8470
  525MPD2    N1 7804   2.178   1.549  14.204  0.3898 -0.2788 -0.9515
  525MPD2    H7 7805   2.278   1.549  14.221  0.4428  1.4600 -1.2105
  526TMC3    C1 7806   2.204   1.345  14.329  0.4905  0.8213  0.2199
  526TMC3    C2 7807   2.164   1.274  14.441 -1.0822 -0.4961  0.3401
  526TMC3    C3 7808   2.250   1.179  14.494  0.9490  0.1834  0.2923
  526TMC3    C4 7809   2.318   1.309  14.262 -0.2869 -0.4901 -0.2767
  526TMC3    C5 7810   2.405   1.229  14.320 -0.0317 -0.0203 -0.2793
  526TMC3    C6 7811   2.370   1.160  14.426  0.6956  0.2179 -0.3031
  526TMC3     C 7812   2.119   1.446  14.276  0.4999 -0.0122 -0.1336
  526TMC3     O 7813   2.002   1.436  14.314  0.3741 -0.4021  0.3906
  526TMC3     H 7814   2.086   1.315  14.505 -1.2942  1.4510 -1.1786
  526TMC3    H1 7815   2.339   1.354  14.165 -1.2689  3.0194  1.1719
  526TMC3    H2 7816   2.447   1.111  14.485  0.6943  3.1099  2.0765
  526TMC3    C7 7817   2.542   1.217  14.267 -0.1130  0.4622  0.0944
  526TMC3    C8 7818   2.245   1.156  14.639 -0.3120 -0.4381 -0.4302
  526TMC3    O1 7819   2.585   1.318  14.217  0.0091  0.2200  0.5344
  526TMC3    O2 7820   2.353   1.146  14.686 -0.0798  0.1098 -0.1012
  527MPD2     C 7821   0.056   4.578   0.996  0.2927 -0.2073 -0.0956
  527MPD2    C1 7822   0.077   4.469   1.073 -0.2236  0.2528 -0.0877
  527MPD2    C2 7823   0.188   4.396   1.045 -0.6789  0.4741 -0.1857
  527MPD2    C3 7824   0.279   4.424   0.944 -0.2433  0.2669  0.6039
  527MPD2    C4 7825   0.255   4.539   0.879 -0.8368  0.0756  1.3972
  527MPD2    C5 7826   0.145   4.621   0.904 -0.3502  0.1693 -0.0916
  527MPD2     H 7827   0.207   4.303   1.097 -2.2234 -0.7992 -1.9344
  527MPD2    H1 7828   0.330   4.579   0.812 -0.0802 -0.7256  1.7666
  527MPD2    H2 7829   4.694   4.640   1.008  1.8993  1.8263  1.1002
  527MPD2    H3 7830   0.126   4.703   0.836  0.3597  1.8213  1.7378
  527MPD2     N 7831   0.378   4.335   0.925  0.0496  0.1294  0.3585
  527MPD2    H5 7832   0.366   4.253   0.983  1.6915 -0.3211  0.0503
  527MPD2    N1 7833   4.718   4.440   1.185 -0.5817 -0.1621  0.3125
  527MPD2    H7 7834   0.022   4.358   1.237 -0.5668 -0.3899 -0.0563
  528TMC3    C1 7835   4.565   4.448   1.358  0.8456 -0.6878 -0.8953
  528TMC3    C2 7836   4.635   4.349   1.427  0.0168 -0.8035  0.3973
  528TMC3    C3 7837   4.629   4.327   1.559 -0.5567  0.3237  0.4206
  528TMC3    C4 7838   4.479   4.527   1.428  0.0342 -0.5015 -0.2541
  528TMC3    C5 7839   4.479   4.498   1.561  0.5669  0.0869 -0.1783
  528TMC3    C6 7840   4.542   4.395   1.627 -0.1793 -0.1548 -0.2165
  528TMC3     C 7841   4.614   4.508   1.234  0.2782 -0.0566  1.2876
  528TMC3     O 7842   4.558   4.611   1.198 -0.2787 -0.6203  0.0613
  528TMC3     H 7843   4.710   4.288   1.377  1.8882  1.4541  0.4278
  528TMC3    H1 7844   4.438   4.614   1.378 -1.2745 -0.9773  0.0134
  528TMC3    H2 7845   4.538   4.388   1.735  0.0898 -0.2352 -0.2088
  528TMC3    C7 7846   4.421   4.589   1.653  0.0705 -0.5376 -0.1398
  528TMC3    C8 7847   0.030   4.292   1.620 -0.6235  0.2021  0.0660
  528TMC3    O1 7848   4.464   4.599   1.767 -0.0960 -0.3634  0.3591
  528TMC3    O2 7849   0.131   4.295   1.553 -0.3531  0.0816 -0.6161
  529MPD2     C 7850   2.919   1.916   0.658 -0.1687  0.4774 -0.5467
  529MPD2    C1 7851   2.820   2.009   0.642 -0.2346  0.5271 -0.3735
  529MPD2    C2 7852   2.818   2.090   0.532  0.8947 -0.9096 -0.0981
  529MPD2    C3 7853   2.913   2.082   0.438 -0.0795  0.4496  0.1896
  529MPD2    C4 7854   3.016   1.991   0.460 -0.5608 -0.6096 -0.5289
  529MPD2    C5 7855   3.013   1.906   0.566  0.1203 -0.2390 -1.0315
  529MPD2     H 7856   2.733   2.157   0.534 -0.0454 -2.0287 -2.4104
  529MPD2    H1 7857   3.091   1.973   0.384 -0.1579  2.3714 -0.8510
  529MPD2    H2 7858   2.919   1.848   0.743 -1.6610  0.3427 -0.6508
  529MPD2    H3 7859   3.088   1.828   0.570  0.3505  0.0228 -0.2409
  529MPD2     N 7860   2.919   2.153   0.322 -0.0736 -0.2428 -0.2471
  529MPD2    H5 7861   2.990   2.133   0.252 -2.1544 -1.5318 -1.9892
  529MPD2    N1 7862   2.725   2.026   0.740 -0.4476  0.3452  0.1833
  529MPD2    H7 7863   2.651   2.093   0.725  1.4713  2.8804  2.0474
  530TMC3    C1 7864   2.601   2.008   0.933 -0.4242 -0.1023  0.4557
  530TMC3    C2 7865   2.595   1.987   1.069 -0.1734 -0.1539 -0.0248
  530TMC3    C3 7866   2.476   2.010   1.135  0.3006  0.0981 -0.0731
  530TMC3    C4 7867   2.484   2.053   0.863  0.3920  0.2132 -0.4563
  530TMC3    C5 7868   2.365   2.062   0.932 -0.2364 -0.5794 -0.2771
  530TMC3    C6 7869   2.354   2.029   1.066 -0.3550  0.4746  0.5960
  530TMC3     C 7870   2.722   1.974   0.859  0.2851 -0.2928 -0.1263
  530TMC3     O 7871   2.794   1.899   0.921 -0.2256 -0.4769 -0.6562
  530TMC3     H 7872   2.690   1.987   1.122 -0.7476  2.4285  0.9901
  530TMC3    H1 7873   2.467   2.076   0.758  0.3631  2.8868  0.1268
  530TMC3    H2 7874   2.264   2.035   1.126 -0.3407  3.7314  0.2624
  530TMC3    C7 7875   2.247   2.110   0.857  0.1014  0.9937 -0.5026
  530TMC3    C8 7876   2.458   1.976   1.273  0.6235 -0.0839  0.1571
  530TMC3    O1 7877   2.267   2.167   0.751  0.6527 -0.3341  0.2214
  530TMC3    O2 7878   2.369   2.023   1.336 -0.6503 -0.0378 -0.1211
  531MPD2     C 7879   1.200   0.223  13.694  0.2022  0.6878  0.5737
  531MPD2    C1 7880   1.221   0.336  13.625 -0.1739  0.1692  0.7222
  531MPD2    C2 7881   1.174   0.347  13.494  0.1549  0.0731 -0.1937
  531MPD2    C3 7882   1.109   0.247  13.436  0.5392  0.1301  0.1263
  531MPD2    C4 7883   1.069   0.137  13.509 -0.3971  0.5362 -0.7718
  531MPD2    C5 7884   1.124   0.120  13.635 -0.4597 -0.3035 -0.5995
  531MPD2     H 7885   1.186   0.438  13.436 -0.1454  0.5787  0.5306
  531MPD2    H1 7886   1.012   0.058  13.462  0.0048 -1.5183  2.2035
  531MPD2    H2 7887   1.239   0.213  13.795  0.3047 -0.2159  0.4499
  531MPD2    H3 7888   1.101   0.029  13.689 -2.2264 -0.0533 -0.9421
  531MPD2     N 7889   1.072   0.264  13.301 -0.3282 -0.5633  0.0022
  531MPD2    H5 7890   1.099   0.351  13.257 -1.4679 -0.5225 -0.5878
  531MPD2    N1 7891   1.297   0.439  13.687 -0.1230  0.0391 -0.1932
  531MPD2    H7 7892   1.324   0.424  13.783  1.9437  3.1059 -0.2963
  532TMC3    C1 7893   1.453   0.613  13.689 -0.1128 -0.2740  0.6102
  532TMC3    C2 7894   1.489   0.717  13.612 -0.1182 -0.2352 -0.5512
  532TMC3    C3 7895   1.620   0.745  13.584 -0.4240  1.0013 -0.3324
  532TMC3    C4 7896   1.556   0.540  13.751 -0.0393  0.0893 -0.1757
  532TMC3    C5 7897   1.683   0.568  13.713 -0.4892 -0.0409 -0.2035
  532TMC3    C6 7898   1.717   0.677  13.642  0.0827 -0.2148 -0.7257
  532TMC3     C 7899   1.353   0.538  13.617 -0.6789  0.1716 -0.4504
  532TMC3     O 7900   1.341   0.571  13.500 -0.5741 -0.1610  0.5494
  532TMC3     H 7901   1.410   0.787  13.586 -0.5698  0.3451  2.3602
  532TMC3    H1 7902   1.536   0.458  13.819 -1.8570  0.4077 -0.3120
  532TMC3    H2 7903   1.820   0.690  13.611  0.0179  0.2678 -0.7330
  532TMC3    C7 7904   1.792   0.485  13.761 -0.5663 -0.2253  0.0236
  532TMC3    C8 7905   1.650   0.775  13.442  0.7762  0.0321  0.2611
  532TMC3    O1 7906   1.900   0.536  13.754  0.5454  0.8832 -0.2228
  532TMC3    O2 7907   1.766   0.801  13.411  0.2802  0.0203 -0.7150
  533TMC3    C1 7908   2.313   2.148  14.049  0.4810 -0.0999 -1.0345
  533TMC3    C2 7909   2.435   2.197  14.024 -0.5128  0.5989  0.8243
  533TMC3    C3 7910   2.498   2.267  14.125 -0.0200  0.2190 -0.4372
  533TMC3    C4 7911   2.243   2.180  14.160 -0.0235  0.0260 -0.0464
  533TMC3    C5 7912   2.311   2.244  14.264 -0.2555 -0.0267 -0.4492
  533TMC3    C6 7913   2.442   2.278  14.245 -0.1368  0.6913 -0.3893
  533TMC3     C 7914   2.293   2.015  14.005 -0.0931  0.0442  0.2474
  533TMC3     O 7915   2.394   1.939  14.001 -0.0846  0.2173 -0.7543
  533TMC3     H 7916   2.490   2.180  13.932 -0.4596  0.4066  0.8917
  533TMC3    H1 7917   2.142   2.148  14.183 -0.1248 -0.6470 -1.4427
  533TMC3    H2 7918   2.490   2.343  14.317 -0.8044  0.9689 -0.1941
  533TMC3    C7 7919   2.269   2.216  14.404  0.8350 -0.2982 -0.5433
  533TMC3    C8 7920   2.593   2.375  14.081 -0.1426 -1.0102  0.3048
  533TMC3    O1 7921   2.187   2.123  14.423 -0.2138 -1.0719  0.3623
  533TMC3    O2 7922   2.583   2.412  13.966  0.5688 -0.0763 -0.0835
  534MPD2     C 7923   4.430   2.859   1.409  0.8172 -0.3050  0.1475
  534MPD2    C1 7924   4.396   2.984   1.369 -0.0605 -0.0857 -0.2422
  534MPD2    C2 7925   4.280   2.999   1.281 -0.6311  0.0199 -0.2679
  534MPD2    C3 7926   4.201   2.889   1.249  0.1531  0.1497 -0.2665
  534MPD2    C4 7927   4.247   2.766   1.297 -0.1789 -0.3546  1.0956
  534MPD2    C5 7928   4.352   2.748   1.375  1.5724 -0.2536  1.1582
  534MPD2     H 7929   4.255   3.100   1.252  1.6716  0.3153 -1.2223
  534MPD2    H1 7930   4.189   2.679   1.267  0.4107 -0.2633 -0.3250
  534MPD2    H2 7931   4.521   2.843   1.465  1.5878 -1.7114 -1.4946
  534MPD2    H3 7932   4.379   2.646   1.403  4.0348  0.2523  0.6292
  534MPD2     N 7933   4.086   2.908   1.163  0.2726  0.5853  0.0220
  534MPD2    H5 7934   4.032   2.826   1.138 -0.2670  1.3748 -1.3923
  534MPD2    N1 7935   4.471   3.100   1.419 -0.5685 -0.6575  0.5349
  534MPD2    H7 7936   4.441   3.189   1.379 -0.2152  0.5172  2.8492
  535TMC3    C1 7937   3.937   2.999   1.003 -0.0966 -0.2253  0.2753
  535TMC3    C2 7938   3.850   2.893   1.006 -0.5017  0.0878 -0.0427
  535TMC3    C3 7939   3.801   2.846   0.892 -0.0538  0.1969  0.2650
  535TMC3    C4 7940   3.974   3.051   0.880  0.2154  0.3482  0.0536
  535TMC3    C5 7941   3.920   2.996   0.765 -0.0390  0.2680  0.4206
  535TMC3    C6 7942   3.836   2.895   0.764 -0.2510 -0.4268  0.0363
  535TMC3     C 7943   4.047   3.017   1.094 -0.0275 -0.7136 -0.5297
  535TMC3     O 7944   4.089   3.132   1.102  0.5547  0.6170  0.2016
  535TMC3     H 7945   3.838   2.844   1.102  2.9426  0.9831  0.8502
  535TMC3    H1 7946   4.058   3.120   0.879 -1.4099  2.3105 -0.5140
  535TMC3    H2 7947   3.812   2.848   0.670  2.1532 -1.5367 -0.0325
  535TMC3    C7 7948   3.964   3.041   0.636  0.8452 -0.4465 -0.1287
  535TMC3    C8 7949   3.751   2.713   0.904  0.3615  0.5096 -0.6218
  535TMC3    O1 7950   3.931   2.971   0.545 -0.1276  0.1747 -0.1575
  535TMC3    O2 7951   3.666   2.704   0.987  0.0019  0.7068  0.0904
  536MPD2     C 7952   2.713   0.867  16.776  0.1638 -0.5589 -0.0830
  536MPD2    C1 7953   2.846   0.896  16.777  0.1832 -1.0187  0.0394
  536MPD2    C2 7954   2.896   0.976  16.678 -0.5398  0.7877 -0.3377
  536MPD2    C3 7955   2.813   1.026  16.581  0.3297 -0.4074 -0.0388
  536MPD2    C4 7956   2.677   1.009  16.597  0.0492  0.1786  0.5311
  536MPD2    C5 7957   2.625   0.928  16.695  0.3918  0.0685  0.0873
  536MPD2     H 7958   2.997   1.014  16.683 -1.0351  2.1121 -0.3371
  536MPD2    H1 7959   2.605   1.047  16.527 -0.1264 -0.8985  0.1220
  536MPD2    H2 7960   2.675   0.799  16.852  0.5498  2.3161  2.6482
  536MPD2    H3 7961   2.519   0.912  16.706  0.4202  0.6042  1.1254
  536MPD2     N 7962   2.863   1.100  16.467  0.1900 -0.3148  0.4821
  536MPD2    H5 7963   2.787   1.140  16.413 -0.9791 -3.1974  0.0101
  536MPD2    N1 7964   2.925   0.843  16.883  0.3846  0.2677  0.7272
  536MPD2    H7 7965   2.877   0.776  16.942 -2.4722  0.0019 -1.8536
  537TMC3    C1 7966   3.078   0.862  17.054  0.2968  0.1042  0.4240
  537TMC3    C2 7967   3.211   0.848  17.084 -0.5572  0.4983 -0.0687
  537TMC3    C3 7968   3.238   0.828  17.216 -0.3400 -0.0359 -0.4197
  537TMC3    C4 7969   2.977   0.856  17.146 -0.8640  0.1128 -0.7291
  537TMC3    C5 7970   3.017   0.838  17.273  0.4529  0.2296 -0.8255
  537TMC3    C6 7971   3.148   0.815  17.313  0.4126  0.4994  0.1007
  537TMC3     C 7972   3.047   0.898  16.916  0.6511 -0.6910  0.0085
  537TMC3     O 7973   3.126   0.967  16.850  0.2073  0.2858 -0.0577
  537TMC3     H 7974   3.282   0.863  17.003  0.8320  2.5862  1.5532
  537TMC3    H1 7975   2.877   0.890  17.121 -0.8571  1.2390  0.7539
  537TMC3    H2 7976   3.182   0.827  17.415 -0.9521 -0.5075  0.6822
  537TMC3    C7 7977   2.915   0.783  17.356 -0.6130 -0.4114 -1.0304
  537TMC3    C8 7978   3.385   0.821  17.259  0.7152  0.3453  0.4458
  537TMC3    O1 7979   2.802   0.829  17.338 -0.6735  0.3491 -0.3571
  537TMC3    O2 7980   3.399   0.785  17.375  0.2146  0.2751  0.4801
  538TMC3    C1 7981   4.590   4.168  10.843  0.4944  0.7165 -0.6832
  538TMC3    C2 7982   4.683   4.145  10.741 -0.2146 -0.4549  0.6017
  538TMC3    C3 7983   4.638   4.117  10.621 -0.6966 -0.9313 -0.1502
  538TMC3    C4 7984   4.459   4.165  10.821  0.3397  0.3556 -0.6719
  538TMC3    C5 7985   4.416   4.156  10.691  0.1864 -0.0290  0.1795
  538TMC3    C6 7986   4.503   4.133  10.590  0.6953  0.7715 -0.5050
  538TMC3     C 7987   4.637   4.205  10.977  0.2777 -0.1855 -0.3546
  538TMC3     O 7988   4.549   4.243  11.051 -0.3795  0.2782 -0.4006
  538TMC3     H 7989   0.063   4.160  10.763  0.1177 -1.0476 -0.5558
  538TMC3    H1 7990   4.385   4.170  10.900  2.2995 -1.7456  1.3024
  538TMC3    H2 7991   4.464   4.099  10.495 -0.3510 -0.2569  0.2975
  538TMC3    C7 7992   4.283   4.221  10.660  0.5335  0.2560 -0.8820
  538TMC3    C8 7993   0.002   4.125  10.503  0.2890  0.7586 -0.3124
  538TMC3    O1 7994   4.185   4.189  10.720 -0.0296  0.0415 -0.1165
  538TMC3    O2 7995   4.677   4.095  10.397  0.0369  0.7177 -0.5891
  539MPD2     C 7996   3.922   3.180  11.653  0.5351 -0.7300 -0.3930
  539MPD2    C1 7997   3.972   3.243  11.541  0.0789  0.2657  0.4225
  539MPD2    C2 7998   4.036   3.367  11.554  0.5853 -0.3144 -0.2457
  539MPD2    C3 7999   4.045   3.428  11.676  0.2527  0.4944 -0.0585
  539MPD2    C4 8000   3.998   3.358  11.784  0.2355  0.6088  0.0288
  539MPD2    C5 8001   3.944   3.233  11.775 -0.8324 -0.3498 -0.0790
  539MPD2     H 8002   4.068   3.414  11.462  1.2762  1.6393  0.9799
  539MPD2    H1 8003   3.999   3.402  11.883 -0.1490 -1.6713  1.0366
  539MPD2    H2 8004   3.873   3.084  11.652  0.0453 -0.4727 -1.4511
  539MPD2    H3 8005   3.910   3.196  11.870 -1.1394  1.2621  0.4376
  539MPD2     N 8006   4.104   3.555  11.704 -0.3292  0.5434  0.4880
  539MPD2    H5 8007   4.096   3.586  11.800  0.6424 -0.1357  0.7858
  539MPD2    N1 8008   3.962   3.184  11.417 -0.0007  0.1820 -0.3782
  539MPD2    H7 8009   4.018   3.217  11.340 -0.9808  1.4948 -0.5279
  540TMC3    C1 8010   4.183   3.770  11.649 -0.8699  1.0542  0.2222
  540TMC3    C2 8011   4.218   3.849  11.539  0.3579 -0.7381  0.4931
  540TMC3    C3 8012   4.140   3.960  11.521 -0.2078 -0.4887 -0.1572
  540TMC3    C4 8013   4.096   3.815  11.739 -0.5543  0.4696 -0.6601
  540TMC3    C5 8014   4.023   3.932  11.710 -0.2250 -0.4113 -0.4027
  540TMC3    C6 8015   4.039   4.005  11.600  0.4252 -0.2434  0.4602
  540TMC3     C 8016   4.165   3.629  11.611  0.8274 -0.5853  0.7287
  540TMC3     O 8017   4.192   3.597  11.496  0.0970  0.1904  0.0678
  540TMC3     H 8018   4.282   3.807  11.462 -0.0364  0.2311 -0.3746
  540TMC3    H1 8019   4.086   3.762  11.833  0.3270  0.3668 -0.6195
  540TMC3    H2 8020   3.996   4.104  11.593 -0.6211 -0.6581  1.0169
  540TMC3    C7 8021   3.916   3.969  11.803  0.6198 -0.2463  0.0142
  540TMC3    C8 8022   4.177   4.046  11.421  0.7348  0.0741  0.5129
  540TMC3    O1 8023   3.874   3.873  11.867 -0.1176 -0.9014  0.0249
  540TMC3    O2 8024   4.299   4.054  11.398 -0.3428 -0.6931 -0.3281
  541MPD2     C 8025   2.658   0.847  13.277  0.3714 -0.5415 -0.5954
  541MPD2    C1 8026   2.645   0.745  13.183  0.0256 -0.5500 -0.3239
  541MPD2    C2 8027   2.643   0.775  13.044  0.3929  0.3949 -0.2401
  541MPD2    C3 8028   2.703   0.890  13.006 -0.0334 -0.2486  0.3251
  541MPD2    C4 8029   2.731   0.985  13.099  0.6846 -0.0298  0.1872
  541MPD2    C5 8030   2.708   0.966  13.230 -0.3085 -0.2259  0.6168
  541MPD2     H 8031   2.616   0.703  12.969 -0.7455  0.9658 -0.3693
  541MPD2    H1 8032   2.776   1.078  13.066 -0.1272  0.2603 -0.0859
  541MPD2    H2 8033   2.629   0.835  13.381  0.3249 -0.1344 -0.5603
  541MPD2    H3 8034   2.731   1.048  13.296  0.8090 -0.0027 -0.0501
  541MPD2     N 8035   2.730   0.923  12.867 -0.0072 -0.3550 -0.5632
  541MPD2    H5 8036   2.777   1.012  12.861  0.7598 -0.7636 -0.5173
  541MPD2    N1 8037   2.611   0.607  13.217  0.2020  0.5093  0.0508
  541MPD2    H7 8038   2.574   0.555  13.138  0.1305 -2.1324  1.8552
  542TMC3    C1 8039   2.754   0.901  12.627 -0.1637  0.8209 -0.4212
  542TMC3    C2 8040   2.809   0.827  12.524  0.8991 -0.2476  0.6379
  542TMC3    C3 8041   2.820   0.890  12.402  0.7888 -0.1652 -0.7378
  542TMC3    C4 8042   2.710   1.029  12.604 -0.2239  0.1178 -0.0751
  542TMC3    C5 8043   2.718   1.083  12.476  0.3566  0.4791 -0.2330
  542TMC3    C6 8044   2.774   1.014  12.373 -0.0286  0.0636  0.2033
  542TMC3     C 8045   2.723   0.832  12.756  0.3592  0.2279  0.3629
  542TMC3     O 8046   2.715   0.709  12.751 -0.6642 -0.6658  0.5075
  542TMC3     H 8047   2.852   0.733  12.557  0.9081 -0.4609  0.0178
  542TMC3    H1 8048   2.686   1.103  12.679  0.4997  0.0060  0.2711
  542TMC3    H2 8049   2.774   1.037  12.267 -1.4932 -1.8689 -0.2406
  542TMC3    C7 8050   2.700   1.226  12.453  0.8321  0.5757  0.2893
  542TMC3    C8 8051   2.831   0.795  12.288  0.4939 -0.0357  0.5573
  542TMC3    O1 8052   2.710   1.297  12.556  0.1962 -0.2505  0.3341
  542TMC3    O2 8053   2.834   0.838  12.175  0.2356 -0.9831 -0.2162
  543TMC3    C1 8054   1.886   1.369  17.322  0.0361 -0.2910  0.1130
  543TMC3    C2 8055   1.969   1.260  17.319 -0.6195  0.9388 -0.1285
  543TMC3    C3 8056   2.030   1.221  17.435 -0.4059  0.4108 -0.4173
  543TMC3    C4 8057   1.856   1.434  17.435 -0.1142 -0.3140 -0.1730
  543TMC3    C5 8058   1.929   1.399  17.540 -0.1633 -0.5875  0.1040
  543TMC3    C6 8059   2.008   1.292  17.554  0.2991 -0.0574  0.0105
  543TMC3     C 8060   1.804   1.397  17.204  0.0284 -0.1172  1.1599
  543TMC3     O 8061   1.699   1.457  17.216 -0.5589  0.8249  0.2291
  543TMC3     H 8062   1.983   1.191  17.236 -0.8936 -2.2490  2.4493
  543TMC3    H1 8063   1.790   1.520  17.426  1.5916  1.2166  1.8665
  543TMC3    H2 8064   2.060   1.265  17.645  2.3634  0.8184 -0.8982
  543TMC3    C7 8065   1.901   1.466  17.670 -0.4656 -0.3116 -0.8159
  543TMC3    C8 8066   2.096   1.087  17.442  0.1423 -0.2102 -0.0707
  543TMC3    O1 8067   1.956   1.419   0.067  0.4323  0.1057  0.1516
  543TMC3    O2 8068   2.127   1.031  17.338  0.2777  0.6457 -0.5722
  544MPD2     C 8069   2.381   0.739   0.030 -0.8586  0.8567 -0.4089
  544MPD2    C1 8070   2.377   0.763  17.596  0.2633  0.4189 -0.0247
  544MPD2    C2 8071   2.300   0.860  17.533 -0.2962 -0.5404 -0.8772
  544MPD2    C3 8072   2.215   0.940  17.612  0.3875 -0.1620  0.1971
  544MPD2    C4 8073   2.223   0.922   0.046  0.1930 -0.2745 -0.0764
  544MPD2    C5 8074   2.302   0.826   0.102  0.4934 -0.7400 -0.2819
  544MPD2     H 8075   2.298   0.881  17.426  1.2756 -1.2268 -1.0464
  544MPD2    H1 8076   2.168   0.984   0.116 -0.8314  0.9635 -2.0040
  544MPD2    H2 8077   2.430   0.659   0.084  1.9159  2.3376 -0.7762
  544MPD2    H3 8078   2.291   0.810   0.209  0.4159  2.8201  0.2166
  544MPD2     N 8079   2.139   1.052  17.571 -0.1818  0.5510 -0.0093
  544MPD2    H5 8080   2.095   1.093  17.652 -1.3536 -0.4237 -0.1447
  544MPD2    N1 8081   2.453   0.671  17.523 -1.1388  0.1332  0.0487
  544MPD2    H7 8082   2.506   0.598  17.569 -2.2116 -0.8569 -0.2993
  545TMC3    C1 8083   2.562   0.563  17.357  0.2016 -0.0761 -0.6948
  545TMC3    C2 8084   2.646   0.573  17.248  0.0884  0.2964  0.0533
  545TMC3    C3 8085   2.723   0.470  17.208  0.1087  0.0486  0.3365
  545TMC3    C4 8086   2.559   0.446  17.426 -0.0767 -0.6664 -0.4469
  545TMC3    C5 8087   2.642   0.343  17.378 -0.3075 -0.0641 -0.3149
  545TMC3    C6 8088   2.730   0.349  17.272  0.8065 -0.5082 -0.2871
  545TMC3     C 8089   2.477   0.669  17.388  0.1782  0.1467  0.4893
  545TMC3     O 8090   2.450   0.751  17.300  0.4365 -0.6581 -0.1862
  545TMC3     H 8091   2.644   0.664  17.190  0.2386  0.3544  0.1411
  545TMC3    H1 8092   2.475   0.427  17.493 -1.2153 -1.0260 -1.9744
  545TMC3    H2 8093   2.775   0.260  17.230 -1.1012  0.5441 -4.5944
  545TMC3    C7 8094   2.651   0.217  17.454 -0.3134 -0.4875 -0.2297
  545TMC3    C8 8095   2.837   0.503  17.116 -0.8575 -0.0940 -0.1081
  545TMC3    O1 8096   2.713   0.123  17.402  0.1421  1.0368  0.2884
  545TMC3    O2 8097   2.827   0.605  17.051 -0.1623 -0.1302  0.5300
  546MPD2     C 8098   3.584   1.755  16.743  0.1298  0.0020 -0.6189
  546MPD2    C1 8099   3.549   1.753  16.877 -0.0920 -0.3477  0.1556
  546MPD2    C2 8100   3.587   1.859  16.962 -0.1925  0.6101 -0.1314
  546MPD2    C3 8101   3.680   1.949  16.917 -0.2450 -0.5486  0.4026
  546MPD2    C4 8102   3.710   1.940  16.782 -0.1302 -0.0822  0.9295
  546MPD2    C5 8103   3.672   1.849  16.699 -0.6311  0.3552  0.2502
  546MPD2     H 8104   3.563   1.853  17.068  1.1531 -2.5910  0.0018
  546MPD2    H1 8105   3.783   2.008  16.739 -1.6960 -1.9410 -4.7403
  546MPD2    H2 8106   3.535   1.685  16.676  0.7414  0.5255 -1.6276
  546MPD2    H3 8107   3.683   1.863  16.592 -1.9323  0.1118  0.0845
  546MPD2     N 8108   3.745   2.037  17.001  0.6017 -0.7642 -0.3261
  546MPD2    H5 8109   3.808   2.104  16.958 -0.0794  0.2272  0.2439
  546MPD2    N1 8110   3.450   1.656  16.919  0.3620  0.9144 -0.0290
  546MPD2    H7 8111   3.409   1.603  16.843  0.5390  1.8970 -0.8079
  547TMC3    C1 8112   3.312   1.539  17.066  0.2588  0.3104  0.9754
  547TMC3    C2 8113   3.237   1.517  16.953  0.0248 -0.2495 -0.7355
  547TMC3    C3 8114   3.192   1.392  16.930  0.0494 -0.0328 -0.4890
  547TMC3    C4 8115   3.327   1.442  17.155  0.0269  0.2321 -0.3040
  547TMC3    C5 8116   3.279   1.317  17.133  0.0684  0.1676 -0.0892
  547TMC3    C6 8117   3.219   1.285  17.013 -0.3541  1.0556 -0.3939
  547TMC3     C 8118   3.419   1.635  17.054  0.1004  0.4598 -0.1893
  547TMC3     O 8119   3.480   1.667  17.156  0.2130  0.1631  0.0388
  547TMC3     H 8120   3.209   1.603  16.893 -0.5148  0.9850  1.3047
  547TMC3    H1 8121   3.386   1.456  17.244  2.7894 -0.4811 -2.0111
  547TMC3    H2 8122   3.180   1.187  16.990 -0.4130  0.7830  0.8845
  547TMC3    C7 8123   3.213   1.249  17.252  0.3511  0.4489  0.4015
  547TMC3    C8 8124   3.060   1.392  16.865  0.1285 -0.0501  0.7447
  547TMC3    O1 8125   3.114   1.182  17.230 -1.2438  0.0807  0.6971
  547TMC3    O2 8126   3.027   1.492  16.798 -0.0341  0.4049  0.3265
  548MPD2     C 8127   3.473   2.564  11.772 -0.8294 -0.1984 -0.2957
  548MPD2    C1 8128   3.504   2.494  11.887  0.2348  0.0502 -0.2446
  548MPD2    C2 8129   3.597   2.386  11.878 -0.1270 -0.0393  0.0195
  548MPD2    C3 8130   3.649   2.347  11.754  0.4222 -0.1887 -0.6088
  548MPD2    C4 8131   3.604   2.412  11.640 -0.1223  0.1332 -0.0791
  548MPD2    C5 8132   3.524   2.522  11.651  0.1886  0.4965  0.6345
  548MPD2     H 8133   3.635   2.329  11.961 -1.0042 -2.0423 -0.9502
  548MPD2    H1 8134   3.631   2.391  11.537  0.2989  1.3311 -0.2127
  548MPD2    H2 8135   3.401   2.645  11.771 -1.3618 -0.6880 -2.2168
  548MPD2    H3 8136   3.495   2.569  11.557 -0.5387  0.4026  0.8116
  548MPD2     N 8137   3.731   2.231  11.751  0.0324  0.3459  0.0661
  548MPD2    H5 8138   3.760   2.207  11.845  1.2711  0.6872 -0.2319
  548MPD2    N1 8139   3.421   2.527  12.002  0.3784 -0.6507 -0.0669
  548MPD2    H7 8140   3.339   2.585  11.991  0.0637 -1.0711  0.0689
  549TMC3    C1 8141   3.329   2.488  12.212 -0.4068  0.2587 -0.2646
  549TMC3    C2 8142   3.244   2.592  12.187 -0.7212  0.8843 -0.4102
  549TMC3    C3 8143   3.113   2.590  12.231  1.0949  0.0148  0.8450
  549TMC3    C4 8144   3.276   2.378  12.277  0.2253  0.0647 -0.3271
  549TMC3    C5 8145   3.143   2.374  12.304 -0.1194  0.2101 -0.3830
  549TMC3    C6 8146   3.053   2.478  12.277 -0.4569 -0.6908  0.2728
  549TMC3     C 8147   3.437   2.462  12.123 -0.3780  0.4034 -0.0108
  549TMC3     O 8148   3.526   2.395  12.175 -0.8114 -0.6090  0.3562
  549TMC3     H 8149   3.280   2.679  12.135  0.6888  0.5251 -0.0219
  549TMC3    H1 8150   3.329   2.284  12.268 -1.9092 -1.3562  1.9564
  549TMC3    H2 8151   2.956   2.481  12.324  0.5614 -0.6435  2.3793
  549TMC3    C7 8152   3.082   2.239  12.323  0.2636 -0.2761 -0.0995
  549TMC3    C8 8153   3.021   2.698  12.192 -0.0558  1.2093 -0.6134
  549TMC3    O1 8154   3.161   2.152  12.350  0.2656  0.2671 -0.0161
  549TMC3    O2 8155   2.901   2.665  12.193  0.6123 -0.0809 -0.8089
  550TMC3    C1 8156   1.978   4.504  12.318 -0.6857  0.9139  0.1257
  550TMC3    C2 8157   1.909   4.561  12.420 -0.4609  0.7405  0.2092
  550TMC3    C3 8158   1.770   4.582  12.404 -0.7934 -0.4670 -0.0842
  550TMC3    C4 8159   1.931   4.477  12.189 -0.8145  0.6864  0.6434
  550TMC3    C5 8160   1.795   4.496  12.182  0.3807 -0.3899  0.3595
  550TMC3    C6 8161   1.716   4.540  12.286  0.3983  0.1946 -0.3293
  550TMC3     C 8162   2.121   4.485  12.343 -0.7996 -0.1296 -0.6879
  550TMC3     O 8163   2.165   4.495  12.455  0.5049 -0.1193  0.1957
  550TMC3     H 8164   1.969   4.605  12.499  1.3889 -1.1160 -0.1597
  550TMC3    H1 8165   1.980   4.448  12.097 -1.1033 -1.2960  1.1054
  550TMC3    H2 8166   1.612   4.571  12.275  0.8613  2.2465  1.1102
  550TMC3    C7 8167   1.726   4.524  12.058  0.4211 -0.2616 -0.1933
  550TMC3    C8 8168   1.741   4.725  12.412  0.3780  0.2676 -0.0838
  550TMC3    O1 8169   1.604   4.525  12.059 -0.0366 -0.2196 -0.3404
  550TMC3    O2 8170   1.713   0.065  12.311  0.1182 -0.0277  0.6893
  551TMC3    C1 8171   4.255   2.682  13.301  0.3879  0.0576  0.2486
  551TMC3    C2 8172   4.374   2.621  13.263  0.3076 -0.5431 -0.2681
  551TMC3    C3 8173   4.477   2.618  13.351 -0.2920 -0.0388  0.4707
  551TMC3    C4 8174   4.245   2.752  13.415  0.0819  0.5286 -0.2121
  551TMC3    C5 8175   4.347   2.741  13.502 -0.1966 -1.0651  0.1852
  551TMC3    C6 8176   4.461   2.670  13.476 -0.0497  0.7048 -0.1011
  551TMC3     C 8177   4.156   2.688  13.190 -0.7561  0.3326 -0.3667
  551TMC3     O 8178   4.190   2.674  13.071 -0.0916  0.0596  0.2936
  551TMC3     H 8179   4.379   2.570  13.168  0.1658  0.2841 -0.7251
  551TMC3    H1 8180   4.163   2.820  13.437 -0.4792  0.2942 -1.6042
  551TMC3    H2 8181   4.538   2.653  13.550 -0.2343 -1.3469 -0.3862
  551TMC3    C7 8182   4.349   2.827  13.624 -0.2971  0.2669  0.1198
  551TMC3    C8 8183   4.602   2.665  13.297  0.4247  0.6880 -0.2973
  551TMC3    O1 8184   4.418   2.791  13.723  0.2651  0.6847 -0.4301
  551TMC3    O2 8185   4.700   2.602  13.329 -0.5852  0.5317  0.0351
  552MPD2     C 8186   1.608   0.145  14.063  0.2316 -0.0477 -0.1877
  552MPD2    C1 8187   1.626   0.019  14.121  0.2393  0.3769 -0.5488
  552MPD2    C2 8188   1.682   0.004  14.249  0.1796  0.0575 -0.0265
  552MPD2    C3 8189   1.742   0.110  14.318  0.5419 -0.3129  0.1652
  552MPD2    C4 8190   1.739   0.234  14.248 -0.2609  0.3774 -0.9907
  552MPD2    C5 8191   1.673   0.254  14.126 -0.2928 -0.0420 -0.4815
  552MPD2     H 8192   1.681   4.629  14.291 -0.9169 -0.7886 -2.1015
  552MPD2    H1 8193   1.779   0.319  14.302 -3.3366  1.2887 -0.1590
  552MPD2    H2 8194   1.563   0.155  13.965 -1.1446 -1.1753  0.3154
  552MPD2    H3 8195   1.650   0.357  14.102  0.6754 -0.1956 -2.1012
  552MPD2     N 8196   1.808   0.102  14.435  0.2503  0.6051  0.1372
  552MPD2    H5 8197   1.848   0.187  14.472  0.8655  0.3193  0.1194
  552MPD2    N1 8198   1.562   4.625  14.070  0.4179  0.2500 -0.4558
  552MPD2    H7 8199   1.578   4.535  14.115  1.0250  0.8636  0.5598
  553TMC3    C1 8200   1.453   4.489  13.932 -0.6813 -0.4019 -0.5800
  553TMC3    C2 8201   1.487   4.460  13.797 -0.3967  0.0231 -0.4233
  553TMC3    C3 8202   1.535   4.339  13.764 -0.6552  0.2462  0.1302
  553TMC3    C4 8203   1.489   4.399  14.028  0.8135  0.3394 -0.1611
  553TMC3    C5 8204   1.553   4.288  13.992 -0.2217 -0.3290  0.5494
  553TMC3    C6 8205   1.569   4.248  13.859  0.3327 -0.7589 -0.1408
  553TMC3     C 8206   1.475   4.626  13.967  0.0883 -0.1590  0.2693
  553TMC3     O 8207   1.451   4.708  13.882  0.4212 -0.1897  0.4286
  553TMC3     H 8208   1.496   4.540  13.724  1.4979  0.8356  0.7003
  553TMC3    H1 8209   1.468   4.419  14.132 -0.7810 -0.1757 -0.3783
  553TMC3    H2 8210   1.624   4.158  13.835 -0.8389 -1.2749 -0.8899
  553TMC3    C7 8211   1.679   4.278  14.070  0.3106 -0.9723  0.1782
  553TMC3    C8 8212   1.604   4.325  13.636  0.4287 -0.2279  0.4720
  553TMC3    O1 8213   1.698   4.371  14.149 -0.1166  0.0372  0.4053
  553TMC3    O2 8214   1.703   4.252  13.653  0.4330 -0.5608 -0.1216
  554TMC3    C1 8215   2.817   3.766  11.479 -0.0132 -0.6198 -0.1558
  554TMC3    C2 8216   2.762   3.671  11.394  0.0849 -0.6042 -0.3753
  554TMC3    C3 8217   2.818   3.666  11.272  0.1970 -0.2209  0.4392
  554TMC3    C4 8218   2.931   3.835  11.456  0.0568 -0.2700 -0.0069
  554TMC3    C5 8219   2.979   3.831  11.327 -0.0613  0.3014  0.0206
  554TMC3    C6 8220   2.929   3.742  11.242  0.0874  0.5688  0.3764
  554TMC3     C 8221   2.798   3.718  11.615 -0.3400  0.5210 -0.4655
  554TMC3     O 8222   2.691   3.670  11.648  0.1321 -0.4479 -0.3784
  554TMC3     H 8223   2.674   3.615  11.425 -0.3688 -0.0822 -0.6965
  554TMC3    H1 8224   2.969   3.904  11.531 -0.2523 -0.4660  0.3278
  554TMC3    H2 8225   2.979   3.727  11.147  0.4019  1.7470  0.3549
  554TMC3    C7 8226   3.069   3.927  11.271  0.5824  0.9488  0.2590
  554TMC3    C8 8227   2.741   3.608  11.166  0.0734 -0.1911  0.3433
  554TMC3    O1 8228   3.075   3.948  11.150  0.1910 -0.4582  0.2260
  554TMC3    O2 8229   2.634   3.555  11.196 -0.8168 -0.4866  0.0804
  555TMC3    C1 8230   2.360   3.295  15.187 -0.4944  0.5991 -0.4807
  555TMC3    C2 8231   2.361   3.343  15.318 -0.2473 -0.4237  0.2648
  555TMC3    C3 8232   2.405   3.268  15.422 -0.1239  0.2478 -0.1063
  555TMC3    C4 8233   2.423   3.175  15.160 -0.4356  0.4535  0.4330
  555TMC3    C5 8234   2.472   3.104  15.270  0.0939  0.2352 -0.4725
  555TMC3    C6 8235   2.467   3.147  15.398 -0.0786  0.9327  0.1241
  555TMC3     C 8236   2.369   3.400  15.090 -0.8339  0.9422  0.7038
  555TMC3     O 8237   2.440   3.492  15.121 -0.0313  0.5419  0.4874
  555TMC3     H 8238   2.333   3.445  15.343  1.0946  0.4186 -1.6428
  555TMC3    H1 8239   2.421   3.129  15.061 -0.9527 -0.6523  0.9633
  555TMC3    H2 8240   2.496   3.091  15.487  0.6672  0.8164 -0.1926
  555TMC3    C7 8241   2.544   2.978  15.258  0.1021 -0.6430  0.0588
  555TMC3    C8 8242   2.392   3.326  15.555 -0.3190 -0.1322 -0.5365
  555TMC3    O1 8243   2.543   2.908  15.359 -0.0321 -0.4776 -0.3907
  555TMC3    O2 8244   2.296   3.405  15.559  0.0958 -0.2608  0.0075
  556MPD2     C 8245   0.540   0.422  10.372  0.4312  0.2119 -0.0197
  556MPD2    C1 8246   0.525   0.301  10.433 -0.3138  0.0954  0.4448
  556MPD2    C2 8247   0.438   0.204  10.374 -0.5415  0.1846 -0.3771
  556MPD2    C3 8248   0.377   0.223  10.255 -0.1331 -0.4412 -0.4193
  556MPD2    C4 8249   0.399   0.348  10.195  0.7572  0.0431  0.4047
  556MPD2    C5 8250   0.480   0.443  10.255  0.6593 -0.3585  0.8906
  556MPD2     H 8251   0.435   0.102  10.412  0.8851 -0.0579 -0.9149
  556MPD2    H1 8252   0.346   0.374  10.104 -1.6406  0.3867  1.9201
  556MPD2    H2 8253   0.585   0.509  10.418 -1.5480  1.1667  0.1043
  556MPD2    H3 8254   0.495   0.542  10.214 -0.1929 -1.1145 -1.2606
  556MPD2     N 8255   0.301   0.126  10.185  0.4338  0.4727 -0.2342
  556MPD2    H5 8256   0.302   0.034  10.228  1.1759 -0.1264 -1.5578
  556MPD2    N1 8257   0.592   0.271  10.552 -0.5705 -0.3907  0.3890
  556MPD2    H7 8258   0.572   0.178  10.588  0.7144 -0.8508 -0.0855
  557TMC3    C1 8259   0.153   0.015  10.015  0.1281 -1.0564 -0.1065
  557TMC3    C2 8260   0.051   0.034   9.925 -0.4103  0.1631 -0.2456
  557TMC3    C3 8261   0.001   4.643   9.866 -0.0711 -0.1810 -0.8801
  557TMC3    C4 8262   0.202   4.622  10.048 -0.7650  0.9100  0.5074
  557TMC3    C5 8263   0.151   4.515   9.985  0.0787 -0.0956 -0.2197
  557TMC3    C6 8264   0.050   4.519   9.889  0.3534  0.7990  0.2907
  557TMC3     C 8265   0.212   0.136  10.075  0.3175  0.5185 -0.1791
  557TMC3     O 8266   0.176   0.237  10.015  0.0949  0.4647  0.0213
  557TMC3     H 8267   0.009   0.131   9.905 -1.9890 -0.4323  0.1488
  557TMC3    H1 8268   0.289   4.623  10.112 -1.8986  1.0141  2.0712
  557TMC3    H2 8269   4.723   4.430   9.857 -1.2924  2.0399 -0.4810
  557TMC3    C7 8270   0.162   4.386  10.047 -0.1257  0.1326  0.5412
  557TMC3    C8 8271   4.631   4.663   9.757  0.7929  1.0751  0.0438
  557TMC3    O1 8272   0.059   4.323  10.055  0.2308 -0.1845  0.3579
  557TMC3    O2 8273   4.555   0.033   9.743  0.2423  0.0257 -0.0581
  558TMC3    C1 8274   3.085   3.189  10.133 -0.2590 -0.3447  0.3777
  558TMC3    C2 8275   2.974   3.105  10.152 -0.1332 -0.4699 -0.2580
  558TMC3    C3 8276   2.879   3.111  10.053 -0.4817 -0.3589  0.5697
  558TMC3    C4 8277   3.093   3.271  10.022 -0.6157 -0.2069 -0.3878
  558TMC3    C5 8278   3.000   3.260   9.919  0.6126  0.1729  0.1037
  558TMC3    C6 8279   2.886   3.189   9.941  0.5318 -0.0394 -0.4700
  558TMC3     C 8280   3.200   3.179  10.228  0.5709 -0.4813 -0.3880
  558TMC3     O 8281   3.289   3.259  10.217  0.0018  0.2452 -0.8425
  558TMC3     H 8282   2.957   3.056  10.247  1.3696 -0.7513 -0.1297
  558TMC3    H1 8283   3.175   3.340  10.010 -0.5847 -0.2027 -0.1449
  558TMC3    H2 8284   2.818   3.155   9.864 -1.8229 -0.7019  1.9045
  558TMC3    C7 8285   3.018   3.334   9.796 -0.3806 -0.0203  0.2547
  558TMC3    C8 8286   2.778   3.004  10.049  0.8616  0.4420 -0.1047
  558TMC3    O1 8287   3.084   3.434   9.798  0.1758  0.1683 -0.4731
  558TMC3    O2 8288   2.683   3.010   9.970  0.4577  0.2562  0.1674
  559MPD2     C 8289   2.909   3.479  10.289 -0.2223 -0.1100  0.5864
  559MPD2    C1 8290   2.847   3.370  10.344 -0.3116  1.2912 -0.5076
  559MPD2    C2 8291   2.904   3.311  10.455  0.4175  0.6000  0.3619
  559MPD2    C3 8292   3.017   3.354  10.514 -0.2764  0.3974 -0.4706
  559MPD2    C4 8293   3.081   3.460  10.458 -0.1498 -1.0395 -0.8235
  559MPD2    C5 8294   3.022   3.520  10.347 -0.0592 -0.4816  0.0776
  559MPD2     H 8295   2.849   3.233  10.505 -0.1362 -1.0778 -2.8476
  559MPD2    H1 8296   3.158   3.518  10.508 -1.9981  0.0786  0.7728
  559MPD2    H2 8297   2.869   3.529  10.201 -1.5106  0.5039  1.5240
  559MPD2    H3 8298   3.081   3.602  10.309 -0.4423 -0.3952 -0.3201
  559MPD2     N 8299   3.075   3.286  10.626 -0.4124  0.0803  0.1321
  559MPD2    H5 8300   3.030   3.201  10.659  2.0138 -1.6469 -0.9683
  559MPD2    N1 8301   2.716   3.338  10.295 -1.1349 -0.2048  0.1024
  559MPD2    H7 8302   2.681   3.403  10.225  0.4303  1.0716  0.4841
  560TMC3    C1 8303   3.224   3.240  10.795 -0.3553 -0.4349 -0.5370
  560TMC3    C2 8304   3.215   3.105  10.773  0.9284  0.1573  0.4522
  560TMC3    C3 8305   3.262   3.026  10.879  0.4903 -0.1531 -0.0564
  560TMC3    C4 8306   3.303   3.293  10.897  0.4159 -0.2379  0.2154
  560TMC3    C5 8307   3.358   3.204  10.986 -0.3253 -0.7595 -0.2265
  560TMC3    C6 8308   3.331   3.075  10.982  0.7873  0.0764  0.3478
  560TMC3     C 8309   3.185   3.334  10.695  0.3546  0.0030 -0.8049
  560TMC3     O 8310   3.240   3.444  10.700  0.6085 -0.5409  0.8113
  560TMC3     H 8311   3.164   3.065  10.686 -1.6280  3.5855  0.3433
  560TMC3    H1 8312   3.309   3.400  10.908 -0.9856  0.0320 -1.6148
  560TMC3    H2 8313   3.389   3.010  11.046  2.5006 -0.9429 -2.2442
  560TMC3    C7 8314   3.434   3.262  11.097 -0.3348 -0.4582 -0.8356
  560TMC3    C8 8315   3.249   2.884  10.852  0.0934 -0.3401 -0.8952
  560TMC3    O1 8316   3.432   3.209  11.207 -0.0480 -0.3030  0.2108
  560TMC3    O2 8317   3.137   2.847  10.819 -0.3567  0.1740 -0.6019
  561TMC3    C1 8318   1.265   2.461  11.285 -0.3273  0.3793 -0.3136
  561TMC3    C2 8319   1.175   2.385  11.346 -0.0869  0.3811 -0.1499
  561TMC3    C3 8320   1.047   2.429  11.349  0.7500  0.1468 -0.5754
  561TMC3    C4 8321   1.234   2.577  11.221 -0.0934 -0.1462  0.6294
  561TMC3    C5 8322   1.109   2.617  11.230 -0.2467 -0.4635  0.3326
  561TMC3    C6 8323   1.006   2.547  11.300 -0.0562  0.2332  0.1276
  561TMC3     C 8324   1.403   2.426  11.285  1.2332  0.1852  0.8296
  561TMC3     O 8325   1.418   2.304  11.301 -0.9394  0.2788  0.3939
  561TMC3     H 8326   1.201   2.293  11.398  0.4775  1.3423  1.2619
  561TMC3    H1 8327   1.311   2.627  11.164 -1.2538 -1.2451 -1.9042
  561TMC3    H2 8328   0.904   2.581  11.316  0.2794  1.2157  0.1787
  561TMC3    C7 8329   1.075   2.755  11.209 -0.1865  0.4659  0.0343
  561TMC3    C8 8330   0.958   2.344  11.426  0.7580  0.2812  0.0282
  561TMC3    O1 8331   0.978   2.785  11.274 -0.2011  0.3016  0.0263
  561TMC3    O2 8332   0.975   2.221  11.416  0.2712  0.1335 -0.5382
  562TMC3    C1 8333   2.133   3.658  16.519 -0.4126  0.1377  0.0688
  562TMC3    C2 8334   2.111   3.784  16.471  0.7145 -0.6454  0.3956
  562TMC3    C3 8335   2.044   3.805  16.352  0.3641 -0.1327  0.0572
  562TMC3    C4 8336   2.100   3.555  16.437  0.1330 -0.0434  0.3250
  562TMC3    C5 8337   2.052   3.580  16.307  0.1179  0.4184 -0.5123
  562TMC3    C6 8338   2.026   3.704  16.260  0.2031 -0.2502  0.1191
  562TMC3     C 8339   2.183   3.639  16.652 -0.4227 -0.2836 -0.2181
  562TMC3     O 8340   2.158   3.535  16.708 -0.4192  0.1222 -0.0777
  562TMC3     H 8341   2.121   3.876  16.528 -0.9313  1.5262 -2.7324
  562TMC3    H1 8342   2.111   3.454  16.475  1.5870  0.1865  0.5187
  562TMC3    H2 8343   1.973   3.730  16.169 -1.2518  2.1926  1.6638
  562TMC3    C7 8344   2.032   3.470  16.214 -1.2239 -0.0900 -0.0618
  562TMC3    C8 8345   1.964   3.929  16.339  0.1401  0.5558 -0.1115
  562TMC3    O1 8346   1.959   3.485  16.116  0.1340  0.0919 -0.1784
  562TMC3    O2 8347   1.942   3.996  16.441  0.5034  0.1207  0.1051
  563MPD2     C 8348   0.132   0.090  15.470  0.3216  0.1451  0.1442
  563MPD2    C1 8349   0.160   0.218  15.436  0.5012 -0.5038  0.4458
  563MPD2    C2 8350   0.285   0.271  15.467  0.2638  0.4127 -0.2256
  563MPD2    C3 8351   0.380   0.199  15.533 -0.3581 -0.1535  0.0041
  563MPD2    C4 8352   0.354   0.072  15.563  0.3764  0.4224 -0.2553
  563MPD2    C5 8353   0.224   0.021  15.538  0.2460 -0.1720  0.5797
  563MPD2     H 8354   0.305   0.374  15.440 -1.4782  0.7900 -0.0556
  563MPD2    H1 8355   0.424   0.019  15.627  1.3086  3.6600  1.4138
  563MPD2    H2 8356   0.031   0.049  15.468  0.3265  0.1554 -0.2989
  563MPD2    H3 8357   0.202   4.650  15.583 -0.3265  0.2324  1.1702
  563MPD2     N 8358   0.496   0.267  15.579 -0.2484  0.5189 -0.2093
  563MPD2    H5 8359   0.513   0.366  15.565  0.6855  0.6022  1.5996
  563MPD2    N1 8360   0.052   0.298  15.391 -0.1557 -0.3739  0.1449
  563MPD2    H7 8361   4.685   0.262  15.416 -0.1948 -0.1776  0.2823
  564TMC3    C1 8362   4.713   0.509  15.445 -0.1150 -0.1671 -0.4568
  564TMC3    C2 8363   4.586   0.460  15.460  0.0532 -0.6234  0.5426
  564TMC3    C3 8364   4.535   0.442  15.585  0.1087 -0.2265  0.1830
  564TMC3    C4 8365   0.061   0.534  15.559 -0.6203 -0.0041 -0.4696
  564TMC3    C5 8366   0.018   0.512  15.685 -0.6977  0.2249 -0.5259
  564TMC3    C6 8367   4.611   0.471  15.698  0.0201  0.1304  0.2254
  564TMC3     C 8368   0.066   0.430  15.347  0.1953 -0.6194  0.4320
  564TMC3     O 8369   0.167   0.489  15.318  0.0592  0.7450  0.6012
  564TMC3     H 8370   4.532   0.466  15.366 -1.0724 -0.9275  1.1616
  564TMC3    H1 8371   0.164   0.563  15.543 -1.4574  2.6503 -1.0777
  564TMC3    H2 8372   4.575   0.451  15.798 -0.0820 -0.1905  0.1265
  564TMC3    C7 8373   0.109   0.425  15.744  0.3895 -0.1411  0.0967
  564TMC3    C8 8374   4.461   0.319  15.606  0.1473  0.0342 -0.1765
  564TMC3    O1 8375   0.219   0.469  15.774 -0.1417 -0.0894 -0.1829
  564TMC3    O2 8376   4.469   0.272  15.721  0.5267 -0.5899 -0.1497
  565TMC3    C1 8377   0.490   1.380  10.337  0.4947  0.2456  0.6046
  565TMC3    C2 8378   0.524   1.310  10.447  0.2421  0.3275  0.1039
  565TMC3    C3 8379   0.485   1.176  10.445  0.4959 -0.0396  0.1523
  565TMC3    C4 8380   0.435   1.336  10.227  0.9354 -0.8821  0.8131
  565TMC3    C5 8381   0.394   1.201  10.225 -0.0743  0.5409  0.0225
  565TMC3    C6 8382   0.412   1.123  10.343  0.0832 -0.3808 -0.4193
  565TMC3     C 8383   0.541   1.514  10.335  0.4838  0.1210  0.1184
  565TMC3     O 8384   0.541   1.571  10.226  0.2836  0.4896  0.1564
  565TMC3     H 8385   0.577   1.348  10.533  1.3892  1.6049 -1.1497
  565TMC3    H1 8386   0.426   1.407  10.146 -0.5977 -1.8435  0.1355
  565TMC3    H2 8387   0.390   1.017  10.336 -2.2262  0.0951 -0.3163
  565TMC3    C7 8388   0.313   1.144  10.117 -0.0528  0.0272 -1.0198
  565TMC3    C8 8389   0.495   1.106  10.579 -0.0157 -0.3143 -0.0312
  565TMC3    O1 8390   0.266   1.030  10.133 -0.4485 -0.9386  0.2640
  565TMC3    O2 8391   0.534   1.175  10.669 -0.7096 -0.0762 -0.1373
  566MPD2     C 8392   1.755   2.775  13.980  0.3447 -1.0680 -0.2658
  566MPD2    C1 8393   1.759   2.889  13.901  0.9025 -0.3178  0.4819
  566MPD2    C2 8394   1.637   2.935  13.844 -1.0495  0.1043  0.7054
  566MPD2    C3 8395   1.514   2.871  13.869 -0.5523 -0.3243  0.6963
  566MPD2    C4 8396   1.508   2.769  13.958 -0.2597 -0.2566 -0.0735
  566MPD2    C5 8397   1.631   2.720  14.009 -0.0951  0.4321  1.0361
  566MPD2     H 8398   1.640   3.031  13.794  1.9587  0.0203  0.7363
  566MPD2    H1 8399   1.412   2.727  13.985 -0.3274 -1.8709 -2.8680
  566MPD2    H2 8400   1.841   2.728  14.027  0.0335 -0.9061  0.4654
  566MPD2    H3 8401   1.618   2.634  14.074 -0.5705  0.1647  0.5858
  566MPD2     N 8402   1.384   2.905  13.822  0.2445 -0.7379  0.0769
  566MPD2    H5 8403   1.311   2.871  13.884 -0.3779  2.7224  1.2270
  566MPD2    N1 8404   1.880   2.950  13.867 -0.5393  0.9669 -0.0044
  566MPD2    H7 8405   1.963   2.904  13.903 -0.1184 -0.7086 -3.1007
  567TMC3    C1 8406   2.042   3.076  13.733  0.5671 -0.3079  0.1336
  567TMC3    C2 8407   2.070   3.125  13.607  0.6663  0.4276 -0.1324
  567TMC3    C3 8408   2.201   3.172  13.578  0.1126  0.1660  0.3216
  567TMC3    C4 8409   2.137   3.076  13.836  0.6586  0.3285  0.3602
  567TMC3    C5 8410   2.264   3.119  13.801  1.0676 -0.0151  0.6157
  567TMC3    C6 8411   2.297   3.168  13.677 -0.4956  0.7706  0.2933
  567TMC3     C 8412   1.898   3.046  13.772 -0.4751  0.0059 -0.5142
  567TMC3     O 8413   1.825   3.091  13.683  0.3199  0.0604 -0.0763
  567TMC3     H 8414   1.993   3.137  13.532 -1.1207 -0.9367  1.4790
  567TMC3    H1 8415   2.100   3.037  13.930 -0.0497 -0.8060 -0.3798
  567TMC3    H2 8416   2.402   3.192  13.664 -0.2763  0.4213  1.3399
  567TMC3    C7 8417   2.359   3.138  13.912 -0.3696  0.1253 -0.8947
  567TMC3    C8 8418   2.197   3.273  13.476  0.0715  0.1238 -0.5072
  567TMC3    O1 8419   2.445   3.221  13.888 -0.0229  0.1966 -0.4317
  567TMC3    O2 8420   2.129   3.257  13.376  0.4230  0.3576 -0.3993
  568MPD2     C 8421   3.999   3.726  16.274  0.0019 -0.0113 -0.1446
  568MPD2    C1 8422   4.128   3.737  16.325 -0.0319 -0.5058  0.0174
  568MPD2    C2 8423   4.193   3.856  16.297  0.4009 -0.0713  0.8867
  568MPD2    C3 8424   4.140   3.946  16.209  0.1799  0.3522 -0.4924
  568MPD2    C4 8425   4.012   3.933  16.168 -0.2858 -0.3105 -0.3129
  568MPD2    C5 8426   3.948   3.820  16.195 -0.5821  0.0878  0.2571
  568MPD2     H 8427   4.293   3.878  16.332  1.0590 -1.1501 -0.3310
  568MPD2    H1 8428   3.966   3.997  16.094  1.0297  1.3906  0.3362
  568MPD2    H2 8429   3.947   3.631  16.284  0.7815 -0.4358 -0.0931
  568MPD2    H3 8430   3.853   3.808  16.145 -0.4283  3.4025 -0.7984
  568MPD2     N 8431   4.223   4.045  16.151 -0.1519  1.3683 -0.1224
  568MPD2    H5 8432   4.307   4.073  16.200 -0.9122  2.7945  0.3946
  568MPD2    N1 8433   4.183   3.620  16.380 -0.3219  0.0640 -0.2845
  568MPD2    H7 8434   4.128   3.535  16.391 -0.0683 -0.1098 -0.3633
  569TMC3    C1 8435   4.284   4.225  16.010 -0.1204  0.3176 -0.3359
  569TMC3    C2 8436   4.333   4.305  16.107  0.2493 -0.0905  0.1789
  569TMC3    C3 8437   4.412   4.418  16.076 -0.9522 -0.4540 -0.2349
  569TMC3    C4 8438   4.309   4.252  15.882 -0.1947  0.2996  0.1870
  569TMC3    C5 8439   4.378   4.368  15.854 -0.1088  0.1870  0.2058
  569TMC3    C6 8440   4.443   4.440  15.949 -0.2226 -0.6770  1.0989
  569TMC3     C 8441   4.186   4.118  16.040 -0.1079 -1.2160  0.2013
  569TMC3     O 8442   4.121   4.086  15.941  0.1796 -0.3714 -0.2090
  569TMC3     H 8443   4.302   4.291  16.209  0.6120 -0.4234  0.2429
  569TMC3    H1 8444   4.268   4.198  15.797 -1.2612  1.3147  0.0641
  569TMC3    H2 8445   4.507   4.521  15.916 -2.0878  0.8355  1.2385
  569TMC3    C7 8446   4.398   4.402  15.713 -0.1118  0.0637 -0.6155
  569TMC3    C8 8447   4.402   4.533  16.164  0.3287  0.4999  0.3076
  569TMC3    O1 8448   4.398   4.317  15.630 -0.0078  0.3479 -0.2452
  569TMC3    O2 8449   4.314   4.543  16.253  0.1112  0.3229 -0.0571
  570TMC3    C1 8450   3.873   2.866  15.955 -0.5474  0.8335  0.6236
  570TMC3    C2 8451   3.956   2.900  15.851 -0.7507 -0.3118  0.3845
  570TMC3    C3 8452   3.988   3.031  15.833 -0.4043 -0.2582  0.6116
  570TMC3    C4 8453   3.825   2.960  16.043  0.1684 -0.3811  0.3802
  570TMC3    C5 8454   3.850   3.091  16.012  0.7829 -0.0418 -0.2623
  570TMC3    C6 8455   3.935   3.129  15.912 -0.8479 -0.0170  0.2637
  570TMC3     C 8456   3.814   2.735  15.958  0.4898 -1.0099  0.5990
  570TMC3     O 8457   3.837   2.675  15.855 -0.1683 -0.1923 -0.8117
  570TMC3     H 8458   4.001   2.820  15.794 -2.7475 -0.2033 -1.3527
  570TMC3    H1 8459   3.764   2.940  16.131  0.6261 -0.2896  0.7204
  570TMC3    H2 8460   3.960   3.231  15.889 -2.6484  0.3237 -0.2138
  570TMC3    C7 8461   3.767   3.189  16.072 -0.3743 -0.0928 -0.3036
  570TMC3    C8 8462   4.109   3.057  15.761 -0.9836 -0.9912 -0.3410
  570TMC3    O1 8463   3.739   3.159  16.186  0.1609  0.7290 -0.4313
  570TMC3    O2 8464   4.128   3.000  15.655 -0.4487  0.4434  0.0407
  571MPD2     C 8465   2.124   3.780  17.212 -0.3908  0.1077 -0.0472
  571MPD2    C1 8466   1.989   3.790  17.256  0.3032 -0.1902  0.3007
  571MPD2    C2 8467   1.961   3.873  17.361  1.3071  0.5674 -0.3714
  571MPD2    C3 8468   2.054   3.950  17.428 -0.0038  0.1272 -0.6035
  571MPD2    C4 8469   2.186   3.933  17.382 -0.3727 -0.1291 -0.4486
  571MPD2    C5 8470   2.217   3.849  17.284  0.4024 -0.5362 -0.5735
  571MPD2     H 8471   1.860   3.891  17.396  0.9585  3.3449 -2.8164
  571MPD2    H1 8472   2.271   3.987  17.422  0.1844  0.2907 -2.1841
  571MPD2    H2 8473   2.155   3.714  17.132 -1.5881  0.2566 -0.6318
  571MPD2    H3 8474   2.318   3.848  17.245  1.1774 -1.2258  1.4290
  571MPD2     N 8475   2.018   4.048  17.527  0.0559  0.6243  0.9708
  571MPD2    H5 8476   1.921   4.047  17.555  0.3792 -0.7321  2.0275
  571MPD2    N1 8477   1.895   3.739  17.170  0.0515 -0.0959 -0.2097
  571MPD2    H7 8478   1.927   3.719  17.076  0.2444  0.9602 -0.3603
  572TMC3    C1 8479   2.040   4.205  17.702 -0.1675  0.1959 -0.0057
  572TMC3    C2 8480   1.909   4.160   0.038 -1.0926  0.1483  0.0137
  572TMC3    C3 8481   1.828   4.260   0.079 -0.2383  0.3481 -0.4492
  572TMC3    C4 8482   2.076   4.337   0.005  0.6356 -0.4886 -0.4888
  572TMC3    C5 8483   1.983   4.426   0.046 -0.1351  0.2905 -0.1828
  572TMC3    C6 8484   1.857   4.396   0.086 -0.3609  0.1522  0.3658
  572TMC3     C 8485   2.104   4.135  17.595 -0.5553  0.1536  0.8176
  572TMC3     O 8486   2.223   4.162  17.568  0.3418 -0.0980  0.6207
  572TMC3     H 8487   1.894   4.053   0.039 -1.2127  0.1271 -3.2682
  572TMC3    H1 8488   2.181   4.360  17.694  0.7670 -0.7108  0.1175
  572TMC3    H2 8489   1.783   4.473   0.102 -0.0224  0.3643  0.9108
  572TMC3    C7 8490   2.018   4.570   0.064 -0.1887  0.5857  0.4090
  572TMC3    C8 8491   1.685   4.223   0.104  0.6229  0.1616 -0.4856
  572TMC3    O1 8492   1.958   4.641   0.142 -0.1619 -0.4132 -0.1854
  572TMC3    O2 8493   1.653   4.113   0.067 -0.1511  0.1119  0.1124
  573MPD2     C 8494   1.839   0.171   1.050  0.0964  0.5834  0.2326
  573MPD2    C1 8495   1.945   0.261   1.044  0.5027 -0.3353  0.2796
  573MPD2    C2 8496   2.058   0.231   0.973 -0.0648  0.1345 -0.3114
  573MPD2    C3 8497   2.066   0.115   0.896  0.6091 -0.2666 -0.3374
  573MPD2    C4 8498   1.958   0.029   0.904  0.0620  0.1288 -0.4627
  573MPD2    C5 8499   1.847   0.056   0.979  0.7511  0.4048  0.0981
  573MPD2     H 8500   2.139   0.303   0.976 -0.4137  0.6046 -2.2268
  573MPD2    H1 8501   1.957   4.655   0.859 -0.5027 -0.9635  1.9420
  573MPD2    H2 8502   1.748   0.187   1.106 -1.1155 -0.9501 -1.2942
  573MPD2    H3 8503   1.758   4.720   0.979  1.4945 -0.6730 -1.5290
  573MPD2     N 8504   2.172   0.090   0.806  0.3886  0.5424  0.1414
  573MPD2    H5 8505   2.164   0.015   0.738  0.0669  0.9196 -0.2383
  573MPD2    N1 8506   1.936   0.387   1.112  0.1739  1.1282  0.6698
  573MPD2    H7 8507   1.856   0.401   1.174  0.1625  1.7297  0.5229
  574TMC3    C1 8508   2.380   0.163   0.708 -0.5480 -0.2036 -0.2991
  574TMC3    C2 8509   2.404   0.057   0.618 -0.4538  0.3731  0.8554
  574TMC3    C3 8510   2.508   0.073   0.533  0.5393 -0.0467 -0.7621
  574TMC3    C4 8511   2.455   0.278   0.706 -0.0418  0.3704 -0.4640
  574TMC3    C5 8512   2.550   0.298   0.614 -0.3098  0.3178 -0.0350
  574TMC3    C6 8513   2.569   0.196   0.523  0.3953  0.7185 -0.2194
  574TMC3     C 8514   2.295   0.152   0.827 -0.0699 -0.3499  0.2501
  574TMC3     O 8515   2.344   0.205   0.928 -0.5587 -0.1595 -0.0230
  574TMC3     H 8516   2.357   4.685   0.612  2.5477 -0.9640 -1.0463
  574TMC3    H1 8517   2.429   0.353   0.780  1.3903 -0.4403  0.8498
  574TMC3    H2 8518   2.657   0.200   0.460  0.3231  0.6448 -0.3248
  574TMC3    C7 8519   2.651   0.390   0.623  0.1330 -0.4567 -0.6740
  574TMC3    C8 8520   2.499   4.714   0.415 -0.4032 -0.3539 -0.4655
  574TMC3    O1 8521   2.760   0.360   0.573 -0.5778  0.2605  0.5172
  574TMC3    O2 8522   2.441   4.605   0.425  0.0102  0.3493  0.8856
  575TMC3    C1 8523   0.828   1.062  11.387 -0.0776 -1.1981 -0.7102
  575TMC3    C2 8524   0.750   0.985  11.471 -0.2599 -0.2458  0.0764
  575TMC3    C3 8525   0.642   0.915  11.424  0.5209 -0.1918  0.2660
  575TMC3    C4 8526   0.788   1.069  11.250 -0.4264 -0.1435  0.0945
  575TMC3    C5 8527   0.682   0.987  11.210  0.5135  0.5198 -0.1276
  575TMC3    C6 8528   0.603   0.915  11.292  0.0111 -0.1398 -0.0713
  575TMC3     C 8529   0.971   1.076  11.410  0.6848 -0.0565 -0.0552
  575TMC3     O 8530   1.031   0.979  11.449 -0.3777  0.0342  0.0960
  575TMC3     H 8531   0.794   0.974  11.569  1.3050 -0.0346 -0.6003
  575TMC3    H1 8532   0.860   1.112  11.181 -1.0569 -1.0947 -1.1684
  575TMC3    H2 8533   0.518   0.856  11.260 -1.3447  1.0074  1.4473
  575TMC3    C7 8534   0.657   0.979  11.071  0.5259  0.4145  0.2596
  575TMC3    C8 8535   0.601   0.802  11.505 -0.3730  0.7555 -0.2351
  575TMC3    O1 8536   0.696   1.066  10.999 -0.2673  1.0171 -0.2942
  575TMC3    O2 8537   0.541   0.712  11.458  0.8879 -0.4192 -0.1523
  576MPD2     C 8538   4.509   2.623  12.166 -0.6161  0.3812  0.1395
  576MPD2    C1 8539   4.546   2.735  12.103 -0.2969 -0.4280 -0.4948
  576MPD2    C2 8540   4.516   2.857  12.164 -1.1835 -0.5836  0.6259
  576MPD2    C3 8541   4.470   2.868  12.292 -0.8120  1.0318 -1.2649
  576MPD2    C4 8542   4.441   2.750  12.353 -0.2212 -0.1178  0.0888
  576MPD2    C5 8543   4.453   2.632  12.289 -0.2921  0.3741  0.3830
  576MPD2     H 8544   4.530   2.950  12.109  1.4849 -2.5946 -2.0624
  576MPD2    H1 8545   4.396   2.748  12.452  2.1034 -1.5922  1.1218
  576MPD2    H2 8546   4.519   2.520  12.132 -0.1208  0.3267  0.4573
  576MPD2    H3 8547   4.421   2.539  12.333 -2.1826  0.1397 -1.4870
  576MPD2     N 8548   4.441   2.997  12.337 -0.1445  0.0254  0.1118
  576MPD2    H5 8549   4.479   3.073  12.282  1.0583 -1.0308 -0.5313
  576MPD2    N1 8550   4.597   2.739  11.973 -0.6192  0.1095 -0.0609
  576MPD2    H7 8551   4.627   2.823  11.926  2.4688 -0.8429  0.2293
  577TMC3    C1 8552   4.710   2.634  11.790  0.3086  0.3472  0.0856
  577TMC3    C2 8553   0.098   2.574  11.833 -0.0602 -0.2739 -0.2583
  577TMC3    C3 8554   0.186   2.529  11.740 -0.8248 -0.1400  0.2490
  577TMC3    C4 8555   4.677   2.644  11.653 -0.1111  0.5107  0.7940
  577TMC3    C5 8556   0.046   2.622  11.567 -0.3678  0.2652 -0.2197
  577TMC3    C6 8557   0.167   2.562  11.604  0.1411  0.1763 -0.2795
  577TMC3     C 8558   4.613   2.623  11.899 -0.1923  0.1744  0.9093
  577TMC3     O 8559   4.566   2.511  11.915 -0.1621 -0.1361  0.1239
  577TMC3     H 8560   0.115   2.536  11.933  1.6788 -0.5367 -0.6632
  577TMC3    H1 8561   4.574   2.659  11.621  0.2129 -1.0927 -1.0014
  577TMC3    H2 8562   0.236   2.532  11.527 -0.0115 -1.2177  0.1323
  577TMC3    C7 8563   0.028   2.626  11.419  0.2808 -0.2558 -0.1897
  577TMC3    C8 8564   0.309   2.460  11.784 -0.0614  0.2465 -0.0563
  577TMC3    O1 8565   0.126   2.623  11.350  0.0558  0.1744 -0.2761
  577TMC3    O2 8566   0.290   2.386  11.885  0.6403  0.0423 -0.3517
  578MPD2     C 8567   3.011   2.562   0.466 -0.1754 -0.0611 -0.8170
  578MPD2    C1 8568   3.094   2.456   0.443 -0.3118 -0.8285  0.1091
  578MPD2    C2 8569   3.117   2.357   0.539  0.5767 -0.4514 -0.6877
  578MPD2    C3 8570   3.052   2.366   0.659  0.4193  0.6818 -0.4603
  578MPD2    C4 8571   2.968   2.473   0.686 -0.1470  0.1619 -0.7825
  578MPD2    C5 8572   2.945   2.565   0.583  0.3428 -0.0427 -0.1008
  578MPD2     H 8573   3.166   2.261   0.525  0.5327 -0.3353 -1.6107
  578MPD2    H1 8574   2.915   2.491   0.779  0.5725 -1.5489 -0.0343
  578MPD2    H2 8575   2.996   2.642   0.396 -4.1952  1.8290  2.2070
  578MPD2    H3 8576   2.861   2.631   0.601 -0.6099 -0.7517 -1.9448
  578MPD2     N 8577   3.083   2.266   0.748 -0.7322  0.2207 -0.4781
  578MPD2    H5 8578   3.166   2.215   0.718 -0.6460 -0.3875  0.7977
  578MPD2    N1 8579   3.167   2.460   0.321  1.0544 -0.1134  0.2198
  578MPD2    H7 8580   3.141   2.536   0.259 -0.8339 -0.6925  0.2971
  579TMC3    C1 8581   3.111   2.169   0.954  0.7609  0.9527  0.2954
  579TMC3    C2 8582   3.246   2.196   0.927  0.0491 -0.4283 -0.6679
  579TMC3    C3 8583   3.337   2.104   0.979 -0.2277  0.3620  0.3097
  579TMC3    C4 8584   3.067   2.061   1.019  0.2916  0.0742 -0.3869
  579TMC3    C5 8585   3.162   1.964   1.040 -0.8670  0.3706 -0.0808
  579TMC3    C6 8586   3.295   1.982   1.022  0.5614  0.3953  0.4163
  579TMC3     C 8587   3.022   2.240   0.867  0.0564 -0.1871  0.1330
  579TMC3     O 8588   2.905   2.263   0.905  0.0499  0.6364 -0.1899
  579TMC3     H 8589   3.282   2.292   0.893 -0.1659 -0.5255 -1.1727
  579TMC3    H1 8590   2.963   2.040   1.042  0.1358  1.7486  0.4620
  579TMC3    H2 8591   3.367   1.903   1.038 -0.1378 -0.4748 -0.7424
  579TMC3    C7 8592   3.131   1.833   1.096  0.0205  0.5238 -0.2309
  579TMC3    C8 8593   3.479   2.111   0.944  0.2403  0.6662 -0.4244
  579TMC3    O1 8594   3.217   1.770   1.155 -1.0138 -0.0321  0.4566
  579TMC3    O2 8595   3.545   2.008   0.927  0.3972 -0.1914  0.3575
  580TMC3    C1 8596   2.399   1.768  11.337  0.4643  0.6276 -0.2342
  580TMC3    C2 8597   2.462   1.752  11.218  0.8203  0.0785  0.2014
  580TMC3    C3 8598   2.564   1.669  11.198  0.1479  0.2167 -0.0026
  580TMC3    C4 8599   2.447   1.704  11.449  0.0757 -0.4060  0.5109
  580TMC3    C5 8600   2.547   1.614  11.421 -0.2562 -0.6894 -0.0706
  580TMC3    C6 8601   2.606   1.595  11.299 -0.0850  0.3436  0.0818
  580TMC3     C 8602   2.388   1.904  11.362 -0.0821  0.0242 -0.7162
  580TMC3     O 8603   2.464   1.944  11.448  0.1059  0.3237  0.2858
  580TMC3     H 8604   2.423   1.812  11.137  0.3440  0.1850  0.5067
  580TMC3    H1 8605   2.407   1.738  11.544 -2.6604  1.5762 -1.3248
  580TMC3    H2 8606   2.695   1.533  11.292  0.1292  0.5914  0.6419
  580TMC3    C7 8607   2.617   1.559  11.533  0.3750 -0.0585 -0.7227
  580TMC3    C8 8608   2.669   1.743  11.125  0.3792  0.2903 -0.3397
  580TMC3    O1 8609   2.625   1.619  11.642 -0.2218 -0.0180  0.1084
  580TMC3    O2 8610   2.636   1.815  11.034  0.0737  0.2373 -0.1988
  581MPD2     C 8611   0.451   1.154  14.829 -0.2142  0.1820 -0.2676
  581MPD2    C1 8612   0.459   1.257  14.920 -0.0776 -0.9622 -0.5311
  581MPD2    C2 8613   0.375   1.365  14.906  0.4850 -0.0950 -0.0228
  581MPD2    C3 8614   0.299   1.383  14.785 -0.1574  0.2241  0.5431
  581MPD2    C4 8615   0.316   1.289  14.688 -0.0446 -0.0453 -0.0993
  581MPD2    C5 8616   0.388   1.173  14.713 -0.5396  0.1982 -0.4652
  581MPD2     H 8617   0.356   1.429  14.991  0.4475 -0.2156  0.0600
  581MPD2    H1 8618   0.270   1.302  14.591 -0.6114  0.4441  0.2390
  581MPD2    H2 8619   0.508   1.066  14.856  1.7030  1.4016 -0.3123
  581MPD2    H3 8620   0.396   1.105  14.629  0.9965  1.0594 -1.0107
  581MPD2     N 8621   0.213   1.489  14.763  0.4509  0.3350 -0.4208
  581MPD2    H5 8622   0.211   1.568  14.826  0.3627  0.4016 -0.5074
  581MPD2    N1 8623   0.533   1.227  15.036 -0.4772  0.2197 -0.4775
  581MPD2    H7 8624   0.565   1.131  15.045  2.7417  0.9312 -3.8381
  582TMC3    C1 8625   0.583   1.260  15.267  0.1402 -0.1003  0.3736
  582TMC3    C2 8626   0.643   1.342  15.358 -0.1192  1.2525  0.6603
  582TMC3    C3 8627   0.581   1.359  15.479 -0.0200 -0.5240 -0.0774
  582TMC3    C4 8628   0.482   1.172  15.299  0.1856 -0.1718 -0.7054
  582TMC3    C5 8629   0.418   1.202  15.416 -0.1299 -0.3468 -1.1143
  582TMC3    C6 8630   0.468   1.289  15.512  0.7409 -0.0807  0.0792
  582TMC3     C 8631   0.573   1.315  15.131 -0.5459 -0.2500  0.0397
  582TMC3     O 8632   0.567   1.437  15.126  0.4609 -0.2984  0.7946
  582TMC3     H 8633   0.725   1.407  15.330  1.2431 -1.5426 -1.8477
  582TMC3    H1 8634   0.431   1.113  15.223 -1.0433 -0.9254  0.6859
  582TMC3    H2 8635   0.417   1.321  15.602 -0.1341  0.5511 -0.6385
  582TMC3    C7 8636   0.280   1.235  15.381  0.2778  0.3757 -0.3629
  582TMC3    C8 8637   0.661   1.421  15.587 -0.4613  0.0505 -0.1498
  582TMC3    O1 8638   0.221   1.145  15.325  0.0703  0.2434  0.1356
  582TMC3    O2 8639   0.602   1.436  15.694  0.6011 -0.0277  0.2005
  583MPD2     C 8640   0.507   3.640  16.115  0.6380 -0.0938 -0.0068
  583MPD2    C1 8641   0.599   3.545  16.173 -0.0881 -0.2387 -0.7115
  583MPD2    C2 8642   0.587   3.523  16.308  0.0037 -0.2436 -0.1260
  583MPD2    C3 8643   0.505   3.597  16.391  0.0705  0.2698  0.2127
  583MPD2    C4 8644   0.414   3.686  16.327 -0.6466  0.9195 -0.0202
  583MPD2    C5 8645   0.408   3.698  16.187 -0.0023 -0.4400 -0.1306
  583MPD2     H 8646   0.647   3.445  16.353 -1.8211 -0.6817  1.5365
  583MPD2    H1 8647   0.337   3.738  16.382  0.6429  3.4799 -0.6365
  583MPD2    H2 8648   0.509   3.654  16.008  1.0021 -2.8008 -0.3545
  583MPD2    H3 8649   0.336   3.765  16.142  1.0518  0.5427 -0.3592
  583MPD2     N 8650   0.508   3.570  16.528  0.0154  0.0886 -0.2334
  583MPD2    H5 8651   0.578   3.505  16.561  1.5707  0.4501 -2.7781
  583MPD2    N1 8652   0.692   3.466  16.100  0.1455 -0.1626  0.2731
  583MPD2    H7 8653   0.736   3.386  16.146  2.8259  0.2972 -1.4603
  584TMC3    C1 8654   0.460   3.596  16.760  0.2619 -0.2223  0.1378
  584TMC3    C2 8655   0.575   3.659  16.789 -0.7037 -0.2612  0.5606
  584TMC3    C3 8656   0.593   3.700  16.914  0.1060 -0.1236 -0.5156
  584TMC3    C4 8657   0.363   3.580  16.850  0.4633  0.6523  0.3383
  584TMC3    C5 8658   0.399   3.600  16.987 -1.0961 -0.0377 -0.1854
  584TMC3    C6 8659   0.508   3.667  17.015 -0.4741 -0.7993 -0.0755
  584TMC3     C 8660   0.416   3.611  16.619 -0.1683 -0.5098 -0.0162
  584TMC3     O 8661   0.302   3.636  16.592 -0.0355  0.2551 -0.0565
  584TMC3     H 8662   0.641   3.695  16.710  1.8452 -0.7628  2.4508
  584TMC3    H1 8663   0.272   3.526  16.829 -0.1207  2.4037 -1.6289
  584TMC3    H2 8664   0.536   3.672  17.120 -1.7142 -0.8497  0.2591
  584TMC3    C7 8665   0.321   3.547  17.099 -0.1341 -0.1409 -1.2613
  584TMC3    C8 8666   0.740   3.693  16.944 -0.4841 -0.3638 -0.1864
  584TMC3    O1 8667   0.310   3.624  17.196  0.1503  0.1580  0.5237
  584TMC3    O2 8668   0.807   3.614  16.877  0.5829  0.1365 -0.1068
  585MPD2     C 8669   4.067   2.517   0.262  0.5367 -0.4729 -0.1086
  585MPD2    C1 8670   4.158   2.524   0.163  0.6164  0.6238 -0.5074
  585MPD2    C2 8671   4.235   2.411   0.142 -0.3511  1.0728 -0.4270
  585MPD2    C3 8672   4.233   2.306   0.234 -0.1284  1.1619  0.1791
  585MPD2    C4 8673   4.140   2.305   0.338 -0.2628  0.3822 -0.6077
  585MPD2    C5 8674   4.056   2.408   0.346 -0.0683  0.0672 -0.4017
  585MPD2     H 8675   4.315   2.412   0.070 -0.1139 -1.1280 -0.2056
  585MPD2    H1 8676   4.142   2.230   0.416 -1.9893  0.6168 -0.3495
  585MPD2    H2 8677   3.996   2.596   0.286  1.2828  0.4841 -1.0113
  585MPD2    H3 8678   3.993   2.401   0.434 -0.0633 -0.8213 -0.4665
  585MPD2     N 8679   4.320   2.195   0.231  0.2362 -0.3590  0.5335
  585MPD2    H5 8680   4.304   2.116   0.293  0.4735 -1.7860 -1.2094
  585MPD2    N1 8681   4.176   2.649   0.089  0.7501  0.5052  0.6948
  585MPD2    H7 8682   4.116   2.728   0.111  0.1513 -0.1687  1.4944
  586TMC3    C1 8683   4.496   2.050   0.161 -0.3359 -0.4774  0.2008
  586TMC3    C2 8684   4.622   2.054   0.116  0.0053  0.3023 -0.2858
  586TMC3    C3 8685   4.701   1.937   0.138  0.9655 -0.4592  0.1496
  586TMC3    C4 8686   4.436   1.933   0.209 -0.6247 -0.2800 -0.6173
  586TMC3    C5 8687   4.519   1.824   0.229 -0.4004 -0.1852  0.0386
  586TMC3    C6 8688   4.654   1.815   0.194 -0.1035  0.0448 -0.6536
  586TMC3     C 8689   4.423   2.176   0.141 -0.3247 -1.0835 -0.3082
  586TMC3     O 8690   4.468   2.252   0.060 -0.3774  0.6034  0.6396
  586TMC3     H 8691   4.673   2.145   0.087 -1.0997  0.9883 -0.0827
  586TMC3    H1 8692   4.331   1.930   0.236 -0.0714  0.5654  1.6059
  586TMC3    H2 8693   4.724   1.741   0.231  0.1062  0.3094 -0.5196
  586TMC3    C7 8694   4.452   1.702   0.241 -0.1462  0.4803 -0.6016
  586TMC3    C8 8695   0.101   1.915   0.073 -0.0726 -0.0738 -0.1478
  586TMC3    O1 8696   4.331   1.705   0.244  0.1056  0.0028 -0.0318
  586TMC3    O2 8697   0.173   1.826   0.122  0.0505 -0.4695  0.1120
  587TMC3    C1 8698   2.213   0.460  16.277 -0.2175  0.6137  0.2498
  587TMC3    C2 8699   2.207   0.595  16.288 -0.2547  0.0436  0.2683
  587TMC3    C3 8700   2.326   0.665  16.250 -0.2251 -0.0550 -0.3292
  587TMC3    C4 8701   2.323   0.387  16.224  0.4058  0.4271 -0.1877
  587TMC3    C5 8702   2.436   0.460  16.211  0.8389  0.2692 -0.0035
  587TMC3    C6 8703   2.436   0.593  16.209 -0.5647 -0.0312  0.0397
  587TMC3     C 8704   2.092   0.388  16.240  0.5540  1.1243  0.3109
  587TMC3     O 8705   2.083   0.352  16.124  0.8485  0.0994 -0.1838
  587TMC3     H 8706   2.117   0.649  16.312 -0.6998  0.0228 -1.3614
  587TMC3    H1 8707   2.320   0.279  16.209  0.5163  0.4240 -0.1913
  587TMC3    H2 8708   2.527   0.646  16.182 -0.8560  0.3041 -0.2864
  587TMC3    C7 8709   2.571   0.396  16.217  0.2379 -1.0714 -0.2067
  587TMC3    C8 8710   2.337   0.804  16.272 -0.4135  0.3065  0.3021
  587TMC3    O1 8711   2.666   0.472  16.201  0.2894 -0.3572 -0.5280
  587TMC3    O2 8712   2.448   0.846  16.235  0.4821  0.3175 -0.0223
  588TMC3    C1 8713   3.997   3.469   9.446 -0.1451 -0.0757 -0.3381
  588TMC3    C2 8714   3.976   3.361   9.521  0.5414 -0.2003 -0.1015
  588TMC3    C3 8715   4.089   3.300   9.572 -0.4051  0.7002 -0.0080
  588TMC3    C4 8716   4.118   3.526   9.423  0.5701 -0.0985  0.1917
  588TMC3    C5 8717   4.228   3.463   9.475 -0.0251 -0.9500  0.4692
  588TMC3    C6 8718   4.216   3.348   9.547  0.8360 -0.0577  0.9874
  588TMC3     C 8719   3.894   3.571   9.459 -0.0646 -0.0320 -0.3342
  588TMC3     O 8720   3.779   3.534   9.431 -0.4336  0.2945  0.1332
  588TMC3     H 8721   3.879   3.330   9.557  0.7287 -2.0011 -1.1858
  588TMC3    H1 8722   4.125   3.621   9.371  1.1952  0.1007  0.6293
  588TMC3    H2 8723   4.302   3.284   9.564  0.0775 -0.9015  1.6404
  588TMC3    C7 8724   4.361   3.527   9.477 -0.0659 -0.1091 -0.1602
  588TMC3    C8 8725   4.068   3.178   9.645  0.2577 -1.2554 -0.1180
  588TMC3    O1 8726   4.451   3.463   9.530  0.4849  0.1701 -0.5077
  588TMC3    O2 8727   3.961   3.122   9.643 -0.1772  0.1629 -0.4583
  589TMC3    C1 8728   3.644   0.954   1.525 -0.5771  0.1185 -0.3670
  589TMC3    C2 8729   3.713   1.068   1.572 -0.3871  0.9558 -0.3954
  589TMC3    C3 8730   3.844   1.085   1.531 -0.2798 -0.2447  0.4143
  589TMC3    C4 8731   3.683   0.869   1.423  1.5150 -0.0464 -0.1915
  589TMC3    C5 8732   3.814   0.891   1.391  0.4581  0.4459 -0.7472
  589TMC3    C6 8733   3.898   0.991   1.444  0.1405 -0.2119 -0.1285
  589TMC3     C 8734   3.499   0.961   1.543  0.4449 -0.8855 -0.0166
  589TMC3     O 8735   3.431   0.876   1.488  0.3444 -0.2558 -0.2603
  589TMC3     H 8736   3.662   1.139   1.636  0.2268  2.4078 -1.4860
  589TMC3    H1 8737   3.625   0.782   1.393  1.7539 -0.6756  1.1687
  589TMC3    H2 8738   4.002   1.000   1.416  0.2985 -0.9584  0.2269
  589TMC3    C7 8739   3.891   0.783   1.321  0.5395 -0.0181  1.2056
  589TMC3    C8 8740   3.925   1.161   1.618 -0.0768  0.3346 -0.7223
  589TMC3    O1 8741   4.009   0.816   1.299  0.1551  0.1093 -0.0426
  589TMC3    O2 8742   3.867   1.206   1.713  0.2946  0.6626  0.0369
  590MPD2     C 8743   3.216   3.964  15.936 -0.4047  0.4603  0.3664
  590MPD2    C1 8744   3.183   4.089  15.990  0.0005  0.5627 -0.3805
  590MPD2    C2 8745   3.273   4.196  15.990 -0.3172 -0.4299 -0.3682
  590MPD2    C3 8746   3.392   4.177  15.928 -0.4156  0.0267 -0.4978
  590MPD2    C4 8747   3.420   4.047  15.881  0.3719  0.2657  0.3838
  590MPD2    C5 8748   3.332   3.945  15.873  0.4308  0.2460  0.9838
  590MPD2     H 8749   3.238   4.296  16.015  0.4949  0.3975 -2.5654
  590MPD2    H1 8750   3.518   4.028  15.838 -0.6328 -1.7730 -0.9595
  590MPD2    H2 8751   3.149   3.879  15.941  0.4840 -0.2694 -0.0039
  590MPD2    H3 8752   3.365   3.857  15.819 -1.2625 -0.3933  0.9888
  590MPD2     N 8753   3.478   4.288  15.910 -0.2262  0.2571 -0.2766
  590MPD2    H5 8754   3.446   4.376  15.948 -1.7007  0.1429 -1.2757
  590MPD2    N1 8755   3.051   4.096  16.040  0.1609 -0.3790  0.7035
  590MPD2    H7 8756   2.988   4.025  16.005  1.4927 -0.7169 -1.0632
  591TMC3    C1 8757   3.674   4.420  15.842  0.5298 -0.1213 -0.0028
  591TMC3    C2 8758   3.792   4.423  15.779 -0.0625  0.5167  0.2314
  591TMC3    C3 8759   3.846   4.549  15.752  0.7517  0.0262  0.4405
  591TMC3    C4 8760   3.603   4.536  15.866  0.1397 -0.0957  0.1547
  591TMC3    C5 8761   3.668   4.655  15.847 -0.2504  0.4758 -0.1926
  591TMC3    C6 8762   3.786   4.666  15.779  0.0189  0.1642  0.5206
  591TMC3     C 8763   3.599   4.293  15.831 -0.1363  0.1332 -0.4820
  591TMC3     O 8764   3.663   4.200  15.781  0.3680 -0.3544 -0.1187
  591TMC3     H 8765   3.853   4.337  15.755 -0.9958  0.7809 -3.0420
  591TMC3    H1 8766   3.498   4.532  15.895 -0.0864 -2.1538 -0.9420
  591TMC3    H2 8767   3.831   0.040  15.771  1.8260 -0.6772  0.2317
  591TMC3    C7 8768   3.588   0.054  15.882 -0.4063  0.7393 -0.4797
  591TMC3    C8 8769   3.972   4.544  15.683  0.6125 -1.0720 -0.0443
  591TMC3    O1 8770   3.490   0.027  15.954  0.0061 -0.1159  0.4130
  591TMC3    O2 8771   4.053   4.448  15.693  0.2569  0.3019  0.6205
  592MPD2     C 8772   4.034   1.491  10.795  0.3552  0.0685  0.0467
  592MPD2    C1 8773   3.983   1.551  10.905  0.0385  0.1812 -0.1120
  592MPD2    C2 8774   3.867   1.495  10.965  0.1597 -0.5433 -0.1793
  592MPD2    C3 8775   3.813   1.380  10.909 -0.3365  0.0221 -0.3757
  592MPD2    C4 8776   3.861   1.327  10.787  1.0583 -0.1012  0.3663
  592MPD2    C5 8777   3.974   1.381  10.735 -0.3324 -0.3010  0.3888
  592MPD2     H 8778   3.815   1.544  11.046  0.9615 -0.7663  0.4685
  592MPD2    H1 8779   3.812   1.242  10.739  2.9671 -0.6760 -0.5556
  592MPD2    H2 8780   4.117   1.532  10.739  1.6534 -0.3800  1.6332
  592MPD2    H3 8781   4.030   1.336  10.653 -3.3223 -0.8301 -1.3598
  592MPD2     N 8782   3.707   1.326  10.976  0.0246 -0.1820  0.1101
  592MPD2    H5 8783   3.686   1.355  11.071  1.9841 -2.4149  1.2515
  592MPD2    N1 8784   4.036   1.670  10.958  0.0085 -0.5614  0.4765
  592MPD2    H7 8785   4.109   1.711  10.901  0.4407 -0.4924  1.0758
  593TMC3    C1 8786   4.056   1.861  11.099  0.3364  0.3888 -0.5420
  593TMC3    C2 8787   4.074   1.897  11.227  0.2335 -0.2036  0.6795
  593TMC3    C3 8788   4.105   2.032  11.248 -0.0109  1.1633  0.6463
  593TMC3    C4 8789   4.079   1.944  10.991  0.0828 -0.2702  0.2530
  593TMC3    C5 8790   4.120   2.068  11.016 -0.2975 -0.0206  0.5593
  593TMC3    C6 8791   4.125   2.122  11.141  0.3656 -0.3838  0.6839
  593TMC3     C 8792   4.004   1.729  11.076 -0.4645  0.5087  0.8564
  593TMC3     O 8793   3.934   1.692  11.173 -0.0067 -0.0131  0.1712
  593TMC3     H 8794   4.037   1.838  11.311  0.0854  0.2582  0.9384
  593TMC3    H1 8795   4.077   1.910  10.888 -1.4986 -0.1983  0.2542
  593TMC3    H2 8796   4.171   2.219  11.150  0.7138 -0.5118  0.2755
  593TMC3    C7 8797   4.215   2.116  10.915  0.0218 -0.0047 -0.5997
  593TMC3    C8 8798   4.121   2.074  11.387 -0.5223 -0.0123 -0.1337
  593TMC3    O1 8799   4.209   2.231  10.873  0.3742 -0.4514 -0.1128
  593TMC3    O2 8800   4.117   1.983  11.471  0.2501 -0.3172  0.3730
  594MPD2     C 8801   2.595   4.652  14.759  0.6281 -0.6936 -0.1661
  594MPD2    C1 8802   2.515   0.009  14.686  0.5857 -0.4872  1.0581
  594MPD2    C2 8803   2.572   0.097  14.600 -0.0592  0.3915 -0.6089
  594MPD2    C3 8804   2.707   0.115  14.590  0.3368 -0.7247  0.2113
  594MPD2    C4 8805   2.786   0.049  14.688 -0.6904 -0.0217  0.6557
  594MPD2    C5 8806   2.724   4.674  14.764 -0.5721 -0.0431  0.0119
  594MPD2     H 8807   2.507   0.145  14.528 -3.8581 -2.1498  1.1563
  594MPD2    H1 8808   2.893   0.052  14.700 -0.7593  1.7991  0.7485
  594MPD2    H2 8809   2.546   4.582  14.824 -0.5706  1.1989  0.9694
  594MPD2    H3 8810   2.778   4.611  14.833 -0.4431  0.8096  0.6969
  594MPD2     N 8811   2.754   0.203  14.486  0.0032  0.2516  0.1572
  594MPD2    H5 8812   2.682   0.238  14.424  1.1060 -1.0598 -1.8843
  594MPD2    N1 8813   2.376   0.000  14.713  0.1001  0.1617  0.3473
  594MPD2    H7 8814   2.347   4.652  14.777  1.3170 -0.2247  0.4585
  595TMC3    C1 8815   3.072   0.392  14.200  0.9379  1.0037 -0.3398
  595TMC3    C2 8816   3.037   0.308  14.299  0.3411  0.6640  0.1366
  595TMC3    C3 8817   2.915   0.318  14.352 -0.4456  0.3829 -0.2686
  595TMC3    C4 8818   2.987   0.491  14.159 -0.6678  0.1002 -0.2915
  595TMC3    C5 8819   2.859   0.498  14.219 -0.3860 -0.5131 -0.8366
  595TMC3    C6 8820   2.830   0.409  14.316  0.0140 -0.7879 -0.5198
  595TMC3     C 8821   3.191   0.471  14.221 -0.2081  0.1860 -0.1316
  595TMC3     O 8822   3.167   0.563  14.295 -0.1223  0.0878  0.1442
  595TMC3     H 8823   3.104   0.236  14.345  1.2396  2.9123  2.3486
  595TMC3    H1 8824   3.023   0.545  14.073  3.1069 -1.8261  0.0762
  595TMC3    H2 8825   2.741   0.430  14.375  0.1765  1.1511 -0.9618
  595TMC3    C7 8826   2.785   0.618  14.206 -0.3916  0.2241 -0.2938
  595TMC3    C8 8827   2.889   0.238  14.470 -0.1630  0.2432  0.8480
  595TMC3    O1 8828   2.672   0.615  14.255 -0.3403  0.7957  0.4262
  595TMC3    O2 8829   2.984   0.200  14.540 -0.0595  0.2347 -0.6594
  596MPD2     C 8830   1.630   2.876  16.527 -0.2382 -0.0287 -0.2001
  596MPD2    C1 8831   1.561   2.984  16.468 -0.3405  0.0022 -0.2568
  596MPD2    C2 8832   1.542   2.984  16.332  0.4148  0.0654 -0.3310
  596MPD2    C3 8833   1.560   2.869  16.258 -0.1173  0.9272 -0.3395
  596MPD2    C4 8834   1.618   2.756  16.320  0.2348  0.1907  0.2680
  596MPD2    C5 8835   1.659   2.768  16.452 -0.0317  0.5632 -0.7760
  596MPD2     H 8836   1.497   3.077  16.300 -1.0741 -0.6355 -0.2744
  596MPD2    H1 8837   1.637   2.660  16.274  0.3944 -1.4298  3.7347
  596MPD2    H2 8838   1.668   2.887  16.628  0.4210 -0.2897 -0.4179
  596MPD2    H3 8839   1.719   2.692  16.501  0.3715  0.6657 -1.1148
  596MPD2     N 8840   1.527   2.859  16.120  0.0391  0.2519 -0.8280
  596MPD2    H5 8841   1.545   2.765  16.084 -0.2589 -0.7390  1.5837
  596MPD2    N1 8842   1.526   3.099  16.547 -0.3748 -0.4021  0.1657
  596MPD2    H7 8843   1.493   3.180  16.494 -1.9616 -0.6691  0.7535
  597TMC3    C1 8844   1.510   3.240  16.736 -0.1638  0.0984  0.0526
  597TMC3    C2 8845   1.450   3.333  16.650  0.0319 -0.1336 -0.1232
  597TMC3    C3 8846   1.387   3.441  16.702  0.0046 -0.1523  0.0987
  597TMC3    C4 8847   1.485   3.249  16.871 -0.2377 -0.2005 -0.9347
  597TMC3    C5 8848   1.401   3.347  16.919 -0.0533 -0.1983  0.0134
  597TMC3    C6 8849   1.358   3.445  16.833  0.2915 -0.3428 -0.7542
  597TMC3     C 8850   1.552   3.111  16.687  0.1388  0.6152  0.1595
  597TMC3     O 8851   1.574   3.029  16.776  0.2383  0.3952 -0.1432
  597TMC3     H 8852   1.464   3.328  16.543 -1.4491 -3.2813 -0.1626
  597TMC3    H1 8853   1.514   3.173  16.942  2.6442 -0.8251 -2.7849
  597TMC3    H2 8854   1.308   3.533  16.871 -1.2951 -2.0650  1.0878
  597TMC3    C7 8855   1.362   3.367  17.060  0.0282  0.2717  0.0798
  597TMC3    C8 8856   1.354   3.560  16.619 -0.0979  0.2269 -0.1588
  597TMC3    O1 8857   1.243   3.396  17.077  0.1668 -0.6188  1.0011
  597TMC3    O2 8858   1.293   3.657  16.667  0.3626  0.1778  0.8610
  598TMC3    C1 8859   0.411   0.010  15.151  0.0835  0.0527 -0.3638
  598TMC3    C2 8860   0.392   4.634  15.239 -0.1013  1.0001 -0.0529
  598TMC3    C3 8861   0.273   4.564  15.242  0.3168 -1.0820 -0.1618
  598TMC3    C4 8862   0.306   0.065  15.086  1.0224  0.9618  0.4737
  598TMC3    C5 8863   0.184   0.020  15.112  0.2136  0.7275  0.0863
  598TMC3    C6 8864   0.165   4.628  15.182  0.1234  0.0064 -0.5079
  598TMC3     C 8865   0.513   0.113  15.170 -0.0325 -1.7346 -0.2508
  598TMC3     O 8866   0.493   0.223  15.124 -0.1434  0.1312 -0.1372
  598TMC3     H 8867   0.468   4.603  15.310 -0.6536  2.1498  1.0275
  598TMC3    H1 8868   0.325   0.132  15.004  1.0250 -0.5736 -0.7851
  598TMC3    H2 8869   0.067   4.581  15.181 -0.6311  1.5569  0.4141
  598TMC3    C7 8870   0.067   0.096  15.065  0.0857 -0.1654 -0.2375
  598TMC3    C8 8871   0.248   4.466  15.343  0.6369 -0.1612  0.2203
  598TMC3    O1 8872   4.687   0.032  15.053  0.6752  0.1220  0.3526
  598TMC3    O2 8873   0.337   4.455  15.427 -0.0916  0.2345  0.2157
  599MPD2     C 8874   0.334   2.517  15.993 -0.7930 -0.0154  0.3789
  599MPD2    C1 8875   0.279   2.423  15.917 -0.1065 -0.2495 -0.5494
  599MPD2    C2 8876   0.140   2.436  15.891 -0.3633  0.5969  0.2239
  599MPD2    C3 8877   0.063   2.537  15.951  0.0564 -0.1935 -0.1534
  599MPD2    C4 8878   0.127   2.631  16.028 -0.2722  0.5316  0.9490
  599MPD2    C5 8879   0.262   2.616  16.048  0.1236 -0.3269  0.2935
  599MPD2     H 8880   0.077   2.364  15.840  1.7074 -1.7525  1.0235
  599MPD2    H1 8881   0.072   2.715  16.068 -0.4930 -0.6758  3.1992
  599MPD2    H2 8882   0.440   2.510  16.017 -1.6931 -2.9574  3.4521
  599MPD2    H3 8883   0.315   2.678  16.119  2.0677 -1.1917 -0.4205
  599MPD2     N 8884   4.650   2.549  15.941 -0.1259 -0.1138 -0.0783
  599MPD2    H5 8885   4.613   2.627  15.994 -1.7550 -0.8046 -0.1718
  599MPD2    N1 8886   0.356   2.313  15.864  0.2745 -0.4527  0.0958
  599MPD2    H7 8887   0.451   2.308  15.897  0.3094 -0.9452 -0.0723
  600TMC3    C1 8888   4.429   2.534  15.859  0.2936 -0.4300  0.5338
  600TMC3    C2 8889   4.338   2.451  15.797  0.2715  0.9575 -0.0129
  600TMC3    C3 8890   4.205   2.475  15.820  0.0583  0.8933  0.4665
  600TMC3    C4 8891   4.390   2.631  15.946  0.2667  0.3658  0.2463
  600TMC3    C5 8892   4.254   2.656  15.953 -0.6868 -0.9336  0.6231
  600TMC3    C6 8893   4.161   2.574  15.897  0.0029 -0.3185 -0.0167
  600TMC3     C 8894   4.565   2.480  15.859  0.2422  0.3892 -0.8996
  600TMC3     O 8895   4.592   2.399  15.768  0.4724  0.0003 -0.5281
  600TMC3     H 8896   4.370   2.371  15.732 -0.4077  0.2707  0.5057
  600TMC3    H1 8897   4.464   2.684  16.006 -0.0178 -0.2779  1.1444
  600TMC3    H2 8898   4.057   2.596  15.920  0.5791  1.7577  0.6585
  600TMC3    C7 8899   4.206   2.757  16.046 -1.0397 -0.6806 -0.6819
  600TMC3    C8 8900   4.117   2.391  15.749 -0.1814  0.3079 -0.2147
  600TMC3    O1 8901   4.104   2.735  16.106 -0.2555 -0.1004 -0.1925
  600TMC3    O2 8902   4.174   2.306  15.679 -0.5551 -0.3558  0.0277
  601MPD2     C 8903   2.201   0.261  17.541  0.2536  0.1047 -0.1434
  601MPD2    C1 8904   2.094   0.248  17.626  0.1286  0.3212  0.2191
  601MPD2    C2 8905   2.063   0.120  17.671  0.1374 -0.4033 -0.6981
  601MPD2    C3 8906   2.140   0.014  17.633 -0.2638  0.3700 -0.2428
  601MPD2    C4 8907   2.238   0.029  17.540 -0.1190 -0.2086 -0.0236
  601MPD2    C5 8908   2.270   0.153  17.494 -0.7471  0.3204 -0.0043
  601MPD2     H 8909   1.981   0.108   0.040  0.3645 -3.2315 -0.9336
  601MPD2    H1 8910   2.291   4.666  17.506  1.0161 -0.1859  1.7318
  601MPD2    H2 8911   2.225   0.357  17.497 -1.6793  0.7028  0.1360
  601MPD2    H3 8912   2.350   0.166  17.422  0.6958  0.8601  1.7047
  601MPD2     N 8913   2.106   4.606  17.672 -0.6062 -0.1381  0.1350
  601MPD2    H5 8914   2.152   4.529  17.623 -1.1557 -0.7523  0.5847
  601MPD2    N1 8915   2.016   0.354  17.662  0.2962  0.2558 -0.7079
  601MPD2    H7 8916   1.928   0.325   0.001 -0.1389  3.3885  0.5323
  602TMC3    C1 8917   1.908   0.560  17.634 -0.0382  0.3568 -0.3058
  602TMC3    C2 8918   1.911   0.700  17.640 -0.1250 -0.0688 -0.2842
  602TMC3    C3 8919   1.792   0.766  17.613  0.5465  0.3474 -0.0501
  602TMC3    C4 8920   1.803   0.497  17.571 -0.0095 -0.0622  0.0497
  602TMC3    C5 8921   1.686   0.568  17.554  0.5838  0.1011  0.2226
  602TMC3    C6 8922   1.678   0.698  17.579 -0.0119  0.0389  0.6649
  602TMC3     C 8923   2.034   0.484  17.629 -0.0804 -0.1428  0.2073
  602TMC3     O 8924   2.140   0.538  17.607  0.1399 -0.1689  0.6759
  602TMC3     H 8925   1.997   0.754  17.675 -0.9837  1.1077  0.0175
  602TMC3    H1 8926   1.804   0.391  17.549 -0.5055 -0.1115  0.2735
  602TMC3    H2 8927   1.579   0.744  17.580 -0.0123  0.0423 -0.0710
  602TMC3    C7 8928   1.578   0.496  17.490 -1.2228  0.2545  0.3254
  602TMC3    C8 8929   1.780   0.909  17.630  0.3178  0.5075 -0.3114
  602TMC3    O1 8930   1.576   0.374  17.492 -0.5384  0.4765  0.5223
  602TMC3    O2 8931   1.846   0.967   0.011  0.1805  0.9226  0.7914
  603TMC3    C1 8932   0.137   0.848  10.691 -0.0568 -0.5216  0.6180
  603TMC3    C2 8933   0.173   0.848  10.823 -0.1922  0.7076 -0.3014
  603TMC3    C3 8934   0.194   0.963  10.890 -0.3899 -0.5431 -0.5287
  603TMC3    C4 8935   0.123   0.959  10.616  0.1163  0.1852 -0.3942
  603TMC3    C5 8936   0.152   1.075  10.683 -0.0630  0.5122 -0.1091
  603TMC3    C6 8937   0.174   1.084  10.822  0.3314 -0.4638 -0.2121
  603TMC3     C 8938   0.123   0.720  10.634 -0.2483  0.8776  0.3226
  603TMC3     O 8939   0.070   0.724  10.520 -0.1216  0.5094  0.0903
  603TMC3     H 8940   0.177   0.759  10.886 -1.6348  1.0204  0.2356
  603TMC3    H1 8941   0.109   0.952  10.509  0.8463  1.6968 -0.5947
  603TMC3    H2 8942   0.187   1.182  10.867  0.4854 -0.6176  0.0762
  603TMC3    C7 8943   0.160   1.203  10.616 -0.2597 -0.6918  0.1863
  603TMC3    C8 8944   0.251   0.962  11.023 -0.0167  0.4054  0.5173
  603TMC3    O1 8945   0.205   1.298  10.674 -0.3915 -0.6874  0.2304
  603TMC3    O2 8946   0.236   0.855  11.083  0.3948 -0.5308  0.0937
  604MPD2     C 8947   0.603   4.143  15.847 -0.2273 -0.4742 -0.4752
  604MPD2    C1 8948   0.666   4.263  15.816  0.2183 -0.1384 -0.3431
  604MPD2    C2 8949   0.756   4.263  15.709 -0.2712  0.0353 -0.1774
  604MPD2    C3 8950   0.787   4.145  15.639 -0.2751  0.0053 -0.3731
  604MPD2    C4 8951   0.735   4.029  15.689 -0.6241 -0.4652  0.3807
  604MPD2    C5 8952   0.636   4.025  15.788  0.1970  0.0217  0.2120
  604MPD2     H 8953   0.809   4.355  15.686 -2.1112  0.5403 -2.4286
  604MPD2    H1 8954   0.747   3.935  15.636  1.1078 -0.7891  1.3442
  604MPD2    H2 8955   0.534   4.145  15.930 -0.1664 -0.3175 -0.4281
  604MPD2    H3 8956   0.590   3.930  15.815  0.6135  0.2334  1.6778
  604MPD2     N 8957   0.882   4.157  15.530 -0.1112 -0.2588 -0.3898
  604MPD2    H5 8958   0.899   4.253  15.503  1.0278 -0.5365 -0.6631
  604MPD2    N1 8959   0.642   4.382  15.888 -0.0979 -0.1043 -0.1867
  604MPD2    H7 8960   0.677   4.466  15.843  0.2869  0.9872  2.1756
  605TMC3    C1 8961   0.629   4.521  16.073 -0.1564 -0.1528 -0.6061
  605TMC3    C2 8962   0.657   4.534  16.206  0.2050 -0.0251 -0.5285
  605TMC3    C3 8963   0.636   4.651  16.273 -0.3378  0.3134  0.8526
  605TMC3    C4 8964   0.586   4.625  16.004  0.2752  0.4784 -1.0268
  605TMC3    C5 8965   0.579   0.023  16.069  0.6705  0.6769  0.2419
  605TMC3    C6 8966   0.615   0.039  16.198  0.8207  0.3203 -0.0752
  605TMC3     C 8967   0.613   4.389  16.018 -0.0541  0.0556  0.0486
  605TMC3     O 8968   0.584   4.298  16.096  0.2797 -0.0508  0.4360
  605TMC3     H 8969   0.696   4.445  16.255 -3.7442 -1.6896 -0.4546
  605TMC3    H1 8970   0.575   4.613  15.897 -0.0540  0.2028 -0.9636
  605TMC3    H2 8971   0.580   0.133  16.238  1.8431  0.4171  0.5778
  605TMC3    C7 8972   0.477   0.103  16.017  0.4550  0.4404  0.1498
  605TMC3    C8 8973   0.688   4.663  16.402 -0.6037  0.0954 -0.8767
  605TMC3    O1 8974   0.477   0.226  16.023  0.1056  0.2394 -0.2103
  605TMC3    O2 8975   0.739   0.041  16.441  0.0863 -0.7811 -0.3406
  606TMC3    C1 8976   2.097   2.179  17.013 -0.0271  0.1803 -0.0288
  606TMC3    C2 8977   2.219   2.182  17.069 -0.6434  0.5807  0.7116
  606TMC3    C3 8978   2.233   2.118  17.193  0.3558 -0.3150  0.1489
  606TMC3    C4 8979   1.985   2.125  17.076 -0.5017  0.1473 -0.2126
  606TMC3    C5 8980   2.005   2.074  17.204 -0.4500  0.0325  0.8189
  606TMC3    C6 8981   2.126   2.064  17.263  0.6134 -0.4470  0.8249
  606TMC3     C 8982   2.095   2.237  16.880  0.1343  0.2905  0.0324
  606TMC3     O 8983   2.196   2.225  16.807 -0.3393  0.5563 -0.2466
  606TMC3     H 8984   2.311   2.205  17.017 -1.0217 -0.3035 -0.3594
  606TMC3    H1 8985   1.884   2.122  17.037  0.0774  1.3108 -1.7811
  606TMC3    H2 8986   2.132   2.021  17.362 -0.5160 -1.0682  0.6227
  606TMC3    C7 8987   1.886   2.063  17.291 -0.2705  0.3139 -0.1326
  606TMC3    C8 8988   2.366   2.109  17.252  0.4504  0.1982 -0.4019
  606TMC3    O1 8989   1.914   2.009  17.395  0.0839  0.3131  0.5155
  606TMC3    O2 8990   2.437   2.207  17.231  0.2392 -0.5303 -0.4779
  607MPD2     C 8991   3.974   1.289  11.690  0.1663  0.3277 -0.3564
  607MPD2    C1 8992   4.065   1.382  11.732 -0.7993  0.6803  0.5004
  607MPD2    C2 8993   4.101   1.385  11.865  0.3886 -0.1523  0.2842
  607MPD2    C3 8994   4.048   1.288  11.953  0.6847  0.4023 -0.5003
  607MPD2    C4 8995   3.948   1.200  11.907 -0.6381  0.1196 -0.2815
  607MPD2    C5 8996   3.922   1.196  11.777  0.4822 -0.0029  0.2032
  607MPD2     H 8997   4.166   1.459  11.910 -0.3077 -0.5779  1.9933
  607MPD2    H1 8998   3.903   1.128  11.975 -0.3722  1.4484  1.3031
  607MPD2    H2 8999   3.944   1.273  11.587  0.2493 -0.0386 -0.3247
  607MPD2    H3 9000   3.850   1.125  11.739  1.0682  0.1250 -1.1407
  607MPD2     N 9001   4.095   1.303  12.083  0.4447 -0.4360  0.2835
  607MPD2    H5 9002   4.155   1.381  12.105 -1.9559  1.2755  0.6344
  607MPD2    N1 9003   4.129   1.481  11.648  0.5759 -0.3581  0.1784
  607MPD2    H7 9004   4.208   1.524  11.694  0.6380 -0.0695 -0.1913
  608TMC3    C1 9005   4.190   1.606  11.452 -0.8844 -0.0410 -0.2870
  608TMC3    C2 9006   4.234   1.704  11.528  0.0740 -0.5239 -0.6678
  608TMC3    C3 9007   4.346   1.774  11.487 -0.5190  0.1570  0.0848
  608TMC3    C4 9008   4.244   1.577  11.329 -0.2993 -0.0162 -0.6215
  608TMC3    C5 9009   4.322   1.668  11.274 -0.1957  0.3950  0.7990
  608TMC3    C6 9010   4.382   1.766  11.358  0.2533  0.1129  0.3083
  608TMC3     C 9011   4.110   1.495  11.509  0.3357  0.2960 -0.2163
  608TMC3     O 9012   4.061   1.415  11.429  0.2013  0.8355 -0.4928
  608TMC3     H 9013   4.191   1.729  11.624 -0.2437  0.4952 -1.0754
  608TMC3    H1 9014   4.201   1.498  11.269  0.3093 -0.1138 -0.9245
  608TMC3    H2 9015   4.453   1.834  11.313 -0.0043  0.4994  0.4850
  608TMC3    C7 9016   4.382   1.645  11.149 -1.0720  0.4832  0.0278
  608TMC3    C8 9017   4.441   1.825  11.585  0.6006 -0.8384 -0.4371
  608TMC3    O1 9018   4.346   1.714  11.057  0.9171 -0.0266 -0.2363
  608TMC3    O2 9019   4.548   1.861  11.540 -0.2068 -0.4314  0.1854
  609TMC3    C1 9020   2.484   0.607   9.135 -0.4836 -0.0456 -0.2471
  609TMC3    C2 9021   2.571   0.663   9.227  0.6815 -0.6645 -0.3242
  609TMC3    C3 9022   2.699   0.614   9.220  0.6161  0.3309 -0.0343
  609TMC3    C4 9023   2.515   0.510   9.043 -0.0627 -0.4832  0.4507
  609TMC3    C5 9024   2.644   0.458   9.048 -0.4640  0.3437  0.4236
  609TMC3    C6 9025   2.740   0.515   9.134  0.0325  0.5796 -0.8023
  609TMC3     C 9026   2.342   0.606   9.173  0.5358 -0.0164 -0.6738
  609TMC3     O 9027   2.274   0.520   9.122  0.4954  0.0151  0.0862
  609TMC3     H 9028   2.543   0.733   9.304 -1.5612  0.4661 -2.1482
  609TMC3    H1 9029   2.445   0.459   8.978 -1.1252  0.8433  0.5424
  609TMC3    H2 9030   2.843   0.480   9.135 -0.0692  0.3123 -0.1229
  609TMC3    C7 9031   2.664   0.326   8.994  0.1501  0.0740 -1.3302
  609TMC3    C8 9032   2.806   0.685   9.284 -0.5722  0.6668  0.4511
  609TMC3    O1 9033   2.586   0.285   8.907 -0.1751  0.2326 -0.6973
  609TMC3    O2 9034   2.921   0.641   9.270  0.0398 -0.1977 -0.1327
  610TMC3    C1 9035   4.103   1.620  13.320  0.2069  1.0540 -0.2000
  610TMC3    C2 9036   4.161   1.719  13.244  0.0792 -0.1679 -0.1765
  610TMC3    C3 9037   4.227   1.673  13.143 -0.2417 -0.2413  0.6463
  610TMC3    C4 9038   4.107   1.487  13.298  0.7388 -0.1601  0.3592
  610TMC3    C5 9039   4.187   1.449  13.198 -0.0403  0.0023  0.1337
  610TMC3    C6 9040   4.255   1.540  13.128 -0.3779 -0.0786  0.2954
  610TMC3     C 9041   3.988   1.665  13.400  0.1548  0.2134 -0.3237
  610TMC3     O 9042   3.906   1.578  13.415  0.0110 -0.5424 -0.1909
  610TMC3     H 9043   4.151   1.827  13.254  1.3801 -0.0056 -0.7431
  610TMC3    H1 9044   4.071   1.413  13.369 -2.0688 -1.0928 -2.0586
  610TMC3    H2 9045   4.322   1.499  13.053 -1.0107 -0.4797 -0.0539
  610TMC3    C7 9046   4.186   1.305  13.164 -0.8071 -0.2360  0.5042
  610TMC3    C8 9047   4.281   1.773  13.054  0.1529 -0.2214  0.0726
  610TMC3    O1 9048   4.293   1.267  13.115 -0.0364  0.0554 -0.3480
  610TMC3    O2 9049   4.260   1.888  13.075  0.3614 -0.2029 -0.9016
  611MPD2     C 9050   3.808   1.100  10.288  0.3202  0.9615  0.0226
  611MPD2    C1 9051   3.845   1.040  10.171 -0.8165 -0.3269  0.6450
  611MPD2    C2 9052   3.946   1.079  10.092  0.2548 -0.6095 -0.0645
  611MPD2    C3 9053   4.022   1.191  10.121 -0.4761  0.0303  0.0919
  611MPD2    C4 9054   3.988   1.259  10.243  0.0687 -1.1245  0.2476
  611MPD2    C5 9055   3.888   1.206  10.331 -0.9084 -0.3570 -0.1987
  611MPD2     H 9056   3.966   1.023  10.001  0.4969 -1.9428  0.7954
  611MPD2    H1 9057   4.036   1.346  10.287 -1.9063  0.9055 -1.5460
  611MPD2    H2 9058   3.720   1.084  10.348  0.4617  3.0779  0.8019
  611MPD2    H3 9059   3.870   1.257  10.425 -1.1028  2.2104 -1.6100
  611MPD2     N 9060   4.125   1.248  10.041  0.0309 -0.0923 -0.0813
  611MPD2    H5 9061   4.157   1.340  10.068 -0.3347  0.2251 -0.7511
  611MPD2    N1 9062   3.756   0.942  10.115 -0.2860  0.4761 -0.0401
  611MPD2    H7 9063   3.776   0.902  10.024  0.7945 -0.5934  0.6654
  612TMC3    C1 9064   4.272   1.247   9.865  0.5253 -0.2385  0.7415
  612TMC3    C2 9065   4.374   1.296   9.944 -0.1753  0.4833 -0.5375
  612TMC3    C3 9066   4.489   1.348   9.886 -0.0447 -0.5480 -0.1466
  612TMC3    C4 9067   4.267   1.273   9.728  0.0794 -0.0952  0.2169
  612TMC3    C5 9068   4.377   1.329   9.674  0.7361 -0.1955 -0.6690
  612TMC3    C6 9069   4.485   1.372   9.751  0.1073 -0.1717 -0.0996
  612TMC3     C 9070   4.152   1.196   9.923  0.5464 -0.2477 -0.1971
  612TMC3     O 9071   4.079   1.132   9.849 -0.0571 -0.4433 -0.4319
  612TMC3     H 9072   4.379   1.268  10.049  1.5297 -1.5495 -1.1503
  612TMC3    H1 9073   4.187   1.227   9.670 -1.3022  0.4626  1.6798
  612TMC3    H2 9074   4.574   1.421   9.714 -1.4421  1.8890 -1.0978
  612TMC3    C7 9075   4.352   1.390   9.545 -0.1580 -0.1942  0.2625
  612TMC3    C8 9076   4.604   1.404   9.960  0.2235  0.6154  0.1146
  612TMC3    O1 9077   4.254   1.346   9.485 -0.0115 -0.3488 -0.4856
  612TMC3    O2 9078   4.652   1.504   9.906 -0.4123  0.4556  0.2644
  613MPD2     C 9079   3.124   3.002  16.764  0.8780  0.4091  0.7494
  613MPD2    C1 9080   3.055   3.074  16.675  0.4320 -0.5846  0.2603
  613MPD2    C2 9081   2.948   3.023  16.612 -0.2403 -0.6036 -0.5365
  613MPD2    C3 9082   2.918   2.888  16.634  0.8148 -0.2304  0.6966
  613MPD2    C4 9083   2.993   2.806  16.719  0.4565 -0.3346 -0.2847
  613MPD2    C5 9084   3.098   2.870  16.783  0.1629 -0.4955  0.4209
  613MPD2     H 9085   2.895   3.087  16.542  1.5260 -1.7761 -2.9336
  613MPD2    H1 9086   2.953   2.708  16.739 -2.1308  0.0799 -3.6043
  613MPD2    H2 9087   3.195   3.051  16.830  0.6872  2.4378 -0.5468
  613MPD2    H3 9088   3.165   2.821  16.852 -0.8396  0.0146  1.7561
  613MPD2     N 9089   2.820   2.825  16.564  0.3823 -0.1867 -0.5767
  613MPD2    H5 9090   2.801   2.726  16.577  0.3745 -0.1226 -0.1115
  613MPD2    N1 9091   3.100   3.210  16.651 -0.3986  0.0479 -0.6435
  613MPD2    H7 9092   3.172   3.240  16.716 -0.8594 -1.6124  0.6617
  614TMC3    C1 9093   3.001   3.266  16.433  0.2064 -0.5050 -0.6635
  614TMC3    C2 9094   3.072   3.167  16.369  0.2863 -0.0563  0.9903
  614TMC3    C3 9095   3.037   3.121  16.243 -0.8332 -0.3386  0.5136
  614TMC3    C4 9096   2.903   3.334  16.368 -0.1281 -0.0543  0.5209
  614TMC3    C5 9097   2.875   3.294  16.241  0.4260  0.2703 -0.0169
  614TMC3    C6 9098   2.931   3.181  16.178  0.6720  0.0329 -0.0541
  614TMC3     C 9099   3.059   3.308  16.557  0.4895  0.1275  0.1336
  614TMC3     O 9100   3.075   3.430  16.578 -0.7602 -0.1243 -0.1277
  614TMC3     H 9101   3.151   3.111  16.418 -1.4222 -3.5917 -0.2834
  614TMC3    H1 9102   2.858   3.421  16.414  0.8347  1.2103 -0.9176
  614TMC3    H2 9103   2.899   3.135  16.085 -1.2368 -3.4861  2.3526
  614TMC3    C7 9104   2.748   3.345  16.185 -0.5870  0.5062  0.1713
  614TMC3    C8 9105   3.039   2.976  16.216  0.2656 -0.2632  0.7500
  614TMC3    O1 9106   2.681   3.418  16.263  0.2306  0.3027  0.0802
  614TMC3    O2 9107   2.982   2.943  16.115  0.2214 -0.0436  0.9245
  615MPD2     C 9108   2.112   4.480  15.984  0.5216  0.2552 -1.0288
  615MPD2    C1 9109   1.980   4.474  16.019 -0.7200  0.0940 -0.2858
  615MPD2    C2 9110   1.885   4.494  15.920 -0.1210 -0.4973 -0.4680
  615MPD2    C3 9111   1.920   4.522  15.790 -0.0257  0.6707 -0.3021
  615MPD2    C4 9112   2.053   4.534  15.758  0.2569 -0.3782  0.0471
  615MPD2    C5 9113   2.148   4.510  15.854  0.1875 -0.2739 -0.4886
  615MPD2     H 9114   1.781   4.492  15.952  0.7925 -0.6163  2.4474
  615MPD2    H1 9115   2.082   4.558  15.656 -0.7934 -0.8308 -0.3526
  615MPD2    H2 9116   2.190   4.443  16.049  0.8319 -0.2441 -1.6936
  615MPD2    H3 9117   2.254   4.523  15.833  0.3195  0.3786  0.5955
  615MPD2     N 9118   1.828   4.536  15.683 -0.9165  0.5366 -0.0977
  615MPD2    H5 9119   1.873   4.552  15.594  1.2778  1.5625  1.2113
  615MPD2    N1 9120   1.937   4.457  16.154 -0.0838 -0.5788  0.1766
  615MPD2    H7 9121   1.837   4.450  16.168 -0.2773 -1.1138 -1.3957
  616TMC3    C1 9122   1.929   4.449  16.378  0.0647 -0.3763  0.1744
  616TMC3    C2 9123   1.993   4.437  16.499 -0.5929  0.3111  0.0429
  616TMC3    C3 9124   1.926   4.463  16.623 -0.1797  0.1910 -0.0346
  616TMC3    C4 9125   1.794   4.481  16.380  0.2444  0.1491 -0.6065
  616TMC3    C5 9126   1.730   4.501  16.498  0.4059 -0.5686  0.2645
  616TMC3    C6 9127   1.788   4.491  16.618 -0.3458 -0.4347 -0.3957
  616TMC3     C 9128   2.012   4.455  16.265  0.5432 -0.1331 -0.3256
  616TMC3     O 9129   2.132   4.457  16.284 -0.5231 -0.1705 -0.3015
  616TMC3     H 9130   2.098   4.411  16.498 -0.9486 -1.2902  2.7206
  616TMC3    H1 9131   1.747   4.495  16.283  0.6900 -0.7477 -0.9495
  616TMC3    H2 9132   1.732   4.513  16.709  1.2445  0.1529  0.4525
  616TMC3    C7 9133   1.602   4.553  16.487 -0.0101  0.0977 -0.1329
  616TMC3    C8 9134   1.989   4.455  16.756 -0.2710  0.1600 -0.0550
  616TMC3    O1 9135   1.550   4.536  16.379 -0.2380  0.7831 -0.3412
  616TMC3    O2 9136   1.908   4.442  16.849 -0.0278  0.3880 -0.2061
  617MPD2     C 9137   0.202   3.074  13.599 -0.9089  0.1484  0.7469
  617MPD2    C1 9138   0.272   3.001  13.695  0.2174 -0.8453  0.2252
  617MPD2    C2 9139   0.201   2.909  13.771 -0.8550  0.1448  0.0857
  617MPD2    C3 9140   0.059   2.896  13.770  0.2343 -0.2195 -0.1310
  617MPD2    C4 9141   4.711   2.971  13.678  0.4276  0.1711 -0.3367
  617MPD2    C5 9142   0.059   3.051  13.593 -0.2024  0.3638  0.9191
  617MPD2     H 9143   0.257   2.841  13.835  0.6132  0.6698 -0.6428
  617MPD2    H1 9144   4.606   2.952  13.657  0.1883  0.9109  0.1697
  617MPD2    H2 9145   0.250   3.137  13.525 -1.8674  0.6614  0.5599
  617MPD2    H3 9146   0.001   3.093  13.511 -0.1389  0.8704  1.1338
  617MPD2     N 9147   4.717   2.809  13.859 -0.1127 -0.5911  0.4582
  617MPD2    H5 9148   4.616   2.818  13.858 -0.0552 -0.3774 -2.4699
  617MPD2    N1 9149   0.412   3.020  13.701  0.6094  0.1240 -0.0326
  617MPD2    H7 9150   0.448   3.085  13.633 -1.6075 -0.5787 -1.8691
  618TMC3    C1 9151   0.631   2.992  13.771 -0.4560  0.2521  0.3336
  618TMC3    C2 9152   0.710   2.965  13.876 -0.0625  0.5068  0.6470
  618TMC3    C3 9153   0.846   2.969  13.859  0.6802  0.1119 -0.7075
  618TMC3    C4 9154   0.677   3.024  13.647  0.0136 -0.3560  0.0593
  618TMC3    C5 9155   0.816   3.037  13.634  0.4095 -0.0001 -0.0343
  618TMC3    C6 9156   0.899   3.005  13.739  0.0812 -0.2890 -0.2191
  618TMC3     C 9157   0.495   2.954  13.784 -0.1039 -0.5074  0.1315
  618TMC3     O 9158   0.475   2.877  13.875  1.1381 -0.0200 -0.0072
  618TMC3     H 9159   0.673   2.929  13.972 -2.9750  1.1054 -0.2573
  618TMC3    H1 9160   0.608   3.027  13.563 -1.6250  1.0898  1.4742
  618TMC3    H2 9161   1.008   3.010  13.737  0.0405 -0.3562 -1.8192
  618TMC3    C7 9162   0.856   2.985  13.505  0.2053  0.1294  0.1223
  618TMC3    C8 9163   0.918   2.875  13.941 -0.3866  0.0793 -0.5341
  618TMC3    O1 9164   0.764   2.933  13.442 -0.0121 -0.3392 -0.0022
  618TMC3    O2 9165   0.895   2.873  14.063 -0.6045 -0.5410 -0.3371
  619MPD2     C 9166   1.810   3.805  13.719  0.3021 -0.3370 -0.0850
  619MPD2    C1 9167   1.759   3.923  13.686 -0.0571 -0.1092 -0.3514
  619MPD2    C2 9168   1.625   3.937  13.669  0.7949  0.0711 -0.3487
  619MPD2    C3 9169   1.534   3.830  13.689 -0.3181  0.4712 -0.7414
  619MPD2    C4 9170   1.588   3.714  13.731  0.3062 -0.1447 -0.1769
  619MPD2    C5 9171   1.722   3.706  13.746  0.0782  1.0842 -0.6844
  619MPD2     H 9172   1.594   4.035  13.634  0.7359  0.1415 -0.0973
  619MPD2    H1 9173   1.538   3.619  13.738 -1.2203  0.5632 -1.4655
  619MPD2    H2 9174   1.915   3.778  13.716  0.1600 -0.5699 -3.1157
  619MPD2    H3 9175   1.753   3.605  13.770 -2.6989  0.5166  0.4427
  619MPD2     N 9176   1.395   3.844  13.658 -0.1427  0.2431 -0.3016
  619MPD2    H5 9177   1.332   3.776  13.700  0.3463 -1.4274 -2.3096
  619MPD2    N1 9178   1.832   4.036  13.673  0.1436  0.1359  0.3366
  619MPD2    H7 9179   1.790   4.123  13.643 -0.4407 -0.1664  0.2815
  620TMC3    C1 9180   2.008   4.179  13.645  0.7011  0.2483 -0.5724
  620TMC3    C2 9181   2.030   4.201  13.510  0.5998 -0.0665  0.2597
  620TMC3    C3 9182   2.026   4.329  13.470 -0.1400 -0.1118 -0.1309
  620TMC3    C4 9183   1.985   4.277  13.739  0.3683 -0.0296 -0.3184
  620TMC3    C5 9184   1.979   4.400  13.695  0.5466 -0.3486  0.1650
  620TMC3    C6 9185   2.006   4.429  13.565  0.2516  0.3698  0.4255
  620TMC3     C 9186   1.968   4.051  13.690 -0.5873 -0.2718  0.3627
  620TMC3     O 9187   2.053   3.972  13.726 -0.2628 -0.2178 -0.3349
  620TMC3     H 9188   2.050   4.124  13.436 -1.0178  1.7540 -2.0393
  620TMC3    H1 9189   1.960   4.246  13.840 -0.1953  0.6214 -0.2642
  620TMC3    H2 9190   2.029   4.527  13.524  0.1660 -0.5338 -1.8143
  620TMC3    C7 9191   1.973   4.510  13.790 -0.0160 -0.0734 -0.2401
  620TMC3    C8 9192   2.061   4.356  13.330  0.3150 -0.1702 -0.6976
  620TMC3    O1 9193   2.018   4.495  13.904 -0.1294  0.0730 -0.3956
  620TMC3    O2 9194   2.183   4.369  13.313  0.2656 -0.2370 -0.1602
  621MPD2     C 9195   2.011   3.457  10.053  0.2031 -0.0324  0.5670
  621MPD2    C1 9196   2.054   3.480   9.922 -0.5251 -0.4821 -0.5393
  621MPD2    C2 9197   2.077   3.605   9.884 -0.9281 -0.2299 -0.0898
  621MPD2    C3 9198   2.067   3.715   9.966  0.2165  0.4039  0.5811
  621MPD2    C4 9199   2.016   3.694  10.096  0.2514  0.0037  0.1740
  621MPD2    C5 9200   1.988   3.569  10.129 -0.0848 -0.3206 -0.4593
  621MPD2     H 9201   2.103   3.613   9.779 -1.4921 -2.5746 -0.4167
  621MPD2    H1 9202   2.005   3.765  10.178  1.9513  0.1698  0.2588
  621MPD2    H2 9203   1.975   3.364  10.095 -0.5551  1.0738  2.3836
  621MPD2    H3 9204   1.958   3.558  10.232 -0.3389  0.7048 -0.4293
  621MPD2     N 9205   2.106   3.842   9.919  0.4390 -0.2071 -0.2836
  621MPD2    H5 9206   2.156   3.841   9.831 -0.8111  1.0161 -1.0100
  621MPD2    N1 9207   2.051   3.385   9.821  0.0390 -0.5399 -0.6059
  621MPD2    H7 9208   2.034   3.425   9.729  1.3032 -0.7810 -0.9282
  622TMC3    C1 9209   1.956   3.178   9.735  0.3842  0.2077 -0.3380
  622TMC3    C2 9210   1.887   3.072   9.791  0.2588  0.2884  0.1644
  622TMC3    C3 9211   1.765   3.035   9.735  0.3269  0.3935 -0.0342
  622TMC3    C4 9212   1.916   3.224   9.608  0.3527  0.2153  0.0037
  622TMC3    C5 9213   1.805   3.168   9.554 -0.4893 -0.1168 -0.7913
  622TMC3    C6 9214   1.725   3.079   9.614  0.1451  0.0396  0.0244
  622TMC3     C 9215   2.017   3.255   9.846 -0.0940 -0.0653  0.0447
  622TMC3     O 9216   2.002   3.198   9.953 -0.1704 -0.2515 -0.4250
  622TMC3     H 9217   1.899   3.027   9.889 -1.1448 -1.7138 -0.5689
  622TMC3    H1 9218   1.979   3.297   9.558  0.5363  0.1521  0.1431
  622TMC3    H2 9219   1.630   3.049   9.572 -0.3825  2.0969 -0.2245
  622TMC3    C7 9220   1.751   3.218   9.431 -0.2574  0.2011  0.4134
  622TMC3    C8 9221   1.658   3.055   9.821  0.0003  0.2072  0.0098
  622TMC3    O1 9222   1.665   3.149   9.384  1.0087  0.5330 -0.3985
  622TMC3    O2 9223   1.557   2.989   9.797 -0.4150 -0.0763 -0.3803
  623MPD2     C 9224   0.934   4.587  15.922  0.5503  0.3036  0.8690
  623MPD2    C1 9225   0.948   4.701  15.995 -0.6915 -0.0997  0.0958
  623MPD2    C2 9226   0.989   4.694  16.132 -0.1238 -0.6019  0.2365
  623MPD2    C3 9227   1.021   4.577  16.188  0.0894 -0.5675 -0.2624
  623MPD2    C4 9228   1.002   4.461  16.111  0.5977  0.6143  0.1849
  623MPD2    C5 9229   0.956   4.468  15.982 -0.2130 -0.3440  0.1165
  623MPD2     H 9230   0.985   0.058  16.193 -0.4273 -2.5770  3.1323
  623MPD2    H1 9231   1.031   4.362  16.144 -0.0946  0.3434 -0.0142
  623MPD2    H2 9232   0.904   4.591  15.818 -2.6829  1.0726  1.8344
  623MPD2    H3 9233   0.957   4.379  15.920  0.7709  0.3040 -0.7934
  623MPD2     N 9234   1.068   4.575  16.319 -0.0347  0.6666  0.1482
  623MPD2    H5 9235   1.105   4.665  16.348  1.0857  0.7249 -1.4681
  623MPD2    N1 9236   0.917   0.099  15.930 -0.0131 -0.0625 -0.4697
  623MPD2    H7 9237   0.883   0.080  15.836  3.0328 -0.7691 -1.4121
  624TMC3    C1 9238   1.281   4.436  16.703 -0.2979  0.0915 -0.4159
  624TMC3    C2 9239   1.247   4.545  16.776 -0.2819 -0.1231 -1.1161
  624TMC3    C3 9240   1.182   4.650  16.715  0.3948  0.2974  0.1675
  624TMC3    C4 9241   1.214   4.405  16.590  0.1006 -1.2181  0.4593
  624TMC3    C5 9242   1.161   4.506  16.521 -0.6196  0.2798 -0.2176
  624TMC3    C6 9243   1.150   4.630  16.583 -0.3294  0.0394  0.1776
  624TMC3     C 9244   1.404   4.368  16.737 -0.2186  0.3582  0.3125
  624TMC3     O 9245   1.463   4.413  16.837 -0.2794 -0.2700 -0.1829
  624TMC3     H 9246   1.285   4.573  16.873  1.2863 -1.3260 -1.3843
  624TMC3    H1 9247   1.227   4.315  16.531  1.6043 -1.3149  0.9272
  624TMC3    H2 9248   1.107   4.718  16.537  0.2089  0.1593 -0.0982
  624TMC3    C7 9249   1.087   4.469  16.398 -1.3105  0.0212 -0.6534
  624TMC3    C8 9250   1.078   4.713  16.790  0.1039  0.0293 -0.1605
  624TMC3    O1 9251   1.055   4.357  16.372 -0.7483 -0.1075  0.5672
  624TMC3    O2 9252   1.031   0.090  16.733 -0.2070 -0.3035 -0.1008
  625MPD2     C 9253   1.036   0.736   0.311 -0.0466 -0.3784 -0.6488
  625MPD2    C1 9254   1.130   0.822   0.373  0.1889 -0.1955 -0.0064
  625MPD2    C2 9255   1.242   0.768   0.434 -0.3943 -0.3551  0.3295
  625MPD2    C3 9256   1.252   0.630   0.435  0.2285  0.0059  0.0039
  625MPD2    C4 9257   1.153   0.547   0.381 -1.0328  0.3516  0.7337
  625MPD2    C5 9258   1.047   0.602   0.317 -0.4606  0.6057 -0.7013
  625MPD2     H 9259   1.311   0.825   0.495 -1.3825  0.5689  0.5775
  625MPD2    H1 9260   1.153   0.440   0.401 -0.8733  0.4965  1.4927
  625MPD2    H2 9261   0.957   0.787   0.257 -0.6965 -0.8093 -0.1001
  625MPD2    H3 9262   0.969   0.540   0.275  0.1641 -1.2512  0.8882
  625MPD2     N 9263   1.367   0.574   0.497 -0.0047  0.1620  0.2512
  625MPD2    H5 9264   1.433   0.631   0.549  1.7527  0.1316 -1.9678
  625MPD2    N1 9265   1.121   0.963   0.365 -0.2084  0.5466  0.1411
  625MPD2    H7 9266   1.195   1.017   0.409 -0.7246 -0.9354  2.8442
  626TMC3    C1 9267   1.039   1.182   0.337  0.7736  0.4706 -0.4491
  626TMC3    C2 9268   1.010   1.273   0.242 -0.7454  0.4694 -0.2380
  626TMC3    C3 9269   0.994   1.409   0.273 -0.2254 -0.0954  0.6599
  626TMC3    C4 9270   1.082   1.218   0.460  0.4480 -0.1355 -0.1206
  626TMC3    C5 9271   1.063   1.355   0.491  0.2281 -0.0409  0.3041
  626TMC3    C6 9272   1.027   1.456   0.400 -0.0114 -0.2321  0.4215
  626TMC3     C 9273   1.025   1.039   0.313 -0.4696  0.1241 -0.4365
  626TMC3     O 9274   0.939   1.008   0.237 -0.0886  0.2342  0.1261
  626TMC3     H 9275   0.999   1.239   0.139 -2.8650  1.0811 -0.2266
  626TMC3    H1 9276   1.105   1.146   0.538 -1.1859 -0.3782  0.1378
  626TMC3    H2 9277   1.022   1.561   0.427 -1.2315 -0.1118 -0.2736
  626TMC3    C7 9278   1.110   1.396   0.618 -0.1633  0.1266  1.1422
  626TMC3    C8 9279   0.942   1.502   0.171 -0.1983  0.3009 -0.0232
  626TMC3    O1 9280   1.192   1.320   0.670  0.7789 -0.8988  0.4630
  626TMC3    O2 9281   0.956   1.467   0.053 -0.1565 -0.1470 -0.3083
  627MPD2     C 9282   4.301   1.827  14.310  0.0909  0.1582  0.0548
  627MPD2    C1 9283   4.308   1.721  14.397  0.1961 -0.0142  0.4640
  627MPD2    C2 9284   4.211   1.619  14.388  0.0322  0.2460 -0.6403
  627MPD2    C3 9285   4.114   1.624  14.290  0.1311  0.5221 -0.8491
  627MPD2    C4 9286   4.099   1.733  14.211  0.9213 -0.0248  0.0457
  627MPD2    C5 9287   4.200   1.832  14.220 -0.4570 -0.5784 -0.0758
  627MPD2     H 9288   4.220   1.532  14.451  0.2229  0.9345  0.2811
  627MPD2    H1 9289   4.026   1.747  14.132  0.5732  0.9560  0.5396
  627MPD2    H2 9290   4.370   1.910  14.311 -0.8999  0.9866 -1.0528
  627MPD2    H3 9291   4.207   1.919  14.156  0.1439 -2.0853 -2.0347
  627MPD2     N 9292   4.025   1.515  14.274 -0.1339 -0.0391  0.1174
  627MPD2    H5 9293   4.049   1.426  14.316 -0.2241 -0.4637 -0.7393
  627MPD2    N1 9294   4.407   1.707  14.498  0.1627 -0.3920  0.5115
  627MPD2    H7 9295   4.420   1.619  14.546 -1.4134 -0.3960  0.9308
  628TMC3    C1 9296   4.593   1.778  14.636  0.2962  0.6084 -0.4232
  628TMC3    C2 9297   4.651   1.652  14.630  0.3164  0.5116  0.7146
  628TMC3    C3 9298   0.058   1.633  14.668  0.5477  0.3955  0.0645
  628TMC3    C4 9299   4.673   1.880  14.681 -0.2276  0.0428  0.2437
  628TMC3    C5 9300   0.072   1.858  14.726  0.3960  0.1637 -0.4157
  628TMC3    C6 9301   0.134   1.734  14.731  0.3055 -0.0909 -0.3077
  628TMC3     C 9302   4.478   1.808  14.551 -0.5458 -0.0663  0.3792
  628TMC3     O 9303   4.474   1.926  14.522  0.3868  0.4236  0.2146
  628TMC3     H 9304   4.605   1.563  14.589  3.0145 -0.9404  0.8338
  628TMC3    H1 9305   4.618   1.972  14.693 -2.0275 -1.2672  1.8959
  628TMC3    H2 9306   0.241   1.742  14.720  0.2973  1.2092  0.4673
  628TMC3    C7 9307   0.153   1.971  14.727  0.4058  0.3161 -0.0847
  628TMC3    C8 9308   0.108   1.501  14.668  0.0149 -0.0332 -0.2352
  628TMC3    O1 9309   0.262   1.967  14.787 -0.1419 -0.2592  0.6482
  628TMC3    O2 9310   0.064   1.417  14.590  0.3874  0.0273 -0.2240
  629MPD2     C 9311   2.372   4.582  17.058 -0.2097  0.4505 -0.8520
  629MPD2    C1 9312   2.421   4.580  16.930  0.3244  0.4368 -0.1678
  629MPD2    C2 9313   2.333   4.533  16.831 -0.1977 -0.1035 -0.9246
  629MPD2    C3 9314   2.203   4.508  16.860  0.5066 -0.0030  0.0807
  629MPD2    C4 9315   2.157   4.506  16.987  0.7806 -0.0210  0.3707
  629MPD2    C5 9316   2.239   4.544  17.092  0.0005 -0.5297 -0.4826
  629MPD2     H 9317   2.369   4.517  16.730 -0.9764 -0.6356 -1.1178
  629MPD2    H1 9318   2.056   4.481  17.017 -0.4015  4.6071  0.1778
  629MPD2    H2 9319   2.439   4.604  17.140  2.0196  1.6480 -2.9963
  629MPD2    H3 9320   2.206   4.545  17.195 -1.1942  0.7183 -0.8645
  629MPD2     N 9321   2.123   4.479  16.751  0.2304 -0.3222  0.4913
  629MPD2    H5 9322   2.161   4.497  16.658  0.5990 -0.3257  0.6440
  629MPD2    N1 9323   2.550   4.626  16.912 -0.4738  0.6383 -0.4710
  629MPD2    H7 9324   2.601   4.632  17.000 -0.1242 -1.6134 -0.5096
  630TMC3    C1 9325   2.744   4.712  16.807  0.0947 -0.5453 -0.5964
  630TMC3    C2 9326   2.775   0.096  16.729  0.3281 -0.1102  0.2262
  630TMC3    C3 9327   2.898   0.147  16.750 -0.4292 -0.1888 -0.7224
  630TMC3    C4 9328   2.825   4.663  16.900  0.2267  0.4142  0.6158
  630TMC3    C5 9329   2.948   4.713  16.909  0.1225  0.3480  0.5331
  630TMC3    C6 9330   2.993   0.096  16.837 -0.4527 -0.2106 -0.1705
  630TMC3     C 9331   2.603   4.670  16.796  0.0498  0.3659 -0.3386
  630TMC3     O 9332   2.544   4.682  16.688  0.1808 -0.2340  0.2155
  630TMC3     H 9333   2.725   0.114  16.635  2.4532  0.9803 -0.7007
  630TMC3    H1 9334   2.801   4.567  16.945 -1.2280  0.6085  0.2506
  630TMC3    H2 9335   3.086   0.149  16.856 -0.9049  0.5820 -0.1448
  630TMC3    C7 9336   3.013   4.684  17.036  0.5362 -0.0012 -0.5080
  630TMC3    C8 9337   2.944   0.255  16.664  0.4128  0.4712 -0.8058
  630TMC3    O1 9338   2.950   4.640  17.128  0.7720  0.1295 -0.3319
  630TMC3    O2 9339   3.064   0.251  16.641  0.6984  0.2140  0.6692
  631MPD2     C 9340   1.200   0.533  15.611 -0.9961  0.5410 -0.1750
  631MPD2    C1 9341   1.266   0.523  15.487  0.0310 -0.5213  0.4595
  631MPD2    C2 9342   1.320   0.399  15.449  0.0787 -0.4272 -0.1041
  631MPD2    C3 9343   1.297   0.282  15.525 -0.1310 -0.0779  0.1235
  631MPD2    C4 9344   1.228   0.292  15.640  0.3220 -0.3778 -0.3590
  631MPD2    C5 9345   1.189   0.419  15.688 -0.1533 -0.5190 -0.2517
  631MPD2     H 9346   1.383   0.403  15.361 -0.2360 -0.2734 -0.3183
  631MPD2    H1 9347   1.209   0.203  15.699 -1.1749  1.2729  1.6311
  631MPD2    H2 9348   1.158   0.623  15.653 -1.2494 -0.2047  1.1455
  631MPD2    H3 9349   1.134   0.427  15.781  1.2375  0.4758  0.4895
  631MPD2     N 9350   1.364   0.166  15.495 -0.5195  0.2045  0.8555
  631MPD2    H5 9351   1.435   0.181  15.425 -0.3242  2.3684  1.5047
  631MPD2    N1 9352   1.290   0.640  15.412  0.0980  0.0035  0.2267
  631MPD2    H7 9353   1.262   0.729  15.451  0.1254 -0.5792  1.5845
  632TMC3    C1 9354   1.381   0.796  15.262  0.4394  0.4101 -0.0238
  632TMC3    C2 9355   1.349   0.893  15.354  0.2424 -0.5921 -0.0293
  632TMC3    C3 9356   1.360   1.020  15.315 -0.1953 -0.3492 -0.1840
  632TMC3    C4 9357   1.408   0.835  15.129 -0.0706  0.0891 -0.0448
  632TMC3    C5 9358   1.406   0.969  15.098  0.7262  0.3090 -0.7673
  632TMC3    C6 9359   1.385   1.060  15.194  0.3987 -0.0391 -0.2745
  632TMC3     C 9360   1.355   0.658  15.292 -0.4735  0.2351 -1.1129
  632TMC3     O 9361   1.378   0.567  15.211  0.3194  0.0336  0.6902
  632TMC3     H 9362   1.339   0.861  15.457  0.1758 -0.4006  0.0223
  632TMC3    H1 9363   1.433   0.754  15.060  0.7191 -0.4262  0.8454
  632TMC3    H2 9364   1.384   1.168  15.183 -1.8899  0.1230  1.4519
  632TMC3    C7 9365   1.398   1.004  14.960  0.8552  0.3554  0.4068
  632TMC3    C8 9366   1.290   1.104  15.408  0.0986 -0.2962  0.5159
  632TMC3    O1 9367   1.409   0.907  14.888  0.2025  0.3365  0.3381
  632TMC3    O2 9368   1.183   1.155  15.374  0.1652  0.1065 -0.3374
  633MPD2     C 9369   1.016   3.013  17.051 -0.6633 -0.1167 -0.1631
  633MPD2    C1 9370   1.024   2.935  16.935 -0.6260 -0.5075 -0.1865
  633MPD2    C2 9371   1.000   2.802  16.930  0.9173 -0.2850 -0.0631
  633MPD2    C3 9372   0.976   2.734  17.051 -0.2702 -0.3712 -0.0260
  633MPD2    C4 9373   0.982   2.810  17.166  0.7841 -0.3762  0.5989
  633MPD2    C5 9374   1.004   2.942  17.168 -0.4788  0.0432  0.2754
  633MPD2     H 9375   1.005   2.745  16.839  0.3615  0.8013 -0.7780
  633MPD2    H1 9376   0.970   2.760  17.262  1.8833 -1.9436 -0.0717
  633MPD2    H2 9377   1.048   3.116  17.056 -0.8577 -0.1199  0.9762
  633MPD2    H3 9378   1.005   2.994  17.263  1.6302 -0.0200  0.2834
  633MPD2     N 9379   0.942   2.596  17.058  0.5094 -0.5603  0.0616
  633MPD2    H5 9380   0.929   2.563  17.153  0.8276  0.6239  0.5252
  633MPD2    N1 9381   1.065   2.992  16.810  0.5412 -0.2254  0.7595
  633MPD2    H7 9382   1.060   2.924  16.735 -1.0642  0.5284  0.1675
  634TMC3    C1 9383   1.144   3.148  16.643  0.0580  0.0785  0.4039
  634TMC3    C2 9384   1.184   3.037  16.559 -0.4024 -0.6538 -0.3945
  634TMC3    C3 9385   1.195   3.065  16.422 -0.7145  0.4406 -0.0992
  634TMC3    C4 9386   1.115   3.266  16.580  0.1399 -0.2272  0.2206
  634TMC3    C5 9387   1.125   3.287  16.442 -0.0134  0.0845 -0.2383
  634TMC3    C6 9388   1.175   3.186  16.361 -0.6606  0.2934  0.0569
  634TMC3     C 9389   1.098   3.124  16.782 -0.7819  0.3251  0.1793
  634TMC3     O 9390   1.094   3.218  16.861  0.1299  0.0119 -0.2734
  634TMC3     H 9391   1.222   2.948  16.606  0.1548  0.1438  0.6744
  634TMC3    H1 9392   1.068   3.334  16.649  1.5985  1.0415 -0.0448
  634TMC3    H2 9393   1.211   3.199  16.259 -0.5801  1.6102  0.2535
  634TMC3    C7 9394   1.081   3.402  16.374  0.0999  0.5736 -0.3183
  634TMC3    C8 9395   1.189   2.954  16.337  0.3871  0.5605 -0.0870
  634TMC3    O1 9396   1.112   3.409  16.254  0.1132  0.1678  0.6364
  634TMC3    O2 9397   1.219   2.848  16.387  0.0162  0.1216  0.1460
  635TMC3    C1 9398   1.679   3.680  17.091  0.4328  0.8691 -0.0236
  635TMC3    C2 9399   1.740   3.623  16.984  0.0401 -0.4464  0.1125
  635TMC3    C3 9400   1.681   3.654  16.865  0.0470  0.2641 -0.0911
  635TMC3    C4 9401   1.565   3.752  17.087 -0.5959 -0.2901  0.6695
  635TMC3    C5 9402   1.520   3.789  16.965  0.1215 -0.2651  0.3256
  635TMC3    C6 9403   1.574   3.740  16.851  0.3901 -0.0162  0.2709
  635TMC3     C 9404   1.764   3.723  17.205  0.7604  0.6021 -0.5231
  635TMC3     O 9405   1.710   3.733  17.314  0.1945  0.2248  0.0799
  635TMC3     H 9406   1.835   3.573  16.997  0.1032 -0.3377  0.0639
  635TMC3    H1 9407   1.514   3.777  17.179  0.1105  0.8534  0.7450
  635TMC3    H2 9408   1.543   3.764  16.750  3.3417  1.1714 -0.3594
  635TMC3    C7 9409   1.415   3.888  16.968  0.1599 -0.1041 -0.1113
  635TMC3    C8 9410   1.741   3.609  16.739  0.4106 -0.0640 -0.5828
  635TMC3    O1 9411   1.413   3.967  17.065  0.2112 -0.7073  0.4904
  635TMC3    O2 9412   1.707   3.661  16.638  0.1365 -0.1471  0.0138
  636MPD2     C 9413   2.044   3.208  16.057 -0.1135 -0.2297 -0.0919
  636MPD2    C1 9414   2.129   3.247  16.161  0.1048  0.3634 -0.2709
  636MPD2    C2 9415   2.232   3.159  16.189  0.4779  0.2776 -0.0062
  636MPD2    C3 9416   2.245   3.035  16.124 -0.6034  0.0310  0.5802
  636MPD2    C4 9417   2.161   2.996  16.028  0.7031 -0.0217  0.0263
  636MPD2    C5 9418   2.068   3.088  15.988  0.0453 -1.0305 -0.0693
  636MPD2     H 9419   2.298   3.187  16.270  0.6935  0.7886 -0.3577
  636MPD2    H1 9420   2.177   2.904  15.973  1.1492 -0.0690  0.2342
  636MPD2    H2 9421   1.967   3.272  16.016  0.0072  0.4597  0.7524
  636MPD2    H3 9422   2.005   3.059  15.905  0.3991 -2.1991  0.0661
  636MPD2     N 9423   2.348   2.957  16.173  0.0009 -0.2398 -0.7271
  636MPD2    H5 9424   2.400   3.005  16.246 -2.3421  3.0383 -1.2285
  636MPD2    N1 9425   2.121   3.365  16.240  0.5663 -0.6527  0.3110
  636MPD2    H7 9426   2.194   3.379  16.309 -1.0201 -0.1501  1.9091
  637TMC3    C1 9427   2.521   2.800  16.197 -0.6428  0.2605  0.5777
  637TMC3    C2 9428   2.553   2.857  16.321  0.1370 -0.5963 -0.1113
  637TMC3    C3 9429   2.664   2.794  16.379  0.2497 -0.5369  0.2385
  637TMC3    C4 9430   2.594   2.688  16.152  0.4513 -0.6842  0.6132
  637TMC3    C5 9431   2.702   2.636  16.222  0.6477 -0.5336  0.4047
  637TMC3    C6 9432   2.730   2.679  16.345 -0.1952  0.1639  0.0430
  637TMC3     C 9433   2.393   2.829  16.136 -0.7083  0.1872  0.5158
  637TMC3     O 9434   2.348   2.749  16.054 -0.2755 -0.0044 -0.0216
  637TMC3     H 9435   2.509   2.941  16.374 -0.9812  0.4515 -2.7144
  637TMC3    H1 9436   2.579   2.651  16.051  0.0558  2.5087 -0.5117
  637TMC3    H2 9437   2.798   2.627  16.413 -0.4836  0.4936  0.5857
  637TMC3    C7 9438   2.763   2.504  16.190 -0.0497  0.4922  0.0833
  637TMC3    C8 9439   2.739   2.884  16.467  0.1402 -0.2358 -0.3599
  637TMC3    O1 9440   2.678   2.425  16.158  0.2438  0.8382  0.8645
  637TMC3    O2 9441   2.724   3.004  16.444 -0.0284 -0.1607  0.1681
  638MPD2     C 9442   2.377   2.381  14.712  0.0463 -0.4985 -0.1746
  638MPD2    C1 9443   2.329   2.280  14.632  0.5372 -0.1400  0.2777
  638MPD2    C2 9444   2.282   2.169  14.702  0.7938 -0.1338  0.2756
  638MPD2    C3 9445   2.294   2.154  14.840  0.4422 -0.3354 -0.4569
  638MPD2    C4 9446   2.342   2.255  14.911  0.5118  0.0837 -0.6902
  638MPD2    C5 9447   2.393   2.367  14.846  0.1012 -0.1877  0.2931
  638MPD2     H 9448   2.250   2.086  14.640  1.2507  0.8610 -1.3062
  638MPD2    H1 9449   2.355   2.251  15.019  2.6635 -0.6686 -0.9685
  638MPD2    H2 9450   2.412   2.474  14.669 -1.5809 -0.2432 -0.9260
  638MPD2    H3 9451   2.423   2.453  14.904  2.6788  0.4596 -2.0227
  638MPD2     N 9452   2.260   2.033  14.892  0.3535 -0.0436  0.1496
  638MPD2    H5 9453   2.200   1.972  14.838 -1.0539 -0.0336  1.7325
  638MPD2    N1 9454   2.325   2.299  14.494 -0.3215 -0.6990  1.3853
  638MPD2    H7 9455   2.373   2.375  14.448 -0.4436 -1.0559  0.6712
  639TMC3    C1 9456   2.270   1.840  15.022  0.0973 -0.3012  0.7064
  639TMC3    C2 9457   2.174   1.782  14.943  0.2400 -0.2095  0.1901
  639TMC3    C3 9458   2.159   1.648  14.952  0.1675  0.0102  0.3442
  639TMC3    C4 9459   2.340   1.774  15.120 -0.7259 -0.4784 -0.2368
  639TMC3    C5 9460   2.322   1.637  15.126  0.0067 -0.1864  0.0070
  639TMC3    C6 9461   2.246   1.577  15.033  0.1085 -0.1469 -0.2896
  639TMC3     C 9462   2.315   1.977  15.003 -0.0617 -0.7270  0.5656
  639TMC3     O 9463   2.405   2.029  15.066 -0.7296 -0.3151  0.2575
  639TMC3     H 9464   2.103   1.844  14.890  0.9117 -0.2381 -0.7433
  639TMC3    H1 9465   2.406   1.835  15.180  0.9222 -2.2007 -0.3138
  639TMC3    H2 9466   2.242   1.469  15.024 -1.2242 -0.1114 -0.0311
  639TMC3    C7 9467   2.428   1.546  15.175  0.0389 -0.2685 -0.4452
  639TMC3    C8 9468   2.075   1.586  14.847  0.1829 -0.5484 -0.0465
  639TMC3    O1 9469   2.419   1.430  15.135  0.2836 -0.3590  0.3061
  639TMC3    O2 9470   2.085   1.635  14.737  0.2085  0.1388  0.3303
  640MPD2     C 9471   2.318   0.660  10.057 -0.2462  0.0205 -0.5006
  640MPD2    C1 9472   2.412   0.760  10.043  0.1669  0.1317  0.2827
  640MPD2    C2 9473   2.368   0.890  10.020  0.0949  0.8110  0.8370
  640MPD2    C3 9474   2.228   0.917  10.015 -0.2543 -0.6222 -0.1297
  640MPD2    C4 9475   2.140   0.811  10.008  0.8659  0.4158 -0.6701
  640MPD2    C5 9476   2.182   0.684  10.035  0.6039  0.6037 -0.1000
  640MPD2     H 9477   2.429   0.978  10.036  1.8910 -0.7507  2.6871
  640MPD2    H1 9478   2.034   0.835   9.999  0.0887 -2.0414  1.9364
  640MPD2    H2 9479   2.347   0.558  10.079 -1.4009 -0.5690 -1.6963
  640MPD2    H3 9480   2.099   0.614  10.039 -0.8686  2.4531  1.5401
  640MPD2     N 9481   2.170   1.046  10.008  0.2036  0.5765 -0.0787
  640MPD2    H5 9482   2.073   1.047   9.978 -0.8418 -0.9391  3.3010
  640MPD2    N1 9483   2.552   0.726  10.053  0.5090  0.8796 -0.0787
  640MPD2    H7 9484   2.574   0.632  10.083 -1.3115  0.5211  0.1209
  641TMC3    C1 9485   2.786   0.756   9.991 -0.0727  0.2879 -0.5906
  641TMC3    C2 9486   2.796   0.617   9.970  0.6201  0.2590  0.1273
  641TMC3    C3 9487   2.917   0.577   9.919  0.2490  0.1032 -0.1261
  641TMC3    C4 9488   2.884   0.847   9.966 -0.7525  0.6371 -0.2681
  641TMC3    C5 9489   2.997   0.799   9.902 -0.1762  0.1360 -0.0088
  641TMC3    C6 9490   3.011   0.663   9.873 -0.4209  0.2889 -0.1574
  641TMC3     C 9491   2.655   0.812  10.011  0.1733  0.3985 -0.7584
  641TMC3     O 9492   2.646   0.932   9.981 -0.5085  0.0820 -0.2287
  641TMC3     H 9493   2.716   0.544   9.973  0.8614  0.0021  0.3142
  641TMC3    H1 9494   2.864   0.951   9.988 -0.3590  1.0684 -1.9623
  641TMC3    H2 9495   3.103   0.619   9.835  0.3712  0.9207  1.0082
  641TMC3    C7 9496   3.112   0.894   9.888  0.2601 -0.2121  0.0599
  641TMC3    C8 9497   2.935   0.434   9.887 -0.1859  0.0915 -0.1185
  641TMC3    O1 9498   3.102   0.996   9.956  0.5415 -0.0228 -0.3687
  641TMC3    O2 9499   3.003   0.399   9.792 -0.4029 -0.3697 -0.1198
  642TMC3    C1 9500   3.826   2.032  11.671  0.3306  0.2634 -0.5675
  642TMC3    C2 9501   3.924   2.029  11.765  0.4171  0.4626 -0.4837
  642TMC3    C3 9502   3.989   1.908  11.779  0.4513 -0.7882 -0.1825
  642TMC3    C4 9503   3.782   1.922  11.603  0.4163 -0.0361  0.7232
  642TMC3    C5 9504   3.855   1.806  11.623 -0.1934 -0.1748  0.1395
  642TMC3    C6 9505   3.954   1.797  11.709  0.0795  0.6065  0.4928
  642TMC3     C 9506   3.754   2.156  11.639  0.2397 -0.9842 -0.9789
  642TMC3     O 9507   3.704   2.151  11.526  0.0015  0.3087 -0.0509
  642TMC3     H 9508   3.950   2.120  11.816 -0.4450  0.0717  0.6483
  642TMC3    H1 9509   3.695   1.918  11.539  2.2748  4.4804 -2.1297
  642TMC3    H2 9510   3.990   1.697  11.731  3.4435  0.9301 -3.7865
  642TMC3    C7 9511   3.782   1.682  11.593 -0.0417 -0.2438 -0.6103
  642TMC3    C8 9512   4.091   1.895  11.882  0.6425 -0.1163  0.4145
  642TMC3    O1 9513   3.724   1.682  11.484 -0.2848  0.8895 -0.2986
  642TMC3    O2 9514   4.182   1.815  11.863 -0.0802 -0.2170 -0.2800
  643TMC3    C1 9515   2.719   1.074   0.207 -0.1844 -0.2653 -0.3582
  643TMC3    C2 9516   2.601   1.119   0.153 -0.8755  0.1089 -0.1939
  643TMC3    C3 9517   2.562   1.072   0.030 -0.4754  0.1987  0.6118
  643TMC3    C4 9518   2.811   0.997   0.139 -0.0576  0.0702  0.1905
  643TMC3    C5 9519   2.779   0.965   0.011 -0.3061  0.2270  0.1375
  643TMC3    C6 9520   2.657   1.005  17.659  0.1317 -0.9366  0.0954
  643TMC3     C 9521   2.759   1.158   0.320 -0.0421  0.0128  0.1080
  643TMC3     O 9522   2.693   1.258   0.343 -0.1118  0.3954 -0.0656
  643TMC3     H 9523   2.539   1.192   0.204 -0.0714 -0.2006  1.2544
  643TMC3    H1 9524   2.910   0.983   0.181  0.7530  0.7917 -1.4419
  643TMC3    H2 9525   2.642   0.973  17.557 -0.1486  0.6954 -0.3709
  643TMC3    C7 9526   2.882   0.997  17.617  0.5361 -0.0367 -0.1489
  643TMC3    C8 9527   2.482   1.160  17.656 -0.2047  0.6358 -0.0207
  643TMC3    O1 9528   2.843   1.081  17.534  0.0205 -0.4222  0.2935
  643TMC3    O2 9529   2.400   1.228   0.016  0.0925  0.5110  0.2166
  644MPD2     C 9530   3.299   1.551   9.282 -0.2638  0.0286 -0.3676
  644MPD2    C1 9531   3.179   1.522   9.216  0.4123 -0.6277 -0.1944
  644MPD2    C2 9532   3.089   1.624   9.178  0.4669  0.1178  0.3948
  644MPD2    C3 9533   3.126   1.755   9.193  1.3272  0.2035  0.5779
  644MPD2    C4 9534   3.248   1.779   9.254  0.5809 -0.6908  0.0468
  644MPD2    C5 9535   3.325   1.683   9.311 -0.3448 -0.3111 -0.1160
  644MPD2     H 9536   2.999   1.612   9.119  0.6502  0.2617  0.0901
  644MPD2    H1 9537   3.288   1.876   9.278  1.9036 -0.9485 -1.1427
  644MPD2    H2 9538   3.379   1.482   9.305 -1.0684 -0.2338  1.6366
  644MPD2    H3 9539   3.412   1.718   9.365 -0.0402  0.0576 -0.8373
  644MPD2     N 9540   3.045   1.859   9.137 -0.0774  0.9545 -0.0042
  644MPD2    H5 9541   2.960   1.843   9.084  0.6603 -0.6417 -0.6856
  644MPD2    N1 9542   3.161   1.385   9.180  0.4692  0.0773 -0.9107
  644MPD2    H7 9543   3.233   1.320   9.209 -0.2839 -0.9754 -1.3957
  645TMC3    C1 9544   2.977   2.077   9.084  0.1993  0.0595 -0.3492
  645TMC3    C2 9545   2.847   2.034   9.084 -0.6782 -0.0104 -0.2023
  645TMC3    C3 9546   2.759   2.118   9.026  0.3061 -0.2597  0.0613
  645TMC3    C4 9547   3.007   2.192   9.024 -0.2964 -0.1618  0.2758
  645TMC3    C5 9548   2.923   2.271   8.962 -0.2102  0.2604 -0.4162
  645TMC3    C6 9549   2.789   2.233   8.956  0.0932 -0.0073 -0.0272
  645TMC3     C 9550   3.078   1.993   9.141 -1.3240  0.2691  0.3100
  645TMC3     O 9551   3.185   2.043   9.162  0.1378  0.0133  0.2795
  645TMC3     H 9552   2.825   1.941   9.135 -0.1761 -0.9942 -1.7682
  645TMC3    H1 9553   3.109   2.227   9.015 -1.7354  3.9766 -0.1830
  645TMC3    H2 9554   2.705   2.292   8.921  2.6789  2.6512 -1.7032
  645TMC3    C7 9555   2.968   2.403   8.915  0.5513 -0.3309 -0.0102
  645TMC3    C8 9556   2.620   2.086   9.055  1.6933 -0.2630 -0.7043
  645TMC3    O1 9557   3.085   2.428   8.939  0.3092  0.5137 -0.5370
  645TMC3    O2 9558   2.548   2.185   9.068  0.4563  0.4496 -0.1159
  646MPD2     C 9559   2.414   0.821  14.129 -0.2131 -0.4974  0.2378
  646MPD2    C1 9560   2.345   0.816  14.245 -0.0087  0.1644 -0.2325
  646MPD2    C2 9561   2.228   0.890  14.264 -0.0324 -0.4505  0.3297
  646MPD2    C3 9562   2.179   0.957  14.147  0.2691 -0.5657 -0.0576
  646MPD2    C4 9563   2.253   0.963  14.032  0.3831  0.2750 -0.5813
  646MPD2    C5 9564   2.367   0.890  14.022 -0.0183 -0.1121  0.5833
  646MPD2     H 9565   2.166   0.882  14.353 -1.6536  1.9474 -0.5556
  646MPD2    H1 9566   2.223   1.006  13.937  0.8021  0.1285 -0.7789
  646MPD2    H2 9567   2.502   0.760  14.112  0.3038 -0.5908  3.1286
  646MPD2    H3 9568   2.429   0.894  13.933  1.4109 -2.2088  1.4757
  646MPD2     N 9569   2.053   1.028  14.157  0.2139 -0.1609 -0.8124
  646MPD2    H5 9570   2.003   1.017  14.244 -0.5781  0.0186 -1.2417
  646MPD2    N1 9571   2.404   0.743  14.350 -0.5112 -0.4247 -0.2974
  646MPD2    H7 9572   2.484   0.687  14.323  0.1393  0.5556 -0.3813
  647TMC3    C1 9573   2.448   0.645  14.559 -0.0604  0.1117 -0.4313
  647TMC3    C2 9574   2.392   0.585  14.668 -0.0842  0.5039  0.6173
  647TMC3    C3 9575   2.468   0.490  14.727 -0.4864  0.0312  0.7466
  647TMC3    C4 9576   2.583   0.637  14.529  0.3936 -0.3467  0.0281
  647TMC3    C5 9577   2.663   0.545  14.609  0.5593 -0.7212  0.1685
  647TMC3    C6 9578   2.598   0.465  14.699  0.0288 -0.1212  0.0787
  647TMC3     C 9579   2.356   0.727  14.479 -0.3418 -0.0727 -0.2724
  647TMC3     O 9580   2.257   0.777  14.532  0.1757  0.1058 -0.1137
  647TMC3     H 9581   2.292   0.616  14.695 -0.6514 -1.1277  0.3862
  647TMC3    H1 9582   2.631   0.708  14.464 -2.4951  0.3373 -1.3459
  647TMC3    H2 9583   2.658   0.405  14.766  0.1498 -0.1679 -0.0723
  647TMC3    C7 9584   2.802   0.558  14.646 -0.0870 -0.8234  0.0958
  647TMC3    C8 9585   2.414   0.424  14.843  0.0167  0.9846  0.1352
  647TMC3    O1 9586   2.851   0.484  14.731  0.0694 -0.2103 -0.1505
  647TMC3    O2 9587   2.484   0.364  14.920  0.2042 -0.1962  0.2992
  648TMC3    C1 9588   1.465   2.909  15.909  0.2581 -0.7272  0.0772
  648TMC3    C2 9589   1.478   2.788  15.863  0.3773  0.3625  0.2366
  648TMC3    C3 9590   1.561   2.767  15.755 -1.0247 -1.4661 -0.0534
  648TMC3    C4 9591   1.484   3.021  15.826  0.6443  0.1669  0.2130
  648TMC3    C5 9592   1.557   2.997  15.711  0.9701 -0.3868  0.2647
  648TMC3    C6 9593   1.598   2.868  15.676  0.3974  0.0078 -0.1655
  648TMC3     C 9594   1.452   2.947  16.049  1.0274 -0.9066  0.3277
  648TMC3     O 9595   1.402   3.055  16.083  0.0901  0.3494 -0.4368
  648TMC3     H 9596   1.477   2.703  15.930  0.5380 -1.0165 -1.5150
  648TMC3    H1 9597   1.447   3.115  15.862  0.5979  0.3869 -0.4057
  648TMC3    H2 9598   1.647   2.847  15.582 -1.2407 -1.7941 -0.6332
  648TMC3    C7 9599   1.559   3.096  15.603 -0.1374  0.2450  0.2076
  648TMC3    C8 9600   1.574   2.630  15.711 -0.0686  0.2822  0.1325
  648TMC3    O1 9601   1.622   3.067  15.503 -0.3699  0.0128  0.4617
  648TMC3    O2 9602   1.482   2.558  15.740 -0.2392 -0.3188 -0.2605
  649TMC3    C1 9603   0.095   4.330  12.561  0.0029 -0.4759  0.6204
  649TMC3    C2 9604   0.163   4.296  12.444  0.1926 -0.1040 -0.1811
  649TMC3    C3 9605   0.293   4.238  12.453 -0.6325  0.2824 -0.5667
  649TMC3    C4 9606   0.159   4.301  12.679 -0.2627 -0.0450 -0.5875
  649TMC3    C5 9607   0.283   4.247  12.689  0.4799 -0.1005  0.7408
  649TMC3    C6 9608   0.345   4.206  12.573  0.2536 -0.0335  0.3247
  649TMC3     C 9609   4.678   4.358  12.561 -0.2400 -0.5958  0.0203
  649TMC3     O 9610   4.635   4.417  12.658 -0.1170  0.2255  0.1142
  649TMC3     H 9611   0.125   4.333  12.349 -3.0635  1.6352  1.7683
  649TMC3    H1 9612   0.107   4.321  12.772  0.2153  1.3935 -0.6461
  649TMC3    H2 9613   0.447   4.170  12.581  1.2639  2.6482 -0.8258
  649TMC3    C7 9614   0.318   4.216  12.830  0.2102  0.4734  0.2455
  649TMC3    C8 9615   0.393   4.260  12.346  0.2540  0.3862  0.6909
  649TMC3    O1 9616   0.261   4.271  12.922  0.6334 -0.9857  0.4543
  649TMC3    O2 9617   0.504   4.283  12.386 -0.0199  0.0631 -0.2404
  650TMC3    C1 9618   3.044   1.334  12.362 -0.0221 -0.2553 -0.3697
  650TMC3    C2 9619   3.053   1.471  12.368 -0.1956 -0.8781  0.9834
  650TMC3    C3 9620   3.005   1.539  12.260 -0.2649  0.4672  0.6592
  650TMC3    C4 9621   2.994   1.264  12.257  0.6203 -1.1849 -0.4345
  650TMC3    C5 9622   2.956   1.340  12.152  0.2194 -0.1084 -0.3347
  650TMC3    C6 9623   2.962   1.479  12.151 -0.1934 -0.7072  0.5724
  650TMC3     C 9624   3.088   1.265  12.486 -0.2688 -0.4780  0.0988
  650TMC3     O 9625   3.099   1.336  12.586 -0.1342  0.1376 -0.2990
  650TMC3     H 9626   3.096   1.519  12.455  0.5557  1.7110 -0.8003
  650TMC3    H1 9627   2.973   1.158  12.263 -0.9117 -0.8874 -0.5371
  650TMC3    H2 9628   2.930   1.536  12.064  0.8937 -0.9169  0.0356
  650TMC3    C7 9629   2.917   1.266  12.030 -0.6929  0.7544 -0.2118
  650TMC3    C8 9630   3.003   1.687  12.268 -0.3466  0.0996 -0.7549
  650TMC3    O1 9631   2.926   1.141  12.040 -0.3960 -0.8796  0.1924
  650TMC3    O2 9632   3.067   1.736  12.364  0.0921 -0.3828 -0.2864
  651MPD2     C 9633   1.786   2.837  10.191  0.4341  0.3772  0.2536
  651MPD2    C1 9634   1.782   2.968  10.209 -0.0874  0.4510  1.4767
  651MPD2    C2 9635   1.903   3.034  10.198  0.1808 -0.2050  0.7911
  651MPD2    C3 9636   2.025   2.969  10.174  0.4888 -0.0648  0.0980
  651MPD2    C4 9637   2.026   2.837  10.155  1.0135  0.5729 -0.2593
  651MPD2    C5 9638   1.903   2.775  10.169 -0.3023  0.3731 -0.1422
  651MPD2     H 9639   1.910   3.142  10.194 -1.7094 -0.1068  0.2068
  651MPD2    H1 9640   2.117   2.782  10.137  1.0737  0.1980  1.1953
  651MPD2    H2 9641   1.700   2.772  10.206 -0.2213  1.5150  1.4387
  651MPD2    H3 9642   1.900   2.667  10.170 -0.1394  0.3410 -3.1526
  651MPD2     N 9643   2.140   3.042  10.166 -0.6765  0.1064  0.1494
  651MPD2    H5 9644   2.127   3.140  10.192 -0.2308  0.3088 -0.3944
  651MPD2    N1 9645   1.671   3.042  10.249 -0.1836 -0.1410  0.1957
  651MPD2    H7 9646   1.698   3.136  10.277  0.0565 -0.0017 -0.5071
  652TMC3    C1 9647   2.519   3.217  10.253 -0.2080 -0.0872 -1.0957
  652TMC3    C2 9648   2.465   3.102  10.203 -0.1983  0.0564 -0.5737
  652TMC3    C3 9649   2.347   3.120  10.145  0.0492  0.0178 -0.6171
  652TMC3    C4 9650   2.458   3.342  10.254  0.1250 -0.2371  0.0404
  652TMC3    C5 9651   2.329   3.346  10.202 -0.0062  0.0345  0.1121
  652TMC3    C6 9652   2.280   3.239  10.139 -0.5554  0.0387 -0.3194
  652TMC3     C 9653   2.652   3.218  10.311 -0.0253  0.3466 -0.6756
  652TMC3     O 9654   2.693   3.120  10.378  0.2773  0.2165 -0.2949
  652TMC3     H 9655   2.519   3.008  10.214  0.5720  0.3803 -1.5529
  652TMC3    H1 9656   2.510   3.423  10.303 -1.4287  0.3458  0.7279
  652TMC3    H2 9657   2.188   3.255  10.083 -0.4519 -0.6915 -0.7062
  652TMC3    C7 9658   2.229   3.391  10.289 -0.0937  0.8293 -0.3483
  652TMC3    C8 9659   2.261   3.001  10.130 -0.7667  0.0940 -0.0061
  652TMC3    O1 9660   2.131   3.318  10.298 -0.3321  0.4162 -0.1623
  652TMC3    O2 9661   2.319   2.896  10.109 -0.2234 -0.0534  0.2011
  653MPD2     C 9662   0.550   3.262  17.645  0.2254  0.1753  0.0895
  653MPD2    C1 9663   0.638   3.324  17.562  0.2282 -0.5492  0.2659
  653MPD2    C2 9664   0.656   3.285  17.429 -0.1443  0.1913  0.3779
  653MPD2    C3 9665   0.578   3.178  17.386  0.1091 -0.0737  0.5500
  653MPD2    C4 9666   0.489   3.112  17.468  0.5086  0.2593 -0.0651
  653MPD2    C5 9667   0.485   3.151  17.600  0.1090 -0.7911 -0.2565
  653MPD2     H 9668   0.721   3.338  17.362 -1.0425  0.0163 -0.6246
  653MPD2    H1 9669   0.437   3.020  17.443  1.0041  0.0534 -0.3362
  653MPD2    H2 9670   0.537   3.288   0.046  1.1513  0.1968  0.2012
  653MPD2    H3 9671   0.424   3.099  17.673 -0.6006  0.0305 -0.2576
  653MPD2     N 9672   0.596   3.144  17.249 -0.1622  0.3842  0.9644
  653MPD2    H5 9673   0.633   3.213  17.185 -2.1017 -0.2493 -0.8863
  653MPD2    N1 9674   0.720   3.437  17.594 -0.5328  0.6149 -0.0945
  653MPD2    H7 9675   0.775   3.477  17.519 -0.2413  0.4789  0.0464
  654TMC3    C1 9676   0.555   3.019  17.065  0.5300  0.1250  0.1580
  654TMC3    C2 9677   0.485   3.123  17.001  0.3939 -0.2528  0.8550
  654TMC3    C3 9678   0.475   3.113  16.864 -0.1782  0.1238  0.2628
  654TMC3    C4 9679   0.571   2.897  17.009 -0.6085  0.3824 -0.6309
  654TMC3    C5 9680   0.536   2.878  16.875  0.5013  0.3118  0.0936
  654TMC3    C6 9681   0.484   2.982  16.808 -0.3353 -0.1564 -0.2792
  654TMC3     C 9682   0.558   3.018  17.203  0.2719  0.7697 -0.0740
  654TMC3     O 9683   0.541   2.910  17.263 -0.1973 -0.2028  0.1657
  654TMC3     H 9684   0.477   3.214  17.059  0.7223 -0.3994  1.1318
  654TMC3    H1 9685   0.633   2.829  17.065 -2.3078 -1.0722 -0.5041
  654TMC3    H2 9686   0.465   2.961  16.703 -0.0070 -0.7558 -0.2154
  654TMC3    C7 9687   0.538   2.744  16.809 -0.5441  0.1449 -0.0348
  654TMC3    C8 9688   0.383   3.196  16.780 -0.0944 -0.3357  0.0228
  654TMC3    O1 9689   0.511   2.747  16.690 -0.1799 -0.0320  0.3179
  654TMC3    O2 9690   0.293   3.250  16.839 -0.3057 -0.5608 -0.5592
  655MPD2     C 9691   2.169   2.960  15.427 -0.2136  0.0037  0.0621
  655MPD2    C1 9692   2.089   3.050  15.360 -0.4987 -0.4785 -0.5748
  655MPD2    C2 9693   2.101   3.067  15.223  0.3442  0.6560 -0.1586
  655MPD2    C3 9694   2.167   2.974  15.146  0.2994 -0.5878 -0.3915
  655MPD2    C4 9695   2.242   2.876  15.214 -0.1050 -0.3075  0.3237
  655MPD2    C5 9696   2.229   2.865  15.350 -0.0366 -0.7900 -0.3808
  655MPD2     H 9697   2.041   3.141  15.170 -0.2318  0.1802 -0.1719
  655MPD2    H1 9698   2.301   2.806  15.156  0.9076  0.4735  0.4193
  655MPD2    H2 9699   2.182   2.958  15.534  3.4148 -2.1270 -0.4258
  655MPD2    H3 9700   2.298   2.798  15.402  2.0338  0.7132 -1.1855
  655MPD2     N 9701   2.158   2.961  15.003  0.1127 -0.1666  0.2172
  655MPD2    H5 9702   2.211   2.886  14.958  1.2472 -1.2073  3.2270
  655MPD2    N1 9703   2.021   3.147  15.429 -0.5787  1.0269  0.6579
  655MPD2    H7 9704   1.976   3.209  15.363 -0.8222 -0.5725 -0.6864
  656TMC3    C1 9705   1.917   3.274  15.594 -0.9072  0.2253 -0.4724
  656TMC3    C2 9706   1.855   3.276  15.714 -0.2932  0.2039  0.5290
  656TMC3    C3 9707   1.802   3.396  15.757  0.4584 -0.4272  0.1872
  656TMC3    C4 9708   1.939   3.387  15.517  0.8577  0.3489  0.7874
  656TMC3    C5 9709   1.887   3.501  15.570  0.0855  0.0120  1.0511
  656TMC3    C6 9710   1.820   3.515  15.686 -0.3566 -0.3463 -0.1747
  656TMC3     C 9711   1.995   3.152  15.566 -0.1738  0.1687 -0.4018
  656TMC3     O 9712   2.015   3.071  15.659 -0.7836  0.3494 -0.0295
  656TMC3     H 9713   1.832   3.181  15.761 -3.0497  1.3539  1.4212
  656TMC3    H1 9714   1.987   3.399  15.420 -2.7880  0.1756 -1.0308
  656TMC3    H2 9715   1.788   3.615  15.715 -0.3352  0.1541 -1.9192
  656TMC3    C7 9716   1.883   3.613  15.472  0.0846  1.0250 -0.0392
  656TMC3    C8 9717   1.688   3.387  15.851  0.2565  0.8065 -0.3980
  656TMC3    O1 9718   1.973   3.613  15.392 -0.2383 -0.5857  0.0141
  656TMC3    O2 9719   1.635   3.283  15.875 -0.6514  0.2154 -0.1169
  657TMC3    C1 9720   1.118   2.685  14.666 -0.5988 -0.1472  0.2432
  657TMC3    C2 9721   1.144   2.713  14.800  0.4303 -0.4437  0.0859
  657TMC3    C3 9722   1.057   2.802  14.859  0.4757  0.0031  0.5289
  657TMC3    C4 9723   1.013   2.746  14.599 -1.0541 -0.1187  0.5374
  657TMC3    C5 9724   0.933   2.830  14.662 -0.0543 -0.4516  0.1386
  657TMC3    C6 9725   0.951   2.859  14.795 -0.0873  0.0075 -0.0320
  657TMC3     C 9726   1.207   2.597  14.597 -0.5585  0.1182 -0.0267
  657TMC3     O 9727   1.158   2.545  14.499 -0.0252  0.1926  0.2007
  657TMC3     H 9728   1.233   2.683  14.855  0.1031 -1.7120 -0.0750
  657TMC3    H1 9729   1.008   2.720  14.493  1.7769  2.3354 -0.1981
  657TMC3    H2 9730   0.890   2.929  14.852  1.8597  0.5426  1.4077
  657TMC3    C7 9731   0.820   2.881  14.576  0.5556  0.2638  0.3260
  657TMC3    C8 9732   1.103   2.860  14.976  0.0936 -1.1628 -0.8018
  657TMC3    O1 9733   0.820   2.868  14.453 -0.4505  1.0167 -0.2360
  657TMC3    O2 9734   1.192   2.802  15.040 -0.3131  0.7917 -0.2723
  658MPD2     C 9735   2.454   3.131  14.422 -0.5778 -0.6006 -0.4912
  658MPD2    C1 9736   2.360   3.039  14.392 -0.2733 -0.3185  0.3179
  658MPD2    C2 9737   2.318   3.026  14.261 -0.4978 -0.1380 -0.3983
  658MPD2    C3 9738   2.380   3.094  14.158  0.4524 -0.2704  0.1290
  658MPD2    C4 9739   2.480   3.187  14.188 -0.5641 -0.0054  0.0961
  658MPD2    C5 9740   2.511   3.206  14.321  0.0535 -0.2186  0.4284
  658MPD2     H 9741   2.231   2.972  14.225 -0.5908 -1.6402  2.1105
  658MPD2    H1 9742   2.533   3.237  14.107  0.4986  0.4095  1.0350
  658MPD2    H2 9743   2.482   3.142  14.526 -1.0547  0.2930 -0.4612
  658MPD2    H3 9744   2.573   3.289  14.351 -1.9456  1.5786 -0.4101
  658MPD2     N 9745   2.325   3.070  14.029  0.3483 -0.0516  0.0418
  658MPD2    H5 9746   2.257   2.996  14.023  0.2700  0.0983 -0.9373
  658MPD2    N1 9747   2.277   2.997  14.501 -0.2424  0.0566 -0.6977
  658MPD2    H7 9748   2.304   3.038  14.590  0.2526  1.2009 -1.3784
  659TMC3    C1 9749   2.085   2.900  14.599 -0.1896 -0.6287  0.5337
  659TMC3    C2 9750   2.129   2.917  14.725  0.3947 -0.3362  0.5758
  659TMC3    C3 9751   2.031   2.954  14.814  0.0609 -0.3821  0.1818
  659TMC3    C4 9752   1.948   2.897  14.571 -0.2464 -0.3501  0.7692
  659TMC3    C5 9753   1.859   2.944  14.660 -0.5041  1.0930 -0.4599
  659TMC3    C6 9754   1.901   2.969  14.786 -0.2287 -0.1851  0.5258
  659TMC3     C 9755   2.177   2.898  14.486  0.5771  0.3048 -0.1261
  659TMC3     O 9756   2.148   2.838  14.382  0.2066  0.4282 -0.6328
  659TMC3     H 9757   2.232   2.942  14.745  0.1911  0.7201  0.3350
  659TMC3    H1 9758   1.917   2.908  14.467  3.0365 -0.5607 -0.2232
  659TMC3    H2 9759   1.825   3.006  14.853  0.3994  1.1701  0.4894
  659TMC3    C7 9760   1.719   2.972  14.624  0.3350 -0.1193  0.5562
  659TMC3    C8 9761   2.062   3.024  14.933  0.2006  0.2746 -0.4241
  659TMC3    O1 9762   1.655   3.045  14.700 -0.0163  0.2859 -0.7068
  659TMC3    O2 9763   1.987   3.113  14.965 -0.3905 -0.2445  0.1594
  660MPD2     C 9764   0.206   2.321  12.524 -0.0329  0.6669  1.0345
  660MPD2    C1 9765   0.069   2.322  12.509  0.8718  0.6586  0.3631
  660MPD2    C2 9766   4.716   2.332  12.625 -0.6500  0.2715 -0.0572
  660MPD2    C3 9767   0.048   2.339  12.753  0.2076  0.2158  0.2399
  660MPD2    C4 9768   0.185   2.336  12.760 -0.7413  0.0519  0.9435
  660MPD2    C5 9769   0.258   2.339  12.647 -0.5193  0.0833 -0.2482
  660MPD2     H 9770   4.609   2.342  12.615 -0.7331  0.8992  1.3875
  660MPD2    H1 9771   0.237   2.323  12.854  1.7675  1.9204 -0.1999
  660MPD2    H2 9772   0.266   2.319  12.433 -1.5748 -1.3073  0.0900
  660MPD2    H3 9773   0.365   2.356  12.656 -0.5723  0.2365  0.0920
  660MPD2     N 9774   4.699   2.318  12.875 -0.6981 -0.3732  0.1220
  660MPD2    H5 9775   0.028   2.282  12.953 -0.0604 -1.3333 -0.7559
  660MPD2    N1 9776   0.007   2.305  12.378 -0.0376  0.6982  0.5271
  660MPD2    H7 9777   0.065   2.309  12.295 -0.3122  1.2832  0.3627
  661TMC3    C1 9778   4.578   2.259  12.214  0.2325 -0.0015  0.2508
  661TMC3    C2 9779   4.669   2.185  12.146 -0.0986  0.2528  0.2598
  661TMC3    C3 9780   4.633   2.139  12.019  1.0745  0.3273  0.4760
  661TMC3    C4 9781   4.455   2.280  12.166  0.9121  0.1042  0.4835
  661TMC3    C5 9782   4.419   2.216  12.047  0.2991 -0.0444 -0.0584
  661TMC3    C6 9783   4.508   2.153  11.970 -0.2055 -0.3181 -0.4014
  661TMC3     C 9784   4.597   2.282  12.357 -0.8547 -0.6550 -0.1763
  661TMC3     O 9785   4.497   2.278  12.425  0.3272  0.0551  0.3914
  661TMC3     H 9786   0.047   2.169  12.175 -0.5548  0.5122  2.0554
  661TMC3    H1 9787   4.391   2.324  12.242 -2.4091 -3.1053 -0.4806
  661TMC3    H2 9788   4.491   2.106  11.874  0.6655 -1.4480  0.0009
  661TMC3    C7 9789   4.303   2.274  11.980 -0.1508 -0.1341 -0.8100
  661TMC3    C8 9790   0.013   2.083  11.930 -0.0149  0.0964  0.6304
  661TMC3    O1 9791   4.237   2.358  12.038  0.1632  0.2848  0.4973
  661TMC3    O2 9792   0.120   2.051  11.981 -0.6310  0.1952 -0.0850
  662MPD2     C 9793   0.298   1.871  17.305 -0.7326  0.5268 -0.4688
  662MPD2    C1 9794   0.308   1.795  17.420  0.7531  0.1201  0.1463
  662MPD2    C2 9795   0.267   1.846  17.544 -0.0415 -0.3303 -0.1698
  662MPD2    C3 9796   0.186   1.954  17.547  0.2317  0.2761  0.4847
  662MPD2    C4 9797   0.178   2.030  17.434  0.2246 -0.1616  0.1660
  662MPD2    C5 9798   0.221   1.981  17.312 -0.5199 -0.4281  0.5334
  662MPD2     H 9799   0.295   1.795  17.635 -1.2063 -0.1848  0.2732
  662MPD2    H1 9800   0.113   2.116  17.434 -1.0788 -1.1507  0.1953
  662MPD2    H2 9801   0.350   1.847  17.214 -1.5480  0.1661 -0.8382
  662MPD2    H3 9802   0.200   2.040  17.223  0.4411 -1.0914 -0.1377
  662MPD2     N 9803   0.108   1.990  17.658  0.4459 -0.2220  0.2230
  662MPD2    H5 9804   0.054   2.075  17.654  0.4550 -0.1377  1.9143
  662MPD2    N1 9805   0.374   1.670  17.422 -0.7602 -0.2359  0.5226
  662MPD2    H7 9806   0.382   1.625  17.512 -0.6193 -1.2940 -0.0226
  663TMC3    C1 9807   0.424   1.454  17.346 -0.2695 -0.1339 -0.2693
  663TMC3    C2 9808   0.378   1.400  17.466 -0.3018 -0.3604 -0.2007
  663TMC3    C3 9809   0.321   1.268  17.473 -0.7446  0.2309  0.1739
  663TMC3    C4 9810   0.425   1.374  17.238  0.0462  0.5644  0.0124
  663TMC3    C5 9811   0.387   1.238  17.244 -0.0836  0.5665 -0.0057
  663TMC3    C6 9812   0.343   1.181  17.363  0.2605 -0.5672  0.7359
  663TMC3     C 9813   0.413   1.594  17.311  0.1265 -0.2198 -0.1948
  663TMC3     O 9814   0.421   1.628  17.191  0.5793 -0.0433  0.0038
  663TMC3     H 9815   0.364   1.471  17.547  1.9005 -1.8748  1.4982
  663TMC3    H1 9816   0.469   1.408  17.144 -1.0616  2.0828  0.0338
  663TMC3    H2 9817   0.319   1.076  17.373 -0.2897 -0.5068  0.0415
  663TMC3    C7 9818   0.428   1.152  17.131 -0.2281 -0.2040  0.0655
  663TMC3    C8 9819   0.333   1.204  17.597 -0.1525 -0.6279 -0.5260
  663TMC3    O1 9820   0.503   1.210  17.051 -0.2999  0.1395  0.0299
  663TMC3    O2 9821   0.386   1.092  17.601  0.5125  0.5312  0.4436
  664MPD2     C 9822   2.770   4.465   0.463 -0.4937 -0.5606  0.6684
  664MPD2    C1 9823   2.847   4.575   0.446  0.2824  0.0551  0.3988
  664MPD2    C2 9824   2.873   4.658   0.550  1.0736 -0.0685  0.3583
  664MPD2    C3 9825   2.794   4.646   0.665  0.7850 -0.0045  0.1532
  664MPD2    C4 9826   2.713   4.538   0.676 -0.2285 -0.4476  0.6586
  664MPD2    C5 9827   2.704   4.442   0.581 -0.6514 -0.3676  0.2315
  664MPD2     H 9828   2.929   0.025   0.535 -0.5997  1.0453  1.0374
  664MPD2    H1 9829   2.639   4.518   0.752 -0.9516 -1.3523 -0.2693
  664MPD2    H2 9830   2.755   4.401   0.377  0.8218 -0.8939  0.6920
  664MPD2    H3 9831   2.643   4.353   0.594  1.2117 -1.4073  1.9836
  664MPD2     N 9832   2.803   0.027   0.760  0.8764 -0.5435  0.1517
  664MPD2    H5 9833   2.867   0.103   0.740  0.2394  0.2969  1.3319
  664MPD2    N1 9834   2.925   4.610   0.332  0.3668  0.1596 -0.1126
  664MPD2    H7 9835   2.990   4.688   0.334 -1.4992  1.6613  0.9480
  665TMC3    C1 9836   2.739   0.165   0.936 -0.6755  0.0859 -0.4287
  665TMC3    C2 9837   2.628   0.212   1.006  0.4528  0.5682 -0.1081
  665TMC3    C3 9838   2.628   0.343   1.046  0.2299  0.7022  0.0100
  665TMC3    C4 9839   2.845   0.248   0.906 -0.8886  0.7132  0.1789
  665TMC3    C5 9840   2.843   0.375   0.949  0.3484  0.2696 -0.5055
  665TMC3    C6 9841   2.735   0.421   1.019  0.4275 -0.7424  0.2950
  665TMC3     C 9842   2.726   0.034   0.874  0.2442  0.1604  0.2503
  665TMC3     O 9843   2.641   4.680   0.918 -0.2914  0.2516  0.1025
  665TMC3     H 9844   2.564   0.133   1.043  1.9234 -1.1787 -1.3023
  665TMC3    H1 9845   2.937   0.210   0.864 -1.5121  1.7000 -2.0825
  665TMC3    H2 9846   2.726   0.529   1.028 -1.3179 -0.9355  0.7638
  665TMC3    C7 9847   2.968   0.443   0.951  0.0599 -0.1831  0.4424
  665TMC3    C8 9848   2.536   0.402   1.150 -0.2753  0.0978 -0.3128
  665TMC3    O1 9849   3.054   0.399   0.877  0.5691 -0.0414  0.0194
  665TMC3    O2 9850   2.566   0.514   1.187  0.6176 -0.3348  0.2000
  666TMC3    C1 9851   2.182   4.064   9.933  0.1636  0.1046 -1.0852
  666TMC3    C2 9852   2.304   4.066   9.991  0.5258  0.4998  0.1499
  666TMC3    C3 9853   2.374   4.176  10.030 -0.6100 -0.2448  0.2890
  666TMC3    C4 9854   2.129   4.184   9.904 -0.3190  0.4285  0.3921
  666TMC3    C5 9855   2.190   4.302   9.935 -0.0747 -0.0783  0.2036
  666TMC3    C6 9856   2.312   4.299  10.003  0.3909  0.3429 -0.2359
  666TMC3     C 9857   2.109   3.958   9.996 -0.4840 -0.5421 -0.2458
  666TMC3     O 9858   2.056   3.978  10.106 -0.1317 -0.0426 -0.8447
  666TMC3     H 9859   2.335   3.968  10.025 -1.0050  0.4446  1.3518
  666TMC3    H1 9860   2.022   4.183   9.888 -0.3561 -0.0883  0.6709
  666TMC3    H2 9861   2.362   4.394  10.015 -0.9295  0.3865  4.9745
  666TMC3    C7 9862   2.130   4.429   9.888  0.9826 -0.3764  0.2357
  666TMC3    C8 9863   2.452   4.163  10.150 -0.0414  0.8323  0.5253
  666TMC3    O1 9864   2.011   4.443   9.898  0.0345 -0.3190  0.2435
  666TMC3    O2 9865   2.434   4.062  10.215 -0.2719 -0.0988  0.7880
  667MPD2     C 9866   4.135   0.081  14.423 -0.1869  1.0453  0.1539
  667MPD2    C1 9867   4.174   0.084  14.556  0.6759 -0.3424 -0.1670
  667MPD2    C2 9868   4.197   4.695  14.630 -0.4028  0.2171  0.4900
  667MPD2    C3 9869   4.173   4.575  14.565  0.2396  0.2460  0.1388
  667MPD2    C4 9870   4.137   4.574  14.431 -0.2695  0.8308 -0.8208
  667MPD2    C5 9871   4.132   4.685  14.356 -0.5790 -1.0334 -0.1644
  667MPD2     H 9872   4.225   4.702  14.734  0.0370 -1.1783  0.4758
  667MPD2    H1 9873   4.107   4.482  14.380  0.8210 -0.3987  0.7475
  667MPD2    H2 9874   4.124   0.164  14.355 -0.9426  1.0102  0.2305
  667MPD2    H3 9875   4.101   4.673  14.253  0.2068 -1.2989 -0.3681
  667MPD2     N 9876   4.183   4.447  14.623  0.3213 -0.0820  0.7839
  667MPD2    H5 9877   4.157   4.369  14.564  0.7268  1.0460 -0.8583
  667MPD2    N1 9878   4.190   0.210  14.622 -0.2499  0.4606  0.5360
  667MPD2    H7 9879   4.224   0.210  14.718 -0.4851  2.2679  0.6117
  668TMC3    C1 9880   4.186   0.438  14.641 -0.4711 -0.1030  0.4130
  668TMC3    C2 9881   4.248   0.546  14.577 -0.3840 -0.6870  0.4412
  668TMC3    C3 9882   4.270   0.660  14.650  0.2218  0.1045 -0.2229
  668TMC3    C4 9883   4.165   0.439  14.774  0.1912  0.0606 -0.4408
  668TMC3    C5 9884   4.204   0.554  14.839 -0.4074 -0.8101  0.5950
  668TMC3    C6 9885   4.245   0.668  14.783 -0.0201  0.7184  0.2052
  668TMC3     C 9886   4.168   0.325  14.558  0.3903 -0.5123 -0.4256
  668TMC3     O 9887   4.152   0.357  14.441 -0.5291  0.3157  0.0789
  668TMC3     H 9888   4.262   0.551  14.470  1.0815 -2.1855  0.5561
  668TMC3    H1 9889   4.110   0.361  14.825 -1.9001  1.3904 -0.6593
  668TMC3    H2 9890   4.251   0.763  14.834  0.8266  1.1146 -0.6102
  668TMC3    C7 9891   4.182   0.559  14.984  0.1944  0.3130  0.1060
  668TMC3    C8 9892   4.275   0.778  14.570  0.4078  0.0648  0.0283
  668TMC3    O1 9893   4.089   0.494  15.032  0.4195 -0.8483 -0.0524
  668TMC3    O2 9894   4.215   0.868  14.621  0.0457  0.1049  0.1810
  669TMC3    C1 9895   2.002   4.620  14.803 -0.0967 -0.0784  0.3843
  669TMC3    C2 9896   1.900   4.644  14.720 -0.0287 -0.3909  0.4474
  669TMC3    C3 9897   1.917   0.003  14.620 -0.0568  1.0834  0.7230
  669TMC3    C4 9898   2.127   4.672  14.784  0.5356  0.4751  0.4328
  669TMC3    C5 9899   2.144   0.040  14.684 -0.2731 -0.0418 -0.3175
  669TMC3    C6 9900   2.036   0.072  14.604  0.0767  0.5902 -0.0330
  669TMC3     C 9901   1.978   4.529  14.913 -0.0750  0.7784  0.8845
  669TMC3     O 9902   1.862   4.498  14.935  0.3327  0.2009  1.1378
  669TMC3     H 9903   1.807   4.588  14.718  0.1712 -0.7466  0.9843
  669TMC3    H1 9904   2.200   4.666  14.864  1.1675 -0.2872 -0.2096
  669TMC3    H2 9905   2.049   0.138  14.518  2.4863  0.9461  0.6159
  669TMC3    C7 9906   2.277   0.075  14.649  0.2458  1.0630  0.3414
  669TMC3    C8 9907   1.823   4.714  14.505  0.0938  0.3044  0.3258
  669TMC3    O1 9908   2.287   0.174  14.571  0.5494  0.5402 -0.4274
  669TMC3    O2 9909   1.749   4.615  14.506  0.3371  0.1917  0.3518
  670MPD2     C 9910   0.416   2.100  13.301 -0.4492  0.8601 -0.1722
  670MPD2    C1 9911   0.494   2.203  13.354  0.2601  0.4357  0.9757
  670MPD2    C2 9912   0.450   2.273  13.467 -0.1194 -0.2736 -0.1698
  670MPD2    C3 9913   0.331   2.238  13.529  0.8976  1.1438  0.0250
  670MPD2    C4 9914   0.255   2.138  13.473  0.2345  0.3949 -0.9253
  670MPD2    C5 9915   0.299   2.075  13.362  0.1416  0.0357  0.2036
  670MPD2     H 9916   0.503   2.358  13.507  2.1948 -0.7065 -2.2916
  670MPD2    H1 9917   0.160   2.104  13.512  0.5905  1.6844  1.0960
  670MPD2    H2 9918   0.446   2.056  13.206 -1.8413 -0.3149 -0.0725
  670MPD2    H3 9919   0.231   2.001  13.323  0.2411  0.1418 -0.1751
  670MPD2     N 9920   0.301   2.309  13.645  0.4218 -0.0188  0.2419
  670MPD2    H5 9921   0.364   2.380  13.681  0.9622 -0.4994  0.2527
  670MPD2    N1 9922   0.612   2.246  13.284 -0.4301 -0.0704 -0.7642
  670MPD2    H7 9923   0.670   2.310  13.336 -0.6837  1.3847 -2.2625
  671TMC3    C1 9924   0.201   2.341  13.848  0.5467  0.3907  0.3750
  671TMC3    C2 9925   0.326   2.336  13.912 -0.2862 -0.4968 -0.3600
  671TMC3    C3 9926   0.330   2.306  14.048 -0.2885 -0.3157 -0.0421
  671TMC3    C4 9927   0.083   2.339  13.924 -0.5517  0.5712 -0.0084
  671TMC3    C5 9928   0.096   2.319  14.059  0.1008 -0.3071  0.3866
  671TMC3    C6 9929   0.216   2.313  14.122 -0.4312 -0.5493  0.0592
  671TMC3     C 9930   0.193   2.280  13.722 -0.4411 -0.3612  0.1035
  671TMC3     O 9931   0.086   2.221  13.694  0.4929  0.5028 -0.2691
  671TMC3     H 9932   0.414   2.316  13.853  0.0401 -0.6772  0.1876
  671TMC3    H1 9933   4.715   2.322  13.872 -0.8282  1.5197  0.1829
  671TMC3    H2 9934   0.213   2.302  14.230  0.5367  1.5678  0.3120
  671TMC3    C7 9935   0.005   2.200  14.096 -0.0687 -0.1168 -0.7661
  671TMC3    C8 9936   0.424   2.203  14.081 -0.1187  0.1760  0.2901
  671TMC3    O1 9937   4.618   2.190  14.047 -0.1568  0.1422 -0.5886
  671TMC3    O2 9938   0.480   2.141  13.991  0.1394  0.0660 -0.4074
  672MPD2     C 9939   4.517   3.355   1.062  0.7941 -0.1840 -0.7695
  672MPD2    C1 9940   4.565   3.227   1.097  0.1540  1.1208 -0.0181
  672MPD2    C2 9941   4.677   3.229   1.179 -0.3344 -0.6744  0.3737
  672MPD2    C3 9942   0.014   3.347   1.217  0.6329 -0.4280  0.6862
  672MPD2    C4 9943   4.696   3.466   1.170  0.4437 -0.2662  0.0293
  672MPD2    C5 9944   4.587   3.467   1.090 -0.2278  0.0868 -0.0570
  672MPD2     H 9945   4.724   3.133   1.195  0.0894 -0.2106  1.9292
  672MPD2    H1 9946   0.014   3.561   1.199 -2.7165  0.2035  3.3229
  672MPD2    H2 9947   4.435   3.350   0.992  2.4434 -0.1737 -2.7088
  672MPD2    H3 9948   4.557   3.559   1.040 -0.6133 -0.5540 -1.0162
  672MPD2     N 9949   0.134   3.352   1.293  0.1318  0.3821  0.5213
  672MPD2    H5 9950   0.183   3.441   1.289  1.5893 -0.3807  1.6026
  672MPD2    N1 9951   4.509   3.104   1.053 -0.1356 -0.1284  0.0462
  672MPD2    H7 9952   4.562   3.028   1.094  0.4846 -1.0387 -2.4038
  673TMC3    C1 9953   4.377   2.960   0.904  1.0209  0.2841  0.4211
  673TMC3    C2 9954   4.401   2.852   0.985 -0.0387 -0.6553 -0.2841
  673TMC3    C3 9955   4.368   2.738   0.929  0.0733  0.4399  0.4513
  673TMC3    C4 9956   4.325   2.948   0.774 -0.3334  0.1879 -0.0066
  673TMC3    C5 9957   4.282   2.830   0.733  0.4947 -0.1963 -0.2315
  673TMC3    C6 9958   4.300   2.725   0.813 -0.1628  0.0685 -0.2830
  673TMC3     C 9959   4.399   3.093   0.965 -0.7528 -0.0991 -1.2451
  673TMC3     O 9960   4.342   3.182   0.902  0.1265 -1.0775  0.6211
  673TMC3     H 9961   4.440   2.858   1.086  2.7052 -2.0352 -1.2708
  673TMC3    H1 9962   4.304   3.039   0.719 -1.6763 -0.1243 -0.0135
  673TMC3    H2 9963   4.288   2.626   0.771  1.2004 -0.7745  1.2968
  673TMC3    C7 9964   4.301   2.791   0.592 -0.1692 -0.0179  0.0253
  673TMC3    C8 9965   4.365   2.617   1.012  0.1206 -0.1042 -0.1785
  673TMC3    O1 9966   4.256   2.682   0.549 -0.0326 -0.2693  0.5672
  673TMC3    O2 9967   4.290   2.523   0.979 -0.1935  0.3181 -0.7122
  674MPD2     C 9968   0.247   2.604  17.495 -0.4409 -0.2799 -0.3597
  674MPD2    C1 9969   0.151   2.553  17.582 -0.2454  0.6284  0.2418
  674MPD2    C2 9970   0.026   2.605  17.583 -0.8667 -0.1992  0.1437
  674MPD2    C3 9971   4.723   2.708  17.494  0.3444 -0.3590  0.2501
  674MPD2    C4 9972   0.097   2.764  17.419 -0.1505  0.7627  0.1779
  674MPD2    C5 9973   0.218   2.708  17.404  0.0797 -0.0012 -0.6280
  674MPD2     H 9974   4.671   2.570  17.647 -1.9855  0.3493 -0.9438
  674MPD2    H1 9975   0.079   2.854  17.362  2.1271  1.5880  0.7650
  674MPD2    H2 9976   0.346   2.560  17.492 -0.2026  0.3286 -1.3927
  674MPD2    H3 9977   0.282   2.752  17.329  1.9053 -1.6564 -0.0430
  674MPD2     N 9978   4.600   2.768  17.511 -0.1589  0.4561 -0.0231
  674MPD2    H5 9979   4.527   2.711  17.553 -1.3872  0.8537 -1.6235
  674MPD2    N1 9980   0.206   2.464  17.678  0.1303  0.4092 -0.2361
  674MPD2    H7 9981   0.302   2.434  17.673  0.3420  1.1731 -0.9373
  675TMC3    C1 9982   0.204   2.327   0.179 -0.5395  0.1607  0.4160
  675TMC3    C2 9983   0.126   2.268   0.272  0.0629  0.2022  0.8506
  675TMC3    C3 9984   0.175   2.249   0.399 -0.8212 -0.7658  0.3816
  675TMC3    C4 9985   0.339   2.348   0.209  0.3852  0.4071  0.1283
  675TMC3    C5 9986   0.384   2.306   0.333  0.5622  0.2641  0.1269
  675TMC3    C6 9987   0.304   2.264   0.434 -0.0197 -0.1780  0.1728
  675TMC3     C 9988   0.124   2.399   0.068 -0.6289  0.1637  0.4303
  675TMC3     O 9989   0.004   2.395   0.070  0.0179 -0.1296  0.1053
  675TMC3     H 9990   0.019   2.256   0.256 -0.0181  0.7986  0.9400
  675TMC3    H1 9991   0.410   2.401   0.146  0.3007  1.8086  1.2285
  675TMC3    H2 9992   0.347   2.247   0.532  0.3836  0.4315  0.1038
  675TMC3    C7 9993   0.527   2.301   0.351 -0.3140 -0.6045 -0.3490
  675TMC3    C8 9994   0.084   2.214   0.499  0.6440  1.0398  0.1965
  675TMC3    O1 9995   0.600   2.381   0.286  0.1306  0.1464 -0.6339
  675TMC3    O2 9996   4.693   2.256   0.496  0.2866 -0.5754 -0.2564
  676MPD2     C 9997   3.266   1.068  10.539 -0.0506  0.1032 -0.4493
  676MPD2    C1 9998   3.146   1.031  10.597  0.0593 -0.2736  0.8728
  676MPD2    C2 9999   3.120   0.898  10.605  0.0485  0.6195 -0.0939
  676MPD2    C310000   3.219   0.808  10.564 -0.1211  0.3306  0.6270
  676MPD2    C410001   3.340   0.851  10.515 -0.2600  0.3265  0.6731
  676MPD2    C510002   3.357   0.987  10.498 -0.0645 -1.2080 -0.2169
  676MPD2     H10003   3.025   0.864  10.643 -1.0808  1.3950 -2.2007
  676MPD2    H110004   3.411   0.775  10.485 -1.2612  0.2940 -1.6209
  676MPD2    H210005   3.299   1.171  10.533 -0.6549  0.1909 -2.0087
  676MPD2    H310006   3.450   1.024  10.456 -1.2839  1.1493 -0.8183
  676MPD2     N10007   3.220   0.670  10.594  0.0610 -0.1541  0.1452
  676MPD2    H510008   3.305   0.615  10.592  0.9385  1.1684  0.9882
  676MPD2    N110009   3.045   1.113  10.651  0.6925  0.0282  0.1645
  676MPD2    H710010   2.967   1.071  10.701 -0.2674  1.5795 -0.0343
  677TMC3    C110011   2.922   1.312  10.680 -0.7241  0.3247  1.3301
  677TMC3    C210012   2.815   1.222  10.665 -0.4640 -0.4249  0.4312
  677TMC3    C310013   2.713   1.235  10.755  0.5488  0.6019 -0.5763
  677TMC3    C410014   2.930   1.409  10.776 -0.2756  0.2796 -1.0595
  677TMC3    C510015   2.821   1.422  10.857 -0.2621 -0.6188  0.1487
  677TMC3    C610016   2.716   1.338  10.848 -0.0250 -0.9475  0.6432
  677TMC3     C10017   3.053   1.255  10.645  0.3756  0.4592  0.3021
  677TMC3     O10018   3.148   1.328  10.622  0.0593 -0.1455 -0.2424
  677TMC3     H10019   2.817   1.162  10.575 -0.6704 -1.6299  1.2284
  677TMC3    H110020   3.022   1.462  10.796  0.5028 -1.5187  0.1924
  677TMC3    H210021   2.625   1.347  10.906 -1.1417  0.5202 -1.3091
  677TMC3    C710022   2.852   1.425  11.002 -0.0387 -0.1641  0.5211
  677TMC3    C810023   2.702   1.108  10.822 -0.0126  0.2399 -0.5087
  677TMC3    O110024   2.768   1.377  11.073  0.0798  0.0169 -0.4842
  677TMC3    O210025   2.778   1.031  10.763 -0.8164  0.0903 -0.3132
  678MPD2     C10026   4.365   1.321   1.805 -0.3024 -0.0756 -0.8789
  678MPD2    C110027   4.395   1.252   1.689 -0.1235 -0.2830 -0.4450
  678MPD2    C210028   4.290   1.196   1.622 -0.2042  0.5121  0.7880
  678MPD2    C310029   4.160   1.214   1.664 -0.2523 -0.4490  1.0284
  678MPD2    C410030   4.134   1.283   1.783 -0.6516 -0.0010  0.1556
  678MPD2    C510031   4.240   1.342   1.845 -0.2001  0.5368 -0.9206
  678MPD2     H10032   4.304   1.134   1.535 -1.4126 -0.7024  1.4610
  678MPD2    H110033   4.041   1.276   1.837 -0.0846 -2.4577  0.8008
  678MPD2    H210034   4.446   1.361   1.865  0.0443 -1.9652 -0.0510
  678MPD2    H310035   4.234   1.396   1.939 -0.5339 -0.2739 -0.4710
  678MPD2     N10036   4.057   1.164   1.583 -0.2531  0.0142  0.2424
  678MPD2    H510037   4.077   1.118   1.495  0.4142  0.7211  0.0263
  678MPD2    N110038   4.522   1.217   1.646 -0.2139  0.6241 -0.3062
  678MPD2    H710039   4.523   1.152   1.568 -1.4777  0.7816 -0.4509
  679TMC3    C110040   0.170   1.078   1.539  0.4656  0.2494  0.1245
  679TMC3    C210041   0.058   1.104   1.612 -0.6695  0.4048 -0.1666
  679TMC3    C310042   0.040   1.231   1.647 -0.1927  0.0730 -0.1433
  679TMC3    C410043   0.254   1.168   1.488 -0.1670 -0.3581 -0.1014
  679TMC3    C510044   0.233   1.295   1.522  0.0507  0.5029  0.0655
  679TMC3    C610045   0.124   1.329   1.603  0.4389  0.9389 -0.8115
  679TMC3     C10046   0.198   0.944   1.490  0.4249  0.0839  0.0049
  679TMC3     O10047   0.318   0.918   1.472  0.2469  0.2738  0.1375
  679TMC3     H10048   4.720   1.019   1.633 -0.5974  0.8549  1.8781
  679TMC3    H110049   0.336   1.136   1.425 -0.4635  1.0378 -1.1827
  679TMC3    H210050   0.104   1.431   1.634  1.5555  1.1207 -0.7002
  679TMC3    C710051   0.264   1.396   1.423 -0.6176 -0.3369  0.2570
  679TMC3    C810052   4.639   1.272   1.704 -0.4872 -0.1273 -0.1930
  679TMC3    O110053   0.178   1.482   1.414 -0.7018  0.2790 -0.1313
  679TMC3    O210054   4.647   1.370   1.775 -0.8822  0.4062 -0.1440
  680MPD2     C10055   4.426   4.326  13.363  0.3146 -0.6745  0.0739
  680MPD2    C110056   4.536   4.294  13.434  0.0233 -0.1276  0.0395
  680MPD2    C210057   4.597   4.386  13.507  0.6644  0.6664 -0.3545
  680MPD2    C310058   4.556   4.517  13.507  0.0749  0.0548 -0.2329
  680MPD2    C410059   4.442   4.551  13.435  0.2439  0.4925  0.1807
  680MPD2    C510060   4.378   4.452  13.361 -0.5049  0.2082  0.2574
  680MPD2     H10061   4.698   4.359  13.535  0.7773 -0.0241 -1.4286
  680MPD2    H110062   4.405   4.653  13.437 -0.6735  0.1332  1.3913
  680MPD2    H210063   4.378   4.252  13.299  2.6493 -1.3932 -0.8433
  680MPD2    H310064   4.295   4.479  13.297  0.4914  1.4295 -0.5281
  680MPD2     N10065   4.638   4.617  13.573 -0.5203  0.2357 -0.4172
  680MPD2    H510066   4.614   4.715  13.563 -0.7900  0.1559 -0.5497
  680MPD2    N110067   4.583   4.160  13.421 -0.2727 -0.2119  0.5803
  680MPD2    H710068   4.548   4.097  13.350  1.1804 -0.9592  0.5236
  681TMC3    C110069   4.701   3.957  13.501  0.1726 -0.5480  0.0086
  681TMC3    C210070   4.707   3.896  13.624 -0.2102 -0.4736  0.1878
  681TMC3    C310071   0.082   3.808  13.655  0.3481  0.3315 -0.0248
  681TMC3    C410072   0.066   3.930  13.406 -0.4669  0.2531 -0.2869
  681TMC3    C510073   0.171   3.853  13.447 -0.0673  0.4011  0.2921
  681TMC3    C610074   0.181   3.783  13.567  0.0571 -0.1084  0.0890
  681TMC3     C10075   4.665   4.097  13.523 -0.4549 -0.6598  0.2622
  681TMC3     O10076   4.705   4.150  13.630  0.3087 -0.0173  0.2142
  681TMC3     H10077   4.635   3.935  13.695 -1.8343  0.9227 -2.2049
  681TMC3    H110078   0.053   3.971  13.306 -2.0886 -1.0942 -0.6429
  681TMC3    H210079   0.272   3.728  13.589 -0.5538 -0.6852  1.1246
  681TMC3    C710080   0.283   3.834  13.355 -0.3627 -0.2140  0.1268
  681TMC3    C810081   0.107   3.783  13.796 -0.5478  0.0464  0.2843
  681TMC3    O110082   0.363   3.746  13.386 -0.2498 -0.4027 -0.1288
  681TMC3    O210083   0.191   3.698  13.827 -0.4097  0.3751  0.2756
  682MPD2     C10084   1.906   0.771  10.327 -0.1453  0.0846  0.3703
  682MPD2    C110085   1.860   0.641  10.329  0.2170 -0.2605 -0.2577
  682MPD2    C210086   1.850   0.577  10.451  0.0570  0.0132  0.2978
  682MPD2    C310087   1.904   0.625  10.564 -0.0692 -0.1232 -0.2113
  682MPD2    C410088   1.951   0.760  10.565 -0.9572 -0.4667  0.3104
  682MPD2    C510089   1.946   0.828  10.446  0.1050  1.0427  0.6339
  682MPD2     H10090   1.801   0.481  10.445  1.6186 -0.9070  2.0276
  682MPD2    H110091   1.985   0.811  10.655 -1.5595  0.5846 -0.0627
  682MPD2    H210092   1.918   0.832  10.239  0.7406 -0.4937  0.0865
  682MPD2    H310093   1.966   0.935  10.443  0.6178  0.8989 -1.3091
  682MPD2     N10094   1.896   0.562  10.688 -0.3096 -0.4289  0.2022
  682MPD2    H510095   1.935   0.621  10.760  1.8710  0.5942 -1.8246
  682MPD2    N110096   1.797   0.579  10.224  0.5607 -0.6020  0.7080
  682MPD2    H710097   1.761   0.484  10.228 -0.7483 -0.1722 -0.8765
  683TMC3    C110098   1.940   0.427  11.053 -0.7675 -0.3177  0.1738
  683TMC3    C210099   1.928   0.297  11.079 -0.0484  0.1659 -0.1277
  683TMC3    C310100   1.889   0.216  10.981 -0.1264  0.5664  0.2418
  683TMC3    C410101   1.888   0.494  10.942 -0.0401 -0.1144  0.0061
  683TMC3    C510102   1.842   0.405  10.851 -0.7282  0.3183  0.0248
  683TMC3    C610103   1.830   0.272  10.873  0.3205 -0.5030  0.1160
  683TMC3     C10104   1.943   0.517  11.162 -0.3048 -0.3114  0.1094
  683TMC3     O10105   2.013   0.618  11.142 -0.1493  0.0916 -0.0181
  683TMC3     H10106   1.947   0.259  11.179  0.9983  2.1282  0.4119
  683TMC3    H110107   1.887   0.600  10.920 -1.1522 -0.3336 -0.9453
  683TMC3    H210108   1.810   0.208  10.788  0.2848  0.0774 -0.3121
  683TMC3    C710109   1.823   0.449  10.720 -0.6751  0.0786  0.2382
  683TMC3    C810110   1.891   0.075  11.004  0.5883 -0.3115  0.5138
  683TMC3    O110111   1.743   0.392  10.649  0.0039  0.0713  0.0192
  683TMC3    O210112   1.792   0.018  10.963 -0.3260  0.2108  0.5376
  684MPD2     C10113   0.645   0.568  16.345 -0.2211 -0.5118 -0.7843
  684MPD2    C110114   0.573   0.602  16.237  0.1048 -0.1817  0.4201
  684MPD2    C210115   0.484   0.709  16.240 -0.2018 -0.5682 -0.1661
  684MPD2    C310116   0.474   0.783  16.356  1.5432  0.1723  0.1150
  684MPD2    C410117   0.541   0.741  16.472 -0.5507 -0.0499 -0.0522
  684MPD2    C510118   0.627   0.642  16.462  0.6308  0.7081  0.4748
  684MPD2     H10119   0.418   0.736  16.158  0.6704  0.8339 -0.3872
  684MPD2    H110120   0.525   0.784  16.570  0.1976  3.0575 -1.3073
  684MPD2    H210121   0.725   0.496  16.340  1.1339  0.9484  0.1419
  684MPD2    H310122   0.689   0.621  16.548  1.6764 -0.9753 -0.7070
  684MPD2     N10123   0.378   0.890  16.381  0.3552  0.2025  0.0279
  684MPD2    H510124   0.376   0.935  16.471 -1.6723  0.6548 -0.2242
  684MPD2    N110125   0.602   0.526  16.120  0.1183 -0.2084 -0.4126
  684MPD2    H710126   0.660   0.444  16.134  0.2410  0.0597  0.6402
  685TMC3    C110127   0.654   0.479  15.893  0.2994 -0.0677 -0.1621
  685TMC3    C210128   0.599   0.432  15.776 -0.3721  0.2852 -0.8171
  685TMC3    C310129   0.667   0.323  15.728 -0.4067 -0.2013  0.0078
  685TMC3    C410130   0.762   0.423  15.956  0.2096  0.3710 -0.1486
  685TMC3    C510131   0.828   0.315  15.901 -0.2029  0.4095 -0.0493
  685TMC3    C610132   0.777   0.270  15.784 -0.6370  0.6002  0.7854
  685TMC3     C10133   0.576   0.555  15.985  0.3473 -0.4739  0.3730
  685TMC3     O10134   0.511   0.644  15.937  0.3865  0.0567  0.1742
  685TMC3     H10135   0.508   0.474  15.736 -0.2249  0.0032 -1.4332
  685TMC3    H110136   0.814   0.467  16.040 -1.4277  0.5204  0.7818
  685TMC3    H210137   0.834   0.201  15.724 -3.4785  0.2966 -1.5368
  685TMC3    C710138   0.893   0.218  15.996  0.0536  0.0228  0.5241
  685TMC3    C810139   0.588   0.218  15.671  0.5114 -0.4152  0.4791
  685TMC3    O110140   0.890   0.253  16.115 -0.3091  0.4354  0.3801
  685TMC3    O210141   0.607   0.108  15.711 -0.3498 -0.0756 -0.7056
  686MPD2     C10142   1.675   0.472  15.403  0.3334  0.0726  0.1371
  686MPD2    C110143   1.718   0.355  15.474 -0.0235  0.9460 -0.2648
  686MPD2    C210144   1.739   0.243  15.397 -0.1586 -0.1148  0.1595
  686MPD2    C310145   1.697   0.232  15.266  0.3208  0.3407  0.5271
  686MPD2    C410146   1.666   0.349  15.204  0.1680  0.0609 -0.3377
  686MPD2    C510147   1.664   0.464  15.271  0.4613  0.3495 -0.1783
  686MPD2     H10148   1.791   0.164  15.450  2.5595  1.2776 -0.4103
  686MPD2    H110149   1.653   0.359  15.097  1.4453 -1.3546 -0.6266
  686MPD2    H210150   1.663   0.568  15.451 -0.8146  0.6798 -1.3648
  686MPD2    H310151   1.647   0.560  15.224  0.9732  0.1991 -0.6578
  686MPD2     N10152   1.685   0.105  15.197 -0.6079 -0.1107  0.2543
  686MPD2    H510153   1.671   0.120  15.098 -2.9096 -2.1084  0.2692
  686MPD2    N110154   1.718   0.354  15.620  0.6616 -0.0926  0.4145
  686MPD2    H710155   1.687   0.445  15.653  1.2203 -0.4479  1.9583
  687TMC3    C110156   1.651   4.679  15.378 -0.4138 -0.3643  0.1104
  687TMC3    C210157   1.525   0.008  15.394  0.4476  0.3819 -0.1481
  687TMC3    C310158   1.445   4.678  15.492  0.5852  0.4676  0.1976
  687TMC3    C410159   1.710   4.591  15.465 -0.7776 -0.1533 -0.5067
  687TMC3    C510160   1.628   4.537  15.566 -0.1156 -0.1357 -0.1757
  687TMC3    C610161   1.497   4.577  15.577 -0.0044  1.1614  0.1595
  687TMC3     C10162   1.707   4.704  15.249 -0.4802  0.1476  0.5107
  687TMC3     O10163   1.735   4.611  15.172 -0.9510 -0.1805 -0.4859
  687TMC3     H10164   1.490   0.067  15.310 -1.5139 -1.9310 -0.9587
  687TMC3    H110165   1.808   4.549  15.444 -1.3409 -2.1619  0.8944
  687TMC3    H210166   1.438   4.534  15.657  1.0588 -2.3089 -0.9225
  687TMC3    C710167   1.690   4.528  15.699  0.4273 -0.3511  0.2000
  687TMC3    C810168   1.353   0.044  15.555 -0.2370 -1.1540  0.2874
  687TMC3    O110169   1.611   4.525  15.794  0.4844  0.3006  0.1688
  687TMC3    O210170   1.298   0.006  15.659  0.1908 -0.0279 -0.0919
  688MPD2     C10171   1.439   3.484  17.560 -0.3893  0.5596  0.5030
  688MPD2    C110172   1.324   3.499  17.480  0.0131 -0.4177  0.9342
  688MPD2    C210173   1.328   3.450  17.349  0.1262  0.7027 -0.0091
  688MPD2    C310174   1.445   3.403  17.287  0.0826  0.0003 -0.5509
  688MPD2    C410175   1.556   3.397  17.368  0.2343  0.0762 -0.4510
  688MPD2    C510176   1.545   3.430  17.503  0.3713  1.0226 -0.6112
  688MPD2     H10177   1.242   3.458  17.284  0.0412 -2.5203 -0.2659
  688MPD2    H110178   1.658   3.379  17.334  0.3796 -0.0567  0.0645
  688MPD2    H210179   1.438   3.510  17.665  1.6895  0.6183  0.5165
  688MPD2    H310180   1.638   3.417  17.556 -0.4398 -0.2565  0.5078
  688MPD2     N10181   1.463   3.371  17.151  0.4221  0.0830  0.9001
  688MPD2    H510182   1.556   3.345  17.119 -0.4695 -2.3449  0.3193
  688MPD2    N110183   1.207   3.557  17.535 -0.1842 -0.4471 -0.4106
  688MPD2    H710184   1.121   3.540  17.485 -0.3126 -0.8640 -0.0434
  689TMC3    C110185   1.063   3.653  17.690 -0.5199 -0.5176  0.5174
  689TMC3    C210186   1.056   3.759   0.078  0.0733  0.0854  0.9037
  689TMC3    C310187   0.939   3.779   0.146  0.4010  0.1415 -0.5935
  689TMC3    C410188   0.958   3.565  17.666 -0.3871  0.0970 -0.0124
  689TMC3    C510189   0.836   3.600   0.028 -0.2365 -0.2668 -0.1646
  689TMC3    C610190   0.829   3.705   0.121 -0.4350 -0.1402 -0.2060
  689TMC3     C10191   1.192   3.623  17.656 -0.1682  0.3012 -0.5279
  689TMC3     O10192   1.281   3.656   0.028  0.4103  0.0986  0.6355
  689TMC3     H10193   1.142   3.825   0.088 -1.4203  1.8666  2.0590
  689TMC3    H110194   0.979   3.472  17.615  1.1691  0.6176 -0.3052
  689TMC3    H210195   0.741   3.725   0.181  1.3940  0.3169  2.3034
  689TMC3    C710196   0.720   3.499   0.014 -0.7834 -0.0134  0.4941
  689TMC3    C810197   0.936   3.883   0.246  0.7174  0.0656  0.1009
  689TMC3    O110198   0.644   3.484   0.109  0.0270  0.5831 -0.2651
  689TMC3    O210199   0.831   3.920   0.291 -0.2543 -0.2023  0.3412
  690MPD2     C10200   3.215   0.714  15.850  0.2088  0.9433  0.3985
  690MPD2    C110201   3.250   0.755  15.722 -0.3853  0.2497 -0.3684
  690MPD2    C210202   3.320   0.872  15.699 -0.2555 -0.7640  0.3291
  690MPD2    C310203   3.345   0.949  15.804 -0.1840 -0.0483  0.2372
  690MPD2    C410204   3.302   0.918  15.932 -0.2544  0.0114  0.2112
  690MPD2    C510205   3.248   0.791  15.959 -0.1982 -0.5855  0.1025
  690MPD2     H10206   3.349   0.916  15.604 -0.0520  0.2510  0.8626
  690MPD2    H110207   3.322   0.978  16.020 -2.1148  2.5948 -1.1495
  690MPD2    H210208   3.163   0.622  15.873  0.6810  0.4824 -0.3876
  690MPD2    H310209   3.216   0.757  16.056 -2.0051 -0.2567 -0.3671
  690MPD2     N10210   3.421   1.064  15.782  0.0825 -0.1414  1.0679
  690MPD2    H510211   3.431   1.096  15.686 -1.9765  3.8697  2.1530
  690MPD2    N110212   3.235   0.669  15.608 -0.1634 -0.4549 -0.6691
  690MPD2    H710213   3.268   0.706  15.520  1.0559  0.6942  0.2874
  691TMC3    C110214   3.141   0.507  15.469  0.3959  0.2198  0.2989
  691TMC3    C210215   3.162   0.591  15.354 -0.1187 -0.0225  0.3854
  691TMC3    C310216   3.134   0.531  15.232 -0.5609  0.3901 -0.7271
  691TMC3    C410217   3.091   0.382  15.460  0.4147 -0.7836 -0.1309
  691TMC3    C510218   3.071   0.334  15.333 -0.4270 -0.2310 -0.4977
  691TMC3    C610219   3.091   0.401  15.223 -1.2802  0.5292  0.3878
  691TMC3     C10220   3.154   0.551  15.606 -0.2241  0.0363  0.1800
  691TMC3     O10221   3.099   0.490  15.697  0.1668 -0.0391 -0.3564
  691TMC3     H10222   3.200   0.692  15.362  0.4793 -0.1417 -1.0342
  691TMC3    H110223   3.086   0.312  15.542  0.9705 -3.3165 -2.2560
  691TMC3    H210224   3.060   0.371  15.123 -0.5415 -0.2615  0.3998
  691TMC3    C710225   2.982   0.217  15.330 -0.1167 -0.6078 -0.5054
  691TMC3    C810226   3.076   0.616  15.138  0.2984  0.5010 -0.1842
  691TMC3    O110227   2.924   0.187  15.437 -0.2279 -0.1173  0.2975
  691TMC3    O210228   3.110   0.603  15.018 -0.5244 -0.1505  0.1704
  692TMC3    C110229   0.405   2.104  15.766  0.8769 -0.1062 -0.3918
  692TMC3    C210230   0.485   2.058  15.871  0.2654 -0.2242 -0.0649
  692TMC3    C310231   0.577   1.963  15.837 -0.2047  0.6142  0.1349
  692TMC3    C410232   0.384   2.027  15.657  0.0509  0.1454  0.7904
  692TMC3    C510233   0.464   1.921  15.630 -0.0298 -0.0801  0.3031
  692TMC3    C610234   0.560   1.887  15.727  0.1394  0.3493 -0.7711
  692TMC3     C10235   0.309   2.209  15.788 -0.3726 -0.0430  0.4226
  692TMC3     O10236   0.197   2.187  15.757 -0.4804  0.4303  0.0887
  692TMC3     H10237   0.488   2.113  15.964 -1.7064 -0.1928 -0.0070
  692TMC3    H110238   0.300   2.053  15.592 -0.2383 -0.7626  0.8057
  692TMC3    H210239   0.639   1.816  15.704  1.3133  1.2358  0.5275
  692TMC3    C710240   0.382   1.804  15.600  0.7508 -0.1257 -0.1101
  692TMC3    C810241   0.622   1.869  15.937 -0.7615 -0.1516  0.5059
  692TMC3    O110242   0.301   1.807  15.509 -0.3061 -0.4487  0.7331
  692TMC3    O210243   0.700   1.779  15.907 -0.2100 -0.1410  0.6653
  693MPD2     C10244   3.987   4.559  10.409  0.2990 -0.0870  0.5991
  693MPD2    C110245   3.960   4.507  10.536 -0.8504  0.2386 -0.1491
  693MPD2    C210246   4.058   4.422  10.590 -0.1961 -0.3688  0.0181
  693MPD2    C310247   4.187   4.417  10.534 -0.2490  0.2200 -0.8725
  693MPD2    C410248   4.216   4.503  10.424  0.1819  0.3446  0.4115
  693MPD2    C510249   4.114   4.569  10.370 -0.6306  0.4190  0.3959
  693MPD2     H10250   4.045   4.376  10.687  0.8673 -0.1797  0.2552
  693MPD2    H110251   4.313   4.506  10.378  0.8426  3.8583  2.0406
  693MPD2    H210252   3.905   4.613  10.362 -0.7729 -0.8898  1.5503
  693MPD2    H310253   4.133   4.628  10.280  1.1995 -1.4080 -0.4034
  693MPD2     N10254   4.299   4.327  10.569 -0.0810  0.1612  0.4097
  693MPD2    H510255   4.386   4.331  10.517  0.8185  0.5818  1.9581
  693MPD2    N110256   3.833   4.526  10.593 -0.2945  0.4476 -0.0859
  693MPD2    H710257   3.764   4.572  10.535  1.4684  1.3562 -1.4574
  694TMC3    C110258   3.655   4.489  10.741 -0.0027  0.3737  0.2189
  694TMC3    C210259   3.586   4.424  10.644  0.1785 -0.6488 -0.3935
  694TMC3    C310260   3.487   4.336  10.677 -0.4511 -0.6171 -0.2060
  694TMC3    C410261   3.614   4.484  10.869 -0.3718  0.1476 -0.3222
  694TMC3    C510262   3.506   4.403  10.900 -0.2039  0.4075 -0.8677
  694TMC3    C610263   3.450   4.320  10.811  0.0268  0.2492  0.5828
  694TMC3     C10264   3.798   4.504  10.730 -0.4473  0.1380  0.3888
  694TMC3     O10265   3.862   4.464  10.824 -0.4143 -0.8771  0.4932
  694TMC3     H10266   3.606   4.443  10.540  4.1120  0.2343  0.5252
  694TMC3    H110267   3.671   4.530  10.949 -1.9598  0.1254  0.8144
  694TMC3    H210268   3.367   4.254  10.833  0.4164 -0.2107  0.6656
  694TMC3    C710269   3.474   4.394  11.044  0.6480  0.8212 -0.0325
  694TMC3    C810270   3.388   4.292  10.578  0.2933 -0.7180  0.6239
  694TMC3    O110271   3.548   4.458  11.120  0.1032 -0.4560 -0.1756
  694TMC3    O210272   3.297   4.233  10.634 -0.5893 -0.0505 -0.2422
  695MPD2     C10273   0.341   1.409  13.565  1.0496  0.9401  0.5090
  695MPD2    C110274   0.324   1.482  13.684 -0.8875 -0.8866  0.6175
  695MPD2    C210275   0.196   1.525  13.716  0.2462  0.0163 -0.2328
  695MPD2    C310276   0.094   1.522  13.631 -0.0691 -0.0865  0.3826
  695MPD2    C410277   0.115   1.455  13.511 -0.5875  0.0810  0.1705
  695MPD2    C510278   0.234   1.393  13.480 -0.2709 -0.0070 -0.5624
  695MPD2     H10279   0.182   1.564  13.816  1.6481 -0.7232  0.2482
  695MPD2    H110280   0.045   1.465  13.430  0.1837  0.7207 -0.4140
  695MPD2    H210281   0.441   1.378  13.536  0.7363 -1.3334  1.8300
  695MPD2    H310282   0.257   1.353  13.382 -2.4905 -2.0880 -0.2514
  695MPD2     N10283   4.705   1.596  13.665 -0.4592  0.1005  0.5704
  695MPD2    H510284   4.702   1.658  13.746 -1.9523  0.1060  0.5057
  695MPD2    N110285   0.424   1.498  13.777 -0.1158 -0.2238  0.1488
  695MPD2    H710286   0.399   1.529  13.870 -1.2374  0.8484 -0.5105
  696TMC3    C110287   4.489   1.676  13.664 -0.8642 -0.5051 -0.6384
  696TMC3    C210288   4.495   1.674  13.796  0.5015 -0.3530  0.0698
  696TMC3    C310289   4.395   1.735  13.869  0.1145  0.5273  0.0699
  696TMC3    C410290   4.389   1.736  13.592 -0.2960 -0.0637 -0.8035
  696TMC3    C510291   4.291   1.798  13.664 -0.2953 -0.1654  0.5303
  696TMC3    C610292   4.285   1.796  13.804  0.3650  0.3162 -0.0317
  696TMC3     C10293   4.589   1.606  13.596 -0.5537  0.5344 -0.3614
  696TMC3     O10294   4.569   1.583  13.476 -0.2094 -0.6905  0.3149
  696TMC3     H10295   4.569   1.609  13.840  0.3182  1.2366  2.7229
  696TMC3    H110296   4.389   1.736  13.483  1.0105  2.7252 -0.8187
  696TMC3    H210297   4.208   1.858  13.849  0.0774  0.1869 -0.3503
  696TMC3    C710298   4.262   1.928  13.610 -0.4537 -0.2750  0.1222
  696TMC3    C810299   4.439   1.809  13.987 -0.1206 -0.2027 -0.2190
  696TMC3    O110300   4.257   1.939  13.490 -0.5432 -0.5965 -0.1001
  696TMC3    O210301   4.401   1.923  14.010  0.2943  0.0734 -0.7817
  697MPD2     C10302   0.141   3.818  15.189 -0.0734  0.6975 -0.1897
  697MPD2    C110303   0.022   3.793  15.127 -0.5182  0.4737  0.8161
  697MPD2    C210304   4.687   3.896  15.057  0.1900  0.0375  0.3931
  697MPD2    C310305   0.020   4.023  15.052 -0.5682  0.1909 -0.2622
  697MPD2    C410306   0.138   4.044  15.121  0.1381 -0.4152  0.2932
  697MPD2    C510307   0.194   3.947  15.192 -0.2404 -1.1999 -0.3102
  697MPD2     H10308   4.587   3.882  15.019 -0.2155 -0.4720  1.6610
  697MPD2    H110309   0.177   4.146  15.121 -2.1088  0.4496  1.2176
  697MPD2    H210310   0.199   3.751  15.251 -1.4669  0.5912  0.9960
  697MPD2    H310311   0.287   3.968  15.243 -0.3766 -1.0046 -0.1367
  697MPD2     N10312   4.679   4.121  14.972  0.3102 -0.2882 -0.0742
  697MPD2    H510313   4.598   4.096  14.915  0.7914  0.2337 -0.9807
  697MPD2    N110314   4.678   3.671  15.152  0.2551  0.2453 -0.9115
  697MPD2    H710315   4.582   3.670  15.118  0.4573 -0.7874 -1.4841
  698TMC3    C110316   4.641   4.317  14.848 -0.6262  0.6517 -0.3851
  698TMC3    C210317   4.620   4.451  14.851  0.2936  0.1895  0.3733
  698TMC3    C310318   4.570   4.502  14.739 -0.0718 -0.5041 -0.1525
  698TMC3    C410319   4.613   4.240  14.739  0.2157  0.0869 -0.3932
  698TMC3    C510320   4.564   4.298  14.630 -0.6233 -0.5580 -0.0597
  698TMC3    C610321   4.545   4.430  14.628 -0.4099 -0.2119  0.1241
  698TMC3     C10322   4.710   4.256  14.961 -0.2661  0.1330  0.0213
  698TMC3     O10323   0.043   4.331  15.041 -0.4818 -0.1423  0.3363
  698TMC3     H10324   4.626   4.508  14.943 -0.3268  2.9369 -1.2960
  698TMC3    H110325   4.634   4.133  14.737  2.6510  0.4997  2.1480
  698TMC3    H210326   4.510   4.486  14.542 -0.7852  2.3086  1.9065
  698TMC3    C710327   4.519   4.219  14.522  0.2251  0.2789  0.1050
  698TMC3    C810328   4.599   4.640  14.717 -0.4633 -0.6932 -0.4624
  698TMC3    O110329   4.495   4.277  14.416 -0.1802  0.2436 -0.3015
  698TMC3    O210330   4.516   4.712  14.668  0.1591 -0.1289 -0.8450
  699TMC3    C110331   4.529   2.262  13.021  0.8955 -0.7274  0.2559
  699TMC3    C210332   4.577   2.139  13.045 -0.3718  0.3550 -0.3788
  699TMC3    C310333   4.504   2.067  13.141 -0.4312 -0.4079 -0.5916
  699TMC3    C410334   4.415   2.309  13.073  0.6835 -0.0120  0.5180
  699TMC3    C510335   4.361   2.245  13.179 -0.0892  0.2751 -0.1328
  699TMC3    C610336   4.406   2.118  13.215 -0.2130 -0.6969  0.5003
  699TMC3     C10337   4.560   2.315  12.890  0.5753 -0.3525  0.8852
  699TMC3     O10338   4.468   2.348  12.817 -0.0204 -0.6835 -0.1763
  699TMC3     H10339   4.652   2.086  12.986 -2.0127 -1.0160 -1.2589
  699TMC3    H110340   4.375   2.402  13.035  0.1001 -0.4411  0.0767
  699TMC3    H210341   4.365   2.051  13.289  0.5597 -0.7024  0.9321
  699TMC3    C710342   4.213   2.248  13.185  0.0437  0.3451 -0.0811
  699TMC3    C810343   4.550   1.932  13.178  0.4193  0.2587  0.3272
  699TMC3    O110344   4.160   2.356  13.205  0.2680 -0.8640 -0.5950
  699TMC3    O210345   4.520   1.895  13.292 -0.3534 -0.2069 -0.0361
  700TMC3    C110346   3.478   3.926  16.647 -0.5734  0.2086  0.5179
  700TMC3    C210347   3.522   3.810  16.703  0.0761  0.4537 -0.1364
  700TMC3    C310348   3.585   3.815  16.823 -0.4990  0.3332 -0.4281
  700TMC3    C410349   3.483   4.044  16.724 -0.2056 -0.5810 -0.2969
  700TMC3    C510350   3.543   4.049  16.841 -0.1504 -0.7886 -0.4039
  700TMC3    C610351   3.603   3.935  16.896 -0.4747  0.0330  0.0036
  700TMC3     C10352   3.508   3.948  16.507 -0.2636  0.5431 -0.7455
  700TMC3     O10353   3.462   3.865  16.430 -0.1238 -0.6950  0.1776
  700TMC3     H10354   3.534   3.717  16.648  1.8907  1.9814 -2.3445
  700TMC3    H110355   3.448   4.134  16.674  0.2017  1.0023  2.2689
  700TMC3    H210356   3.667   3.931  16.983  1.2246  0.2373 -1.2460
  700TMC3    C710357   3.570   4.187  16.891  0.7188 -0.9075  0.0885
  700TMC3    C810358   3.692   3.718  16.836  0.4254 -0.5346  0.6150
  700TMC3    O110359   3.534   4.284  16.827 -0.5126  0.0355 -0.0098
  700TMC3    O210360   3.796   3.764  16.884 -0.0618  0.0333  0.5677
  701TMC3    C110361   3.930   3.109  15.293  0.2583 -0.6531  0.0026
  701TMC3    C210362   3.921   3.076  15.159 -0.4467 -0.4898  0.9994
  701TMC3    C310363   4.031   3.096  15.083 -0.0871  0.1297  0.2229
  701TMC3    C410364   4.040   3.166  15.348  0.2187 -1.3604 -0.0893
  701TMC3    C510365   4.142   3.194  15.260 -0.6670 -0.0964 -0.0918
  701TMC3    C610366   4.142   3.152  15.131 -0.0719 -0.0982 -0.3230
  701TMC3     C10367   3.806   3.134  15.366 -0.0311  0.2129  0.3291
  701TMC3     O10368   3.817   3.176  15.480  0.7183 -0.5974 -0.6270
  701TMC3     H10369   3.829   3.024  15.135 -1.5298  1.7079  0.4145
  701TMC3    H110370   4.052   3.192  15.452  0.2986 -1.5106 -0.0618
  701TMC3    H210371   4.223   3.175  15.063 -0.5264  0.2261 -0.7501
  701TMC3    C710372   4.223   3.317  15.284 -1.4096 -0.0491 -0.6673
  701TMC3    C810373   4.037   3.024  14.963  0.1320  0.3229 -0.4678
  701TMC3    O110374   4.254   3.381  15.185  0.1990 -0.0921 -0.1442
  701TMC3    O210375   4.150   3.021  14.915  0.4529 -0.6057  0.5775
  702MPD2     C10376   3.441   0.126  10.192  0.0197  0.0851  0.1593
  702MPD2    C110377   3.453   0.245  10.271  0.0833 -0.5245  0.1886
  702MPD2    C210378   3.529   0.352  10.219  0.6261  0.2307  0.2887
  702MPD2    C310379   3.588   0.345  10.090 -0.1263  0.8758  0.0229
  702MPD2    C410380   3.575   0.226  10.012 -0.6156  1.0828 -0.1494
  702MPD2    C510381   3.498   0.121  10.066 -0.1140 -0.0257  0.4629
  702MPD2     H10382   3.544   0.440  10.279 -0.3325  0.7961 -0.2910
  702MPD2    H110383   3.615   0.205   9.914  1.5877  2.5686  0.4226
  702MPD2    H210384   3.382   0.041  10.226  0.5930 -0.2343  0.3607
  702MPD2    H310385   3.486   0.037   9.997 -1.7152 -0.0792  0.8137
  702MPD2     N10386   3.649   0.460  10.041 -0.4172 -1.0584  0.2078
  702MPD2    H510387   3.650   0.534  10.111 -0.3055  0.8456 -1.7979
  702MPD2    N110388   3.379   0.267  10.385  0.2864 -0.6941  0.1338
  702MPD2    H710389   3.399   0.355  10.432  2.7094 -0.7568 -0.7423
  703TMC3    C110390   3.601   0.644   9.913 -0.0821  0.1853  0.1083
  703TMC3    C210391   3.458   0.638   9.924  0.0292  0.1389  0.0901
  703TMC3    C310392   3.379   0.698  10.022  0.4737  0.1114  0.0568
  703TMC3    C410393   3.662   0.718  10.008  0.6751 -0.0592  0.6525
  703TMC3    C510394   3.583   0.784  10.100  0.3767  0.7034  0.2776
  703TMC3    C610395   3.443   0.771  10.117  0.0882 -0.4306  0.0312
  703TMC3     C10396   3.654   0.506   9.911 -0.1097  0.4579  0.3599
  703TMC3     O10397   3.624   0.437   9.809 -0.4134  0.6982 -0.7832
  703TMC3     H10398   3.406   0.563   9.865  0.1188 -1.8621  2.5765
  703TMC3    H110399   3.770   0.724   9.994  0.6594  0.1995  0.6497
  703TMC3    H210400   3.394   0.835  10.189 -2.6006 -0.5640 -1.6676
  703TMC3    C710401   3.646   0.887  10.180 -0.0883  0.0253  0.7554
  703TMC3    C810402   3.272   0.610  10.054 -0.3312  0.5092 -0.6820
  703TMC3    O110403   3.593   0.907  10.287  0.3349  0.0919  0.1576
  703TMC3    O210404   3.244   0.515   9.988  0.2613  0.0175 -0.4847
  704TMC3    C110405   0.634   2.927  12.758  0.0420 -0.0650 -0.5810
  704TMC3    C210406   0.744   3.008  12.749  0.2473 -0.1064 -0.0400
  704TMC3    C310407   0.870   2.949  12.773 -0.0642 -0.1444 -0.3205
  704TMC3    C410408   0.642   2.803  12.813  0.6158 -1.0842  0.8126
  704TMC3    C510409   0.760   2.744  12.836 -0.5098 -0.3346  0.5477
  704TMC3    C610410   0.875   2.819  12.817  0.7035  0.0458  0.2963
  704TMC3     C10411   0.535   2.934  12.652  0.4094  0.2046 -0.0804
  704TMC3     O10412   0.419   2.891  12.668  0.4700 -0.3248 -0.0078
  704TMC3     H10413   0.742   3.111  12.714  0.6155 -0.7214 -1.8759
  704TMC3    H110414   0.552   2.742  12.815  0.8846 -1.4739  1.0567
  704TMC3    H210415   0.972   2.770  12.827  1.4352  1.2731 -0.8998
  704TMC3    C710416   0.771   2.618  12.774  0.0342 -0.4713  0.3069
  704TMC3    C810417   0.944   2.966  12.653 -0.5731  0.6345 -0.0124
  704TMC3    O110418   0.868   2.612  12.698  0.1164  0.5020 -0.0444
  704TMC3    O210419   0.875   3.005  12.557 -0.2719 -0.3629 -0.0202
  705MPD2     C10420   0.839   1.594  16.776 -0.4243  0.3604 -0.1254
  705MPD2    C110421   0.763   1.691  16.706  0.6618 -0.2886  0.1469
  705MPD2    C210422   0.644   1.730  16.755  0.1715 -0.0000  0.2682
  705MPD2    C310423   0.599   1.685  16.876  0.5455 -0.0363 -0.2451
  705MPD2    C410424   0.678   1.597  16.950  0.1950 -0.0654 -0.5460
  705MPD2    C510425   0.793   1.543  16.895 -0.1850 -0.0033  0.4143
  705MPD2     H10426   0.594   1.811  16.704  0.8753  0.8972  1.0238
  705MPD2    H110427   0.642   1.553  17.042  1.3647 -1.4922 -0.7805
  705MPD2    H210428   0.943   1.570  16.755 -0.6702 -1.0801  0.2966
  705MPD2    H310429   0.854   1.472  16.952 -0.6813 -0.5306  0.2878
  705MPD2     N10430   0.478   1.734  16.940  0.5237  0.1963  0.3990
  705MPD2    H510431   0.455   1.693  17.030 -1.2402  0.8183  0.2283
  705MPD2    N110432   0.802   1.735  16.582 -0.0400  0.1160 -0.6443
  705MPD2    H710433   0.728   1.790  16.540 -0.7746 -0.6454 -0.3442
  706TMC3    C110434   0.964   1.758  16.157 -0.6279 -0.2261  0.2349
  706TMC3    C210435   0.909   1.887  16.141 -0.6393  0.2181  0.6979
  706TMC3    C310436   0.864   1.945  16.261  0.0020  0.5963 -0.4255
  706TMC3    C410437   0.968   1.690  16.277  0.3038  0.4950 -0.1721
  706TMC3    C510438   0.915   1.759  16.382  0.1082  0.3711 -0.7749
  706TMC3    C610439   0.862   1.883  16.381 -0.2143  0.0860 -0.1684
  706TMC3     C10440   1.019   1.681  16.048  0.3561  0.7643 -0.3510
  706TMC3     O10441   1.089   1.589  16.078 -0.6210  0.3764 -0.3396
  706TMC3     H10442   0.909   1.946  16.050  1.2774  1.0183  1.2137
  706TMC3    H110443   1.012   1.592  16.293  0.9522  0.9932  1.0652
  706TMC3    H210444   0.847   1.936  16.474  0.2898 -0.4919  0.2415
  706TMC3    C710445   0.913   1.693  16.510  0.2903 -0.0355  0.2769
  706TMC3    C810446   0.805   2.082  16.246  0.1958  0.2633 -0.4347
  706TMC3    O110447   1.005   1.614  16.533  0.2499  0.0334  0.1284
  706TMC3    O210448   0.809   2.144  16.140  0.6763  0.0947  0.3069
  707TMC3    C110449   1.689   0.760   2.174  0.1860  0.4741  0.0424
  707TMC3    C210450   1.789   0.838   2.231 -0.7160  0.3795  0.0890
  707TMC3    C310451   1.777   0.884   2.358 -0.7038 -0.6680 -0.0570
  707TMC3    C410452   1.571   0.733   2.240  0.7630  0.2943 -0.1109
  707TMC3    C510453   1.564   0.782   2.374 -0.0291  0.4106  0.1367
  707TMC3    C610454   1.669   0.848   2.435 -0.2181  0.4200 -0.5312
  707TMC3     C10455   1.701   0.739   2.031 -0.2095 -0.3347 -0.3964
  707TMC3     O10456   1.780   0.806   1.971 -0.6679  0.2526  0.0175
  707TMC3     H10457   1.857   0.885   2.161 -0.6745 -0.8314 -0.6856
  707TMC3    H110458   1.482   0.701   2.187  0.6637  0.9610 -0.3445
  707TMC3    H210459   1.658   0.875   2.540  0.3994 -0.0640 -0.3364
  707TMC3    C710460   1.447   0.775   2.456  0.6670  0.7582  0.0041
  707TMC3    C810461   1.898   0.939   2.421  0.2141  0.1991 -0.1679
  707TMC3    O110462   1.447   0.844   2.556 -0.0293  0.2915  0.3906
  707TMC3    O210463   1.895   1.003   2.525  0.1418  0.4474  0.0109
  708MPD2     C10464   3.694   0.385  13.633 -0.0417 -0.7119  0.6454
  708MPD2    C110465   3.590   0.330  13.704  0.1684  0.0078 -0.2347
  708MPD2    C210466   3.610   0.230  13.797 -0.0548 -0.3301 -0.6144
  708MPD2    C310467   3.739   0.187  13.824 -0.2637  0.1790 -0.6245
  708MPD2    C410468   3.843   0.239  13.754  1.0170 -0.0062 -0.2160
  708MPD2    C510469   3.816   0.336  13.655  0.4734 -0.2127  0.0778
  708MPD2     H10470   3.526   0.190  13.853  0.2913 -0.2534 -0.0398
  708MPD2    H110471   3.946   0.208  13.762  0.7923 -1.1122 -1.4748
  708MPD2    H210472   3.681   0.478  13.579  1.1265  0.2241  1.9732
  708MPD2    H310473   3.902   0.369  13.598  0.2475 -1.2480 -0.8634
  708MPD2     N10474   3.771   0.086  13.922  1.0139  0.6334  0.3603
  708MPD2    H510475   3.866   0.079  13.956  1.0724  0.1788  0.1026
  708MPD2    N110476   3.454   0.368  13.686 -0.1308 -0.8751  0.3615
  708MPD2    H710477   3.395   0.349  13.766 -1.5079 -0.3599 -0.5260
  709TMC3    C110478   3.259   0.408  13.578 -0.1250 -0.1465  0.0856
  709TMC3    C210479   3.207   0.318  13.487  0.6177  0.0060  0.4261
  709TMC3    C310480   3.100   0.237  13.523 -0.1164  0.5077 -0.0317
  709TMC3    C410481   3.210   0.416  13.698  0.6123  0.0555  0.0787
  709TMC3    C510482   3.110   0.326  13.736  0.1970 -0.5786  1.1766
  709TMC3    C610483   3.049   0.242  13.650  0.3620  0.4717 -0.2169
  709TMC3     C10484   3.404   0.418  13.564  0.0334  1.1175  0.4489
  709TMC3     O10485   3.463   0.436  13.455 -0.0531  0.0729  0.3285
  709TMC3     H10486   3.247   0.320  13.387 -0.9429  1.5975 -0.1651
  709TMC3    H110487   3.247   0.492  13.766  0.6026  0.3564 -0.2595
  709TMC3    H210488   2.974   0.173  13.686  0.6933 -0.3100 -1.0300
  709TMC3    C710489   3.155   0.268  13.855  0.3196  0.3918  0.9404
  709TMC3    C810490   3.045   0.129  13.441 -0.3655  0.3109  0.5015
  709TMC3    O110491   3.275   0.291  13.887  0.2231 -0.5362  0.0251
  709TMC3    O210492   2.995   0.026  13.486 -0.2802  0.1360  0.5303
  710TMC3    C110493   4.713   1.753   0.673  0.2454  1.0633 -0.1843
  710TMC3    C210494   0.035   1.701   0.559 -0.5453 -0.6145  0.8628
  710TMC3    C310495   0.126   1.600   0.563  0.3780 -0.3034  0.2647
  710TMC3    C410496   0.033   1.727   0.798 -0.2203  0.4287  0.5527
  710TMC3    C510497   0.137   1.636   0.798 -0.6423  0.1183 -0.0996
  710TMC3    C610498   0.171   1.563   0.691  0.2274  0.6259  0.4303
  710TMC3     C10499   4.594   1.827   0.649 -0.2734  0.4691 -0.6003
  710TMC3     O10500   4.582   1.877   0.539  0.5873 -0.1370  0.0892
  710TMC3     H10501   4.725   1.725   0.459 -0.0616  1.6805  1.2263
  710TMC3    H110502   0.010   1.786   0.886 -2.0419 -0.0273  0.3665
  710TMC3    H210503   0.241   1.482   0.702  1.5646  1.8401  0.9512
  710TMC3    C710504   0.188   1.604   0.934 -0.1470 -0.8456 -0.6262
  710TMC3    C810505   0.144   1.520   0.441  0.4824  0.1087  0.0471
  710TMC3    O110506   0.114   1.626   1.029 -0.5893 -0.1233  0.3815
  710TMC3    O210507   0.108   1.564   0.335  0.1181  0.3286 -0.4025
  711TMC3    C110508   4.333   2.800  15.448 -0.0315 -0.0422 -0.3437
  711TMC3    C210509   4.380   2.823  15.573 -0.7494  0.0629  0.5651
  711TMC3    C310510   4.511   2.833  15.593 -0.8833 -0.3503  0.0810
  711TMC3    C410511   4.420   2.783  15.345 -0.5107  0.8501 -0.5639
  711TMC3    C510512   4.553   2.809  15.366  0.4679  0.0888  0.1213
  711TMC3    C610513   4.602   2.831  15.489  0.5896 -0.4071 -0.0231
  711TMC3     C10514   4.203   2.722  15.439 -1.0724 -0.4839  0.4950
  711TMC3     O10515   4.205   2.628  15.360  0.3019  0.1454  0.1450
  711TMC3     H10516   4.314   2.816  15.658  1.2702 -2.1841  1.9434
  711TMC3    H110517   4.382   2.754  15.248 -1.7273 -0.5279  0.3195
  711TMC3    H210518   4.708   2.847  15.504  0.1366  1.4856  1.2332
  711TMC3    C710519   4.649   2.745  15.279  0.2375 -0.4105  0.1311
  711TMC3    C810520   4.561   2.866  15.721 -0.2056  0.0535 -0.1111
  711TMC3    O110521   0.043   2.722  15.309 -0.3885 -0.3640  0.0176
  711TMC3    O210522   4.475   2.865  15.810 -0.2717 -0.5133 -0.0884
  712MPD2     C10523   0.803   3.329  13.908  0.3667 -0.7730 -0.4011
  712MPD2    C110524   0.719   3.412  13.835 -0.3997  0.0051 -0.3530
  712MPD2    C210525   0.766   3.515  13.757 -0.3122 -0.5527 -0.3589
  712MPD2    C310526   0.906   3.541  13.756  0.8088 -0.4836  0.9356
  712MPD2    C410527   0.990   3.454  13.816 -0.2008  0.9077 -0.4868
  712MPD2    C510528   0.935   3.356  13.889  0.3673  0.0923  0.1171
  712MPD2     H10529   0.695   3.581  13.708 -1.1896 -1.1209  0.1601
  712MPD2    H110530   1.098   3.463  13.823  0.2517 -3.5382 -1.9310
  712MPD2    H210531   0.779   3.248  13.976 -2.0780 -1.1469 -1.7051
  712MPD2    H310532   1.006   3.287  13.933 -1.4850 -1.0729  1.3167
  712MPD2     N10533   0.973   3.655  13.702  0.0958 -0.4378  0.1090
  712MPD2    H510534   1.073   3.673  13.711  0.0076  0.6311 -1.0166
  712MPD2    N110535   0.577   3.398  13.830  0.6183 -0.3177  0.3976
  712MPD2    H710536   0.524   3.451  13.762  2.7724  1.4707  0.1068
  713TMC3    C110537   0.983   3.889  13.648 -0.1634 -0.1935  0.3474
  713TMC3    C210538   1.122   3.867  13.636  0.1816 -0.1016 -0.8073
  713TMC3    C310539   1.198   3.970  13.611  0.3149  0.1170  0.8444
  713TMC3    C410540   0.922   4.007  13.631 -0.3852  0.2486 -0.6389
  713TMC3    C510541   1.008   4.110  13.610 -0.4188 -0.7233  0.6373
  713TMC3    C610542   1.141   4.095  13.597 -0.1097  0.0054  0.3941
  713TMC3     C10543   0.901   3.775  13.671 -0.7099 -0.4874  0.2011
  713TMC3     O10544   0.780   3.794  13.662 -0.2376 -0.2143 -0.1529
  713TMC3     H10545   1.161   3.767  13.623  0.1538 -0.3305  0.9683
  713TMC3    H110546   0.815   4.012  13.647 -0.4106 -2.0481 -0.1557
  713TMC3    H210547   1.198   4.187  13.589  1.6773 -1.1972 -0.7517
  713TMC3    C710548   0.952   4.247  13.597 -0.6734 -0.3817 -0.0450
  713TMC3    C810549   1.346   3.952  13.595 -0.6718  0.2999 -0.0482
  713TMC3    O110550   1.031   4.337  13.624  0.1819  0.4520 -0.3108
  713TMC3    O210551   1.401   4.047  13.545  0.7250 -0.1011 -0.3886
  714MPD2     C10552   2.634   1.722   1.677  0.0184 -0.1101  0.4366
  714MPD2    C110553   2.724   1.706   1.574 -0.4622  0.4847 -0.6120
  714MPD2    C210554   2.687   1.758   1.451 -0.3147 -0.2276 -1.3176
  714MPD2    C310555   2.567   1.823   1.436  0.1485 -0.2457  0.7378
  714MPD2    C410556   2.485   1.841   1.538  0.4759 -0.1774 -0.0813
  714MPD2    C510557   2.518   1.789   1.658 -0.1247 -0.5978  0.0028
  714MPD2     H10558   2.757   1.738   1.370  2.1883  0.0101  0.7785
  714MPD2    H110559   2.392   1.897   1.530 -0.3162 -1.5500 -0.4968
  714MPD2    H210560   2.661   1.698   1.779  1.5235  3.2774  0.8342
  714MPD2    H310561   2.449   1.808   1.739  1.5556  2.7733  0.6528
  714MPD2     N10562   2.550   1.882   1.306 -0.5446  0.6085  0.0510
  714MPD2    H510563   2.618   1.855   1.236 -0.4819  1.4468 -0.2108
  714MPD2    N110564   2.847   1.642   1.594  0.3401  0.6994  0.1308
  714MPD2    H710565   2.873   1.604   1.684  0.0057 -0.4914 -0.2662
  715TMC3    C110566   3.059   1.543   1.560  0.4216  0.0498  0.2434
  715TMC3    C210567   3.120   1.456   1.470  0.5159 -0.1807  0.2625
  715TMC3    C310568   3.238   1.402   1.501  0.0409 -0.1186 -1.1554
  715TMC3    C410569   3.117   1.585   1.675  0.1244  0.2783 -0.0081
  715TMC3    C510570   3.234   1.523   1.704  0.2075 -0.0165 -0.0263
  715TMC3    C610571   3.298   1.434   1.616  0.3228  0.1000  0.0830
  715TMC3     C10572   2.949   1.624   1.504  0.5528  0.4929 -0.4272
  715TMC3     O10573   2.974   1.679   1.397  0.0217  0.6795  0.0109
  715TMC3     H10574   3.059   1.420   1.389  0.9772 -1.1378  0.3502
  715TMC3    H110575   3.070   1.662   1.735 -0.2235 -0.0617  0.1551
  715TMC3    H210576   3.391   1.388   1.647  2.1346  3.9533  0.4306
  715TMC3    C710577   3.303   1.566   1.825 -0.9739 -0.0058 -0.2318
  715TMC3    C810578   3.305   1.324   1.396  0.7315 -0.7603  0.4044
  715TMC3    O110579   3.413   1.519   1.859  0.1445 -0.6001  0.4586
  715TMC3    O210580   3.233   1.280   1.308  0.0170  0.1558 -0.3995
  716MPD2     C10581   2.766   0.146  10.053  0.2871  0.0247  0.0726
  716MPD2    C110582   2.846   0.209   9.962  0.1098  0.2164 -0.2205
  716MPD2    C210583   2.930   0.132   9.889 -0.0145 -0.1343 -0.5454
  716MPD2    C310584   2.939   4.721   9.908  0.0932  0.3425 -0.7074
  716MPD2    C410585   2.865   4.657  10.003  0.1391 -0.1781  0.1079
  716MPD2    C510586   2.781   0.011  10.078  0.3156 -0.1878 -0.5314
  716MPD2     H10587   2.985   0.184   9.811 -0.0803  1.5878  0.5577
  716MPD2    H110588   2.853   4.549  10.002  3.0320 -0.4959  0.3974
  716MPD2    H210589   2.709   0.211  10.118 -0.8092  0.0860 -0.9531
  716MPD2    H310590   2.727   4.689  10.159 -1.5559  1.3038 -0.9106
  716MPD2     N10591   3.015   4.649   9.808 -0.1031 -0.7183  0.1081
  716MPD2    H510592   3.080   4.708   9.758 -0.6889  0.3149  0.5491
  716MPD2    N110593   2.848   0.353   9.959 -0.3406 -0.7596  0.0689
  716MPD2    H710594   2.796   0.399  10.033  1.3090  1.3310 -0.0442
  717TMC3    C110595   3.080   4.482   9.653 -0.0390  0.8001 -1.2273
  717TMC3    C210596   3.070   4.562   9.551 -0.9915  0.0443  0.0171
  717TMC3    C310597   3.066   4.529   9.421 -0.0492  0.1585 -0.1574
  717TMC3    C410598   3.105   4.345   9.624 -0.7659  0.2279  0.5096
  717TMC3    C510599   3.113   4.312   9.487  0.0315  0.1850  0.2611
  717TMC3    C610600   3.094   4.399   9.387  0.6715  0.1786  0.4951
  717TMC3     C10601   3.023   4.517   9.784  0.7145  0.4295  0.2610
  717TMC3     O10602   2.976   4.424   9.850 -0.3319 -0.5254  0.0155
  717TMC3     H10603   3.035   4.663   9.568 -1.4811  0.3215 -2.6354
  717TMC3    H110604   3.118   4.271   9.702  3.1162  2.0360  1.5632
  717TMC3    H210605   3.089   4.372   9.282  1.1072  0.1157  0.4903
  717TMC3    C710606   3.118   4.166   9.459  0.1520  0.6094  0.1465
  717TMC3    C810607   3.026   4.632   9.321  0.0489  0.8376  0.2346
  717TMC3    O110608   3.164   4.094   9.549  0.1011 -0.2889  0.4229
  717TMC3    O210609   3.011   0.020   9.373 -0.2733  0.5143  0.7174
  718MPD2     C10610   2.188   3.965  13.253 -0.1561 -0.0346  0.6205
  718MPD2    C110611   2.120   4.033  13.155  0.0194 -0.6930 -0.4317
  718MPD2    C210612   1.983   4.012  13.156 -0.3483  0.6803 -0.7162
  718MPD2    C310613   1.916   3.929  13.246 -0.0390 -0.3346 -0.4959
  718MPD2    C410614   1.987   3.870  13.351 -0.2331 -0.1424  0.0742
  718MPD2    C510615   2.123   3.884  13.352 -0.7960  0.3926 -0.0891
  718MPD2     H10616   1.924   4.054  13.076 -0.0694 -0.0591 -1.3159
  718MPD2    H110617   1.936   3.823  13.435 -1.3270  0.2017 -0.3984
  718MPD2    H210618   2.294   3.979  13.268  0.4319 -2.0922 -1.5702
  718MPD2    H310619   2.187   3.831  13.422 -2.0532 -2.2876 -0.9759
  718MPD2     N10620   1.788   3.896  13.216  0.1935 -0.4063  0.3234
  718MPD2    H510621   1.755   3.943  13.132  1.2118  1.7552  1.1218
  718MPD2    N110622   2.190   4.117  13.068 -0.0544 -0.6573 -0.0933
  718MPD2    H710623   2.291   4.114  13.077 -0.2467  0.0032  2.2431
  719TMC3    C110624   2.215   4.249  12.862  0.8812 -0.8238 -0.8654
  719TMC3    C210625   2.138   4.308  12.761  0.8599 -0.4841  0.2892
  719TMC3    C310626   2.160   4.269  12.631 -0.9611  0.6958  0.1268
  719TMC3    C410627   2.332   4.178  12.839  0.3091  0.3717  0.5648
  719TMC3    C510628   2.361   4.159  12.708 -0.1229  0.1560  0.0876
  719TMC3    C610629   2.272   4.191  12.610 -0.7691 -0.2388  0.0948
  719TMC3     C10630   2.130   4.203  12.975 -0.4343  0.0207 -0.2990
  719TMC3     O10631   2.014   4.238  12.962 -0.0136  0.3223 -0.6861
  719TMC3     H10632   2.054   4.373  12.783 -1.4587 -3.4494  0.2645
  719TMC3    H110633   2.396   4.132  12.913  0.6802 -0.0933 -0.0470
  719TMC3    H210634   2.292   4.155  12.510 -0.7844  0.1275 -0.0409
  719TMC3    C710635   2.502   4.128  12.674 -0.3818 -0.3734  0.3367
  719TMC3    C810636   2.044   4.223  12.561  0.3759  0.0663 -0.1817
  719TMC3    O110637   2.517   4.079  12.564 -0.0252  0.4492 -0.2716
  719TMC3    O210638   2.060   4.167  12.451 -0.0103 -0.2793  0.4324
  720MPD2     C10639   1.010   0.698  13.586 -0.3675  1.1137  0.4420
  720MPD2    C110640   1.082   0.810  13.549 -0.2002  0.0431  0.2719
  720MPD2    C210641   1.163   0.874  13.639 -0.0763  0.3759 -0.1959
  720MPD2    C310642   1.174   0.832  13.774 -0.3297  0.2775 -0.1097
  720MPD2    C410643   1.096   0.727  13.808  0.0115 -0.3312  0.8289
  720MPD2    C510644   1.016   0.669  13.714 -0.7973  0.8332  0.6054
  720MPD2     H10645   1.222   0.960  13.609  0.7615 -0.7920 -1.8692
  720MPD2    H110646   1.100   0.684  13.908  0.5433 -2.5107 -0.1455
  720MPD2    H210647   0.940   0.641  13.527 -0.4577  1.5449  0.1352
  720MPD2    H310648   0.958   0.584  13.748  1.0613 -0.4073  0.6672
  720MPD2     N10649   1.270   0.890  13.861 -0.0771 -0.2147 -0.1063
  720MPD2    H510650   1.335   0.955  13.818  0.5166 -1.2790 -0.8162
  720MPD2    N110651   1.095   0.848  13.412  0.4354 -0.0430 -0.0677
  720MPD2    H710652   1.168   0.915  13.387 -0.6710  1.1597 -0.0596
  721TMC3    C110653   1.373   0.954  14.063 -0.3144 -0.1399  0.5669
  721TMC3    C210654   1.337   0.989  14.193  0.7827  0.8818 -0.3129
  721TMC3    C310655   1.416   0.933  14.287 -0.2597  0.2559 -0.3694
  721TMC3    C410656   1.495   0.904  14.032 -0.5115 -0.2235 -0.2223
  721TMC3    C510657   1.574   0.847  14.126 -0.2813 -0.4511 -0.1102
  721TMC3    C610658   1.536   0.870  14.256 -0.5387 -0.1053  0.3107
  721TMC3     C10659   1.266   0.885  13.995 -0.1501  0.1849 -1.4270
  721TMC3     O10660   1.176   0.852  14.067  0.4614  0.2791 -0.2800
  721TMC3     H10661   1.239   1.030  14.212  0.9149  0.0991  2.0742
  721TMC3    H110662   1.529   0.885  13.930  1.5094  0.9723  0.2325
  721TMC3    H210663   1.589   0.826  14.340  0.5003  1.3741  0.4351
  721TMC3    C710664   1.699   0.790  14.080 -0.3738 -0.7862 -0.0998
  721TMC3    C810665   1.393   0.977  14.427  0.5604 -0.6039  0.1375
  721TMC3    O110666   1.741   0.820  13.968  0.2474 -0.0232  0.1264
  721TMC3    O210667   1.452   0.911  14.509 -0.1120  0.0361 -0.5866
  722MPD2     C10668   4.619   4.033  13.010  0.3662  0.0772  0.5145
  722MPD2    C110669   4.608   4.165  12.969 -0.5339  0.4460 -0.3302
  722MPD2    C210670   4.515   4.208  12.873 -0.1907 -0.4304  1.1049
  722MPD2    C310671   4.434   4.114  12.815 -0.5274  0.2144  0.2261
  722MPD2    C410672   4.441   3.980  12.852  0.3513 -0.7289  0.6717
  722MPD2    C510673   4.536   3.943  12.949 -0.1206  0.2886  0.6671
  722MPD2     H10674   4.497   4.309  12.838  2.0535  0.3652  2.2641
  722MPD2    H110675   4.368   3.908  12.817  1.0861 -0.4401 -1.4546
  722MPD2    H210676   4.691   3.997  13.082 -1.2710  1.3369  2.7977
  722MPD2    H310677   4.537   3.839  12.980 -0.5667  0.5178  1.4581
  722MPD2     N10678   4.334   4.152  12.719 -0.0086  0.9359 -0.1434
  722MPD2    H510679   4.310   4.250  12.723 -2.3386  0.4123 -0.8686
  722MPD2    N110680   4.669   4.270  13.041  0.3381  0.0061 -0.2521
  722MPD2    H710681   4.651   4.363  13.003 -1.8709 -0.6864 -0.8688
  723TMC3    C110682   4.141   4.130  12.595 -0.0574  0.5908 -0.1201
  723TMC3    C210683   4.042   4.039  12.577  0.3046 -0.1623  0.0933
  723TMC3    C310684   3.912   4.088  12.583 -1.2202 -0.0960  0.5179
  723TMC3    C410685   4.116   4.265  12.608 -0.7746  0.4730  0.0827
  723TMC3    C510686   3.986   4.313  12.611 -0.4519 -0.2021  0.0841
  723TMC3    C610687   3.884   4.222  12.602  0.3491 -0.0952  0.2236
  723TMC3     C10688   4.265   4.071  12.633 -0.0411  0.0659 -0.3216
  723TMC3     O10689   4.287   3.953  12.614  0.0799  0.2014 -0.3247
  723TMC3     H10690   4.060   3.933  12.580  0.2698 -0.1788 -0.2163
  723TMC3    H110691   4.194   4.340  12.620 -0.1369 -0.3355  1.0107
  723TMC3    H210692   3.783   4.260  12.614  0.8072  1.4751 -0.9765
  723TMC3    C710693   3.955   4.451  12.649  0.4880 -0.3428  0.5681
  723TMC3    C810694   3.788   4.011  12.564 -0.1895 -0.1873  0.2412
  723TMC3    O110695   4.033   4.512  12.723 -0.5210  0.1164 -0.0654
  723TMC3    O210696   3.680   4.052  12.601  0.7447  0.4115 -0.2350
  724TMC3    C110697   4.601   2.198   9.974 -0.8305 -0.2646 -0.5014
  724TMC3    C210698   4.534   2.281   9.893  0.4280  0.3723 -0.0665
  724TMC3    C310699   4.601   2.335   9.795 -0.0391 -0.6084 -0.8339
  724TMC3    C410700   4.724   2.149   9.945  0.1146 -0.4654  0.3537
  724TMC3    C510701   0.064   2.192   9.831 -0.0538 -0.0366 -0.1279
  724TMC3    C610702   4.722   2.292   9.756  0.5841 -0.1214  0.4441
  724TMC3     C10703   4.556   2.152  10.101  0.3291 -0.5899 -0.2127
  724TMC3     O10704   4.639   2.134  10.189  0.0709  0.2577  0.1754
  724TMC3     H10705   4.446   2.338   9.918  0.5855  1.3958 -1.8286
  724TMC3    H110706   0.056   2.088  10.014  0.8663  1.1129  1.1260
  724TMC3    H210707   0.045   2.321   9.664  0.0085 -1.8806 -0.4217
  724TMC3    C710708   0.207   2.174   9.827  0.8193  0.4006 -0.3262
  724TMC3    C810709   4.539   2.439   9.721 -0.0544  0.1223  0.0063
  724TMC3    O110710   0.250   2.199   9.718 -0.7569  0.3300  0.9045
  724TMC3    O210711   4.420   2.451   9.711  0.4996 -0.4322  0.4723
  725TMC3    C110712   1.736   0.912  12.294  0.1219  0.5745 -0.0165
  725TMC3    C210713   1.646   0.939  12.200 -0.6629 -0.4499 -0.7358
  725TMC3    C310714   1.551   0.852  12.172  0.0464 -0.1387 -0.3339
  725TMC3    C410715   1.745   0.786  12.350 -0.6589  0.1292 -0.0606
  725TMC3    C510716   1.655   0.690  12.312 -0.2074 -0.1933 -0.2692
  725TMC3    C610717   1.557   0.723  12.225 -0.1990  0.1938  0.0649
  725TMC3     C10718   1.817   1.012  12.355 -0.8471 -0.3231  0.0027
  725TMC3     O10719   1.875   0.984  12.462 -0.2376  0.0916 -0.3284
  725TMC3     H10720   1.634   1.041  12.163 -0.3580 -0.8008 -1.8081
  725TMC3    H110721   1.834   0.761  12.407 -0.7797 -2.1300 -0.8631
  725TMC3    H210722   1.486   0.651  12.186  2.1527 -1.3411 -1.4126
  725TMC3    C710723   1.671   0.550  12.357 -0.0646  0.2469 -0.3955
  725TMC3    C810724   1.436   0.880  12.088  0.1141  0.0123  0.0123
  725TMC3    O110725   1.631   0.460  12.285 -0.3683 -0.4038 -0.1379
  725TMC3    O210726   1.334   0.818  12.117  0.0640  0.2360  0.2495
  726MPD2     C10727   4.572   2.530  10.359 -0.3937  0.3125  0.0846
  726MPD2    C110728   4.480   2.632  10.364 -0.0211 -1.1608 -0.7059
  726MPD2    C210729   4.352   2.603  10.397 -0.8135 -0.4631 -0.9681
  726MPD2    C310730   4.317   2.476  10.438 -0.0526 -0.3606 -0.1132
  726MPD2    C410731   4.404   2.371  10.437  0.0106 -0.2986  1.0257
  726MPD2    C510732   4.524   2.402  10.389 -0.5872  0.2896 -0.1807
  726MPD2     H10733   4.278   2.683  10.403  0.5972  0.8713 -1.3556
  726MPD2    H110734   4.367   2.272  10.459  3.4947 -1.7179  0.4556
  726MPD2    H210735   4.674   2.560  10.337 -0.9139  0.0235 -2.7633
  726MPD2    H310736   4.596   2.321  10.376 -0.5558  0.0685  1.3968
  726MPD2     N10737   4.179   2.447  10.476 -0.1819 -0.4875  0.1819
  726MPD2    H510738   4.154   2.354  10.509 -2.0400 -0.1372 -0.2726
  726MPD2    N110739   4.513   2.765  10.332 -0.1023  0.9073 -0.5039
  726MPD2    H710740   4.437   2.831  10.338 -1.0759 -0.1026 -1.6905
  727TMC3    C110741   4.607   2.962  10.247 -0.0474 -0.2523  0.4913
  727TMC3    C210742   4.678   3.066  10.294 -0.0679  0.4101 -0.4934
  727TMC3    C310743   4.623   3.190  10.296  0.1057  0.2512 -0.6172
  727TMC3    C410744   4.478   2.972  10.207  0.3023 -0.1516  0.6307
  727TMC3    C510745   4.428   3.102  10.200  0.3198  0.3951 -0.3185
  727TMC3    C610746   4.494   3.207  10.251  0.8685  0.4104 -0.4992
  727TMC3     C10747   4.635   2.824  10.294 -0.4407 -0.4843  0.7052
  727TMC3     O10748   0.018   2.778  10.278 -0.3448 -0.0770  0.2569
  727TMC3     H10749   0.051   3.050  10.338 -0.6092 -1.8816 -0.1472
  727TMC3    H110750   4.430   2.891  10.154  0.1557  0.3081  0.0509
  727TMC3    H210751   4.454   3.307  10.241 -0.7326 -0.1156  0.8754
  727TMC3    C710752   4.292   3.115  10.153 -0.0622  0.2330 -0.4205
  727TMC3    C810753   4.714   3.300  10.303  0.3963 -0.1805 -0.0219
  727TMC3    O110754   4.222   3.015  10.178  0.4410  0.2133 -0.4641
  727TMC3    O210755   0.095   3.288  10.253  0.2147  0.7625  0.1549
  728TMC3    C110756   3.539   1.262  15.835 -0.1408 -0.5535 -0.4094
  728TMC3    C210757   3.658   1.304  15.897  0.0839 -0.1358 -0.4927
  728TMC3    C310758   3.739   1.383  15.830  0.1993 -0.4031  0.2944
  728TMC3    C410759   3.505   1.306  15.713 -0.1109  0.5473  0.1139
  728TMC3    C510760   3.588   1.393  15.650 -0.5819 -0.5265  0.4985
  728TMC3    C610761   3.709   1.432  15.703 -0.0385  0.2487 -0.5023
  728TMC3     C10762   3.479   1.141  15.883 -0.1137 -0.2451 -0.6196
  728TMC3     O10763   3.497   1.118  16.005  0.2110 -0.1378 -0.0726
  728TMC3     H10764   3.677   1.266  15.997  4.6303 -0.2458 -1.4122
  728TMC3    H110765   3.399   1.304  15.690 -0.1376  0.8053  0.2075
  728TMC3    H210766   3.779   1.504  15.659  0.7710 -1.5244 -2.1205
  728TMC3    C710767   3.553   1.419  15.511  0.2830 -0.0539  0.7604
  728TMC3    C810768   3.841   1.460  15.903  0.7410 -0.0261  0.2581
  728TMC3    O110769   3.453   1.359  15.473 -0.1300 -0.3240 -0.4377
  728TMC3    O210770   3.876   1.562  15.850 -0.2199  0.6775 -0.2735
  729MPD2     C10771   1.306   1.837  16.428 -0.0157 -0.0796 -0.1926
  729MPD2    C110772   1.239   1.952  16.400  0.0752  0.0569  0.5469
  729MPD2    C210773   1.170   2.014  16.510  0.0693  0.4590 -0.6042
  729MPD2    C310774   1.162   1.953  16.631  0.3389  0.4153  0.0847
  729MPD2    C410775   1.238   1.842  16.655  0.4971  0.6541  0.0548
  729MPD2    C510776   1.311   1.785  16.553  0.5191 -0.3939  0.0407
  729MPD2     H10777   1.121   2.109  16.490  0.8418  0.8407 -0.6851
  729MPD2    H110778   1.242   1.797  16.754  0.3437  1.1019  0.2660
  729MPD2    H210779   1.354   1.794  16.341  2.1813 -2.4982  2.2007
  729MPD2    H310780   1.362   1.690  16.566 -0.6574 -0.6609  2.6055
  729MPD2     N10781   1.093   2.001  16.747  0.4170 -0.1754 -0.3120
  729MPD2    H510782   1.091   1.932  16.822 -0.8826  1.3569  1.0561
  729MPD2    N110783   1.239   2.010  16.270 -0.0476  0.7938  0.1498
  729MPD2    H710784   1.303   1.965  16.206 -1.9512 -1.3786 -0.2491
  730TMC3    C110785   1.006   2.164  16.883 -0.3527  0.3620 -0.1926
  730TMC3    C210786   1.092   2.130  16.989  0.7979  0.4918  0.0385
  730TMC3    C310787   1.089   2.221  17.094  0.7309  0.1453 -0.6798
  730TMC3    C410788   0.926   2.277  16.882  0.2965  1.0956 -0.0127
  730TMC3    C510789   0.941   2.368  16.993  0.5165 -0.5881  0.3990
  730TMC3    C610790   1.012   2.328  17.098 -0.1658  0.3699  0.2900
  730TMC3     C10791   1.040   2.126  16.750 -0.1189 -0.4476  0.1490
  730TMC3     O10792   1.042   2.223  16.673 -0.0338  0.2030 -0.1438
  730TMC3     H10793   1.157   2.043  16.994 -1.0699 -0.8533  0.7124
  730TMC3    H110794   0.870   2.307  16.794  0.6325  2.0415  0.1015
  730TMC3    H210795   1.036   2.395  17.180 -1.1211  0.6539  0.3401
  730TMC3    C710796   0.932   2.508  16.954  0.0845 -0.6083  0.4361
  730TMC3    C810797   1.163   2.188  17.212 -0.4010 -0.8635 -0.6788
  730TMC3    O110798   0.928   2.531  16.836  0.3076 -0.3960 -0.0008
  730TMC3    O210799   1.104   2.152  17.314  0.0541  0.5191  0.1100
  731MPD2     C10800   1.351   0.026  12.301  0.5061 -0.4475 -0.2395
  731MPD2    C110801   1.278   0.137  12.301  0.3360 -0.1257 -0.4439
  731MPD2    C210802   1.222   0.184  12.420 -0.1187 -0.9037  0.1260
  731MPD2    C310803   1.241   0.116  12.537 -0.0170  0.3523  0.9201
  731MPD2    C410804   1.324   0.007  12.541 -0.1846 -0.8215  0.4353
  731MPD2    C510805   1.368   4.683  12.422  0.3107  0.1132 -0.1931
  731MPD2     H10806   1.155   0.269  12.420  0.3462 -0.5374 -1.8014
  731MPD2    H110807   1.346   4.674  12.630  2.2097 -1.4869 -0.5763
  731MPD2    H210808   1.389   4.710  12.208  1.9045  0.6490 -0.1487
  731MPD2    H310809   1.435   4.597  12.417  1.2009  0.6595  2.3051
  731MPD2     N10810   1.190   0.168  12.660 -0.4200  0.7193  0.5737
  731MPD2    H510811   1.134   0.252  12.661  0.6638  1.4983 -2.8813
  731MPD2    N110812   1.273   0.196  12.179 -0.2946  0.2556  0.3954
  731MPD2    H710813   1.314   0.148  12.099 -0.7799  1.5673 -0.6497
  732TMC3    C110814   1.207   0.335  12.000 -0.2072  0.5232 -0.3651
  732TMC3    C210815   1.096   0.354  11.927  0.6596 -0.4996 -0.8778
  732TMC3    C310816   1.105   0.350  11.790 -0.3103  0.4812 -0.3694
  732TMC3    C410817   1.325   0.337  11.934 -0.5405  0.2036  0.1348
  732TMC3    C510818   1.331   0.326  11.794  0.8728 -0.0734  0.6274
  732TMC3    C610819   1.219   0.340  11.716  0.8393  0.1323 -0.1938
  732TMC3     C10820   1.195   0.300  12.144 -0.6949  0.5342  0.7370
  732TMC3     O10821   1.099   0.351  12.204  0.4088  0.3354  0.4502
  732TMC3     H10822   1.000   0.375  11.973  0.9112 -1.2607 -0.0043
  732TMC3    H110823   1.416   0.346  11.992  0.6285 -0.6125 -1.5451
  732TMC3    H210824   1.223   0.323  11.609  1.5016 -0.8065 -0.0208
  732TMC3    C710825   1.450   0.283  11.729 -0.4234  0.2794 -0.2152
  732TMC3    C810826   0.980   0.314  11.717  0.0071 -0.7873 -0.6193
  732TMC3    O110827   1.472   0.299  11.610 -0.4716 -0.2659  0.2090
  732TMC3    O210828   0.975   0.342  11.596  0.2499 -0.3723 -0.5774
  733TMC3    C110829   1.361   3.791  13.215 -0.1627 -0.0084  0.1572
  733TMC3    C210830   1.480   3.750  13.272 -0.5964  0.1603 -0.2087
  733TMC3    C310831   1.592   3.776  13.198 -1.0419 -0.6235 -0.0562
  733TMC3    C410832   1.354   3.831  13.082 -0.4792 -0.3973  0.0487
  733TMC3    C510833   1.476   3.852  13.010  0.2029 -0.2119 -0.5793
  733TMC3    C610834   1.597   3.828  13.070  0.0086  0.5996  0.3040
  733TMC3     C10835   1.237   3.751  13.270  0.5962 -1.0312  0.6790
  733TMC3     O10836   1.145   3.810  13.214  0.5395  0.6583  0.0490
  733TMC3     H10837   1.482   3.717  13.376 -1.5442 -1.1538 -0.5966
  733TMC3    H110838   1.266   3.840  13.020 -0.1774  1.3089 -0.1506
  733TMC3    H210839   1.680   3.839  13.001  0.0531 -0.4769  0.1784
  733TMC3    C710840   1.471   3.907  12.873 -0.5993 -0.7595 -0.2799
  733TMC3    C810841   1.709   3.803  13.278 -0.0808  0.2639 -0.6295
  733TMC3    O110842   1.401   3.855  12.790  0.0321 -0.1080  0.1278
  733TMC3    O210843   1.720   3.734  13.381 -0.1319 -0.5227 -0.2787
  734MPD2     C10844   4.693   1.641  12.008 -0.2720 -0.8102 -0.0843
  734MPD2    C110845   4.554   1.620  12.022 -0.1579 -0.0674  0.6113
  734MPD2    C210846   4.467   1.675  11.933 -0.1131 -0.1366  0.6846
  734MPD2    C310847   4.510   1.736  11.812  0.9275 -0.3313  0.1432
  734MPD2    C410848   4.645   1.729  11.786  0.3299 -0.1183 -0.1103
  734MPD2    C510849   0.006   1.695  11.890 -0.3513 -0.0403  0.8694
  734MPD2     H10850   4.359   1.664  11.943 -0.1725  2.0175  2.4445
  734MPD2    H110851   4.687   1.754  11.689 -0.3584 -0.6038 -0.5364
  734MPD2    H210852   0.041   1.605  12.079 -1.1032  0.9019  1.6626
  734MPD2    H310853   0.112   1.703  11.869 -0.5751 -2.9092 -1.4371
  734MPD2     N10854   4.418   1.774  11.711  0.0843 -0.3198 -0.3948
  734MPD2    H510855   4.319   1.754  11.724  0.1567 -1.3525 -1.3633
  734MPD2    N110856   4.506   1.545  12.129  0.9700  0.4696 -0.3461
  734MPD2    H710857   4.581   1.502  12.182  2.6958  2.3334 -1.2703
  735TMC3    C110858   4.358   1.412  12.264 -0.4869 -0.3576 -0.4084
  735TMC3    C210859   4.220   1.380  12.281  0.6961  0.3185 -0.7608
  735TMC3    C310860   4.177   1.249  12.286  1.0187  0.7860 -0.2574
  735TMC3    C410861   4.445   1.307  12.278 -0.2954 -0.0802  0.1598
  735TMC3    C510862   4.406   1.185  12.320 -0.8130  0.7475 -0.7827
  735TMC3    C610863   4.276   1.153  12.315  0.8888 -0.2827 -0.0388
  735TMC3     C10864   4.371   1.517  12.161 -0.0069  0.5176 -0.1844
  735TMC3     O10865   4.268   1.542  12.108 -0.1953 -0.1240 -0.5446
  735TMC3     H10866   4.151   1.464  12.284  1.4419  0.8808  0.6523
  735TMC3    H110867   4.546   1.324  12.244 -0.1686 -1.8664 -0.3354
  735TMC3    H210868   4.232   1.054  12.317  0.2800 -0.0289 -0.8451
  735TMC3    C710869   4.509   1.080  12.325 -0.7658 -1.1181 -0.1723
  735TMC3    C810870   4.080   1.212  12.187  0.0713  0.1827  0.2229
  735TMC3    O110871   4.618   1.114  12.288 -0.5713  0.4153 -0.1485
  735TMC3    O210872   4.032   1.097  12.193 -0.3774  0.0400 -0.6401
  736MPD2     C10873   4.432   0.721  12.331  0.4766 -0.1734  0.6210
  736MPD2    C110874   4.507   0.832  12.302 -0.0068  0.1046  0.0432
  736MPD2    C210875   4.615   0.817  12.222 -0.1501 -0.2239  0.3716
  736MPD2    C310876   4.663   0.688  12.191 -0.0488  1.3454  0.4601
  736MPD2    C410877   4.585   0.576  12.225 -0.4647  0.4376  0.4692
  736MPD2    C510878   4.468   0.594  12.291  0.4159  0.2701 -0.1985
  736MPD2     H10879   4.675   0.902  12.192  2.2780 -2.6515 -1.7451
  736MPD2    H110880   4.601   0.475  12.190 -0.5737 -0.1632  2.1588
  736MPD2    H210881   4.340   0.735  12.387 -0.9741 -1.9594 -1.3464
  736MPD2    H310882   4.416   0.499  12.305  0.4643  0.4257  1.0690
  736MPD2     N10883   0.056   0.674  12.111  0.5977  0.2045 -0.2974
  736MPD2    H510884   0.073   0.578  12.083 -3.0882 -1.1622  2.1533
  736MPD2    N110885   4.457   0.951  12.350 -0.5969 -0.5473 -0.3813
  736MPD2    H710886   4.371   0.944  12.404 -0.7547 -1.9108 -0.8147
  737TMC3    C110887   0.193   0.754  11.932  0.5215 -0.3440  0.0478
  737TMC3    C210888   0.238   0.865  11.869 -0.7352  0.3784  0.0241
  737TMC3    C310889   0.267   0.861  11.737 -1.2438 -0.5033 -0.3163
  737TMC3    C410890   0.183   0.635  11.866  0.0280  0.9863 -0.1972
  737TMC3    C510891   0.215   0.629  11.735 -0.2729 -0.4673  0.2976
  737TMC3    C610892   0.262   0.740  11.666 -0.3672 -0.0742 -0.2088
  737TMC3     C10893   0.131   0.776  12.061  0.2377 -0.3355  0.4155
  737TMC3     O10894   0.161   0.878  12.124  0.6539  0.0707 -0.2560
  737TMC3     H10895   0.253   0.955  11.927  2.4250 -0.7303  0.9208
  737TMC3    H110896   0.134   0.549  11.910 -0.0113  0.4128 -1.3730
  737TMC3    H210897   0.288   0.731  11.561 -0.5990  3.6292 -0.6053
  737TMC3    C710898   0.240   0.493  11.683  0.1135  0.2824  0.1649
  737TMC3    C810899   0.302   0.989  11.671  0.1764 -0.6062  0.6262
  737TMC3    O110900   0.199   0.395  11.747 -0.3907 -0.4604 -0.0064
  737TMC3    O210901   0.347   1.081  11.738  0.6455 -0.1174  0.2210
  738MPD2     C10902   0.035   0.160  14.631 -0.1669  1.3510 -0.0437
  738MPD2    C110903   0.086   0.046  14.692 -0.2034 -0.5974  0.3139
  738MPD2    C210904   0.222   0.042  14.717  0.1792 -0.0265 -0.2602
  738MPD2    C310905   0.303   0.143  14.670  0.3167  0.5250 -0.2486
  738MPD2    C410906   0.253   0.247  14.595 -0.7145  0.4657 -1.0986
  738MPD2    C510907   0.118   0.251  14.578 -0.2832 -0.0266 -0.0119
  738MPD2     H10908   0.266   4.690  14.779  1.2995  1.0044  0.2401
  738MPD2    H110909   0.317   0.324  14.555 -1.4264  2.2445  1.1936
  738MPD2    H210910   4.655   0.180  14.615  0.5675  2.6750 -3.3228
  738MPD2    H310911   0.076   0.340  14.533  1.4272  0.7374 -0.0654
  738MPD2     N10912   0.444   0.137  14.684  0.2661  0.3749 -0.6098
  738MPD2    H510913   0.502   0.197  14.626  0.0281  1.0291 -0.1711
  738MPD2    N110914   0.010   4.657  14.737  0.5206 -0.3078 -0.7080
  738MPD2    H710915   0.055   4.584  14.792 -3.1108 -0.7083  1.7310
  739TMC3    C110916   0.636   0.004  14.657  0.3135  0.2257  0.0074
  739TMC3    C210917   0.621   0.021  14.523  0.2218 -0.4740  0.0812
  739TMC3    C310918   0.735   0.032  14.445 -0.4628 -0.9348  0.3062
  739TMC3    C410919   0.753   4.723  14.721  0.4781 -0.8594  0.1806
  739TMC3    C510920   0.869   0.014  14.637  0.4593  0.0457  0.2247
  739TMC3    C610921   0.863   0.037  14.499 -0.1710 -0.2324 -0.0518
  739TMC3     C10922   0.515   0.024  14.728  0.1869 -0.4689  0.2204
  739TMC3     O10923   0.494   4.672  14.819 -0.5165 -0.0597 -0.0292
  739TMC3     H10924   0.521   0.023  14.480  1.0806  0.4344 -1.8542
  739TMC3    H110925   0.756   4.702  14.827  1.3970  1.5415  0.6260
  739TMC3    H210926   0.961   0.055  14.455 -0.9463 -0.6776 -1.9546
  739TMC3    C710927   1.000   0.057  14.702  0.3873  0.3300  0.1750
  739TMC3    C810928   0.714   0.044  14.304  0.0721 -0.0416  0.2704
  739TMC3    O110929   1.100   0.050  14.634  0.3271  0.6833 -0.1210
  739TMC3    O210930   0.599   0.068  14.274 -0.2645 -0.5401 -0.2608
  740TMC3    C110931   0.648   1.150  14.074 -0.6507 -0.5962 -0.2679
  740TMC3    C210932   0.709   1.125  14.193 -0.1867 -0.5340 -0.0576
  740TMC3    C310933   0.844   1.119  14.202  0.7649 -0.6203  0.6046
  740TMC3    C410934   0.726   1.165  13.961 -0.2648 -0.0088  0.2885
  740TMC3    C510935   0.862   1.143  13.972 -0.3011  0.2368 -0.1729
  740TMC3    C610936   0.926   1.117  14.091  0.2621  0.3512  0.1685
  740TMC3     C10937   0.504   1.156  14.058 -0.1624 -0.3793  0.5474
  740TMC3     O10938   0.469   1.194  13.947 -0.0146 -0.7276  0.0208
  740TMC3     H10939   0.649   1.140  14.281 -1.3701 -3.4121 -0.3825
  740TMC3    H110940   0.681   1.197  13.867 -2.8775 -0.5317  1.3510
  740TMC3    H210941   1.032   1.098  14.096  0.0381 -1.0591 -0.3813
  740TMC3    C710942   0.937   1.161  13.843 -0.4587 -0.0071 -0.2155
  740TMC3    C810943   0.905   1.075  14.328 -0.2807  0.1174  0.3573
  740TMC3    O110944   1.051   1.196  13.848  0.2349  0.4133  0.1846
  740TMC3    O210945   1.023   1.047  14.325 -0.3058 -0.0953 -0.2333
  741TMC3    C110946   0.604   0.488  13.939  0.7344 -0.4758  0.4227
  741TMC3    C210947   0.491   0.427  13.959  0.5285 -0.4566 -0.4282
  741TMC3    C310948   0.474   0.355  14.071 -0.4504 -0.6433 -0.9028
  741TMC3    C410949   0.708   0.481  14.020 -0.7129 -0.8870  0.3165
  741TMC3    C510950   0.694   0.414  14.139 -0.2592  0.3576  0.5967
  741TMC3    C610951   0.576   0.347  14.161 -0.1565 -0.0346 -0.3411
  741TMC3     C10952   0.626   0.566  13.819  0.0123  0.2273 -0.3680
  741TMC3     O10953   0.736   0.620  13.826 -0.3945  0.3564 -0.2454
  741TMC3     H10954   0.407   0.440  13.892 -0.9420 -0.4040  1.4495
  741TMC3    H110955   0.805   0.522  13.996  0.0056 -0.2901  4.2790
  741TMC3    H210956   0.565   0.297  14.257 -0.0751  1.7152  0.5922
  741TMC3    C710957   0.791   0.407  14.246 -0.0965  0.1122  0.2817
  741TMC3    C810958   0.342   0.319  14.105 -0.1285 -0.3332  0.1010
  741TMC3    O110959   0.768   0.324  14.334 -0.0956 -0.0522 -0.2217
  741TMC3    O210960   0.252   0.395  14.066 -0.1135 -0.0716 -0.3104
  742TMC3    C110961   0.446   3.551  15.227 -0.5719 -0.2047 -0.5594
  742TMC3    C210962   0.342   3.509  15.150 -0.0472  0.8368  0.1266
  742TMC3    C310963   0.332   3.576  15.030  0.6984 -0.8692 -0.8112
  742TMC3    C410964   0.542   3.639  15.182 -0.1378  0.5660  0.0126
  742TMC3    C510965   0.539   3.678  15.053  0.4314  0.2756 -0.0965
  742TMC3    C610966   0.431   3.650  14.978 -0.1677  0.0200 -0.0703
  742TMC3     C10967   0.454   3.523  15.369  0.1722  0.2682  0.2565
  742TMC3     O10968   0.513   3.598  15.447  0.0156  0.7193  0.2595
  742TMC3     H10969   0.255   3.457  15.188 -0.2761  1.5964  0.6308
  742TMC3    H110970   0.625   3.660  15.247 -1.5671  3.4656  0.8857
  742TMC3    H210971   0.438   3.695  14.880 -0.2055  1.0862  0.4149
  742TMC3    C710972   0.671   3.668  14.985 -0.0170 -0.3110  0.5943
  742TMC3    C810973   0.221   3.555  14.941 -0.2775  0.0576  0.2244
  742TMC3    O110974   0.683   3.593  14.890 -0.6659 -0.1920 -0.2939
  742TMC3    O210975   0.156   3.454  14.961  0.3716  0.2735 -0.2483
  743MPD2     C10976   3.043   0.320   1.846  0.1823  0.2270  0.0632
  743MPD2    C110977   3.019   0.432   1.918  0.6139  0.3596 -0.4377
  743MPD2    C210978   3.122   0.483   1.996 -0.2833  0.0620  0.4788
  743MPD2    C310979   3.252   0.423   1.991  0.1544 -0.0912  0.0432
  743MPD2    C410980   3.273   0.318   1.907 -0.4449  0.4278  0.3470
  743MPD2    C510981   3.165   0.265   1.835 -0.0813 -0.4160 -0.7409
  743MPD2     H10982   3.105   0.574   2.052  2.1919  0.6343  0.2819
  743MPD2    H110983   3.370   0.272   1.891 -0.9802  0.0402 -1.7488
  743MPD2    H210984   2.960   0.286   1.785 -0.3486  1.4323  0.1243
  743MPD2    H310985   3.179   0.177   1.774 -0.3660  0.7018 -2.4128
  743MPD2     N10986   3.368   0.484   2.056  0.0831  0.1048  0.2171
  743MPD2    H510987   3.346   0.560   2.120 -0.7285 -0.3172  0.4466
  743MPD2    N110988   2.886   0.481   1.905 -0.7650 -0.4609 -0.1576
  743MPD2    H710989   2.828   0.444   1.830  0.1652 -1.3559 -0.4354
  744TMC3    C110990   2.715   0.641   1.934 -0.0926  0.2835 -0.5239
  744TMC3    C210991   2.624   0.686   2.033 -0.1835 -0.1817 -0.2681
  744TMC3    C310992   2.488   0.681   2.001 -0.4696 -0.4195 -0.3598
  744TMC3    C410993   2.681   0.624   1.805 -0.8556 -0.0225  0.8179
  744TMC3    C510994   2.546   0.625   1.781  0.3011  0.4016  0.2255
  744TMC3    C610995   2.452   0.664   1.867 -0.0873 -0.2172 -0.5993
  744TMC3     C10996   2.824   0.571   1.986 -0.4765 -0.5180 -0.7671
  744TMC3     O10997   2.869   0.614   2.091  0.4784  0.5929 -0.2089
  744TMC3     H10998   2.662   0.713   2.131 -1.5272  0.2417  0.1340
  744TMC3    H110999   2.745   0.591   1.724 -2.0949 -1.6305  0.4831
  744TMC3    H211000   2.348   0.658   1.834 -0.3631 -2.4042  0.6952
  744TMC3    C711001   2.513   0.575   1.646  0.0246  0.6924 -0.4061
  744TMC3    C811002   2.395   0.751   2.086  0.0378 -0.3760  0.8024
  744TMC3    O111003   2.595   0.584   1.558  0.5568 -0.2068  0.1813
  744TMC3    O211004   2.278   0.763   2.044 -0.0931  0.7901  0.1224
  745TMC3    C111005   0.372   3.300  13.889  0.8050 -0.1908 -0.0381
  745TMC3    C211006   0.306   3.245  13.996 -0.0809  0.1019 -0.4248
  745TMC3    C311007   0.175   3.294  14.026  0.8231 -0.1010 -0.0291
  745TMC3    C411008   0.300   3.380  13.800  0.5748  0.0548  0.5603
  745TMC3    C511009   0.170   3.422  13.826  0.4822 -0.7716  0.0020
  745TMC3    C611010   0.113   3.383  13.945 -0.6451  0.2269 -0.2948
  745TMC3     C11011   0.515   3.304  13.905  0.0553 -0.1703 -0.3339
  745TMC3     O11012   0.553   3.236  13.998 -0.7455  0.2416 -0.2941
  745TMC3     H11013   0.343   3.166  14.060  0.2920  0.5726 -0.0670
  745TMC3    H111014   0.358   3.407  13.713  0.5887 -0.3645  0.4384
  745TMC3    H211015   0.020   3.432  13.970  0.1312  1.1065  0.8336
  745TMC3    C711016   0.079   3.459  13.720  0.3814 -0.7145  0.0299
  745TMC3    C811017   0.172   3.358  14.151 -0.0148 -0.5212 -0.2018
  745TMC3    O111018   4.701   3.516  13.752  0.2221 -0.0123  0.2977
  745TMC3    O211019   0.064   3.390  14.188 -0.9004  0.1783 -0.3965
  746TMC3    C111020   3.115   0.464  10.636  0.2194  0.0617 -0.3274
  746TMC3    C211021   3.202   0.402  10.548 -0.1833 -0.4842 -0.3033
  746TMC3    C311022   3.193   0.263  10.537  0.0966  0.3814 -0.3157
  746TMC3    C411023   3.019   0.392  10.700  0.1562 -0.2691  0.0474
  746TMC3    C511024   3.019   0.256  10.689 -0.3787  0.1149 -0.1353
  746TMC3    C611025   3.099   0.191  10.599  0.0100 -0.9385 -0.1269
  746TMC3     C11026   3.103   0.607  10.629  0.6661  0.0850  0.3986
  746TMC3     O11027   2.990   0.652  10.647 -0.2807 -0.0619  0.1725
  746TMC3     H11028   3.270   0.457  10.484 -1.0944 -0.0267 -0.8809
  746TMC3    H111029   2.948   0.444  10.763  0.4282  0.1765 -0.0125
  746TMC3    H211030   3.085   0.086  10.576 -2.2162 -1.1510  2.2698
  746TMC3    C711031   2.911   0.192  10.750  0.1426 -0.5301 -0.1342
  746TMC3    C811032   3.278   0.193  10.436  0.4055  0.3751 -0.0772
  746TMC3    O111033   2.852   0.114  10.677  0.1501 -0.7919  0.1041
  746TMC3    O211034   3.240   0.080  10.404  0.4048 -0.4390 -0.0174
  747TMC3    C111035   0.724   0.318  10.751  0.1338  0.5564 -0.0340
  747TMC3    C211036   0.629   0.276  10.839  0.0266  0.2718 -0.0648
  747TMC3    C311037   0.633   0.320  10.971  0.4078 -0.1829  0.5502
  747TMC3    C411038   0.840   0.365  10.800  0.1923  0.1984  0.3940
  747TMC3    C511039   0.848   0.398  10.933 -0.4575 -0.9351  0.0661
  747TMC3    C611040   0.741   0.387  11.018  0.1827  0.7832  0.2582
  747TMC3     C11041   0.678   0.362  10.615 -0.5949  0.8826 -0.1755
  747TMC3     O11042   0.716   0.477  10.588  0.0747  0.1636  0.6675
  747TMC3     H11043   0.537   0.240  10.796  0.4208 -0.1430 -0.5647
  747TMC3    H111044   0.905   0.406  10.724  1.0033  1.4949  1.7988
  747TMC3    H211045   0.753   0.410  11.123 -2.0689  0.6199  0.5583
  747TMC3    C711046   0.972   0.443  10.984  0.5333  0.4721 -0.2684
  747TMC3    C811047   0.524   0.275  11.060  0.2220  0.2197 -0.1344
  747TMC3    O111048   0.978   0.510  11.088 -0.1231 -0.0993  0.4046
  747TMC3    O211049   0.460   0.180  11.013 -0.2369 -0.3166  0.0874
  748MPD2     C11050   1.680   1.421   2.580  0.0097 -0.0721 -0.2440
  748MPD2    C111051   1.681   1.333   2.474  0.1162  0.3384  0.4865
  748MPD2    C211052   1.796   1.303   2.411  0.3913  0.0686  0.3721
  748MPD2    C311053   1.914   1.376   2.447  0.7688 -1.0885  0.9133
  748MPD2    C411054   1.912   1.467   2.545 -0.0094 -0.3393  0.2181
  748MPD2    C511055   1.798   1.481   2.623  0.2875 -0.6374 -0.2789
  748MPD2     H11056   1.795   1.227   2.334  0.3286  2.7826 -2.3113
  748MPD2    H111057   1.992   1.535   2.573 -1.5990  1.5668  0.1849
  748MPD2    H211058   1.590   1.437   2.637  0.1282  0.6694 -0.2691
  748MPD2    H311059   1.792   1.552   2.704  2.2549 -0.6059 -0.1585
  748MPD2     N11060   2.035   1.343   2.371  0.0005  0.0304 -0.3329
  748MPD2    H511061   2.029   1.259   2.314  0.4782  0.7591 -1.4503
  748MPD2    N111062   1.560   1.258   2.459  0.3262  0.3470  0.1807
  748MPD2    H711063   1.486   1.290   2.521  0.6695 -0.7132  1.1399
  749TMC3    C111064   2.257   1.335   2.313 -0.2406  0.2324 -0.0029
  749TMC3    C211065   2.378   1.323   2.368  0.3873 -0.2885 -0.3732
  749TMC3    C311066   2.478   1.270   2.289  0.6616 -0.3662  0.0616
  749TMC3    C411067   2.229   1.309   2.181  0.6131 -0.4606  0.3757
  749TMC3    C511068   2.332   1.267   2.107 -0.3358  0.1790  0.1557
  749TMC3    C611069   2.455   1.244   2.157  0.1875  0.3426  0.3860
  749TMC3     C11070   2.157   1.408   2.388 -0.6066  0.0648  0.8452
  749TMC3     O11071   2.184   1.510   2.447  0.1556  0.2469 -0.2402
  749TMC3     H11072   2.397   1.347   2.472  0.6380  0.9309 -0.7037
  749TMC3    H111073   2.142   1.354   2.136 -0.7490 -0.3045  3.1410
  749TMC3    H211074   2.530   1.206   2.088 -0.2069 -0.5614  0.4567
  749TMC3    C711075   2.324   1.266   1.964 -0.1729  0.0483  0.1639
  749TMC3    C811076   2.612   1.234   2.339  0.0786  1.0170 -0.2516
  749TMC3    O111077   2.413   1.311   1.896 -0.8966 -0.0703  0.1177
  749TMC3    O211078   2.619   1.250   2.458  0.3057  0.3015 -0.0516
  750MPD2     C11079   3.285   2.232  11.020  0.7042 -0.5863  0.3303
  750MPD2    C111080   3.164   2.230  10.967 -0.2158  0.9418  0.1874
  750MPD2    C211081   3.145   2.135  10.866  0.1528 -0.6995  0.4424
  750MPD2    C311082   3.238   2.040  10.821 -0.4012 -0.2441 -0.2346
  750MPD2    C411083   3.359   2.048  10.877 -0.8959  0.1579 -0.5599
  750MPD2    C511084   3.375   2.135  10.987  0.6186  0.0149 -0.0246
  750MPD2     H11085   3.042   2.142  10.832  0.7448 -1.7633 -1.5355
  750MPD2    H111086   3.442   1.989  10.841  0.7581  2.1094  0.0348
  750MPD2    H211087   3.318   2.299  11.098  0.5313  0.4201 -0.4671
  750MPD2    H311088   3.470   2.136  11.039  1.6751 -0.1516 -1.9403
  750MPD2     N11089   3.202   1.942  10.725 -0.4320  0.1375  0.1816
  750MPD2    H511090   3.270   1.868  10.709 -2.0648 -1.4506  0.6867
  750MPD2    N111091   3.064   2.325  11.004 -0.3651  0.2020 -0.3769
  750MPD2    H711092   3.095   2.402  11.063 -1.0893  0.0344  0.2252
  751TMC3    C111093   3.084   1.797  10.591 -0.1654  0.5249 -0.2128
  751TMC3    C211094   2.964   1.736  10.558 -0.3931  0.1639 -0.1809
  751TMC3    C311095   2.964   1.623  10.486  0.1218  0.4049 -0.3591
  751TMC3    C411096   3.197   1.744  10.547 -0.3287 -0.4899  0.5042
  751TMC3    C511097   3.199   1.631  10.475  0.4109  0.0472 -0.5496
  751TMC3    C611098   3.080   1.563  10.445 -0.6055 -0.2228  0.1359
  751TMC3     C11099   3.085   1.928  10.656 -0.0697 -0.2193  0.3514
  751TMC3     O11100   2.977   1.987  10.667 -0.1184  0.1893 -0.3108
  751TMC3     H11101   2.879   1.790  10.598 -0.5115  0.1524 -0.4213
  751TMC3    H111102   3.290   1.800  10.542 -0.8668  0.5530  2.0133
  751TMC3    H211103   3.075   1.466  10.399  0.5898 -0.7038  1.0074
  751TMC3    C711104   3.325   1.580  10.419 -0.4047  0.0682 -0.4006
  751TMC3    C811105   2.836   1.549  10.470  0.3173  0.0718 -0.2885
  751TMC3    O111106   3.415   1.660  10.412 -0.3796  0.5882 -0.1527
  751TMC3    O211107   2.845   1.443  10.406 -0.2064  0.0442  0.0458
  752TMC3    C111108   2.089   1.985  16.491 -0.1429  0.0504 -0.9073
  752TMC3    C211109   1.968   1.978  16.552 -0.2229  0.3074  0.7156
  752TMC3    C311110   1.962   1.959  16.689 -0.4349 -0.7530 -0.4963
  752TMC3    C411111   2.205   1.953  16.555 -0.0467 -0.4828  0.5624
  752TMC3    C511112   2.187   1.917  16.693  0.4173  0.0179  0.8079
  752TMC3    C611113   2.068   1.916  16.760 -0.1817  0.6293 -0.0279
  752TMC3     C11114   2.101   2.011  16.350 -0.1376  0.2184  0.0676
  752TMC3     O11115   2.208   2.006  16.292 -0.0220 -0.2347 -0.8561
  752TMC3     H11116   1.870   1.994  16.507  0.0112 -1.6098 -0.4748
  752TMC3    H111117   2.303   1.967  16.512 -0.4617 -2.3311 -0.9927
  752TMC3    H211118   2.082   1.887  16.863  0.0625 -1.7228 -0.7273
  752TMC3    C711119   2.297   1.875  16.773 -0.4335  0.2304 -0.2132
  752TMC3    C811120   1.824   1.961  16.743  0.5658  0.4369  0.0247
  752TMC3    O111121   2.267   1.796  16.862  0.2412  0.4015 -0.5738
  752TMC3    O211122   1.735   1.999  16.669 -0.3475  0.8337  0.2703
  753TMC3    C111123   3.881   3.653  12.877 -0.2913  0.4567 -0.9478
  753TMC3    C211124   3.963   3.591  12.974 -0.2325 -0.3792  0.2447
  753TMC3    C311125   3.940   3.459  12.999  0.1677 -0.2819 -0.3895
  753TMC3    C411126   3.791   3.584  12.797  0.2040 -0.1117 -0.8098
  753TMC3    C511127   3.775   3.448  12.824  0.0514  0.2146  0.3492
  753TMC3    C611128   3.848   3.382  12.923 -0.9796  0.3598 -0.5084
  753TMC3     C11129   3.889   3.802  12.861  0.3923 -0.6896  0.0069
  753TMC3     O11130   3.780   3.860  12.840  0.1064 -0.2452 -0.2261
  753TMC3     H11131   4.005   3.661  13.046 -1.4863 -1.0181  1.5812
  753TMC3    H111132   3.732   3.630  12.719 -0.8546  2.1276  1.3155
  753TMC3    H211133   3.852   3.275  12.936  0.7826  0.6719  1.5768
  753TMC3    C711134   3.654   3.385  12.778  0.3751  0.1103 -0.7443
  753TMC3    C811135   3.977   3.398  13.127 -0.2199  0.2866 -0.7210
  753TMC3    O111136   3.567   3.453  12.728  0.4731  0.0256  0.1129
  753TMC3    O211137   3.892   3.317  13.171  0.2406 -0.6946 -0.2052
  754MPD2     C11138   2.664   1.926  12.954  0.6186 -0.2677  0.1468
  754MPD2    C111139   2.650   1.798  13.012  0.2891  0.0042 -0.3062
  754MPD2    C211140   2.529   1.728  13.004 -0.7279  0.5471 -0.0349
  754MPD2    C311141   2.418   1.791  12.955  0.2525 -0.1617 -0.1809
  754MPD2    C411142   2.433   1.913  12.903  0.8753 -0.3557  0.1620
  754MPD2    C511143   2.552   1.976  12.897 -0.0668 -0.5501  0.1612
  754MPD2     H11144   2.527   1.627  13.045 -0.5796  0.1025 -1.1308
  754MPD2    H111145   2.346   1.966  12.864  0.2156 -0.0582  2.0319
  754MPD2    H211146   2.759   1.976  12.964  1.7578 -2.9395  2.8671
  754MPD2    H311147   2.544   2.071  12.845 -0.4952  0.0072  1.2248
  754MPD2     N11148   2.289   1.731  12.950 -0.3123 -0.4956 -0.0474
  754MPD2    H511149   2.210   1.789  12.920 -0.8528 -0.2454  1.8550
  754MPD2    N111150   2.765   1.749  13.077  0.2686 -0.1218 -0.2344
  754MPD2    H711151   2.847   1.809  13.078  1.4833 -1.8152  0.4952
  755MPD2     C11152   1.386   2.039  13.087 -0.7959 -0.8155  0.5667
  755MPD2    C111153   1.516   2.071  13.122 -0.2862 -0.1257 -0.0140
  755MPD2    C211154   1.619   1.992  13.074 -0.7386 -0.1792 -0.5064
  755MPD2    C311155   1.593   1.882  12.998  0.0404  0.0032 -0.1960
  755MPD2    C411156   1.461   1.846  12.960  0.1383 -0.1684  0.1278
  755MPD2    C511157   1.359   1.926  13.018 -0.7972 -0.0240  0.3532
  755MPD2     H11158   1.723   2.008  13.100 -1.1390  2.1231 -0.3993
  755MPD2    H111159   1.448   1.755  12.902  1.2616 -0.5228  0.4244
  755MPD2    H211160   1.306   2.110  13.106  0.5139  1.0988 -1.1531
  755MPD2    H311161   1.255   1.904  12.995 -0.7091 -1.2498  1.1198
  755MPD2     N11162   1.695   1.786  12.960  0.2809  0.3447  0.1463
  755MPD2    H511163   1.661   1.704  12.911  0.3441 -0.4390  1.4232
  755MPD2    N111164   1.552   2.182  13.204  0.3998  0.0647  1.0749
  755MPD2    H711165   1.647   2.179  13.240  0.9704  2.1855 -0.2621
  756MPD2     C11166   2.978   3.437   9.516 -0.0580 -0.4371  0.2596
  756MPD2    C111167   2.975   3.306   9.558  0.9381 -0.2666  0.2455
  756MPD2    C211168   2.929   3.206   9.479 -0.4224  0.1887  0.6580
  756MPD2    C311169   2.892   3.224   9.348 -0.2614 -0.1692 -0.8648
  756MPD2    C411170   2.904   3.354   9.297 -0.2355 -0.4473 -0.2795
  756MPD2    C511171   2.950   3.454   9.383  0.5616 -0.1086 -0.4402
  756MPD2     H11172   2.926   3.101   9.505 -0.7685  0.3638  1.3138
  756MPD2    H111173   2.871   3.380   9.197 -0.0962  2.5733  0.4421
  756MPD2    H211174   3.004   3.520   9.580 -2.3783 -0.3221  1.0382
  756MPD2    H311175   2.948   3.557   9.347  0.3302  0.2640  0.6432
  756MPD2     N11176   2.859   3.117   9.260  0.3276 -0.4949  0.0115
  756MPD2    H511177   2.874   3.024   9.297 -0.1210 -1.2317 -1.6462
  756MPD2    N111178   2.980   3.265   9.689 -0.2931 -0.4057  0.0784
  756MPD2    H711179   2.950   3.169   9.701 -0.0030 -0.3276  1.4674
  757MPD2     C11180   2.891   2.203   9.432 -0.0598  0.2158  0.3172
  757MPD2    C111181   2.761   2.221   9.390 -0.7470 -0.2381 -0.1251
  757MPD2    C211182   2.735   2.331   9.310 -0.4692  0.1215 -0.2252
  757MPD2    C311183   2.832   2.417   9.271 -0.0333  0.9053  0.3806
  757MPD2    C411184   2.963   2.395   9.307  0.7843 -0.1155 -0.3392
  757MPD2    C511185   2.991   2.286   9.388  0.4117 -0.2408 -0.2216
  757MPD2     H11186   2.632   2.352   9.282 -0.6996 -1.1683 -0.3168
  757MPD2    H111187   3.051   2.454   9.283  0.2812  0.1299 -1.5562
  757MPD2    H211188   2.927   2.130   9.504 -1.1809  0.0524  0.7037
  757MPD2    H311189   3.092   2.262   9.418  0.0534  0.0363  1.2176
  757MPD2     N11190   2.785   2.532   9.197  0.0625  0.0629 -0.5158
  757MPD2    H511191   2.684   2.540   9.191  0.2610  1.8104 -1.4748
  757MPD2    N111192   2.667   2.127   9.441  0.1263 -0.0539  0.8409
  757MPD2    H711193   2.704   2.045   9.489 -0.3087 -0.5733  0.2874
  758MPD2     C11194   2.510   1.232  15.908  0.1535 -0.2824  0.0847
  758MPD2    C111195   2.586   1.285  16.013  0.6989 -0.3374 -0.2894
  758MPD2    C211196   2.540   1.384  16.085  0.0021 -0.1687 -0.5243
  758MPD2    C311197   2.421   1.444  16.040  0.0125  0.4261  0.3715
  758MPD2    C411198   2.342   1.393  15.939  0.3548 -0.0959  0.2668
  758MPD2    C511199   2.390   1.289  15.868 -1.0323  0.0628 -0.4754
  758MPD2     H11200   2.589   1.421  16.174  1.2467  0.7201 -1.5863
  758MPD2    H111201   2.249   1.433  15.901  0.0786 -1.3548 -0.3870
  758MPD2    H211202   2.542   1.149  15.846  1.2908 -0.7581  1.3007
  758MPD2    H311203   2.338   1.246  15.782  0.6586  0.5568 -1.7372
  758MPD2     N11204   2.364   1.545  16.121 -0.3470 -0.3986  0.2043
  758MPD2    H511205   2.265   1.541  16.144  0.0734  2.5143  2.4664
  758MPD2    N111206   2.718   1.236  16.052  0.3823  0.7203 -0.6690
  758MPD2    H711207   2.761   1.279  16.133 -0.2948 -0.7846  0.4970
  759MPD2     C11208   1.949   4.254   9.542 -0.2977  0.1328 -0.2726
  759MPD2    C111209   1.847   4.287   9.634  0.1160  0.0808 -0.0165
  759MPD2    C211210   1.810   4.421   9.629  0.1691  0.5924 -0.0698
  759MPD2    C311211   1.861   4.523   9.547  0.2788  0.0861  0.5402
  759MPD2    C411212   1.972   4.480   9.471  0.0450 -0.3457 -0.0774
  759MPD2    C511213   2.016   4.349   9.469  0.4049 -0.1273  0.4353
  759MPD2     H11214   1.724   4.452   9.688 -1.4806 -0.4576 -1.9588
  759MPD2    H111215   2.018   4.555   9.408 -1.0536  0.2158 -0.2103
  759MPD2    H211216   1.982   4.152   9.532  1.8018  0.8521 -0.6740
  759MPD2    H311217   2.087   4.315   9.395  0.9779 -2.3914  2.0159
  759MPD2     N11218   1.796   4.647   9.550  0.0125 -0.2348 -0.1922
  759MPD2    H511219   1.726   4.661   9.623  1.3989  0.0941  1.0712
  759MPD2    N111220   1.776   4.193   9.718 -0.1133  0.2563 -0.4320
  759MPD2    H711221   1.696   4.225   9.771 -1.6014 -1.8448 -1.4340
  760MPD2     C11222   1.113   2.399  11.733  0.6240  0.4621 -0.9981
  760MPD2    C111223   1.238   2.379  11.673  0.4968  0.2389 -0.4552
  760MPD2    C211224   1.282   2.252  11.647 -0.1675 -1.2818 -0.5809
  760MPD2    C311225   1.205   2.140  11.674  0.1787  0.3628 -0.1729
  760MPD2    C411226   1.085   2.162  11.738  0.0452  0.6311 -1.2727
  760MPD2    C511227   1.041   2.287  11.769  0.2883  0.9222 -0.3422
  760MPD2     H11228   1.379   2.242  11.599  1.3774  3.0776  1.6606
  760MPD2    H111229   1.015   2.081  11.753  1.3120 -0.6013 -1.9676
  760MPD2    H211230   1.074   2.497  11.758  0.1681  0.1088 -0.3088
  760MPD2    H311231   0.943   2.299  11.815  0.3027  0.3931 -0.1766
  760MPD2     N11232   1.245   2.001  11.658 -0.1782  0.0086 -0.2302
  760MPD2    H511233   1.170   1.935  11.677  0.4397 -0.3300  1.0121
  760MPD2    N111234   1.312   2.487  11.627 -0.2264 -0.0393 -0.4146
  760MPD2    H711235   1.412   2.472  11.618 -0.0652  1.3275 -0.9412
  761MPD2     C11236   2.383   1.413  10.663 -0.0256  0.1315  0.1659
  761MPD2    C111237   2.455   1.353  10.568  0.1442  0.5524 -0.9703
  761MPD2    C211238   2.572   1.417  10.522  0.2787 -0.0760 -0.3018
  761MPD2    C311239   2.607   1.541  10.573  0.2629  1.0690  0.4097
  761MPD2    C411240   2.529   1.605  10.663  0.3621  0.2575  0.0162
  761MPD2    C511241   2.416   1.541  10.702  0.1720 -0.6422 -0.3274
  761MPD2     H11242   2.631   1.380  10.438  1.9465 -0.6415  1.1042
  761MPD2    H111243   2.558   1.702  10.702  1.4357 -1.0511  2.4436
  761MPD2    H211244   2.298   1.368  10.714 -0.3485  1.5596  0.8976
  761MPD2    H311245   2.355   1.587  10.779  1.6744 -1.2535  1.2316
  761MPD2     N11246   2.731   1.600  10.546  0.6839 -0.9575  0.7725
  761MPD2    H511247   2.747   1.686  10.599  1.6725  1.1642 -3.0001
  761MPD2    N111248   2.431   1.220  10.540  0.4491 -0.3120  0.1513
  761MPD2    H711249   2.358   1.181  10.598 -0.7940 -1.3856 -2.1122
  762MPD2     C11250   2.885   0.437  10.355 -0.1046 -0.2309 -0.3516
  762MPD2    C111251   2.884   0.573  10.360 -0.6300 -0.8791  0.1395
  762MPD2    C211252   2.987   0.646  10.303 -0.1353 -0.6150  0.0361
  762MPD2    C311253   3.087   0.585  10.221  0.0580 -0.7223  0.1062
  762MPD2    C411254   3.083   0.442  10.219 -1.1444 -0.2131  0.2841
  762MPD2    C511255   2.984   0.370  10.287 -0.2085  0.1845  0.2897
  762MPD2     H11256   2.993   0.754  10.308 -0.8970 -0.6725  2.2419
  762MPD2    H111257   3.152   0.383  10.160  0.2185  1.9784 -0.2957
  762MPD2    H211258   2.808   0.382  10.408  1.4057 -0.8065  1.2488
  762MPD2    H311259   2.997   0.262  10.291  1.7215  0.3644 -1.2841
  762MPD2     N11260   3.188   0.662  10.150 -0.1672 -0.4110 -0.2023
  762MPD2    H511261   3.208   0.757  10.181  0.7918 -0.1033 -1.7894
  762MPD2    N111262   2.770   0.632  10.425 -0.1959 -0.3503 -0.4044
  762MPD2    H711263   2.692   0.571  10.444 -0.6447 -0.7519 -3.4599
  763MPD2     C11264   4.548   1.428  16.005  0.5938  0.0440 -0.0334
  763MPD2    C111265   4.570   1.561  15.976 -0.2866 -0.9381 -0.0050
  763MPD2    C211266   4.594   1.649  16.075  0.2989 -0.7939  0.3127
  763MPD2    C311267   4.607   1.605  16.203 -0.5476 -0.1343  0.3207
  763MPD2    C411268   4.601   1.469  16.233  0.4198 -0.1565 -0.1491
  763MPD2    C511269   4.567   1.378  16.133 -0.9127  0.1536  0.0213
  763MPD2     H11270   4.609   1.755  16.054  1.1911 -0.7903  0.9641
  763MPD2    H111271   4.616   1.426  16.331 -1.4613  1.1749  0.7132
  763MPD2    H211272   4.526   1.349  15.935 -0.4978  0.3985 -0.0863
  763MPD2    H311273   4.572   1.271  16.149 -0.7667  0.0622 -0.6388
  763MPD2     N11274   4.643   1.688  16.309  0.2329 -0.5359 -0.3887
  763MPD2    H511275   4.662   1.645  16.399 -2.8590 -2.9792 -0.8843
  763MPD2    N111276   4.556   1.614  15.848 -0.3289 -0.5781 -0.4019
  763MPD2    H711277   4.575   1.711  15.827  1.6451 -0.7151  0.7031
  764MPD2     C11278   2.697   3.054  17.440 -0.1619  0.0736  0.7206
  764MPD2    C111279   2.717   2.953  17.348 -0.1772 -0.6112 -0.4091
  764MPD2    C211280   2.760   2.833  17.401  0.0265 -0.4084  0.1206
  764MPD2    C311281   2.764   2.816  17.537  0.0653 -0.1930  0.1191
  764MPD2    C411282   2.738   2.915  17.631  0.1258  0.3160  0.3854
  764MPD2    C511283   2.704   3.037  17.581 -0.1103  0.0799 -0.3289
  764MPD2     H11284   2.796   2.757  17.332  0.9839 -1.5497  1.8906
  764MPD2    H111285   2.762   2.907   0.034 -0.4764 -1.1569  0.4205
  764MPD2    H211286   2.682   3.158  17.412 -0.8580 -0.6953 -1.8291
  764MPD2    H311287   2.668   3.108  17.655 -0.5183 -2.0806  1.5360
  764MPD2     N11288   2.793   2.683  17.587  0.6253  0.2843 -0.2755
  764MPD2    H511289   2.814   2.607  17.523  0.5798  0.1032 -0.0757
  764MPD2    N111290   2.723   2.975  17.212  0.1509  0.2939 -0.0520
  764MPD2    H711291   2.755   2.893  17.160  1.1503 -0.9327  2.5120
  765MPD2     C11292   2.763   0.987  15.009  0.5023  0.1977 -0.2995
  765MPD2    C111293   2.746   0.979  15.148 -0.3476  0.4795 -0.7034
  765MPD2    C211294   2.832   0.883  15.207  0.1839 -0.0447  0.6835
  765MPD2    C311295   2.932   0.819  15.138  0.1810  0.0546  0.1327
  765MPD2    C411296   2.953   0.851  15.004 -0.2931  0.7430 -0.1520
  765MPD2    C511297   2.862   0.929  14.938 -0.5117  0.3283  0.3826
  765MPD2     H11298   2.821   0.852  15.311 -1.9852 -0.0380  0.4744
  765MPD2    H111299   3.036   0.804  14.954 -0.5784  0.1754 -0.0877
  765MPD2    H211300   2.696   1.052  14.953 -0.5986 -0.4875  0.2133
  765MPD2    H311301   2.874   0.954  14.833 -1.1411 -0.9124  0.0115
  765MPD2     N11302   2.996   0.713  15.205  0.3068 -0.1712 -0.4080
  765MPD2    H511303   2.974   0.690  15.301  0.1402  0.8014 -0.2112
  765MPD2    N111304   2.638   1.036  15.211  0.2120 -0.3478  0.5661
  765MPD2    H711305   2.572   1.089  15.155  0.4019 -0.4392  0.2505
  766MPD2     C11306   1.984   1.109  15.080  0.9296  0.1994  0.3660
  766MPD2    C111307   2.121   1.116  15.061  0.3561  0.5130 -0.1134
  766MPD2    C211308   2.174   1.119  14.927 -0.7182 -0.1815  0.5139
  766MPD2    C311309   2.084   1.120  14.826  0.7652  0.0472 -0.2406
  766MPD2    C411310   1.949   1.106  14.844  0.1535 -0.2981  0.4818
  766MPD2    C511311   1.904   1.094  14.970  0.2659 -0.1493  0.0257
  766MPD2     H11312   2.274   1.156  14.907 -1.2419  1.2620  0.5815
  766MPD2    H111313   1.880   1.109  14.760 -0.0323 -0.6676  0.6230
  766MPD2    H211314   1.939   1.104  15.178  0.0394 -2.3977 -0.1680
  766MPD2    H311315   1.797   1.093  14.987  0.4366 -1.3501  1.0385
  766MPD2     N11316   2.124   1.142  14.694  0.2995  0.2798  0.3141
  766MPD2    H511317   2.043   1.158  14.635  0.6813 -1.5312 -0.6889
  766MPD2    N111318   2.207   1.137  15.164  0.0739  0.2581 -0.5131
  766MPD2    H711319   2.306   1.147  15.142  0.4955 -3.7411 -0.5079
  767MPD2     C11320   1.778   1.370  14.885  0.4487 -0.2304  0.4459
  767MPD2    C111321   1.887   1.419  14.820  0.4628  0.1454  0.3508
  767MPD2    C211322   1.881   1.409  14.681  0.7131 -0.1587  0.1578
  767MPD2    C311323   1.777   1.356  14.608 -1.0076  0.5376  0.3321
  767MPD2    C411324   1.663   1.321  14.680  0.7265  0.3618 -0.1643
  767MPD2    C511325   1.668   1.321  14.817 -0.5516 -0.0724  0.3052
  767MPD2     H11326   1.961   1.454  14.624  0.5438 -1.6598 -1.2415
  767MPD2    H111327   1.572   1.285  14.633  0.7478 -1.2362  1.0204
  767MPD2    H211328   1.774   1.371  14.993 -2.6917 -0.9671  0.3340
  767MPD2    H311329   1.591   1.280  14.880  0.8503  0.7172  2.5505
  767MPD2     N11330   1.790   1.330  14.466  0.4881 -0.4134 -0.4865
  767MPD2    H511331   1.880   1.347  14.423  0.0741  0.7498 -0.8864
  767MPD2    N111332   1.993   1.477  14.889 -0.6902 -1.0579  0.3899
  767MPD2    H711333   1.989   1.462  14.989 -0.8915 -1.7689  0.2762
  768MPD2     C11334   2.162   4.168  11.064 -0.5108 -0.5955  0.1119
  768MPD2    C111335   2.262   4.253  11.015 -0.2596  1.0012 -0.3046
  768MPD2    C211336   2.386   4.263  11.079 -0.3399 -0.7285 -0.6413
  768MPD2    C311337   2.408   4.202  11.207 -0.5314  0.2596 -1.3804
  768MPD2    C411338   2.323   4.103  11.245 -0.5897  0.3846  0.4401
  768MPD2    C511339   2.202   4.092  11.168  0.0606 -0.3837 -0.3458
  768MPD2     H11340   2.450   4.345  11.046 -0.5759 -0.5825 -0.7386
  768MPD2    H111341   2.359   4.034  11.321 -2.3020  0.7779  1.6023
  768MPD2    H211342   2.063   4.154  11.023 -0.1083  1.9301 -1.7153
  768MPD2    H311343   2.129   4.025  11.211 -0.0722  0.4765  0.7971
  768MPD2     N11344   2.527   4.226  11.282 -0.4094 -0.7092 -0.0202
  768MPD2    H511345   2.547   4.177  11.369  0.3379  0.0850  0.2668
  768MPD2    N111346   2.234   4.359  10.925  0.5808  0.2962 -0.3428
  768MPD2    H711347   2.296   4.439  10.922  2.0283 -0.7565  2.2446
  769MPD2     C11348   3.841   2.810  14.534  0.8091 -0.6024 -0.5905
  769MPD2    C111349   3.753   2.798  14.633 -0.2573  0.0230 -0.2247
  769MPD2    C211350   3.775   2.877  14.747 -0.0997 -0.1553 -0.0405
  769MPD2    C311351   3.900   2.938  14.774 -0.2595 -0.1940 -0.0071
  769MPD2    C411352   3.997   2.936  14.677 -0.7261 -0.0557 -0.0487
  769MPD2    C511353   3.959   2.881  14.552  0.3366 -0.0058  0.3212
  769MPD2     H11354   3.703   2.891  14.827 -0.8838  1.1016 -0.9485
  769MPD2    H111355   4.102   2.959  14.694 -0.7742  0.6677 -0.7459
  769MPD2    H211356   3.824   2.764  14.437 -1.5891  0.3506 -0.6302
  769MPD2    H311357   4.023   2.874  14.465 -0.6489 -2.5464 -0.1910
  769MPD2     N11358   3.923   2.988  14.907  0.1208 -0.0822 -0.3128
  769MPD2    H511359   3.838   2.998  14.962  0.3364 -2.6796  0.4698
  769MPD2    N111360   3.636   2.720  14.620  0.1198  0.0051 -0.1390
  769MPD2    H711361   3.611   2.679  14.531 -0.5818 -2.1030  1.0264
  770MPD2     C11362   2.988   2.328  15.341 -0.6295 -0.5949  0.0806
  770MPD2    C111363   3.107   2.274  15.313 -0.1461 -0.1113 -0.2509
  770MPD2    C211364   3.174   2.319  15.191  0.4583 -0.6699  0.1200
  770MPD2    C311365   3.124   2.415  15.105  0.1851  0.0305 -0.1166
  770MPD2    C411366   2.996   2.465  15.142  0.5094 -0.6822 -0.3578
  770MPD2    C511367   2.943   2.427  15.259 -0.6854 -0.0031  0.6101
  770MPD2     H11368   3.279   2.296  15.174  1.0344  1.4164  0.9040
  770MPD2    H111369   2.950   2.546  15.087 -0.7826 -2.4028 -1.8382
  770MPD2    H211370   2.931   2.302  15.429  1.3741  0.1678  1.6017
  770MPD2    H311371   2.847   2.472  15.281 -0.8743  0.4312 -1.0516
  770MPD2     N11372   3.193   2.462  14.992  0.2446 -0.9292  0.0510
  770MPD2    H511373   3.290   2.435  14.984  0.9258  1.7853 -0.7370
  770MPD2    N111374   3.151   2.170  15.405 -0.4306  0.2382  0.1390
  770MPD2    H711375   3.087   2.135  15.476 -0.7841  0.3188 -0.1371
  771MPD2     C11376   4.296   0.577  13.511 -0.3926 -0.0803  0.1689
  771MPD2    C111377   4.286   0.670  13.408  0.6983  0.2911 -0.0278
  771MPD2    C211378   4.186   0.660  13.316  0.0939  0.6596  0.4061
  771MPD2    C311379   4.102   0.546  13.310 -0.4359  0.1327 -0.2371
  771MPD2    C411380   4.119   0.451  13.411  0.0188  0.2510  0.6043
  771MPD2    C511381   4.215   0.465  13.507 -0.2187 -0.5560 -0.0820
  771MPD2     H11382   4.164   0.745  13.251  1.0956 -0.1792 -1.0144
  771MPD2    H111383   4.056   0.363  13.400  0.5947  0.1445 -1.8993
  771MPD2    H211384   4.371   0.577  13.589  0.1958 -0.4527 -0.3986
  771MPD2    H311385   4.226   0.381  13.574 -1.4887 -1.0099 -0.4468
  771MPD2     N11386   3.998   0.544  13.218  0.4285  0.7837  1.2266
  771MPD2    H511387   3.972   0.623  13.160  3.7918 -0.4511 -1.9522
  771MPD2    N111388   4.358   0.787  13.437  0.2428 -0.1567  0.1646
  771MPD2    H711389   4.400   0.796  13.529 -1.0020  1.3827  0.5639
  772MPD2     C11390   4.103   1.450  13.686  0.3079 -0.4257 -0.6865
  772MPD2    C111391   4.096   1.313  13.663 -0.4795  0.6199  0.0691
  772MPD2    C211392   3.982   1.240  13.692 -0.4477 -0.7653  0.2329
  772MPD2    C311393   3.873   1.309  13.747  0.8029 -0.2825  0.2249
  772MPD2    C411394   3.881   1.438  13.771 -1.0055 -0.2398 -0.4926
  772MPD2    C511395   3.994   1.508  13.736  0.3901 -0.2749  0.8380
  772MPD2     H11396   3.986   1.135  13.667  0.7606 -0.5992 -0.2719
  772MPD2    H111397   3.797   1.487  13.820 -0.5344 -1.6536  1.7412
  772MPD2    H211398   4.187   1.515  13.665  0.8117 -1.4981 -1.9418
  772MPD2    H311399   3.992   1.615  13.755  0.3291 -0.0954 -0.1593
  772MPD2     N11400   3.765   1.239  13.796  0.2245  0.1304 -0.6637
  772MPD2    H511401   3.677   1.285  13.816 -1.0999 -1.7818 -2.0766
  772MPD2    N111402   4.208   1.241  13.604 -0.0768  0.0965 -0.3123
  772MPD2    H711403   4.188   1.142  13.592 -0.1257  0.1360 -0.5611
  773MPD2     C11404   3.279   1.739  17.414  0.4413 -0.5737 -0.3238
  773MPD2    C111405   3.160   1.659  17.422 -0.0440  0.2614 -0.5714
  773MPD2    C211406   3.152   1.570  17.530  0.0084  0.3423 -0.4474
  773MPD2    C311407   3.248   1.569  17.632 -0.1774 -0.3521  0.4900
  773MPD2    C411408   3.366   1.647  17.616 -0.4134 -0.5180  0.4456
  773MPD2    C511409   3.376   1.731  17.507 -0.4991 -0.1307  0.0576
  773MPD2     H11410   3.076   1.496  17.551 -0.1841  1.6196  3.4061
  773MPD2    H111411   3.443   1.635  17.692 -0.3318 -0.3900  0.3809
  773MPD2    H211412   3.296   1.811  17.334 -0.8251  0.1473  0.0628
  773MPD2    H311413   3.460   1.799  17.506 -1.0217  0.5156  0.1387
  773MPD2     N11414   3.229   1.503   0.051 -0.3621  0.5365  0.0893
  773MPD2    H511415   3.300   1.510   0.123 -1.2732 -0.2813  1.0549
  773MPD2    N111416   3.057   1.668  17.326 -0.2473 -0.4299 -0.1181
  773MPD2    H711417   2.976   1.607  17.334 -0.1456 -0.6444 -0.7902
  774MPD2     C11418   2.379   1.085  13.333  0.0517 -0.1792 -0.0141
  774MPD2    C111419   2.450   1.088  13.451 -0.0364  0.2807  0.3945
  774MPD2    C211420   2.545   1.187  13.470 -0.0609  0.6628  0.7365
  774MPD2    C311421   2.577   1.274  13.369  0.9280 -0.6913 -0.1831
  774MPD2    C411422   2.503   1.270  13.250 -0.2019 -0.5621 -0.4550
  774MPD2    C511423   2.411   1.170  13.231 -0.0900  0.4643  0.3620
  774MPD2     H11424   2.590   1.198  13.568 -0.0616 -1.1210  0.9438
  774MPD2    H111425   2.527   1.334  13.165 -0.0208 -0.4934 -0.3521
  774MPD2    H211426   2.305   1.006  13.322 -0.1511 -0.1274  1.0367
  774MPD2    H311427   2.351   1.162  13.140 -2.0082  0.8644  1.5846
  774MPD2     N11428   2.669   1.379  13.385  0.5098  0.2143 -0.5728
  774MPD2    H511429   2.696   1.434  13.305  1.7812 -0.4845 -0.6080
  774MPD2    N111430   2.448   0.980  13.548  0.4552 -0.3070  0.0802
  774MPD2    H711431   2.508   0.998  13.628 -0.4090  0.3729  0.5742
  775MPD2     C11432   4.386   3.266  15.871 -0.4936 -0.6169 -0.0004
  775MPD2    C111433   4.316   3.190  15.779 -0.3465  0.2306  0.2755
  775MPD2    C211434   4.382   3.163  15.661 -0.2532  0.0411  0.2416
  775MPD2    C311435   4.509   3.216  15.631  0.0656  1.0071 -1.0714
  775MPD2    C411436   4.574   3.278  15.726 -0.5103  0.6814  0.0745
  775MPD2    C511437   4.509   3.309  15.840  0.7533 -0.0367  0.6214
  775MPD2     H11438   4.320   3.122  15.582  0.0244  2.3541 -1.1933
  775MPD2    H111439   4.671   3.321  15.706  0.1592 -0.2447  1.3833
  775MPD2    H211440   4.340   3.291  15.966  0.0872 -1.2401  0.4459
  775MPD2    H311441   4.571   3.368  15.907  0.8291  1.1093 -0.4534
  775MPD2     N11442   4.580   3.213  15.505 -0.3181 -0.6305 -0.3007
  775MPD2    H511443   4.670   3.259  15.505  0.8301 -2.8786  0.6714
  775MPD2    N111444   4.185   3.148  15.824 -0.0140  0.6413 -0.0124
  775MPD2    H711445   4.147   3.185  15.910  0.3197 -0.6683  0.6836
  776MPD2     C11446   2.683   3.062  10.806  0.2227 -0.2306 -0.7309
  776MPD2    C111447   2.775   3.016  10.896  0.6486 -0.2262 -0.0407
  776MPD2    C211448   2.875   3.103  10.941 -0.0542 -0.0541  0.1203
  776MPD2    C311449   2.877   3.231  10.892  0.3018 -0.1734  0.5301
  776MPD2    C411450   2.792   3.275  10.797 -0.6768 -0.7314 -0.3549
  776MPD2    C511451   2.684   3.190  10.763 -0.0403 -0.1849  0.2662
  776MPD2     H11452   2.950   3.072  11.013 -1.5251 -2.0552  0.7714
  776MPD2    H111453   2.784   3.378  10.765  4.2925  0.2030  1.4793
  776MPD2    H211454   2.616   2.991  10.758 -0.4859  0.5730 -0.9150
  776MPD2    H311455   2.614   3.216  10.684 -0.2446 -0.7878  0.2463
  776MPD2     N11456   2.955   3.334  10.953  0.2006 -0.0605 -0.0979
  776MPD2    H511457   2.945   3.429  10.918 -2.1355 -0.1757  0.2435
  776MPD2    N111458   2.767   2.877  10.927  0.3870  0.0310  0.4464
  776MPD2    H711459   2.695   2.823  10.880 -0.9560  1.7483  0.5122
  777MPD2     C11460   3.288   0.712   1.248 -0.1221 -0.1124  0.5646
  777MPD2    C111461   3.185   0.665   1.322 -0.1816  0.1410  0.4023
  777MPD2    C211462   3.082   0.596   1.259  0.4744  0.1186 -0.2672
  777MPD2    C311463   3.087   0.566   1.126 -0.6804  0.1034  0.6932
  777MPD2    C411464   3.183   0.614   1.045 -0.9477  0.3033 -0.2802
  777MPD2    C511465   3.282   0.682   1.113 -0.0856  0.0017 -0.1860
  777MPD2     H11466   2.997   0.576   1.324 -1.9624 -0.5253 -3.6373
  777MPD2    H111467   3.181   0.618   0.937  0.5377  0.4274 -0.2946
  777MPD2    H211468   3.371   0.773   1.281 -0.6101  0.6959  0.3082
  777MPD2    H311469   3.358   0.727   1.051 -0.7606  3.1623  1.2614
  777MPD2     N11470   2.973   0.511   1.070 -0.0188  0.1876 -0.1630
  777MPD2    H511471   2.892   0.497   1.129  0.0045 -2.1123 -0.7141
  777MPD2    N111472   3.197   0.681   1.462 -0.1974  0.0730 -0.1767
  777MPD2    H711473   3.282   0.725   1.496  0.5316 -1.4094 -0.0745
  778MPD2     C11474   4.264   0.961  14.328 -0.7397 -0.3261 -0.7206
  778MPD2    C111475   4.355   0.860  14.346  0.7771  0.1043  0.4413
  778MPD2    C211476   4.470   0.846  14.263 -0.2430  0.5900 -0.5064
  778MPD2    C311477   4.484   0.931  14.157 -0.0153 -0.6098 -0.1903
  778MPD2    C411478   4.388   1.029  14.143 -0.1791 -0.5458 -0.5909
  778MPD2    C511479   4.284   1.051  14.227  0.3281  0.0247 -0.5639
  778MPD2     H11480   4.545   0.775  14.294 -1.0373 -0.1540 -0.2860
  778MPD2    H111481   4.397   1.091  14.054  0.5749  1.8711  1.1706
  778MPD2    H211482   4.179   0.969  14.394 -0.0414  0.2370  0.1054
  778MPD2    H311483   4.209   1.126  14.204  0.2237  0.0178 -0.2324
  778MPD2     N11484   4.593   0.914  14.073 -0.0684  0.0425  0.6410
  778MPD2    H511485   4.653   0.836  14.098  1.3238  0.8357 -0.2769
  778MPD2    N111486   4.348   0.765  14.455 -0.4823 -0.1477 -0.8092
  778MPD2    H711487   4.410   0.685  14.452 -2.1194 -1.5401  2.8765
  779MPD2     C11488   4.121   4.381  13.708 -0.1148 -0.8000  0.3557
  779MPD2    C111489   4.242   4.369  13.778  0.8300 -0.0286  0.2168
  779MPD2    C211490   4.278   4.472  13.860  0.3865 -0.5612 -0.0629
  779MPD2    C311491   4.204   4.592  13.866  0.2435 -0.3143  0.4751
  779MPD2    C411492   4.090   4.610  13.777  0.2703  0.3353  0.1023
  779MPD2    C511493   4.048   4.495  13.710 -0.0319  0.1686 -0.2396
  779MPD2     H11494   4.363   4.461  13.926 -1.3973 -0.7177  2.1807
  779MPD2    H111495   4.013   4.686  13.787  1.2561  1.2667  0.5764
  779MPD2    H211496   4.075   4.307  13.644 -0.2148  0.7096 -1.3108
  779MPD2    H311497   3.958   4.500  13.649 -0.0563  0.8951 -0.1451
  779MPD2     N11498   4.231   4.686  13.970 -0.9370  0.0320 -0.3596
  779MPD2    H511499   4.320   4.674  14.017 -0.1531 -1.7185 -2.3112
  779MPD2    N111500   4.310   4.248  13.781  0.3233  0.1546  0.0739
  779MPD2    H711501   4.383   4.251  13.851 -1.2004  0.1437  1.6709
  780MPD2     C11502   2.912   3.909   0.294 -0.4674 -0.0025  0.7522
  780MPD2    C111503   3.002   3.840   0.209 -0.7154  0.0702  0.2778
  780MPD2    C211504   3.089   3.917   0.140  0.6548  0.3392  0.9453
  780MPD2    C311505   3.106   4.050   0.170  0.6009  0.0480  0.7242
  780MPD2    C411506   3.026   4.114   0.265  0.0007  0.3061 -0.0134
  780MPD2    C511507   2.924   4.045   0.323 -0.2925 -0.2450 -0.1962
  780MPD2     H11508   3.173   3.879   0.082 -0.5579  1.6122 -1.6343
  780MPD2    H111509   3.029   4.221   0.284  0.1531  0.1385  0.8654
  780MPD2    H211510   2.847   3.851   0.359 -2.1002  1.7566  0.7009
  780MPD2    H311511   2.865   4.090   0.401 -0.3716 -1.1173  0.2472
  780MPD2     N11512   3.220   4.114   0.103  0.6015 -0.2436 -0.3131
  780MPD2    H511513   3.252   4.064   0.021  1.4849  0.9411 -0.6774
  780MPD2    N111514   3.003   3.700   0.188  0.0455  0.2582  0.1000
  780MPD2    H711515   2.937   3.653   0.249 -1.9860  1.8577 -0.8579
  781MPD2     C11516   0.929   0.680  11.836 -0.3472  0.0177 -0.3970
  781MPD2    C111517   1.053   0.693  11.902  0.1469  0.1519  0.5758
  781MPD2    C211518   1.167   0.696  11.826  0.5312  0.5688  0.0381
  781MPD2    C311519   1.167   0.687  11.685 -0.2975 -0.1249 -0.4845
  781MPD2    C411520   1.045   0.663  11.630  0.2566 -0.1627  0.2500
  781MPD2    C511521   0.931   0.664  11.700  0.2997 -0.4059 -0.8081
  781MPD2     H11522   1.263   0.713  11.873  0.1445  1.2970  0.5625
  781MPD2    H111523   1.047   0.642  11.523 -0.2205  1.5559 -0.0922
  781MPD2    H211524   0.832   0.667  11.884 -0.7792  0.9279 -1.0202
  781MPD2    H311525   0.836   0.639  11.654 -0.2137 -2.0643  1.1526
  781MPD2     N11526   1.275   0.700  11.595  0.3108  0.7287 -0.6521
  781MPD2    H511527   1.252   0.721  11.498  0.8022 -1.2719 -1.2060
  781MPD2    N111528   1.074   0.703  12.044  0.3336  0.4253  0.0226
  781MPD2    H711529   1.169   0.717  12.078  0.2276 -0.3920  0.6588
  782MPD2     C11530   3.486   2.065   9.954 -0.4029  0.0241  0.3017
  782MPD2    C111531   3.622   2.049   9.970  0.1548 -0.0999  0.0121
  782MPD2    C211532   3.701   2.120  10.055  0.5883 -0.4550 -0.3784
  782MPD2    C311533   3.635   2.221  10.128  0.1870 -0.4692  0.2254
  782MPD2    C411534   3.497   2.232  10.123  0.6774  0.1073  0.4300
  782MPD2    C511535   3.421   2.155  10.035 -0.3403  0.4704 -0.3525
  782MPD2     H11536   3.807   2.100  10.061  0.7083  0.4861  0.7547
  782MPD2    H111537   3.443   2.305  10.182 -0.3149 -0.5944  0.3915
  782MPD2    H211538   3.432   2.004   9.883  0.0470 -0.0811  0.0499
  782MPD2    H311539   3.314   2.159  10.021 -0.3216 -1.3406 -1.1204
  782MPD2     N11540   3.710   2.280  10.230  0.8734 -0.5943 -0.0734
  782MPD2    H511541   3.810   2.269  10.231  0.8908 -0.3321  1.3067
  782MPD2    N111542   3.670   1.939   9.895 -0.2156  0.0610  0.5649
  782MPD2    H711543   3.604   1.885   9.840 -1.3546  3.6199 -1.5817
  783MPD2     C11544   3.391   1.251  10.268 -0.2304  0.0015 -0.6465
  783MPD2    C111545   3.412   1.380  10.296 -0.5944 -0.4250 -0.1879
  783MPD2    C211546   3.505   1.449  10.225  0.0687  0.0485 -0.0953
  783MPD2    C311547   3.577   1.382  10.121 -0.3312  0.0783  0.3631
  783MPD2    C411548   3.554   1.247  10.102  0.4461  0.8092 -0.4250
  783MPD2    C511549   3.463   1.182  10.177 -0.0787  0.4115  0.8221
  783MPD2     H11550   3.517   1.555  10.241  3.2389 -0.2939 -0.1958
  783MPD2    H111551   3.612   1.196  10.025  0.3560  1.1500 -0.7178
  783MPD2    H211552   3.316   1.200  10.327  0.2662  0.8176  0.6882
  783MPD2    H311553   3.445   1.078  10.155  0.9308  0.1176  1.3714
  783MPD2     N11554   3.660   1.465  10.046  0.1549 -0.0942  0.0762
  783MPD2    H511555   3.672   1.563  10.066 -2.5019  0.5817 -1.6746
  783MPD2    N111556   3.318   1.447  10.375  0.0627  0.2522  0.7974
  783MPD2    H711557   3.241   1.392  10.411 -2.1279  2.5843 -0.2911
  784MPD2     C11558   4.595   2.246   1.272 -0.0387  0.3278 -0.7533
  784MPD2    C111559   4.688   2.339   1.251  0.3052  0.2079 -0.3725
  784MPD2    C211560   4.637   2.461   1.193  0.1407 -1.2910  0.6834
  784MPD2    C311561   4.510   2.479   1.153 -0.2118  0.3556 -0.0582
  784MPD2    C411562   4.418   2.382   1.191 -0.7356 -0.1550 -0.1162
  784MPD2    C511563   4.462   2.267   1.246 -0.2544  0.2883 -0.3053
  784MPD2     H11564   4.706   2.540   1.167  0.2320 -1.1658  1.3024
  784MPD2    H111565   4.312   2.392   1.170 -0.9330 -0.5120  0.7208
  784MPD2    H211566   4.627   2.153   1.319 -0.1597  0.1454 -1.0334
  784MPD2    H311567   4.389   2.190   1.270  1.4181 -1.2269 -0.0646
  784MPD2     N11568   4.475   2.604   1.089 -0.4414 -0.9756 -0.1504
  784MPD2    H511569   4.538   2.684   1.097 -1.3726  0.0110 -2.5342
  784MPD2    N111570   0.101   2.327   1.299 -0.8533  0.2778  0.9154
  784MPD2    H711571   0.157   2.411   1.289 -0.2279 -0.2354  0.1039
  785MPD2     C11572   1.473   0.262  10.493  0.0573 -0.1729  0.6884
  785MPD2    C111573   1.440   0.396  10.470  0.1211 -0.0630 -0.4202
  785MPD2    C211574   1.329   0.421  10.395  0.4587  0.5382 -0.1944
  785MPD2    C311575   1.253   0.323  10.346 -0.5776 -0.2030 -0.0848
  785MPD2    C411576   1.285   0.191  10.371 -0.2797 -0.6698 -0.1086
  785MPD2    C511577   1.397   0.164  10.439 -0.0920 -0.0333 -0.9352
  785MPD2     H11578   1.289   0.520  10.377  2.0524  1.1648 -0.3427
  785MPD2    H111579   1.220   0.110  10.339 -0.9744 -0.7828  1.5763
  785MPD2    H211580   1.566   0.238  10.545  0.9272  1.2679 -0.2347
  785MPD2    H311581   1.416   0.058  10.449 -1.3605 -0.0240  1.5294
  785MPD2     N11582   1.142   0.362  10.278 -0.2803 -0.4281 -0.1892
  785MPD2    H511583   1.121   0.461  10.289  1.6268 -0.2098  1.3993
  785MPD2    N111584   1.529   0.498  10.517 -0.2165  0.0035 -0.9472
  785MPD2    H711585   1.603   0.456  10.572 -0.7795  1.2939  0.8030
  786MPD2     C11586   4.662   3.672  14.540 -0.7611 -0.0420 -0.3592
  786MPD2    C111587   4.691   3.546  14.589  0.7373 -0.6583  0.1573
  786MPD2    C211588   0.044   3.550  14.699 -0.1783 -0.0124  0.1807
  786MPD2    C311589   0.097   3.666  14.754 -0.0224  0.2840 -0.5909
  786MPD2    C411590   0.056   3.791  14.707 -0.3393 -0.2301 -0.5260
  786MPD2    C511591   4.694   3.789  14.601 -0.4465 -0.7524  0.6162
  786MPD2     H11592   0.082   3.454  14.735 -1.2337 -0.2122  0.7571
  786MPD2    H111593   0.086   3.892  14.736  1.6090 -0.3615 -2.0860
  786MPD2    H211594   4.593   3.682  14.458  0.1183 -1.0097 -1.2203
  786MPD2    H311595   4.663   3.888  14.569 -1.3795 -1.1523  0.2923
  786MPD2     N11596   0.194   3.669  14.862 -0.0322 -0.0705 -0.1731
  786MPD2    H511597   0.232   3.762  14.875  0.2564 -0.4603  1.7519
  786MPD2    N111598   4.662   3.423  14.534  0.1800  0.5026  0.0937
  786MPD2    H711599   4.686   3.340  14.588 -1.5153  0.9369  1.5237
  787MPD2     C11600   0.147   2.914  14.758  0.2113 -0.1489 -0.1880
  787MPD2    C111601   0.190   2.903  14.627  0.3119  0.4864 -0.2168
  787MPD2    C211602   0.296   2.824  14.592 -0.1882 -0.1893 -0.2204
  787MPD2    C311603   0.362   2.754  14.688  0.5156 -0.9193 -0.4506
  787MPD2    C411604   0.322   2.760  14.817  0.8113 -0.2541  0.5474
  787MPD2    C511605   0.212   2.836  14.847  0.4142  0.0825  0.0146
  787MPD2     H11606   0.329   2.829  14.489 -0.5668 -0.4074 -0.3535
  787MPD2    H111607   0.369   2.710  14.901 -0.6667  1.9900  2.7059
  787MPD2    H211608   0.062   2.972  14.791 -0.0056 -0.7980  0.3930
  787MPD2    H311609   0.167   2.836  14.946 -0.7312 -3.2768 -0.4965
  787MPD2     N11610   0.483   2.688  14.653  0.3110 -0.3806 -0.0995
  787MPD2    H511611   0.507   2.706  14.556  0.0070 -1.8332 -0.4550
  787MPD2    N111612   0.115   2.988  14.540  0.1018 -0.1386  0.0204
  787MPD2    H711613   0.051   3.054  14.584  0.1066 -0.8149  1.0591
  788MPD2     C11614   1.611   0.724   1.114 -0.3569  0.3530 -0.1637
  788MPD2    C111615   1.654   0.751   0.988 -0.0707  0.1006  0.4447
  788MPD2    C211616   1.703   0.882   0.967 -0.4827  0.2887  0.0949
  788MPD2    C311617   1.702   0.978   1.063 -0.4358  0.3149  0.3900
  788MPD2    C411618   1.662   0.946   1.195 -0.1185 -0.3460 -0.3919
  788MPD2    C511619   1.613   0.817   1.213 -0.0035 -0.2153 -0.4849
  788MPD2     H11620   1.738   0.907   0.867  1.9238  1.2644  1.1775
  788MPD2    H111621   1.651   1.012   1.281  0.2151  0.7079 -1.1629
  788MPD2    H211622   1.577   0.627   1.148 -0.5908  0.0072 -1.3743
  788MPD2    H311623   1.581   0.799   1.315  1.7826  0.0585  0.1177
  788MPD2     N11624   1.760   1.104   1.037  0.1996  0.4590  0.0865
  788MPD2    H511625   1.799   1.126   0.946  1.4058 -4.1980 -0.5058
  788MPD2    N111626   1.655   0.657   0.884  0.4491  0.0331 -0.0202
  788MPD2    H711627   1.667   0.690   0.789  1.0358  1.1093  0.4259
  789MPD2     C11628   2.312   1.093  16.316  0.3576  0.6250  0.0013
  789MPD2    C111629   2.221   1.000  16.365  0.3575 -0.5007  0.0377
  789MPD2    C211630   2.106   1.045  16.423 -0.7385  0.2777 -0.1943
  789MPD2    C311631   2.076   1.182  16.415 -0.3299 -0.1958  0.1148
  789MPD2    C411632   2.158   1.274  16.356  0.1306 -0.3692 -0.5525
  789MPD2    C511633   2.278   1.225  16.310 -0.4679 -0.0893 -0.2556
  789MPD2     H11634   2.036   0.975  16.465 -0.8023 -0.3009 -1.2652
  789MPD2    H111635   2.141   1.380  16.349 -1.3734 -0.6741 -1.6479
  789MPD2    H211636   2.406   1.067  16.269  0.1212  3.3356 -1.9716
  789MPD2    H311637   2.334   1.291  16.245 -0.6982 -1.5202 -1.8934
  789MPD2     N11638   1.959   1.249  16.479  1.3109 -0.1207  0.0880
  789MPD2    H511639   1.948   1.348  16.458  0.6435 -0.3001 -0.4280
  789MPD2    N111640   2.237   0.860  16.348  0.0815  0.2496 -0.0796
  789MPD2    H711641   2.165   0.804  16.393  1.5397 -0.6988  1.0504
  790MPD2     C11642   3.220   3.621  12.852 -0.0517 -0.2271  0.1555
  790MPD2    C111643   3.213   3.510  12.933  0.6229  0.0772 -0.0078
  790MPD2    C211644   3.147   3.396  12.890 -0.1201 -0.1806 -0.6129
  790MPD2    C311645   3.059   3.404  12.782 -0.0930  0.5820 -0.3415
  790MPD2    C411646   3.063   3.517  12.708 -0.3086 -1.0503 -0.5249
  790MPD2    C511647   3.144   3.622  12.739 -0.4573 -0.5990  0.9139
  790MPD2     H11648   3.136   3.309  12.954 -1.7632 -0.9714 -1.9782
  790MPD2    H111649   2.994   3.525  12.625 -1.3834 -0.8695  0.3677
  790MPD2    H211650   3.274   3.709  12.885 -0.1058  0.0195 -0.4281
  790MPD2    H311651   3.150   3.713  12.680 -1.0032 -0.4876  1.0296
  790MPD2     N11652   2.969   3.299  12.750  0.1712 -0.2882  0.4512
  790MPD2    H511653   2.985   3.210  12.796 -2.8164 -1.1099 -0.0666
  790MPD2    N111654   3.287   3.526  13.054  0.0116  0.1331 -0.4403
  790MPD2    H711655   3.332   3.615  13.072  0.5938 -0.3686  0.5798
  791MPD2     C11656   2.250   3.088  12.570 -0.1868  0.1357  0.8197
  791MPD2    C111657   2.342   3.012  12.494  0.1444 -0.6514  0.7054
  791MPD2    C211658   2.286   2.923  12.403  0.3647  0.7073  0.1314
  791MPD2    C311659   2.154   2.898  12.398  0.3694 -0.0713 -0.3570
  791MPD2    C411660   2.069   2.968  12.490 -0.0004 -0.3463  0.2064
  791MPD2    C511661   2.116   3.063  12.572  0.2167 -0.6384  0.0364
  791MPD2     H11662   2.345   2.872  12.327 -0.1356  1.0723 -0.4987
  791MPD2    H111663   1.963   2.948  12.490 -0.1702  0.4773 -1.4883
  791MPD2    H211664   2.290   3.150  12.649  0.2856  0.5514  0.2529
  791MPD2    H311665   2.050   3.105  12.646 -0.4083 -1.8858  0.1789
  791MPD2     N11666   2.118   2.785  12.330  0.0334  0.3524 -0.0804
  791MPD2    H511667   2.188   2.734  12.277  0.2563  1.1927 -0.5919
  791MPD2    N111668   2.481   3.043  12.503  0.3856 -0.7694 -0.4119
  791MPD2    H711669   2.516   3.094  12.584  0.4258  0.3034 -1.1074
  792MPD2     C11670   3.497   2.616  10.905  0.6437  0.1513 -0.5880
  792MPD2    C111671   3.377   2.669  10.858  0.7152 -0.0572 -0.1735
  792MPD2    C211672   3.295   2.597  10.784 -0.0490  0.3725  0.3974
  792MPD2    C311673   3.323   2.466  10.754 -0.2848 -0.1272 -0.4719
  792MPD2    C411674   3.441   2.411  10.804  0.1978  0.5150 -0.2071
  792MPD2    C511675   3.529   2.484  10.878 -0.3452 -0.2660  0.5353
  792MPD2     H11676   3.197   2.634  10.756 -0.1488  0.4433  0.8354
  792MPD2    H111677   3.468   2.307  10.787 -0.2467  0.3193  0.2641
  792MPD2    H211678   3.571   2.667  10.965  0.2927 -2.2069  1.8924
  792MPD2    H311679   3.619   2.442  10.921 -0.7892 -1.1531  0.5885
  792MPD2     N11680   3.242   2.376  10.674 -0.0523  0.5839 -0.3028
  792MPD2    H511681   3.274   2.281  10.661  0.5649  0.4651  2.0823
  792MPD2    N111682   3.354   2.805  10.893 -0.1011 -0.1038 -0.4392
  792MPD2    H711683   3.424   2.855  10.946  0.1730  0.6080 -1.4755
  793MPD2     C11684   2.617   2.750  10.075  0.4919  0.8486  0.3131
  793MPD2    C111685   2.732   2.777  10.143 -0.3333 -0.1986  0.4193
  793MPD2    C211686   2.794   2.684  10.219  0.3630  0.1979 -0.0596
  793MPD2    C311687   2.745   2.555  10.228  0.7253  0.4815 -0.6137
  793MPD2    C411688   2.631   2.525  10.158 -0.3691  0.4473  0.4142
  793MPD2    C511689   2.567   2.623  10.079  0.4454  0.6463 -0.7284
  793MPD2     H11690   2.875   2.709  10.287 -2.6688  0.5686  3.4295
  793MPD2    H111691   2.578   2.431  10.154  1.4927 -0.5214 -1.1974
  793MPD2    H211692   2.571   2.813  10.000 -0.7350 -0.8129 -0.3263
  793MPD2    H311693   2.476   2.589  10.031  2.1293 -1.8586 -2.1505
  793MPD2     N11694   2.810   2.464  10.314  0.3349 -0.5589 -0.2573
  793MPD2    H511695   2.894   2.495  10.362  0.2264  0.3519 -0.6600
  793MPD2    N111696   2.811   2.898  10.129 -0.0420 -0.4802  0.7726
  793MPD2    H711697   2.890   2.909  10.191  1.4886 -1.7792 -0.9459
  794MPD2     C11698   2.883   1.807  16.459 -0.2644  0.1884  0.1149
  794MPD2    C111699   2.782   1.853  16.545 -0.8553  0.2865 -0.3871
  794MPD2    C211700   2.675   1.918  16.486 -0.4713 -0.8905  0.1435
  794MPD2    C311701   2.678   1.958  16.351 -0.2211  0.2127 -0.2335
  794MPD2    C411702   2.786   1.926  16.282  1.0579 -0.1715  0.6922
  794MPD2    C511703   2.886   1.851  16.334  0.0223  0.3628  0.3723
  794MPD2     H11704   2.606   1.962  16.557  0.5448  2.8071 -1.1324
  794MPD2    H111705   2.801   1.967  16.182  3.1729 -1.2811  0.5468
  794MPD2    H211706   2.961   1.738  16.490  0.7609  0.9931 -0.6968
  794MPD2    H311707   2.967   1.813  16.272  1.4968  0.6923  2.0778
  794MPD2     N11708   2.570   2.044  16.300  0.1059 -0.7905 -0.1582
  794MPD2    H511709   2.585   2.066  16.202  1.4192 -2.1108 -0.2530
  794MPD2    N111710   2.786   1.817  16.684 -0.2103  0.5309  0.6545
  794MPD2    H711711   2.705   1.844  16.738 -0.5966  1.7493 -0.5365
  795MPD2     C11712   0.582   4.595  13.548 -0.4102 -0.3498  1.1948
  795MPD2    C111713   0.545   4.485  13.476  0.0119  0.6706  0.1714
  795MPD2    C211714   0.630   4.377  13.472 -0.8173 -0.1127  0.4209
  795MPD2    C311715   0.743   4.372  13.547  0.5192 -0.2937 -0.1954
  795MPD2    C411716   0.782   4.490  13.611  0.0827 -0.3665 -0.4881
  795MPD2    C511717   0.704   4.599  13.609 -0.0968  0.3696  0.3066
  795MPD2     H11718   0.615   4.293  13.405  0.3143  0.7896 -0.9590
  795MPD2    H111719   0.877   4.508  13.660 -1.1693  1.7359  1.1684
  795MPD2    H211720   0.511   4.676  13.559 -0.0549  0.2599 -0.9392
  795MPD2    H311721   0.743   4.685  13.663  0.5464  0.7580 -0.7585
  795MPD2     N11722   0.820   4.254  13.553 -0.8834  0.0401  0.2931
  795MPD2    H511723   0.784   4.172  13.506 -1.3363  0.7093 -0.5382
  795MPD2    N111724   0.420   4.471  13.409  0.0319 -0.3345 -0.5281
  795MPD2    H711725   0.409   4.379  13.368 -1.4418 -0.5174  0.2910
  796MPD2     C11726   0.152   1.376  15.773 -0.7515 -0.6529  0.0337
  796MPD2    C111727   0.257   1.409  15.861 -0.7752 -0.7413  0.0580
  796MPD2    C211728   0.339   1.512  15.824  0.3439  0.3612  0.0101
  796MPD2    C311729   0.314   1.593  15.715 -0.1784  0.2368 -0.7712
  796MPD2    C411730   0.214   1.555  15.632  0.5009 -0.0952  0.0829
  796MPD2    C511731   0.133   1.449  15.657  0.3316  0.6519 -0.3733
  796MPD2     H11732   0.426   1.538  15.885  0.4206  0.7081 -0.2488
  796MPD2    H111733   0.192   1.615  15.544 -0.6605  1.6658  1.5923
  796MPD2    H211734   0.080   1.299  15.798 -0.5395 -1.5272 -2.0600
  796MPD2    H311735   0.061   1.409  15.586 -1.1877  0.3917  1.3169
  796MPD2     N11736   0.400   1.703  15.695 -0.0375 -0.0909  0.1925
  796MPD2    H511737   0.463   1.712  15.774 -1.6070 -0.5510  1.4874
  796MPD2    N111738   0.270   1.346  15.982 -0.1776  0.2580  0.2634
  796MPD2    H711739   0.229   1.253  15.980  0.4252  0.0276 -1.4855
  797MPD2     C11740   1.301   0.456  17.367 -0.1785 -0.1508  0.0960
  797MPD2    C111741   1.376   0.567  17.360 -0.0181  0.1608 -0.1320
  797MPD2    C211742   1.320   0.677  17.304  0.7736  0.1921  0.0273
  797MPD2    C311743   1.191   0.686  17.257  0.2962 -0.1064  0.2077
  797MPD2    C411744   1.114   0.567  17.265 -0.2522  0.1554 -0.0078
  797MPD2    C511745   1.168   0.459  17.327  0.1588  0.3239 -0.1842
  797MPD2     H11746   1.380   0.767  17.302 -1.8547  1.9358 -1.6504
  797MPD2    H111747   1.011   0.572  17.231  0.2040  0.4734 -1.3470
  797MPD2    H211748   1.344   0.361  17.397  0.4291 -0.2328 -0.9910
  797MPD2    H311749   1.111   0.369  17.349 -1.0596  1.1460 -0.0491
  797MPD2     N11750   1.142   0.814  17.224  0.0002  0.0381 -0.1174
  797MPD2    H511751   1.207   0.892  17.226 -0.0700  0.1530 -2.3376
  797MPD2    N111752   1.499   0.589  17.419 -0.6254 -0.6163 -0.7480
  797MPD2    H711753   1.531   0.685  17.409  0.5939 -0.8788  0.6661
  798MPD2     C11754   1.464   1.316  17.538 -0.1936 -0.2061 -0.9931
  798MPD2    C111755   1.431   1.211  17.456 -0.2821 -0.0444  0.0049
  798MPD2    C211756   1.504   1.095  17.460 -0.3008  0.5740  0.0425
  798MPD2    C311757   1.616   1.080  17.547 -0.3913 -0.3977  1.0727
  798MPD2    C411758   1.647   1.178  17.634  1.1120  0.6285  0.5925
  798MPD2    C511759   1.570   1.294  17.620 -0.6266 -0.1692 -0.9228
  798MPD2     H11760   1.487   1.006  17.402  0.4868 -0.2744  1.1067
  798MPD2    H111761   1.720   1.160   0.009  0.4010  1.4090  1.4437
  798MPD2    H211762   1.406   1.408  17.533  0.3093  0.1946  0.4628
  798MPD2    H311763   1.593   1.374  17.690  0.8326 -1.7737  0.4273
  798MPD2     N11764   1.675   0.954  17.544  0.1462 -0.6251 -0.2776
  798MPD2    H511765   1.650   0.905  17.459 -0.9965  1.1674 -0.9859
  798MPD2    N111766   1.312   1.221  17.379 -0.1924  0.2686 -0.3573
  798MPD2    H711767   1.249   1.300  17.393 -0.9331 -0.2473 -0.7568
  799MPD2     C11768   0.272   2.234  14.647  0.2654 -0.1425  0.2118
  799MPD2    C111769   0.150   2.188  14.603  0.1719 -0.5269  0.7935
  799MPD2    C211770   0.075   2.267  14.518 -0.4725  0.0707  0.1230
  799MPD2    C311771   0.108   2.394  14.485  0.8201  0.1914  0.1077
  799MPD2    C411772   0.226   2.436  14.541 -0.4087  0.3284  0.2493
  799MPD2    C511773   0.306   2.361  14.621  0.1601  0.0103  0.0156
  799MPD2     H11774   4.710   2.227  14.471  0.3620 -1.3255 -0.2966
  799MPD2    H111775   0.266   2.534  14.516  1.9483 -1.0091 -1.1791
  799MPD2    H211776   0.344   2.188  14.714 -0.3265 -0.6345  0.5126
  799MPD2    H311777   0.401   2.398  14.657  1.1408 -1.3137 -1.1961
  799MPD2     N11778   0.048   2.483  14.395  0.0182 -0.4044  0.8602
  799MPD2    H511779   0.102   2.567  14.377 -0.2525 -0.2346  0.8416
  799MPD2    N111780   0.105   2.056  14.633  0.4330  0.0940 -0.5033
  799MPD2    H711781   0.022   2.025  14.583  0.2694 -0.7484  0.2839
  800MPD2     C11782   0.464   3.664  14.434 -0.7576  0.5203  0.9479
  800MPD2    C111783   0.542   3.597  14.340  0.4666 -0.7643 -0.3301
  800MPD2    C211784   0.484   3.490  14.273  0.8537 -0.3370 -0.3469
  800MPD2    C311785   0.349   3.473  14.282 -0.2056 -0.0402 -0.1111
  800MPD2    C411786   0.274   3.540  14.377  0.8423 -0.2180 -0.4958
  800MPD2    C511787   0.333   3.643  14.449  0.3503  0.1081 -0.1155
  800MPD2     H11788   0.543   3.423  14.212  1.7014  0.6570 -0.6103
  800MPD2    H111789   0.180   3.501  14.412 -0.1518  3.2936  0.7638
  800MPD2    H211790   0.512   3.737  14.499  0.9848  1.0703 -0.9665
  800MPD2    H311791   0.283   3.692  14.532  2.4881 -0.3326  1.4383
  800MPD2     N11792   0.304   3.372  14.199 -0.8454  0.2365  0.2585
  800MPD2    H511793   0.379   3.338  14.141 -0.5013  2.0178 -0.3421
  800MPD2    N111794   0.678   3.635  14.340 -0.1309 -0.1792  0.4720
  800MPD2    H711795   0.700   3.723  14.385  2.2688  0.4017 -1.8752
  801MPD2     C11796   0.854   4.225  14.015 -0.1915 -0.4460 -0.1754
  801MPD2    C111797   0.835   4.163  14.136 -0.3900  0.8008  0.4365
  801MPD2    C211798   0.756   4.210  14.241  0.3327 -0.1688 -0.2537
  801MPD2    C311799   0.685   4.333  14.213 -0.7688  0.3583 -0.4380
  801MPD2    C411800   0.702   4.393  14.087 -0.4868 -0.4647 -0.3875
  801MPD2    C511801   0.783   4.338  13.986 -0.5089  0.0765 -0.1453
  801MPD2     H11802   0.746   4.168  14.340  0.0055 -0.2760 -0.3320
  801MPD2    H111803   0.638   4.476  14.057 -1.9391 -0.9780  1.3156
  801MPD2    H211804   0.903   4.183  13.929 -0.4311 -0.8363 -0.1245
  801MPD2    H311805   0.780   4.374  13.883  0.9544 -0.4754 -0.3778
  801MPD2     N11806   0.587   4.386  14.295 -1.0008 -0.2412 -0.3433
  801MPD2    H511807   0.518   4.446  14.251 -1.0179  0.6893  0.9658
  801MPD2    N111808   0.890   4.036  14.163 -0.6189  0.0506  0.3914
  801MPD2    H711809   0.880   3.998  14.256 -1.4736  1.3471  0.8335
  802MPD2     C11810   4.200   4.304  16.709  0.5112  0.6977  0.3253
  802MPD2    C111811   4.318   4.367  16.732 -0.4548 -0.2779  0.4239
  802MPD2    C211812   4.427   4.331  16.651  0.4308  0.1311 -0.2143
  802MPD2    C311813   4.417   4.244  16.543  0.5919  0.4159 -0.0421
  802MPD2    C411814   4.289   4.186  16.520 -0.7024 -0.2459 -0.5379
  802MPD2    C511815   4.183   4.223  16.604  0.6820  0.6780 -0.9507
  802MPD2     H11816   4.521   4.384  16.664  0.3125  0.4167 -0.5202
  802MPD2    H111817   4.270   4.118  16.438 -1.3716  0.8113 -1.2560
  802MPD2    H211818   4.111   4.337  16.762 -0.4864 -0.1567 -0.8367
  802MPD2    H311819   4.090   4.174  16.580  0.7908 -0.4433  0.9018
  802MPD2     N11820   4.536   4.223  16.466  0.4587 -0.1246  0.2974
  802MPD2    H511821   4.622   4.251  16.511  0.1429  0.0477  0.7999
  802MPD2    N111822   4.345   4.464  16.838 -0.6202 -0.8496  0.0929
  802MPD2    H711823   4.436   4.507  16.841 -1.2473  0.3302  1.9325
  803MPD2     C11824   0.724   2.678  11.931 -0.9163  0.3765  0.2716
  803MPD2    C111825   0.849   2.650  11.968 -0.1475 -0.4800 -0.1623
  803MPD2    C211826   0.877   2.533  12.025  0.0903  0.0053 -0.5771
  803MPD2    C311827   0.779   2.440  12.048  0.1791  0.1050 -0.0501
  803MPD2    C411828   0.649   2.471  12.014  0.6224 -0.4188 -0.3897
  803MPD2    C511829   0.627   2.586  11.953  0.1708 -0.2358 -0.1367
  803MPD2     H11830   0.978   2.525  12.062 -1.1219  0.6284  2.8526
  803MPD2    H111831   0.574   2.397  12.040 -0.1230  0.8586  1.0589
  803MPD2    H211832   0.692   2.757  11.864  2.1660 -0.0948 -1.7516
  803MPD2    H311833   0.526   2.614  11.924 -1.5084 -1.8402  4.0407
  803MPD2     N11834   0.808   2.320  12.118 -0.0321 -0.3793  0.1305
  803MPD2    H511835   0.724   2.266  12.132  0.4927 -0.8903  1.3293
  803MPD2    N111836   0.951   2.738  11.929 -0.1069 -0.1207  0.0928
  803MPD2    H711837   1.045   2.711  11.956  0.9580  1.4430 -2.0780
  804MPD2     C11838   0.997   3.699  17.077  0.2872 -0.7549  0.3319
  804MPD2    C111839   0.890   3.775  17.117  0.1929 -0.1426  0.4715
  804MPD2    C211840   0.898   3.848  17.233 -0.5187 -1.0077  0.9131
  804MPD2    C311841   1.022   3.865  17.291  0.5818  0.1933  0.1045
  804MPD2    C411842   1.128   3.792  17.252  0.0307 -0.5293  0.2819
  804MPD2    C511843   1.119   3.720  17.140  0.3737  0.4601 -0.6754
  804MPD2     H11844   0.813   3.900  17.275  1.1321  2.1529  0.3640
  804MPD2    H111845   1.230   3.793  17.290  0.7083 -0.6048 -1.5304
  804MPD2    H211846   0.998   3.621  17.002 -0.6917  1.9107 -2.4641
  804MPD2    H311847   1.202   3.656  17.111 -0.4484 -1.4104  1.0651
  804MPD2     N11848   1.031   3.975  17.381 -0.0340 -0.4807 -0.6190
  804MPD2    H511849   0.947   4.033  17.383  0.7866  0.7171 -1.3588
  804MPD2    N111850   0.760   3.761  17.062 -0.3218  0.1024  0.0570
  804MPD2    H711851   0.695   3.833  17.091  0.3612  0.7114  0.0783
  805MPD2     C11852   4.695   2.989  15.937 -0.8328 -0.1129  0.2563
  805MPD2    C111853   0.035   2.906  15.841  0.5363  0.0781  0.5843
  805MPD2    C211854   0.166   2.873  15.850 -0.4017  0.0511  0.0384
  805MPD2    C311855   0.247   2.945  15.929  0.3030  0.8028 -0.2529
  805MPD2    C411856   0.189   3.024  16.026 -0.3035 -1.0567 -0.2108
  805MPD2    C511857   0.050   3.047  16.031 -0.3864  0.5587 -0.5078
  805MPD2     H11858   0.214   2.804  15.782  0.7906  1.6402 -0.7601
  805MPD2    H111859   0.250   3.080  16.095 -0.5885  0.2574 -1.0258
  805MPD2    H211860   4.589   3.011  15.929 -0.5777  0.9300 -0.2571
  805MPD2    H311861   4.723   3.113  16.099  0.8013  1.3309 -0.3368
  805MPD2     N11862   0.389   2.930  15.911 -0.2680 -0.4298  0.6063
  805MPD2    H511863   0.420   2.861  15.843 -0.7557  0.3025 -0.3412
  805MPD2    N111864   4.695   2.849  15.734 -0.0958 -0.4938  0.1605
  805MPD2    H711865   0.018   2.807  15.655 -2.3572 -2.0373 -0.4291
  806MPD2     C11866   0.046   2.069   1.003  0.9696  0.0479 -0.1333
  806MPD2    C111867   0.166   2.033   0.953  0.1090  0.2085 -0.1648
  806MPD2    C211868   0.193   2.054   0.814 -0.4671  0.5842 -0.2109
  806MPD2    C311869   0.102   2.123   0.737  0.0556 -0.1100 -0.7244
  806MPD2    C411870   4.699   2.150   0.779  0.3569  0.9162  0.4550
  806MPD2    C511871   4.685   2.134   0.913 -0.0434  0.1754  0.7027
  806MPD2     H11872   0.290   2.045   0.766  0.3795 -1.3224  1.8681
  806MPD2    H111873   4.622   2.199   0.720  1.5008  0.8643 -1.0924
  806MPD2    H211874   0.024   2.059   1.109  0.1898 -1.9907 -0.4873
  806MPD2    H311875   4.591   2.169   0.954 -0.3582 -0.0156  0.1418
  806MPD2     N11876   0.151   2.149   0.607 -0.2150  0.2208  0.5666
  806MPD2    H511877   0.246   2.120   0.586 -0.8522  0.3196 -2.4413
  806MPD2    N111878   0.251   1.957   1.032  0.0199 -0.0152  0.6328
  806MPD2    H711879   0.215   1.942   1.126 -1.5444  0.3845  0.1001
  807MPD2     C11880   0.316   1.715   1.728 -0.2162 -0.6324  0.1807
  807MPD2    C111881   0.426   1.656   1.665 -0.2147  0.0151  0.0306
  807MPD2    C211882   0.511   1.573   1.744  0.2408 -0.1574  0.1754
  807MPD2    C311883   0.478   1.540   1.872 -0.0476  0.2022  1.0313
  807MPD2    C411884   0.365   1.600   1.929  0.0254 -0.1499  0.2842
  807MPD2    C511885   0.281   1.679   1.855 -0.0788  0.6408 -0.0086
  807MPD2     H11886   0.597   1.525   1.697 -0.1466 -1.9978  1.3504
  807MPD2    H111887   0.328   1.573   2.027 -1.5161  0.9891  0.0307
  807MPD2    H211888   0.234   1.763   1.676  1.3507  0.9185 -0.8326
  807MPD2    H311889   0.188   1.711   1.902  0.3824  1.6927  0.1994
  807MPD2     N11890   0.554   1.434   1.932 -0.0136 -0.4943  0.7707
  807MPD2    H511891   0.627   1.395   1.873  1.3152  4.7512 -1.0335
  807MPD2    N111892   0.462   1.675   1.529 -0.2257 -0.3325 -0.1207
  807MPD2    H711893   0.550   1.635   1.499 -0.2123 -0.6938  0.3920
  808MPD2     C11894   0.910   3.277   9.765 -0.2347  0.0659  0.0873
  808MPD2    C111895   0.804   3.359   9.785 -0.0413 -0.4743 -0.5057
  808MPD2    C211896   0.827   3.491   9.821 -0.5561  0.1187 -0.2888
  808MPD2    C311897   0.956   3.545   9.827  0.5076 -0.5679 -0.0990
  808MPD2    C411898   1.059   3.460   9.787 -0.1464  0.4112  0.5209
  808MPD2    C511899   1.036   3.329   9.766  0.4279 -0.0298  1.0677
  808MPD2     H11900   0.744   3.555   9.848 -0.8634 -1.4652  2.4473
  808MPD2    H111901   1.156   3.506   9.770  1.0043 -2.6315 -1.1267
  808MPD2    H211902   0.903   3.168   9.764  0.3451  0.0280  0.4092
  808MPD2    H311903   1.115   3.263   9.735 -0.9384 -0.2902 -1.8992
  808MPD2     N11904   0.988   3.681   9.836 -0.6458  0.2055 -0.3283
  808MPD2    H511905   1.085   3.709   9.821  0.1062 -1.6597  1.0641
  808MPD2    N111906   0.673   3.306   9.786  0.0605 -0.4133 -0.3019
  808MPD2    H711907   0.593   3.364   9.807  2.0006  1.4043  2.1288
  809MPD2     C11908   1.516   4.439   9.489  0.1170 -0.3847 -0.9531
  809MPD2    C111909   1.492   4.306   9.456 -0.6618  0.2191  0.2036
  809MPD2    C211910   1.389   4.234   9.513  0.2708 -0.3178 -0.3245
  809MPD2    C311911   1.299   4.300   9.595  0.0684  0.2988  0.5687
  809MPD2    C411912   1.333   4.437   9.630 -1.0907  0.1216 -0.0569
  809MPD2    C511913   1.440   4.507   9.577  0.3746  0.1785  0.2403
  809MPD2     H11914   1.381   4.131   9.480  0.1992 -0.5491  0.4222
  809MPD2    H111915   1.271   4.488   9.702 -2.1897 -2.5466  0.8992
  809MPD2    H211916   1.593   4.493   9.434  0.1811 -0.5598 -1.0352
  809MPD2    H311917   1.469   4.604   9.615 -1.2435  0.9835 -0.5795
  809MPD2     N11918   1.185   4.244   9.653 -0.2332 -0.3813  0.2305
  809MPD2    H511919   1.124   4.298   9.714 -0.9847  0.2852 -1.1186
  809MPD2    N111920   1.577   4.239   9.365  0.0322 -0.5450  0.0030
  809MPD2    H711921   1.566   4.139   9.354  0.4528 -0.6638  0.6833
  810MPD2     C11922   0.710   2.986   9.994 -0.3175 -0.0168 -0.2807
  810MPD2    C111923   0.586   3.027  10.036  0.1300 -0.2041  0.1465
  810MPD2    C211924   0.577   3.133  10.125  0.9142  0.4759  0.8340
  810MPD2    C311925   0.684   3.207  10.167  0.4659  0.9430  0.4131
  810MPD2    C411926   0.811   3.172  10.121 -0.2770  0.6427 -0.6912
  810MPD2    C511927   0.816   3.060  10.038 -0.3877  0.1607 -0.0380
  810MPD2     H11928   0.483   3.165  10.169 -0.2351  1.8719 -2.6001
  810MPD2    H111929   0.901   3.221  10.155  0.1780 -1.8223  1.5935
  810MPD2    H211930   0.718   2.900   9.929 -0.2131  0.4757 -0.9090
  810MPD2    H311931   0.912   3.025  10.002  0.6075  0.4326  2.3811
  810MPD2     N11932   0.660   3.319  10.245  0.0824  0.5048  0.1727
  810MPD2    H511933   0.570   3.365  10.250 -0.8370 -1.3077  0.1742
  810MPD2    N111934   0.473   2.947   9.997  0.4782 -0.2997  0.0893
  810MPD2    H711935   0.485   2.863   9.941 -2.1520  1.1560 -2.6924
  811MPD2     C11936   4.273   2.779   9.856  0.2008  0.5864  0.0336
  811MPD2    C111937   4.371   2.874   9.859 -0.6317  0.2049  0.0178
  811MPD2    C211938   4.337   2.999   9.809  0.6940 -0.0717 -0.7083
  811MPD2    C311939   4.204   3.024   9.785  0.4438  0.2015  0.0517
  811MPD2    C411940   4.107   2.925   9.795 -0.0350  0.3069 -1.1978
  811MPD2    C511941   4.142   2.807   9.839 -0.0086 -0.2194 -0.3299
  811MPD2     H11942   4.407   3.083   9.808 -0.3861  0.8338  0.0855
  811MPD2    H111943   4.002   2.946   9.777 -0.5472 -1.4750 -0.3895
  811MPD2    H211944   4.295   2.675   9.880 -2.4923 -0.4521 -2.0253
  811MPD2    H311945   4.069   2.727   9.836 -1.7433  1.3718 -0.5208
  811MPD2     N11946   4.179   3.144   9.721  0.4316 -0.4076 -0.6346
  811MPD2    H511947   4.250   3.215   9.734  1.3900 -1.1494 -1.7762
  811MPD2    N111948   4.509   2.834   9.898 -0.2165 -0.3021  0.0561
  811MPD2    H711949   4.521   2.737   9.926  2.0283  0.0289  0.2381
  812MPD2     C11950   3.810   2.869  11.877  0.9168  0.0796 -0.4208
  812MPD2    C111951   3.767   2.920  12.002  0.4940  1.1545  0.6038
  812MPD2    C211952   3.764   2.838  12.115  0.9420 -0.0549  0.6363
  812MPD2    C311953   3.806   2.709  12.113 -0.0449  0.3948 -0.4270
  812MPD2    C411954   3.847   2.660  11.992  0.8634  0.6099 -0.1423
  812MPD2    C511955   3.853   2.738  11.879  0.2305 -0.3026 -0.3050
  812MPD2     H11956   3.714   2.873  12.205  0.9858 -2.1992  1.4889
  812MPD2    H111957   3.881   2.558  11.975 -0.9616 -0.4961  2.8936
  812MPD2    H211958   3.804   2.930  11.787  1.0929 -1.1672 -1.2841
  812MPD2    H311959   3.872   2.689  11.785 -2.6659 -1.5613 -0.2288
  812MPD2     N11960   3.824   2.644  12.237  0.0313 -0.2997 -0.6013
  812MPD2    H511961   3.810   2.703  12.319 -1.2923  1.4606 -2.0910
  812MPD2    N111962   3.705   3.048  11.987  0.2078  0.0443 -0.8804
  812MPD2    H711963   3.695   3.095  11.897 -0.2417 -0.1573 -0.9316
  813MPD2     C11964   2.863   4.714  12.665  0.3637  0.1971 -0.2457
  813MPD2    C111965   2.878   0.125  12.682 -0.2409  0.8967  0.4058
  813MPD2    C211966   2.833   0.186  12.794 -0.1076 -1.1966  0.1747
  813MPD2    C311967   2.788   0.116  12.904  0.5137 -0.7186 -0.0042
  813MPD2    C411968   2.778   4.702  12.895 -0.1522  0.1810  0.0405
  813MPD2    C511969   2.809   4.640  12.777 -0.5262 -0.1583 -0.2246
  813MPD2     H11970   2.843   0.293  12.805  2.3134 -1.4676  0.6219
  813MPD2    H111971   2.737   4.641  12.974  0.1656 -0.2423 -0.1190
  813MPD2    H211972   2.876   4.660  12.572 -0.7056  2.6528 -1.8149
  813MPD2    H311973   2.774   4.539  12.764 -0.9923 -0.3356  2.4239
  813MPD2     N11974   2.758   0.184  13.029  0.4780  0.3138 -0.8079
  813MPD2    H511975   2.768   0.285  13.017 -0.0422  0.5596  0.8073
  813MPD2    N111976   2.932   0.213  12.585  0.3328 -0.0458  0.0032
  813MPD2    H711977   2.938   0.310  12.614  1.4211 -0.0778 -0.1314
  814MPD2     C11978   3.611   1.222  11.678  0.8011  0.1295  0.3221
  814MPD2    C111979   3.621   1.290  11.563  0.4885  0.1636 -0.4205
  814MPD2    C211980   3.674   1.410  11.570 -0.4336  0.1090 -0.4063
  814MPD2    C311981   3.709   1.473  11.691  0.4995 -0.7468  0.1845
  814MPD2    C411982   3.671   1.411  11.804  0.0402  0.1690 -1.0482
  814MPD2    C511983   3.621   1.284  11.800  0.0219  0.0128 -0.1723
  814MPD2     H11984   3.700   1.462  11.479  3.3941  0.3678  0.8023
  814MPD2    H111985   3.697   1.456  11.899 -0.9673  0.7514 -1.0529
  814MPD2    H211986   3.583   1.118  11.679 -1.8212  0.8248  1.7393
  814MPD2    H311987   3.612   1.228  11.893  1.6276 -0.4352 -0.2894
  814MPD2     N11988   3.771   1.596  11.701 -0.5601 -0.0914 -0.0131
  814MPD2    H511989   3.800   1.629  11.792  0.8263  0.6123 -0.7016
  814MPD2    N111990   3.581   1.245  11.435 -0.1175  0.0054  0.8395
  814MPD2    H711991   3.615   1.303  11.359  0.8236 -1.3046  0.2571
  815MPD2     C11992   3.758   4.287  11.879 -0.0274  0.0758  0.5610
  815MPD2    C111993   3.777   4.154  11.887 -0.0439  0.6637 -0.3596
  815MPD2    C211994   3.692   4.080  11.970  0.3034  0.4807  0.1814
  815MPD2    C311995   3.598   4.135  12.056 -0.0533  0.0810 -0.1872
  815MPD2    C411996   3.588   4.274  12.061  0.8386  0.2411  0.2284
  815MPD2    C511997   3.664   4.344  11.966  0.1102 -0.7238 -0.0318
  815MPD2     H11998   3.700   3.972  11.972 -0.5920  0.4841  2.7871
  815MPD2    H111999   3.512   4.329  12.115  0.7731 -2.3743  2.7867
  815MPD2    H212000   3.820   4.353  11.818 -1.3950  0.2079 -0.6873
  815MPD2    H312001   3.638   4.449  11.968 -1.8825 -1.2186  0.6995
  815MPD2     N12002   3.530   4.048  12.139 -0.7559  0.1698 -0.0360
  815MPD2    H512003   3.552   3.949  12.144 -1.5015 -0.0046 -0.1802
  815MPD2    N112004   3.884   4.103  11.808  0.1814  0.6557  0.0082
  815MPD2    H712005   3.929   4.171  11.748 -0.5165  2.5083  1.5960
  816MPD2     C12006   3.691   3.357  16.899 -0.2526 -0.0910  0.0515
  816MPD2    C112007   3.740   3.478  16.858  0.4989 -0.9136 -0.3770
  816MPD2    C212008   3.871   3.485  16.823 -0.2432  0.0549 -0.7681
  816MPD2    C312009   3.954   3.367  16.822 -0.4282 -0.1462 -0.1522
  816MPD2    C412010   3.905   3.248  16.868  0.0285  0.2515 -0.1298
  816MPD2    C512011   3.773   3.247  16.918 -0.3685  0.0604 -0.3260
  816MPD2     H12012   3.913   3.577  16.783  2.2555 -1.4798 -1.6933
  816MPD2    H112013   3.959   3.155  16.880  1.2052  0.9611  0.1218
  816MPD2    H212014   3.589   3.354  16.936  0.1019  1.0161  1.1194
  816MPD2    H312015   3.732   3.150  16.943  3.8979 -1.9162 -0.9196
  816MPD2     N12016   4.087   3.375  16.772 -0.1184 -0.0161 -0.0509
  816MPD2    H512017   4.120   3.470  16.756 -1.0143 -0.0219 -1.9298
  816MPD2    N112018   3.651   3.588  16.846  0.0755 -0.3223  0.2228
  816MPD2    H712019   3.554   3.573  16.870 -0.0230 -0.1852 -0.0833
  817MPD2     C12020   3.765   0.667   9.233  0.1123  0.4006 -0.3526
  817MPD2    C112021   3.648   0.598   9.254  0.2948 -0.9432 -1.1674
  817MPD2    C212022   3.525   0.665   9.226 -0.0302  0.0853  0.3095
  817MPD2    C312023   3.527   0.801   9.198 -0.1544 -0.1809 -0.0222
  817MPD2    C412024   3.649   0.866   9.191  0.9488  0.1938 -0.5947
  817MPD2    C512025   3.765   0.795   9.202  0.2465  0.1443 -0.2735
  817MPD2     H12026   3.426   0.624   9.244  0.4767 -1.5047 -0.5506
  817MPD2    H112027   3.652   0.972   9.168 -0.9394  0.4897  0.4880
  817MPD2    H212028   3.859   0.612   9.240  0.0945  0.5088  0.7756
  817MPD2    H312029   3.863   0.840   9.190 -0.1678  1.7397  2.4570
  817MPD2     N12030   3.402   0.858   9.177 -0.4275  0.2152  0.2223
  817MPD2    H512031   3.329   0.792   9.154 -3.2307  2.3709  2.9017
  817MPD2    N112032   3.642   0.466   9.300 -0.0478  0.8939  0.0452
  817MPD2    H712033   3.552   0.420   9.305  0.5779 -0.3854 -0.4466
  818MPD2     C12034   2.115   0.149   9.652  0.1291  0.6367 -0.4241
  818MPD2    C112035   2.046   0.116   9.764  0.1066 -0.4972 -0.4866
  818MPD2    C212036   2.073   4.716   9.814 -0.0385 -0.0715  0.2760
  818MPD2    C312037   2.187   4.641   9.770 -0.3361  0.3204  0.4860
  818MPD2    C412038   2.257   4.686   9.673  0.1744  1.2675 -0.0004
  818MPD2    C512039   2.220   0.073   9.605  0.4100  0.0639 -0.3714
  818MPD2     H12040   2.017   4.674   9.896  1.8390 -0.6583  1.2644
  818MPD2    H112041   2.349   4.642   9.636  0.2689  2.2452 -0.9213
  818MPD2    H212042   2.104   0.249   9.613  2.1382  1.4817  1.2015
  818MPD2    H312043   2.281   0.114   9.526  0.0759 -1.0781 -1.2248
  818MPD2     N12044   2.220   4.511   9.821  0.3196  0.6863  0.4513
  818MPD2    H512045   2.315   4.483   9.803  0.8831  2.3804  0.7654
  818MPD2    N112046   1.944   0.196   9.828  0.3568  0.2956 -0.1626
  818MPD2    H712047   1.887   0.147   9.897  0.4192  0.8362  0.2776
  819MPD2     C12048   0.655   2.295  15.597  0.0779 -0.3111  0.1443
  819MPD2    C112049   0.664   2.190  15.504 -0.1496  0.3048  0.6495
  819MPD2    C212050   0.781   2.112  15.513  0.4016 -0.6438  0.1336
  819MPD2    C312051   0.870   2.124  15.614  0.1196 -0.1784  0.1307
  819MPD2    C412052   0.849   2.217  15.708  0.4699  0.3006  0.1846
  819MPD2    C512053   0.752   2.310  15.693 -0.1164  0.0227  0.1657
  819MPD2     H12054   0.792   2.033  15.440  1.9555 -0.5694  0.2843
  819MPD2    H112055   0.916   2.236  15.791 -0.3958  1.1939  0.6735
  819MPD2    H212056   0.581   2.373  15.582  1.5527  1.1461  0.4303
  819MPD2    H312057   0.762   2.399  15.754 -0.9753 -0.9779  1.7637
  819MPD2     N12058   0.981   2.041  15.620  0.0925 -0.5542 -0.4645
  819MPD2    H512059   1.003   1.982  15.540  0.3014 -1.0605 -0.0367
  819MPD2    N112060   0.571   2.183  15.400 -0.6004 -0.1793  0.0630
  819MPD2    H712061   0.494   2.250  15.405  1.4758  2.2312 -0.5511
  820MPD2     C12062   4.554   2.626  14.936 -0.7464 -0.4219  0.4275
  820MPD2    C112063   4.632   2.642  15.048 -0.5637 -0.1606  0.0550
  820MPD2    C212064   0.025   2.571  15.058  0.0746  0.0577 -0.4915
  820MPD2    C312065   0.063   2.478  14.959  0.1945 -0.0609 -0.0326
  820MPD2    C412066   4.706   2.470  14.846 -0.8898  0.3663 -0.2192
  820MPD2    C512067   4.590   2.537  14.837 -0.0669  0.3247  0.5629
  820MPD2     H12068   0.075   2.574  15.154  0.0907 -0.7056 -0.4794
  820MPD2    H112069   0.001   2.400  14.765 -0.4337  0.7435 -0.4336
  820MPD2    H212070   4.458   2.677  14.936 -2.0270 -2.8478 -2.3609
  820MPD2    H312071   4.535   2.524  14.744  1.7684 -1.3344 -0.2777
  820MPD2     N12072   0.158   2.377  14.982 -0.5692 -0.0285 -0.0012
  820MPD2    H512073   0.144   2.299  14.918  1.7213  0.4879 -1.1311
  820MPD2    N112074   4.582   2.719  15.158  0.0806 -0.2944  0.2571
  820MPD2    H712075   4.497   2.769  15.136  0.3657  0.2588  0.3994
  821MPD2     C12076   4.697   3.555  13.457  0.6163 -0.1061  0.2208
  821MPD2    C112077   0.083   3.483  13.474 -0.3509 -0.2906 -0.2799
  821MPD2    C212078   0.172   3.454  13.363  0.1177  0.0143 -0.0655
  821MPD2    C312079   0.141   3.518  13.242  0.1551  0.4145 -0.2088
  821MPD2    C412080   0.028   3.601  13.238 -0.2443 -0.7755  0.4106
  821MPD2    C512081   4.675   3.614  13.340  0.0122 -0.1930 -0.2892
  821MPD2     H12082   0.252   3.381  13.378 -0.1979 -0.4316 -0.5499
  821MPD2    H112083   0.013   3.665  13.152 -0.1325  0.7798  1.5483
  821MPD2    H212084   4.626   3.561  13.538  0.1309  1.6539 -0.3253
  821MPD2    H312085   4.585   3.673  13.330 -0.0072  0.1213  1.7602
  821MPD2     N12086   0.227   3.517  13.131  0.1146 -0.2256  0.1391
  821MPD2    H512087   0.223   3.601  13.074 -0.0961  0.5176  1.2414
  821MPD2    N112088   0.132   3.437  13.600 -0.0727  0.1067 -0.0250
  821MPD2    H712089   0.218   3.384  13.604  0.1673  0.5249  0.2718
  822MPD2     C12090   1.511   3.345  15.434 -0.7456 -0.2518  0.3557
  822MPD2    C112091   1.466   3.324  15.564 -0.2970  0.4388  0.5130
  822MPD2    C212092   1.392   3.416  15.630  0.1104  0.5484  0.3415
  822MPD2    C312093   1.355   3.535  15.565 -0.1443 -0.5573  0.5111
  822MPD2    C412094   1.381   3.549  15.431 -0.0703  0.2836 -0.1222
  822MPD2    C512095   1.452   3.453  15.365 -0.6056 -0.0752  0.5049
  822MPD2     H12096   1.368   3.395  15.733  0.4917  1.9585  0.7142
  822MPD2    H112097   1.343   3.631  15.371  1.7798  2.5152  1.7301
  822MPD2    H212098   1.573   3.275  15.379 -0.4033  1.3922 -1.3377
  822MPD2    H312099   1.479   3.469  15.261  2.2412 -1.3177  1.0468
  822MPD2     N12100   1.280   3.625  15.643 -0.1428 -0.2632  0.2784
  822MPD2    H512101   1.257   3.600  15.739 -1.6902 -3.1147 -0.8479
  822MPD2    N112102   1.487   3.208  15.637 -0.2242  0.1101  0.1467
  822MPD2    H712103   1.452   3.194  15.731 -3.9420 -1.0350 -1.3922
  823MPD2     C12104   0.846   3.857  16.331 -0.3997 -0.3297  0.1866
  823MPD2    C112105   0.907   3.776  16.236  0.2001 -0.2242  0.4784
  823MPD2    C212106   0.950   3.655  16.276  0.4286 -0.4197  0.0886
  823MPD2    C312107   0.960   3.615  16.409 -0.1182 -0.3740 -0.3282
  823MPD2    C412108   0.907   3.700  16.503 -0.2642  0.1688  0.3446
  823MPD2    C512109   0.847   3.815  16.462 -0.3209  0.2445 -0.5851
  823MPD2     H12110   0.987   3.587  16.199 -0.6090 -1.1682  0.2439
  823MPD2    H112111   0.922   3.671  16.606  3.4407 -0.4544 -0.3610
  823MPD2    H212112   0.799   3.951  16.301  0.2382 -0.3253 -0.8115
  823MPD2    H312113   0.813   3.886  16.536  1.4129  2.2206 -1.7015
  823MPD2     N12114   1.014   3.489  16.460 -0.6462  1.0467 -0.3733
  823MPD2    H512115   1.015   3.477  16.561  0.5955  1.9895 -0.2689
  823MPD2    N112116   0.910   3.826  16.098 -0.3131 -0.6792  0.4968
  823MPD2    H712117   0.870   3.917  16.082 -1.2668 -1.2883 -0.6316
  824MPD2     C12118   1.635   2.372  15.558  0.2909  0.3177  0.0855
  824MPD2    C112119   1.732   2.474  15.588 -0.4965  1.3192  0.1306
  824MPD2    C212120   1.863   2.449  15.543  0.0627 -0.3030 -0.4499
  824MPD2    C312121   1.902   2.330  15.489 -0.1413  0.1276  0.4264
  824MPD2    C412122   1.807   2.232  15.477 -0.3758  0.1409 -0.3527
  824MPD2    C512123   1.674   2.252  15.502  0.1855  0.9150  0.4899
  824MPD2     H12124   1.930   2.534  15.555  0.4153 -0.6267 -0.1415
  824MPD2    H112125   1.821   2.136  15.428 -0.5811  1.1234 -2.3566
  824MPD2    H212126   1.528   2.388  15.568 -0.0099  0.4457 -3.3242
  824MPD2    H312127   1.600   2.175  15.487  1.5735 -0.3286 -0.0219
  824MPD2     N12128   2.035   2.314  15.453 -0.4098 -0.0978 -0.4224
  824MPD2    H512129   2.097   2.394  15.458  1.4351 -1.5519 -0.1154
  824MPD2    N112130   1.686   2.603  15.635 -0.2600 -0.3078 -0.0863
  824MPD2    H712131   1.765   2.667  15.633 -1.2981  0.9927  1.2859
  825MPD2     C12132   2.699   2.582  14.980  0.2476  0.0160  0.7182
  825MPD2    C112133   2.613   2.584  15.094  0.3945  0.3987 -0.0058
  825MPD2    C212134   2.582   2.713  15.151 -0.3346 -0.3279 -0.1935
  825MPD2    C312135   2.630   2.830  15.096  0.2517  0.4735  0.2953
  825MPD2    C412136   2.703   2.828  14.979 -0.0012  0.0457  0.7264
  825MPD2    C512137   2.745   2.707  14.931 -0.5123 -0.1620  0.1369
  825MPD2     H12138   2.512   2.729  15.232 -2.0773 -2.7733 -1.1838
  825MPD2    H112139   2.729   2.923  14.933  2.6320  0.7425  3.6391
  825MPD2    H212140   2.727   2.497  14.920  1.0481  0.4887  0.4302
  825MPD2    H312141   2.798   2.703  14.837  0.9977 -2.7498  1.0718
  825MPD2     N12142   2.586   2.953  15.135  0.1200 -0.4103  0.5273
  825MPD2    H512143   2.615   3.032  15.078 -3.0697 -0.4816 -1.2272
  825MPD2    N112144   2.563   2.467  15.147  0.6393  0.0128 -0.5398
  825MPD2    H712145   2.608   2.383  15.112  0.6605 -0.4604  0.6126
  826MPD2     C12146   2.199   2.752  13.248  0.0645  0.2674 -0.0591
  826MPD2    C112147   2.096   2.669  13.266  0.3549 -0.5390  0.1496
  826MPD2    C212148   1.973   2.712  13.308 -0.2160 -0.3623  0.4714
  826MPD2    C312149   1.952   2.847  13.337 -0.4875 -0.2517  0.4883
  826MPD2    C412150   2.054   2.933  13.315  0.6854 -1.1264  1.1326
  826MPD2    C512151   2.175   2.889  13.272  0.2021  0.0202 -0.1089
  826MPD2     H12152   1.891   2.643  13.327  0.9830 -1.5275  1.3462
  826MPD2    H112153   2.042   3.041  13.325  0.1472 -0.7339 -3.6302
  826MPD2    H212154   2.294   2.729  13.202  1.8456  2.0890  2.7210
  826MPD2    H312155   2.250   2.964  13.252 -0.9405  1.1329 -0.2035
  826MPD2     N12156   1.833   2.909  13.388 -0.2815 -0.3618  0.2098
  826MPD2    H512157   1.828   3.009  13.406 -0.5355 -0.4829  0.8198
  826MPD2    N112158   2.112   2.535  13.230  0.1741  0.3442 -0.3770
  826MPD2    H712159   2.207   2.498  13.223  0.2651  0.3371  0.9352
  827MPD2     C12160   2.568   4.184   9.782 -0.1711 -0.1616  0.4722
  827MPD2    C112161   2.580   4.054   9.823 -0.2891  0.3427  0.1579
  827MPD2    C212162   2.510   3.954   9.749 -0.3455 -0.1376 -0.1238
  827MPD2    C312163   2.427   3.982   9.633  0.3084  1.0508  0.3714
  827MPD2    C412164   2.411   4.118   9.615  0.0476  0.1391 -0.0452
  827MPD2    C512165   2.478   4.218   9.682  0.4933 -0.4046  0.9826
  827MPD2     H12166   2.518   3.851   9.782  1.7167 -0.9768 -3.2374
  827MPD2    H112167   2.340   4.156   9.542 -0.7263 -0.2311  0.5112
  827MPD2    H212168   2.621   4.266   9.829  0.1376 -0.7383  1.1218
  827MPD2    H312169   2.466   4.320   9.648 -0.4941  0.1658  2.9966
  827MPD2     N12170   2.368   3.883   9.560 -0.3479  0.2978 -0.5126
  827MPD2    H512171   2.392   3.789   9.589 -1.1112 -0.3103 -1.8354
  827MPD2    N112172   2.650   4.019   9.942 -0.0947 -0.3086 -0.1884
  827MPD2    H712173   2.704   4.095   9.983  1.5191 -1.3080 -0.4377
  828MPD2     C12174   0.979   3.315  12.796 -0.1825  0.6251 -0.4813
  828MPD2    C112175   1.001   3.322  12.660  0.2317 -0.0620  0.3229
  828MPD2    C212176   1.130   3.315  12.618 -0.2662 -0.0469 -0.6762
  828MPD2    C312177   1.234   3.295  12.705  0.8361  0.8489  0.1770
  828MPD2    C412178   1.208   3.273  12.834  0.0560  0.2854 -0.0450
  828MPD2    C512179   1.085   3.288  12.879  0.1527  0.6926  0.4829
  828MPD2     H12180   1.141   3.323  12.511  0.4358 -0.9391 -0.6696
  828MPD2    H112181   1.282   3.241  12.906 -1.0411 -1.0100  0.4986
  828MPD2    H212182   0.886   3.322  12.851  0.8883 -2.1390  1.6740
  828MPD2    H312183   1.070   3.294  12.986  2.0006  0.9885  0.7148
  828MPD2     N12184   1.370   3.290  12.661 -0.2351  0.4399 -0.8489
  828MPD2    H512185   1.441   3.277  12.732  0.4129  2.4206 -1.1427
  828MPD2    N112186   0.902   3.353  12.560  0.0401  0.0664  0.4547
  828MPD2    H712187   0.942   3.367  12.468 -0.3804  2.2572  0.5945
  829MPD2     C12188   1.048   3.794  11.855 -0.4354  0.8621  0.1477
  829MPD2    C112189   0.923   3.740  11.827 -0.2923 -0.1210 -0.4285
  829MPD2    C212190   0.849   3.681  11.926  0.0991  0.0797 -0.3119
  829MPD2    C312191   0.895   3.670  12.056 -0.5153  0.1030 -0.1368
  829MPD2    C412192   1.019   3.722  12.086  0.3473 -0.3596 -0.0685
  829MPD2    C512193   1.092   3.792  11.986  0.3808 -0.2194  0.4913
  829MPD2     H12194   0.750   3.643  11.908 -0.8854  2.4484  0.1270
  829MPD2    H112195   1.054   3.698  12.185 -1.4590 -0.5953  0.5098
  829MPD2    H212196   1.115   3.848  11.789  2.1477 -0.6415  1.5398
  829MPD2    H312197   1.191   3.827  12.011 -0.1255  0.5825  1.3898
  829MPD2     N12198   0.817   3.597  12.154 -0.5585 -0.1293  0.1670
  829MPD2    H512199   0.858   3.566  12.242  0.1468  0.5664  0.0839
  829MPD2    N112200   0.885   3.743  11.692  0.0794  0.0769  0.7894
  829MPD2    H712201   0.952   3.796  11.637  0.1529 -1.2696 -0.4128
  830MPD2     C12202   1.714   1.746  15.323 -0.1438 -0.6908 -0.9170
  830MPD2    C112203   1.631   1.854  15.337 -0.9616 -0.2386 -0.1999
  830MPD2    C212204   1.653   1.963  15.257  0.1529  0.3868 -0.0571
  830MPD2    C312205   1.758   1.972  15.168  0.5325 -0.0085  0.0610
  830MPD2    C412206   1.843   1.860  15.153  0.6448 -0.2794 -0.3412
  830MPD2    C512207   1.814   1.750  15.233 -0.5124 -0.8765  0.1298
  830MPD2     H12208   1.588   2.049  15.265 -0.8980 -0.5489  1.6114
  830MPD2    H112209   1.931   1.851  15.089 -0.0736  0.1445 -1.3883
  830MPD2    H212210   1.699   1.660  15.388  0.5189 -1.6260 -2.0217
  830MPD2    H312211   1.877   1.662  15.227  1.6597  0.7082 -0.1536
  830MPD2     N12212   1.788   2.094  15.102  0.5827  0.2889 -0.0620
  830MPD2    H512213   1.733   2.175  15.128 -1.6641 -1.1400 -0.3125
  830MPD2    N112214   1.534   1.840  15.439 -0.1388  0.6251  0.4855
  830MPD2    H712215   1.553   1.759  15.497 -1.2179 -0.1956 -0.3262
  831MPD2     C12216   1.523   3.682  15.964 -0.0261 -0.7088 -0.3346
  831MPD2    C112217   1.524   3.553  15.923 -0.0573 -0.1460  0.6701
  831MPD2    C212218   1.417   3.465  15.938  0.1255 -0.1555 -0.2557
  831MPD2    C312219   1.295   3.517  15.978  0.7187 -0.3461  0.2724
  831MPD2    C412220   1.294   3.654  16.012  0.1342 -0.4529  0.1226
  831MPD2    C512221   1.401   3.734  15.991 -0.5180 -0.2991  0.8929
  831MPD2     H12222   1.423   3.360  15.914 -1.6973  0.2047 -2.3070
  831MPD2    H112223   1.206   3.707  16.047  1.4178  0.5259  1.8423
  831MPD2    H212224   1.606   3.751  15.954  0.7598 -1.7262 -0.7927
  831MPD2    H312225   1.394   3.832  16.037  3.0570  0.7036 -0.7460
  831MPD2     N12226   1.176   3.442  15.970  0.6919  0.1079  0.3388
  831MPD2    H512227   1.099   3.491  16.014  1.3433 -1.0313  2.7649
  831MPD2    N112228   1.647   3.511  15.882 -0.7448 -0.5258 -0.4653
  831MPD2    H712229   1.723   3.578  15.875  0.0456 -1.4092 -0.4321
  832MPD2     C12230   4.713   0.033  16.549  0.3758  0.9496 -0.0225
  832MPD2    C112231   4.625   0.115  16.614  0.0567 -0.3981 -0.7868
  832MPD2    C212232   4.488   0.091  16.594 -0.1350  0.2866 -0.3698
  832MPD2    C312233   4.444   4.707  16.518 -0.2633 -0.6458  0.5200
  832MPD2    C412234   4.533   4.622  16.466 -0.3251  0.0804  0.2024
  832MPD2    C512235   4.667   4.645  16.489 -0.3922  0.2066 -0.0690
  832MPD2     H12236   4.415   0.147  16.651 -0.2276 -1.2607  1.0194
  832MPD2    H112237   4.515   4.531  16.410  0.2272  1.5331 -2.3797
  832MPD2    H212238   0.092   0.054  16.568  0.0653  0.7607  1.8353
  832MPD2    H312239   0.015   4.572  16.458 -1.1066 -0.1441 -0.9451
  832MPD2     N12240   4.307   4.673  16.497  0.2383  0.3427  0.3116
  832MPD2    H512241   4.296   4.601  16.427 -2.0549  0.7508  0.2598
  832MPD2    N112242   4.663   0.199  16.716  0.1196 -0.2136 -0.8096
  832MPD2    H712243   4.591   0.203  16.787 -1.6929  0.4423 -2.6917
  833MPD2     C12244   2.121   1.412  12.290 -0.6353 -0.6877  0.2325
  833MPD2    C112245   2.158   1.453  12.166  0.2768  0.8093  0.4217
  833MPD2    C212246   2.218   1.360  12.079  0.3736  0.3279 -0.3901
  833MPD2    C312247   2.247   1.231  12.127 -0.2771  0.3853 -0.2155
  833MPD2    C412248   2.195   1.188  12.247  0.1568 -0.3370  0.7057
  833MPD2    C512249   2.138   1.276  12.335  0.5065  0.4664 -0.3779
  833MPD2     H12250   2.235   1.383  11.975 -1.9185 -2.3363 -1.3380
  833MPD2    H112251   2.202   1.084  12.278  0.7754 -0.4379  0.2154
  833MPD2    H212252   2.077   1.473  12.368  0.1744 -1.6892  1.4885
  833MPD2    H312253   2.100   1.250  12.434  0.8387 -2.4451 -1.0260
  833MPD2     N12254   2.306   1.129  12.047  0.2604  0.4980 -0.0309
  833MPD2    H512255   2.301   1.035  12.086 -1.5107  1.2449  1.5457
  833MPD2    N112256   2.121   1.586  12.126  0.3508 -0.2352  0.2431
  833MPD2    H712257   2.055   1.637  12.184 -0.2451  0.9569 -1.4878
  834MPD2     C12258   1.799   0.473  11.504 -0.4541  0.1516 -0.9937
  834MPD2    C112259   1.893   0.518  11.406  0.4044 -0.5834 -0.3280
  834MPD2    C212260   1.992   0.603  11.444  0.2985  0.6176 -0.4487
  834MPD2    C312261   2.022   0.639  11.577  0.3487 -0.4014  0.3555
  834MPD2    C412262   1.941   0.578  11.676  0.3918 -0.2931 -0.2360
  834MPD2    C512263   1.834   0.495  11.637  0.4086  0.7460  0.4450
  834MPD2     H12264   2.040   0.659  11.365  0.5157  1.7745  0.5003
  834MPD2    H112265   1.955   0.581  11.783 -0.3084  0.8169 -0.1735
  834MPD2    H212266   1.719   0.408  11.471 -0.1209 -0.8782  0.2202
  834MPD2    H312267   1.772   0.444  11.710  0.9256 -0.2243  0.2071
  834MPD2     N12268   2.116   0.741  11.605 -0.4645 -0.8852  0.0005
  834MPD2    H512269   2.155   0.783  11.521  0.3095 -3.9341 -1.1390
  834MPD2    N112270   1.876   0.472  11.274 -0.5946  0.3994  0.2200
  834MPD2    H712271   1.805   0.403  11.252 -0.4510 -0.4760  2.4783
  835MPD2     C12272   1.676   4.191  10.702  0.3021 -0.2741  0.0272
  835MPD2    C112273   1.541   4.200  10.710  0.3285 -0.3437 -0.5055
  835MPD2    C212274   1.476   4.178  10.827  0.7078  0.7511  0.7351
  835MPD2    C312275   1.544   4.138  10.942  0.0332 -0.1686 -0.3492
  835MPD2    C412276   1.684   4.135  10.938 -0.2025 -0.2620 -0.6136
  835MPD2    C512277   1.741   4.157  10.816  0.1958  0.8092  0.5105
  835MPD2     H12278   1.367   4.173  10.826  0.7733 -1.1284  2.1390
  835MPD2    H112279   1.744   4.101  11.022  0.3892  1.6583 -0.2742
  835MPD2    H212280   1.728   4.207  10.608 -1.1164 -0.6506 -0.8349
  835MPD2    H312281   1.848   4.160  10.801  0.0355 -0.1704 -0.8250
  835MPD2     N12282   1.472   4.105  11.056 -0.2190  0.4372 -0.1271
  835MPD2    H512283   1.537   4.067  11.124 -1.4189 -1.3320  0.0107
  835MPD2    N112284   1.462   4.234  10.596 -0.3783 -0.4833  0.3072
  835MPD2    H712285   1.366   4.264  10.607 -0.0733 -0.0496  1.8747
  836MPD2     C12286   0.761   4.245  11.359 -0.1344  0.4495  1.1221
  836MPD2    C112287   0.828   4.160  11.445 -0.2999  0.2034  0.4813
  836MPD2    C212288   0.754   4.107  11.548 -0.7146  0.3289  0.1245
  836MPD2    C312289   0.617   4.123  11.551 -0.1750  0.4641  0.3193
  836MPD2    C412290   0.551   4.186  11.454 -0.1194 -0.7816 -0.2308
  836MPD2    C512291   0.624   4.253  11.362  0.2262 -0.0503 -0.5647
  836MPD2     H12292   0.811   4.066  11.631  1.1261  1.1480 -0.7467
  836MPD2    H112293   0.443   4.198  11.453 -0.2529 -1.8697  2.5577
  836MPD2    H212294   0.822   4.287  11.279  0.4580 -0.8945  0.8599
  836MPD2    H312295   0.580   4.307  11.280 -0.0579  0.9746  0.2675
  836MPD2     N12296   0.532   4.062  11.650 -0.0962 -0.0575  0.6716
  836MPD2    H512297   0.433   4.085  11.644 -0.6368 -2.5508  0.0099
  836MPD2    N112298   0.971   4.152  11.424 -0.0466 -0.1272  0.0203
  836MPD2    H712299   1.010   4.214  11.354  0.3102  0.9193  1.1373
  837MPD2     C12300   4.575   3.736   9.556  0.1668 -0.3454 -0.2631
  837MPD2    C112301   4.456   3.761   9.489  0.1854 -0.3854  0.3837
  837MPD2    C212302   4.415   3.896   9.494 -0.3439  0.0895  0.5095
  837MPD2    C312303   4.493   3.989   9.558 -0.2003 -0.2507 -0.4042
  837MPD2    C412304   4.614   3.959   9.611 -0.5871 -0.7083 -0.3981
  837MPD2    C512305   4.654   3.832   9.616 -0.3467  0.4421 -0.1775
  837MPD2     H12306   4.310   3.915   9.472 -0.6265  0.1189  1.8811
  837MPD2    H112307   4.668   4.032   9.671 -0.3503 -1.1722 -0.0472
  837MPD2    H212308   4.611   3.634   9.549 -0.9204 -0.7645  0.2385
  837MPD2    H312309   0.018   3.811   9.673 -0.8381 -0.4411  0.2560
  837MPD2     N12310   4.428   4.110   9.583 -0.1470 -0.1263  0.3079
  837MPD2    H512311   4.340   4.117   9.534 -0.3443  1.5544  0.9082
  837MPD2    N112312   4.355   3.665   9.450 -0.5689 -0.6053  0.5939
  837MPD2    H712313   4.284   3.703   9.388  0.0091  1.4326  1.1932
  838MPD2     C12314   3.037   2.066  11.237 -0.9830  0.1398  0.2356
  838MPD2    C112315   3.085   1.935  11.254 -0.4208 -0.0752 -0.4107
  838MPD2    C212316   3.006   1.827  11.221  0.7847  0.3210  0.5989
  838MPD2    C312317   2.879   1.842  11.178 -0.0154 -0.0943 -0.0723
  838MPD2    C412318   2.832   1.968  11.164  0.1436 -0.2372  0.4871
  838MPD2    C512319   2.910   2.080  11.187  0.1723  1.0572  0.6422
  838MPD2     H12320   3.044   1.730  11.251 -3.1019 -1.5036 -0.2988
  838MPD2    H112321   2.730   1.994  11.137  1.2243  3.3156 -0.2001
  838MPD2    H212322   3.104   2.150  11.252 -0.9630 -0.1961  1.9742
  838MPD2    H312323   2.880   2.179  11.153  2.3814  1.2237 -0.8417
  838MPD2     N12324   2.788   1.732  11.178  0.2805 -0.5530 -0.0981
  838MPD2    H512325   2.802   1.651  11.237 -0.6631 -0.6141  0.0415
  838MPD2    N112326   3.208   1.908  11.320 -0.1347  0.6057  0.0041
  838MPD2    H712327   3.233   1.810  11.309 -2.4023  0.2560 -2.1002
  839MPD2     C12328   2.988   1.352  11.259  0.3657  0.4082 -0.2522
  839MPD2    C112329   3.040   1.431  11.155 -0.6635  0.0571  0.0735
  839MPD2    C212330   3.167   1.475  11.171  0.1650 -0.0069 -0.0604
  839MPD2    C312331   3.236   1.458  11.290  0.4990  0.9366  0.9401
  839MPD2    C412332   3.197   1.369  11.383 -0.8608 -0.3979  0.2348
  839MPD2    C512333   3.070   1.317  11.367 -0.1392  0.7546 -0.6481
  839MPD2     H12334   3.203   1.544  11.096 -5.1014  2.4938 -0.2644
  839MPD2    H112335   3.255   1.340  11.470  1.7869  1.9413 -0.7454
  839MPD2    H212336   2.888   1.310  11.258  0.7880 -0.6296  1.5961
  839MPD2    H312337   3.034   1.243  11.438  2.0119  2.5414  2.3156
  839MPD2     N12338   3.359   1.522  11.315  0.4971  0.0441 -0.5979
  839MPD2    H512339   3.386   1.521  11.412  3.7919 -0.3170 -1.5344
  839MPD2    N112340   2.980   1.460  11.032 -0.3888  0.4256  0.9594
  839MPD2    H712341   3.043   1.501  10.964  0.6582  0.1123  1.7410
  840MPD2     C12342   3.097   4.372  10.173  0.3621  0.3173  0.3964
  840MPD2    C112343   3.081   4.272  10.270  0.2167 -0.3530 -0.2733
  840MPD2    C212344   3.181   4.266  10.363  0.0149 -0.8907  0.4589
  840MPD2    C312345   3.279   4.361  10.371  0.0829 -1.2422 -0.4474
  840MPD2    C412346   3.288   4.465  10.277 -0.3051 -0.0365  0.2542
  840MPD2    C512347   3.194   4.464  10.176 -0.1874  0.2811 -0.1496
  840MPD2     H12348   3.185   4.183  10.433  0.2279 -1.5932 -0.3876
  840MPD2    H112349   3.356   4.549  10.280  0.6490 -0.7863 -0.4725
  840MPD2    H212350   3.022   4.383  10.096  0.6267  2.2762  0.4021
  840MPD2    H312351   3.197   4.537  10.095 -2.7529  0.1598 -0.3410
  840MPD2     N12352   3.381   4.366  10.468 -0.1605 -0.8260  0.3051
  840MPD2    H512353   3.453   4.436  10.453  0.6481 -1.7079  0.1240
  840MPD2    N112354   2.965   4.188  10.266  0.1565 -0.5914  0.4883
  840MPD2    H712355   2.902   4.212  10.189 -0.8206 -1.3359  1.0558
  841MPD2     C12356   3.693   4.125  14.148 -0.5323  0.2000 -0.0134
  841MPD2    C112357   3.670   4.011  14.226 -0.4496  0.0397  0.2060
  841MPD2    C212358   3.733   3.985  14.345 -0.9534  0.1482  0.3933
  841MPD2    C312359   3.821   4.082  14.391 -0.9678  0.6126 -0.0555
  841MPD2    C412360   3.856   4.190  14.306 -0.4007  0.3698  0.5418
  841MPD2    C512361   3.791   4.214  14.192  0.5595  0.7121  0.7186
  841MPD2     H12362   3.715   3.894  14.401  2.2146  0.1929  1.4357
  841MPD2    H112363   3.934   4.257  14.341  1.5506 -2.7571  2.1420
  841MPD2    H212364   3.644   4.143  14.053  1.0091  3.7437 -0.1182
  841MPD2    H312365   3.806   4.301  14.128 -0.0687 -0.5152 -1.1266
  841MPD2     N12366   3.889   4.060  14.516 -0.3280  1.0433 -0.1165
  841MPD2    H512367   3.859   3.993  14.586  0.7847  1.9455  1.2287
  841MPD2    N112368   3.580   3.909  14.186 -0.1505  0.3163  0.6601
  841MPD2    H712369   3.580   3.825  14.242 -0.2496  0.9353  1.5873
  842MPD2     C12370   3.378   4.697  17.067 -0.2433  0.3079  0.1709
  842MPD2    C112371   3.246   4.690  17.114  0.3444  0.2394  0.5537
  842MPD2    C212372   3.224   4.668  17.248  0.8693 -0.0042 -0.1629
  842MPD2    C312373   3.329   4.636  17.333  0.0010 -0.4641  0.5698
  842MPD2    C412374   3.457   4.644  17.295  0.5533  0.2039  1.0620
  842MPD2    C512375   3.481   4.676  17.163 -0.7959  0.0858 -0.5141
  842MPD2     H12376   3.126   4.688  17.291  1.8713  2.0752  1.1427
  842MPD2    H112377   3.534   4.637  17.371  2.8819  0.0587 -1.3257
  842MPD2    H212378   3.414   0.004  16.969 -2.4000 -1.2721 -1.1449
  842MPD2    H312379   3.583   4.689  17.129 -0.4630 -2.0947 -0.3202
  842MPD2     N12380   3.298   4.637  17.473 -0.7308 -0.5379 -0.2322
  842MPD2    H512381   3.365   4.647  17.549  0.3709  0.4682 -1.3385
  842MPD2    N112382   3.148   4.701  17.011 -1.0790  0.1364 -0.3862
  842MPD2    H712383   3.178   4.718  16.916 -1.9257  1.2250 -0.4496
  843MPD2     C12384   0.832   0.562  17.483 -0.7203 -0.9194 -0.2935
  843MPD2    C112385   0.914   0.498  17.579 -0.5922  0.6797 -0.1033
  843MPD2    C212386   1.016   0.576  17.634  0.6917 -0.0337  0.2019
  843MPD2    C312387   1.021   0.710  17.601  0.3064 -0.1654  0.2748
  843MPD2    C412388   0.928   0.771  17.516 -0.4038 -0.0484 -0.6090
  843MPD2    C512389   0.842   0.691  17.454 -0.7215 -0.1070 -0.0883
  843MPD2     H12390   1.089   0.535   0.001  1.5651  3.0131  1.0578
  843MPD2    H112391   0.941   0.872  17.480  1.2283 -0.1207 -0.1998
  843MPD2    H212392   0.755   0.499  17.438 -1.8523 -0.6204  1.2165
  843MPD2    H312393   0.773   0.741  17.387  0.4027  1.6368  0.0270
  843MPD2     N12394   1.121   0.776  17.670  0.2672  0.1811 -0.1023
  843MPD2    H512395   1.171   0.724   0.038  0.3422 -0.6182 -0.7406
  843MPD2    N112396   0.881   0.367  17.622  0.4455  0.0014 -0.3791
  843MPD2    H712397   0.796   0.328  17.582 -0.2893  2.4310 -1.1860
  844MPD2     C12398   4.377   0.096  16.173 -0.2672 -0.6258  0.8440
  844MPD2    C112399   4.502   0.032  16.161 -0.1906  0.1413  0.3722
  844MPD2    C212400   4.622   0.109  16.150  0.7648 -0.5969 -0.7008
  844MPD2    C312401   4.610   0.251  16.148 -0.3054  0.0684 -0.4886
  844MPD2    C412402   4.486   0.313  16.157  0.5415  0.8003 -0.6700
  844MPD2    C512403   4.375   0.235  16.172  0.0569 -0.6099  0.3903
  844MPD2     H12404   4.717   0.057  16.143  2.3461  2.1288  0.3578
  844MPD2    H112405   4.467   0.419  16.152  0.8847  1.0371  3.4883
  844MPD2    H212406   4.283   0.041  16.173 -0.5968  0.0008 -3.4684
  844MPD2    H312407   4.277   0.273  16.199 -0.1767  0.1956 -1.5958
  844MPD2     N12408   0.002   0.319  16.147  0.7349  0.2851  0.4013
  844MPD2    H512409   0.085   0.262  16.159  1.1017  1.1151  1.7752
  844MPD2    N112410   4.512   4.617  16.147 -0.1298  0.5545 -0.1718
  844MPD2    H712411   4.597   4.566  16.124  0.2699  2.4379 -2.8769
  845MPD2     C12412   0.134   1.032  16.784  0.5406 -0.1286 -0.0670
  845MPD2    C112413   0.029   1.003  16.702 -0.4609  0.5067  0.1504
  845MPD2    C212414   0.031   0.893  16.617  0.3047  0.4944 -0.2063
  845MPD2    C312415   0.142   0.806  16.628  0.0860  0.2812 -0.9772
  845MPD2    C412416   0.247   0.833  16.718 -0.1583  0.3995 -0.0756
  845MPD2    C512417   0.243   0.943  16.797 -0.6394  0.2531  0.0217
  845MPD2     H12418   4.682   0.868  16.542  0.1871  0.4813 -0.0874
  845MPD2    H112419   0.328   0.766  16.744  1.0434  1.1246 -1.8951
  845MPD2    H212420   0.132   1.115  16.854  0.2028  0.5650 -0.9001
  845MPD2    H312421   0.316   0.951  16.877 -1.0609 -0.4311  0.4818
  845MPD2     N12422   0.144   0.700  16.532 -0.3297 -0.0224  0.3735
  845MPD2    H512423   0.074   0.697  16.459  1.7137 -2.6699 -1.5027
  845MPD2    N112424   4.640   1.082  16.724 -0.2734  0.5240  0.7577
  845MPD2    H712425   4.633   1.127  16.814  0.2492  0.1831  0.9696
  846MPD2     C12426   0.910   1.142  13.322  0.3971  0.2538  0.0630
  846MPD2    C112427   1.012   1.204  13.391 -0.4165  0.0437  0.0661
  846MPD2    C212428   0.996   1.203  13.534 -0.2766 -0.0956  0.0886
  846MPD2    C312429   0.891   1.134  13.591 -0.4698  0.0063  0.1288
  846MPD2    C412430   0.798   1.079  13.509  0.2885  0.5129  0.8712
  846MPD2    C512431   0.808   1.075  13.371 -0.1798 -0.0752  0.1961
  846MPD2     H12432   1.073   1.246  13.597  1.3269 -0.0668 -1.8978
  846MPD2    H112433   0.707   1.033  13.546  0.1509  0.3954  0.3958
  846MPD2    H212434   0.909   1.149  13.214  2.1725  2.4654  0.1863
  846MPD2    H312435   0.718   1.040  13.321  0.7586 -0.1213 -1.4386
  846MPD2     N12436   0.862   1.130  13.733  0.3505  0.1979 -0.1957
  846MPD2    H512437   0.775   1.082  13.755 -0.0519  1.2941  0.6378
  846MPD2    N112438   1.122   1.270  13.328 -0.0717  0.1143  0.3106
  846MPD2    H712439   1.186   1.313  13.393  2.6662  0.6528 -2.7246
  847MPD2     C12440   1.211   1.690  14.323  0.2902 -0.4418  1.0202
  847MPD2    C112441   1.319   1.722  14.239  1.2995  0.6676 -0.0133
  847MPD2    C212442   1.444   1.686  14.282  0.1527 -0.0619  0.1049
  847MPD2    C312443   1.470   1.634  14.410 -0.1389  0.3074  0.1264
  847MPD2    C412444   1.363   1.599  14.491 -0.2304  0.8292 -0.3246
  847MPD2    C512445   1.232   1.634  14.443 -0.0045  0.3927  0.3159
  847MPD2     H12446   1.524   1.718  14.215  1.6540 -0.0406  1.9147
  847MPD2    H112447   1.376   1.556  14.590  0.5399 -1.2905 -1.3402
  847MPD2    H212448   1.109   1.712  14.292  1.2293  3.7541  0.7901
  847MPD2    H312449   1.140   1.611  14.496 -1.0593  0.6066 -1.4449
  847MPD2     N12450   1.599   1.622  14.462  0.6125 -0.1896 -0.3010
  847MPD2    H512451   1.606   1.589  14.557  1.1803 -1.2849 -0.7205
  847MPD2    N112452   1.307   1.798  14.123 -0.2823 -0.2506 -0.0777
  847MPD2    H712453   1.395   1.812  14.075 -1.2549 -2.4939 -2.5612
  848MPD2     C12454   3.979   0.391  16.044  0.0527 -0.9202 -0.7108
  848MPD2    C112455   3.900   0.361  16.148  0.4271  0.2029  1.2131
  848MPD2    C212456   3.809   0.451  16.200 -0.1833  0.1878 -0.5098
  848MPD2    C312457   3.797   0.575  16.143 -0.0705 -0.1761 -0.0769
  848MPD2    C412458   3.889   0.607  16.044 -0.0731  0.2333 -0.3320
  848MPD2    C512459   3.980   0.517  15.993  0.4536 -0.3763  0.7065
  848MPD2     H12460   3.754   0.438  16.292  0.2653 -2.2477 -0.5797
  848MPD2    H112461   3.874   0.702  15.994 -0.3939 -1.2775 -3.0757
  848MPD2    H212462   4.053   0.319  16.012 -1.7543 -2.7047 -0.8343
  848MPD2    H312463   4.039   0.536  15.904 -0.8191 -0.0787 -0.0712
  848MPD2     N12464   3.707   0.670  16.189  0.3944  0.2992 -0.0948
  848MPD2    H512465   3.716   0.760  16.143 -0.9722  0.3067 -0.3479
  848MPD2    N112466   3.897   0.237  16.211 -0.1676  0.2664 -0.1149
  848MPD2    H712467   3.857   0.251  16.304  1.0866  0.9139  0.3316
  849MPD2     C12468   2.981   0.071  14.112 -0.3578  0.3764  0.4513
  849MPD2    C112469   3.082   0.113  14.031  0.4886 -0.1746 -0.2837
  849MPD2    C212470   3.207   0.064  14.061  1.0051 -0.0527 -0.7834
  849MPD2    C312471   3.224   4.712  14.172 -0.3631 -0.0640  0.4779
  849MPD2    C412472   3.123   4.667  14.247  0.7648 -0.2485  0.1904
  849MPD2    C512473   2.994   4.708  14.210 -0.0193 -0.0481 -0.3445
  849MPD2     H12474   3.294   0.100  14.007  1.5175 -0.0743  0.0166
  849MPD2    H112475   3.126   4.589  14.322  0.9016 -0.7556 -0.3495
  849MPD2    H212476   2.883   0.103  14.079 -0.5844 -0.6960  0.1024
  849MPD2    H312477   2.906   4.672  14.261  0.2450 -0.0056  0.1474
  849MPD2     N12478   3.362   4.675  14.186  0.0032 -0.3037 -0.6569
  849MPD2    H512479   3.423   4.698  14.109 -1.1910 -1.1509 -1.8552
  849MPD2    N112480   3.059   0.195  13.913 -0.1369 -0.3247 -0.4527
  849MPD2    H712481   2.961   0.215  13.895 -0.2678  1.0121  1.6506
  850MPD2     C12482   1.292   2.849  14.359 -0.1521  0.3722  0.2399
  850MPD2    C112483   1.310   2.950  14.449 -0.6381  0.4573  0.4801
  850MPD2    C212484   1.440   2.970  14.498  0.2387  0.0080 -0.6712
  850MPD2    C312485   1.545   2.885  14.466  0.2048  0.3506 -0.5470
  850MPD2    C412486   1.524   2.780  14.375  0.9906  0.0030 -0.5685
  850MPD2    C512487   1.397   2.768  14.319 -0.4029  0.2322 -0.3565
  850MPD2     H12488   1.465   3.048  14.569 -0.3153 -0.4413  0.0161
  850MPD2    H112489   1.607   2.719  14.339  0.2665 -1.1710 -0.2671
  850MPD2    H212490   1.200   2.829  14.305 -1.2974  0.8338  2.0459
  850MPD2    H312491   1.383   2.712  14.228 -0.4867 -3.0530  1.6589
  850MPD2     N12492   1.672   2.885  14.528  0.2607 -0.2978 -0.3962
  850MPD2    H512493   1.739   2.816  14.495 -1.7848 -1.8283 -1.3724
  850MPD2    N112494   1.194   3.027  14.476  0.3516 -0.1257 -0.1425
  850MPD2    H712495   1.127   3.031  14.400  1.4796  0.1060 -1.1276
  851MPD2     C12496   1.681   3.002  15.202  0.0007  0.3291  0.3993
  851MPD2    C112497   1.638   2.948  15.087  0.0306 -0.1686 -0.3317
  851MPD2    C212498   1.691   2.836  15.028  0.4271 -0.2035  0.3714
  851MPD2    C312499   1.788   2.766  15.097  0.3098  0.4954  0.0327
  851MPD2    C412500   1.831   2.820  15.214  0.3100 -0.1453  0.2105
  851MPD2    C512501   1.783   2.940  15.264 -0.4895 -0.7510 -0.2065
  851MPD2     H12502   1.653   2.804  14.931 -3.0694  3.0451  0.6492
  851MPD2    H112503   1.901   2.771  15.280  0.1508 -0.0274  0.4712
  851MPD2    H212504   1.657   3.101  15.240  1.6338  1.2235 -0.8814
  851MPD2    H312505   1.832   2.980  15.352  1.9327 -2.7600 -0.6526
  851MPD2     N12506   1.849   2.649  15.050 -0.2382  0.3268  0.4424
  851MPD2    H512507   1.819   2.617  14.958 -1.7272 -0.8189  1.3055
  851MPD2    N112508   1.537   3.020  15.029 -0.1032  0.6358  0.4032
  851MPD2    H712509   1.508   3.108  15.069 -0.6460  0.2467  0.8840
  852MPD2     C12510   1.031   0.797   9.720 -0.5851  0.4432  0.5447
  852MPD2    C112511   1.042   0.830   9.851 -0.2314  0.1996  0.2227
  852MPD2    C212512   1.095   0.960   9.876 -0.2416 -0.4980 -0.1350
  852MPD2    C312513   1.137   1.039   9.771  0.0885 -0.4388  0.0763
  852MPD2    C412514   1.137   0.994   9.642 -0.2659 -0.3405 -0.5130
  852MPD2    C512515   1.086   0.871   9.617 -1.0972  0.4722 -0.2613
  852MPD2     H12516   1.106   0.996   9.978  1.9003  1.5796 -1.0948
  852MPD2    H112517   1.163   1.048   9.552  0.3721 -1.4585 -1.0052
  852MPD2    H212518   0.984   0.705   9.688 -1.2663  0.8117  0.5079
  852MPD2    H312519   1.072   0.848   9.512  1.6274  0.7120 -0.6766
  852MPD2     N12520   1.190   1.167   9.813  0.1425 -0.3059 -0.0197
  852MPD2    H512521   1.196   1.186   9.913  3.2643 -1.7481  0.0565
  852MPD2    N112522   0.996   0.753   9.955  0.0073 -0.2118  0.8305
  852MPD2    H712523   1.019   0.792  10.046 -0.7663  0.2157  0.8500
  853MPD2     C12524   2.817   0.423  12.263  0.5512 -0.1914  0.1050
  853MPD2    C112525   2.842   0.550  12.218  0.0545  0.5653 -0.5776
  853MPD2    C212526   2.884   0.570  12.079 -0.0024 -0.2074  0.1569
  853MPD2    C312527   2.893   0.453  11.997 -0.3223 -0.6167  0.6067
  853MPD2    C412528   2.876   0.329  12.047  0.0325 -0.1327  0.2335
  853MPD2    C512529   2.830   0.314  12.175  0.3630 -0.4968  0.7119
  853MPD2     H12530   2.909   0.670  12.045  1.3195 -0.4214  0.4969
  853MPD2    H112531   2.878   0.245  11.979  0.8214 -1.0306  1.3776
  853MPD2    H212532   2.793   0.411  12.368 -3.4427  0.0401 -0.7679
  853MPD2    H312533   2.805   0.214  12.208 -0.4872 -0.7531 -0.7285
  853MPD2     N12534   2.928   0.461  11.861  0.1426 -0.6313  0.3588
  853MPD2    H512535   2.950   0.379  11.806  0.4364  0.0203 -0.5074
  853MPD2    N112536   2.819   0.661  12.312 -0.4778 -0.0327 -0.4774
  853MPD2    H712537   2.777   0.644  12.403  1.0867 -0.9527  0.0663
  854MPD2     C12538   3.899   1.096  13.112  0.4280  0.7123  0.2658
  854MPD2    C112539   4.032   1.122  13.127  0.0448 -0.7395  0.5371
  854MPD2    C212540   4.127   1.024  13.104  0.1584  0.1010  0.6365
  854MPD2    C312541   4.081   0.906  13.041 -0.7000  0.4075 -0.2294
  854MPD2    C412542   3.944   0.896  13.008 -0.3627 -0.1019  0.0092
  854MPD2    C512543   3.852   0.983  13.056 -0.7148  0.4860  0.0510
  854MPD2     H12544   4.234   1.028  13.122  0.0567  0.1638  1.2414
  854MPD2    H112545   3.896   0.807  12.969  0.4715  0.2482 -1.7977
  854MPD2    H212546   3.829   1.176  13.136 -0.5376 -0.1182  0.2150
  854MPD2    H312547   3.748   0.959  13.038 -0.0700 -1.5724 -0.9327
  854MPD2     N12548   4.174   0.807  13.007  0.0741 -0.0085 -0.7412
  854MPD2    H512549   4.267   0.821  13.045 -0.1396 -0.3857 -0.0821
  854MPD2    N112550   4.064   1.248  13.178 -0.6713 -0.1736  0.2953
  854MPD2    H712551   3.983   1.296  13.217 -1.7483 -0.2062 -1.8903
  855MPD2     C12552   0.055   0.585  13.514 -0.2499  0.1138 -0.3662
  855MPD2    C112553   0.051   0.465  13.437  0.1234 -1.0145  1.1595
  855MPD2    C212554   4.713   0.468  13.309  0.8115 -0.4215  1.2083
  855MPD2    C312555   4.673   0.594  13.255  0.3184  0.6562  0.0524
  855MPD2    C412556   4.676   0.703  13.342 -0.1337  0.3912  0.5571
  855MPD2    C512557   4.720   0.697  13.471 -0.1393 -0.1461 -0.8577
  855MPD2     H12558   4.717   0.375  13.253  3.2249  1.2773 -1.4452
  855MPD2    H112559   4.624   0.791  13.307 -0.9149  0.2062  1.2573
  855MPD2    H212560   0.092   0.582  13.615  1.5407  1.5737 -0.9810
  855MPD2    H312561   4.718   0.780  13.540 -1.1875 -0.4108 -0.5696
  855MPD2     N12562   4.606   0.616  13.134 -0.1465 -0.0779 -0.5755
  855MPD2    H512563   4.570   0.707  13.108 -0.4187  0.2166  0.8396
  855MPD2    N112564   0.111   0.341  13.478 -0.4106  0.1589 -0.4241
  855MPD2    H712565   0.091   0.259  13.422  1.2956 -0.7825  0.3473
  856MPD2     C12566   2.255   1.219  13.713  0.3148  0.2870  0.2824
  856MPD2    C112567   2.331   1.318  13.767 -0.1953  0.1918 -0.0990
  856MPD2    C212568   2.287   1.446  13.760  0.5010  0.1319  0.7394
  856MPD2    C312569   2.168   1.480  13.700  0.4314  0.8193  0.4845
  856MPD2    C412570   2.087   1.378  13.652 -0.4419 -0.8332  0.2900
  856MPD2    C512571   2.138   1.250  13.649 -0.3571  0.3073 -0.5459
  856MPD2     H12572   2.332   1.524  13.820 -2.1387 -0.2380  3.2297
  856MPD2    H112573   1.986   1.390  13.615  0.4373 -0.1602 -1.8790
  856MPD2    H212574   2.276   1.114  13.731 -2.8679  0.1950  3.3882
  856MPD2    H312575   2.073   1.177  13.601  0.3715 -0.5842 -0.1748
  856MPD2     N12576   2.121   1.620  13.694  0.6641 -0.5011  0.4411
  856MPD2    H512577   2.025   1.629  13.661  1.1923 -0.3449 -1.0680
  856MPD2    N112578   2.466   1.304  13.824  0.0983  0.0408  0.0388
  856MPD2    H712579   2.503   1.384  13.874 -1.5586  1.3448 -0.8097
  857MPD2     C12580   3.535   3.574  12.446 -0.9053 -0.2611 -0.3558
  857MPD2    C112581   3.665   3.558  12.420 -0.2935  0.1202  0.1712
  857MPD2    C212582   3.761   3.659  12.439  0.4620 -0.3330  0.1568
  857MPD2    C312583   3.719   3.788  12.481 -0.3290 -0.4719  0.1744
  857MPD2    C412584   3.586   3.800  12.501 -0.2420  0.5785  0.4407
  857MPD2    C512585   3.494   3.703  12.477 -0.3663  0.3288  0.2181
  857MPD2     H12586   3.865   3.636  12.419  0.4835  1.4840 -1.9126
  857MPD2    H112587   3.542   3.891  12.541 -0.7290  1.2206 -1.5116
  857MPD2    H212588   3.462   3.494  12.442  1.4347 -2.5977  2.7110
  857MPD2    H312589   3.390   3.725  12.500 -0.0139  3.5364 -1.2699
  857MPD2     N12590   3.815   3.885  12.508 -0.2553 -0.4369  0.1301
  857MPD2    H512591   3.913   3.859  12.503 -0.3044 -1.1064  2.4286
  857MPD2    N112592   3.709   3.428  12.380 -0.0880 -0.2594 -0.3161
  857MPD2    H712593   3.635   3.359  12.385 -0.8260  0.5840  0.4103
  858MPD2     C12594   0.252   2.450  16.398 -0.3581  0.0581  0.3096
  858MPD2    C112595   0.146   2.408  16.477  0.6325 -0.0453  0.8874
  858MPD2    C212596   0.094   2.507  16.564  0.1553  0.3568  0.3328
  858MPD2    C312597   0.159   2.626  16.575  0.0107  0.1226 -0.6850
  858MPD2    C412598   0.266   2.664  16.501 -0.0150 -0.1695 -0.4347
  858MPD2    C512599   0.313   2.577  16.407  0.3740 -1.1045 -1.0358
  858MPD2     H12600   0.015   2.492  16.636 -1.9891  4.4408 -1.1470
  858MPD2    H112601   0.309   2.763  16.511 -1.0938 -0.0547  3.1606
  858MPD2    H212602   0.297   2.383  16.327  0.0314 -0.0037  0.6151
  858MPD2    H312603   0.391   2.608  16.339  0.0234  4.0145  0.8656
  858MPD2     N12604   0.123   2.704  16.685  0.0256 -0.0412 -0.5039
  858MPD2    H512605   0.048   2.675  16.747  1.4958 -0.2661  1.1399
  858MPD2    N112606   0.109   2.274  16.480 -0.8310  0.4343  0.7327
  858MPD2    H712607   0.167   2.211  16.426 -0.7829  3.4306 -2.7037
  859MPD2     C12608   3.435   0.336  15.528 -0.3802 -0.3024 -0.6639
  859MPD2    C112609   3.426   0.306  15.390 -0.7388 -0.6457  0.6930
  859MPD2    C212610   3.359   0.190  15.359 -0.4911 -0.2376  0.0526
  859MPD2    C312611   3.311   0.110  15.456  0.9422 -0.1104  0.7789
  859MPD2    C412612   3.314   0.143  15.592 -0.3636 -0.9064  0.2024
  859MPD2    C512613   3.376   0.262  15.625  0.6984 -0.7259  0.2554
  859MPD2     H12614   3.345   0.164  15.255  1.6651 -0.2405 -0.2385
  859MPD2    H112615   3.266   0.082  15.667 -1.0298 -1.7576 -0.9252
  859MPD2    H212616   3.489   0.424  15.562  1.6693 -2.0348  0.5595
  859MPD2    H312617   3.375   0.299  15.727  1.2257  0.2335 -0.0806
  859MPD2     N12618   3.239   4.717  15.432  0.1451  0.2666  0.1349
  859MPD2    H512619   3.196   4.664  15.507 -0.2554  0.3325 -0.0491
  859MPD2    N112620   3.480   0.386  15.290 -0.1546 -0.1026  0.0484
  859MPD2    H712621   3.534   0.465  15.325 -0.0738  0.3061 -0.9854
  860MPD2     C12622   0.702   0.225  11.635 -0.4346 -0.1613  0.0543
  860MPD2    C112623   0.767   0.204  11.758  0.2771  0.0662 -0.1422
  860MPD2    C212624   0.703   0.124  11.846  0.4142 -0.6076 -0.0767
  860MPD2    C312625   0.585   0.058  11.809  0.1785 -0.6074 -0.0014
  860MPD2    C412626   0.529   0.069  11.686  0.2347  0.0922 -0.1130
  860MPD2    C512627   0.589   0.159  11.601  0.4176 -0.1722 -0.3927
  860MPD2     H12628   0.746   0.123  11.946  1.5568  0.5059 -0.5525
  860MPD2    H112629   0.445   0.008  11.653  0.4381 -0.7843  0.9928
  860MPD2    H212630   0.742   0.291  11.559  0.0977 -0.7400 -0.1707
  860MPD2    H312631   0.547   0.178  11.503 -1.1758  0.5843  0.4409
  860MPD2     N12632   0.536   4.703  11.916  0.0436  0.4681  0.0045
  860MPD2    H512633   0.576   4.716  12.008  1.0653  1.9010 -0.6340
  860MPD2    N112634   0.895   0.244  11.794 -0.1960  0.2841  0.3252
  860MPD2    H712635   0.928   0.223  11.887  0.8350  4.2406  0.8299
  861MPD2     C12636   3.665   3.158  10.752 -0.0308 -0.7469  0.0922
  861MPD2    C112637   3.749   3.244  10.813 -0.6399 -0.3325 -0.0403
  861MPD2    C212638   3.728   3.383  10.807 -0.6090  0.6715 -0.3589
  861MPD2    C312639   3.624   3.431  10.728  0.0796 -0.2556  0.2128
  861MPD2    C412640   3.552   3.345  10.652 -0.1578  0.3094 -0.0031
  861MPD2    C512641   3.572   3.208  10.668  0.4758 -0.1394 -0.2143
  861MPD2     H12642   3.792   3.442  10.872 -1.0120 -2.5113  2.9386
  861MPD2    H112643   3.483   3.384  10.578 -0.9590  2.4869  1.9137
  861MPD2    H212644   3.672   3.051  10.737  3.4149 -0.5592  0.3364
  861MPD2    H312645   3.508   3.141  10.611 -1.2255  0.8479  0.5227
  861MPD2     N12646   3.588   3.569  10.715  0.5903  0.4651 -0.0646
  861MPD2    H512647   3.502   3.596  10.669 -1.8268  0.4676  4.4247
  861MPD2    N112648   3.849   3.197  10.897  0.0824  0.0413 -0.4062
  861MPD2    H712649   3.908   3.269  10.938  0.2554 -1.0997  1.3814
  862MPD2     C12650   3.680   3.788  10.261  0.2788 -0.1295  0.5535
  862MPD2    C112651   3.766   3.783  10.371 -0.1555  0.1174  0.8109
  862MPD2    C212652   3.840   3.670  10.389  0.3141 -0.3873  0.0680
  862MPD2    C312653   3.824   3.559  10.306 -0.1720  0.6361 -0.4523
  862MPD2    C412654   3.740   3.563  10.200 -0.0909 -0.3047 -0.1810
  862MPD2    C512655   3.670   3.678  10.176  0.2220 -0.2801 -0.3769
  862MPD2     H12656   3.907   3.669  10.475 -0.1772  1.8484  0.4769
  862MPD2    H112657   3.728   3.488  10.124 -0.4035  0.1752 -0.6065
  862MPD2    H212658   3.606   3.866  10.255  0.2147 -0.3292 -1.1229
  862MPD2    H312659   3.602   3.678  10.092  1.9131  0.1923 -1.7434
  862MPD2     N12660   3.881   3.445  10.342  0.0579 -0.3032  0.6796
  862MPD2    H512661   3.851   3.364  10.289  0.0250  2.2239 -3.2262
  862MPD2    N112662   3.769   3.879  10.476 -0.0448  0.2778 -0.1355
  862MPD2    H712663   3.821   3.856  10.560 -0.5774 -1.6687 -0.3414
  863MPD2     C12664   2.564   1.244  16.882  0.1632 -0.0250 -0.2648
  863MPD2    C112665   2.628   1.330  16.794 -0.2188 -0.0234 -0.2400
  863MPD2    C212666   2.764   1.347  16.797 -0.4032 -0.5767  0.0354
  863MPD2    C312667   2.837   1.274  16.890 -0.0008 -0.5383 -0.1083
  863MPD2    C412668   2.773   1.180  16.966 -0.3597 -0.0967 -0.5174
  863MPD2    C512669   2.640   1.157  16.952 -0.0089 -0.1504  0.0339
  863MPD2     H12670   2.802   1.427  16.736  1.4265 -1.7036 -0.3111
  863MPD2    H112671   2.831   1.118  17.034  1.8892 -0.1882 -2.5419
  863MPD2    H212672   2.456   1.252  16.895  0.0203  0.2828 -1.5686
  863MPD2    H312673   2.585   1.082  17.009  0.5169 -1.4080 -1.1003
  863MPD2     N12674   2.977   1.295  16.915 -0.2316  0.0923  0.2243
  863MPD2    H512675   3.021   1.232  16.981  2.5014  0.1741 -1.4901
  863MPD2    N112676   2.541   1.408  16.712  0.1919 -0.1246 -0.6066
  863MPD2    H712677   2.442   1.389  16.711  0.4423 -1.3669 -1.9106
  864MPD2     C12678   3.378   2.821  17.035 -0.5822 -0.0236 -0.1280
  864MPD2    C112679   3.469   2.763  16.950  0.4603  0.2093  1.0998
  864MPD2    C212680   3.516   2.844  16.841 -0.4068  0.1656  0.8731
  864MPD2    C312681   3.502   2.986  16.845 -0.0398  0.2906 -0.1344
  864MPD2    C412682   3.433   3.038  16.955  0.4061 -0.4316  0.1583
  864MPD2    C512683   3.370   2.960  17.045  0.5166 -0.2034 -0.8170
  864MPD2     H12684   3.585   2.801  16.770 -1.8001  1.0148 -0.9825
  864MPD2    H112685   3.412   3.144  16.962  1.7193 -0.0970 -1.2299
  864MPD2    H212686   3.318   2.762  17.104 -2.3043 -1.4952 -2.8729
  864MPD2    H312687   3.305   3.004  17.119  0.4625  1.4113 -1.8178
  864MPD2     N12688   3.543   3.076  16.738  0.4316 -0.5851 -0.2277
  864MPD2    H512689   3.531   3.177  16.744  0.3716 -0.5746 -0.5219
  864MPD2    N112690   3.483   2.620  16.938 -0.0996 -0.4352 -0.1793
  864MPD2    H712691   3.423   2.564  16.999 -2.0780  1.4334 -0.4449
  865MPD2     C12692   3.645   3.505  15.958 -0.0780  0.2543 -0.3050
  865MPD2    C112693   3.668   3.406  16.053 -0.1212 -0.1577  0.0605
  865MPD2    C212694   3.614   3.411  16.183 -0.6411 -0.1570 -0.5735
  865MPD2    C312695   3.570   3.533  16.230  0.2682  0.3313 -0.7859
  865MPD2    C412696   3.556   3.632  16.138 -0.8257  0.3039 -0.8926
  865MPD2    C512697   3.591   3.624  16.005  0.5032  0.3846 -0.3564
  865MPD2     H12698   3.605   3.322  16.244 -1.8701  0.1187 -0.3384
  865MPD2    H112699   3.516   3.729  16.166  0.1783  0.0831  1.3487
  865MPD2    H212700   3.671   3.486  15.855  1.8251  1.6869 -0.1053
  865MPD2    H312701   3.577   3.707  15.936 -0.5664  1.6644  1.4008
  865MPD2     N12702   3.530   3.563  16.365  1.0082 -0.2168  0.5734
  865MPD2    H512703   3.508   3.660  16.385 -0.2493 -0.2164 -0.8644
  865MPD2    N112704   3.735   3.296  15.994  0.0360  0.8903  0.2881
  865MPD2    H712705   3.748   3.294  15.894 -2.4640  0.9738 -0.0460
  866MPD2     C12706   0.072   3.727  11.371  0.1760 -0.8308 -0.1548
  866MPD2    C112707   0.046   3.708  11.235 -0.1726 -0.6206 -0.1579
  866MPD2    C212708   4.660   3.772  11.175  0.0364  0.3333  0.4120
  866MPD2    C312709   4.574   3.853  11.248  0.1056  0.4888  0.1082
  866MPD2    C412710   4.602   3.882  11.378 -0.5929  0.3922  0.0238
  866MPD2    C512711   4.710   3.824  11.436  0.4564  0.5473 -0.1759
  866MPD2     H12712   4.643   3.770  11.068  0.5348  0.0804  0.3386
  866MPD2    H112713   4.533   3.943  11.435  1.9213  1.6764  1.6688
  866MPD2    H212714   0.175   3.712  11.398  0.4598 -0.8733 -1.2668
  866MPD2    H312715   4.715   3.861  11.538 -1.1320  0.1890  0.0399
  866MPD2     N12716   4.457   3.912  11.189  0.2327  0.9723 -0.0736
  866MPD2    H512717   4.392   3.959  11.251 -0.3047 -0.1828  0.2469
  866MPD2    N112718   0.145   3.653  11.146 -0.0859 -0.2308 -0.8635
  866MPD2    H712719   0.238   3.642  11.185 -0.3712  2.1793  0.4689
  867MPD2     C12720   2.127   2.871  16.414  0.4216  0.4428  0.2037
  867MPD2    C112721   2.225   2.783  16.462  0.7495  0.6130  0.1963
  867MPD2    C212722   2.320   2.827  16.550 -0.2562 -0.1997  0.5937
  867MPD2    C312723   2.337   2.960  16.584  0.2476  0.3333  0.1239
  867MPD2    C412724   2.238   3.046  16.536 -0.3084 -1.3085  0.0666
  867MPD2    C512725   2.130   3.005  16.458  0.6541 -0.6157 -0.5128
  867MPD2     H12726   2.390   2.753  16.587 -1.4020 -2.0162 -0.9232
  867MPD2    H112727   2.230   3.152  16.556  1.7842 -1.1113 -0.0741
  867MPD2    H212728   2.054   2.830  16.345 -0.4456  0.8491  0.8821
  867MPD2    H312729   2.061   3.078  16.417 -0.1172 -1.6289 -1.0198
  867MPD2     N12730   2.442   3.019  16.656 -0.3209  0.2457 -0.1070
  867MPD2    H512731   2.445   3.121  16.664 -0.2160  0.1272  1.3253
  867MPD2    N112732   2.234   2.656  16.396 -0.0552 -1.1605 -0.7308
  867MPD2    H712733   2.162   2.642  16.327 -2.1211  4.0126  0.4236
  868MPD2     C12734   3.967   2.001  13.085  0.1333 -0.5946 -0.2816
  868MPD2    C112735   4.016   2.097  13.167  0.4513 -0.6748 -0.0646
  868MPD2    C212736   3.931   2.174  13.248  0.4460 -0.3889  0.5023
  868MPD2    C312737   3.797   2.148  13.243  0.5903  0.5085  0.3773
  868MPD2    C412738   3.752   2.057  13.151 -0.8068  0.7902 -0.3379
  868MPD2    C512739   3.833   1.979  13.078 -0.6594  0.2101  0.4479
  868MPD2     H12740   3.970   2.252  13.312  1.0145 -1.1502  1.0929
  868MPD2    H112741   3.648   2.030  13.140 -0.4784  0.1209 -1.8649
  868MPD2    H212742   4.026   1.947  13.013  0.0545 -0.6936 -0.2712
  868MPD2    H312743   3.795   1.899  13.015  0.8412 -1.1500  1.2548
  868MPD2     N12744   3.712   2.225  13.325  0.6468  0.2937 -0.1824
  868MPD2    H512745   3.753   2.298  13.383 -0.4216  1.5393 -0.9999
  868MPD2    N112746   4.155   2.126  13.160  0.4411 -0.3415 -0.6934
  868MPD2    H712747   4.215   2.048  13.135 -0.9124 -1.3684 -0.7374
  869MPD2     C12748   1.126   4.548   1.493  0.4751  0.0846  0.0482
  869MPD2    C112749   1.007   4.586   1.547 -0.3171  0.0807 -0.7571
  869MPD2    C212750   0.929   4.685   1.486  0.3194 -0.2693 -0.8149
  869MPD2    C312751   0.964   0.004   1.359  0.0359  0.5566  0.2118
  869MPD2    C412752   1.078   4.674   1.302 -0.1390  0.1455 -0.6183
  869MPD2    C512753   1.157   4.588   1.367  0.2574 -0.7514 -0.5992
  869MPD2     H12754   0.828   4.704   1.521  1.1213  2.0509  0.2096
  869MPD2    H112755   1.112   4.706   1.205 -0.1108 -2.0452 -1.3388
  869MPD2    H212756   1.189   4.476   1.543  0.7170  0.0202 -0.3517
  869MPD2    H312757   1.253   4.565   1.323  0.4728  0.4962 -0.7801
  869MPD2     N12758   0.895   0.111   1.294  0.1283  0.0446  0.0029
  869MPD2    H512759   0.922   0.135   1.199 -0.8926 -1.7687 -0.7517
  869MPD2    N112760   0.956   4.523   1.661  0.0814  0.0607 -0.6141
  869MPD2    H712761   1.030   4.463   1.698  0.5953  0.6188 -0.7325
  870MPD2     C12762   4.258   3.665   1.290 -0.4952 -0.2280  0.4847
  870MPD2    C112763   4.392   3.663   1.302 -0.0176  0.1296 -1.5627
  870MPD2    C212764   4.466   3.748   1.227 -0.1697  0.1828 -0.1179
  870MPD2    C312765   4.408   3.823   1.125  0.2462  0.4831 -0.5797
  870MPD2    C412766   4.270   3.822   1.114 -0.6270  0.6301  0.2563
  870MPD2    C512767   4.199   3.750   1.199 -0.0899 -0.1758  0.8188
  870MPD2     H12768   4.574   3.732   1.228 -0.0909  0.7010 -0.1382
  870MPD2    H112769   4.210   3.886   1.051  0.6751  0.2274 -1.3990
  870MPD2    H212770   4.191   3.612   1.357 -0.4604  0.4129  1.0240
  870MPD2    H312771   4.092   3.760   1.194  0.2757  2.1049 -2.5258
  870MPD2     N12772   4.494   3.898   1.044  0.7849 -0.0169 -0.7953
  870MPD2    H512773   4.595   3.886   1.044  0.7900 -0.0804  1.0151
  870MPD2    N112774   4.443   3.578   1.398 -0.3926 -0.1310  0.4156
  870MPD2    H712775   4.389   3.508   1.447 -1.4275  0.4436  0.0887
  871MPD2     C12776   1.121   2.947  15.984 -0.6424 -0.1058 -0.0831
  871MPD2    C112777   1.128   2.885  16.106 -0.3571 -0.5657 -0.1934
  871MPD2    C212778   1.143   2.745  16.114 -0.1537  0.1905  0.0825
  871MPD2    C312779   1.136   2.671  15.995 -0.2884  0.5365 -0.7665
  871MPD2    C412780   1.128   2.734  15.869 -0.4882 -0.0702  0.3624
  871MPD2    C512781   1.118   2.872  15.865 -0.4112 -0.4021  0.0920
  871MPD2     H12782   1.157   2.694  16.209 -0.1353  0.6940  0.3482
  871MPD2    H112783   1.116   2.683  15.774 -1.9589  0.7576  0.1083
  871MPD2    H212784   1.140   3.053  15.981 -4.0056  0.4670 -1.1012
  871MPD2    H312785   1.129   2.926  15.772  1.6526 -0.4954  0.2926
  871MPD2     N12786   1.140   2.529  15.993  0.0407 -0.6409  0.4672
  871MPD2    H512787   1.138   2.479  16.081  0.8952 -1.2326  0.1525
  871MPD2    N112788   1.140   2.980  16.209  0.9611 -0.4034 -0.6454
  871MPD2    H712789   1.137   3.075  16.173 -2.4056 -0.3063 -0.1106
  872MPD2     C12790   2.134   0.514  14.158  0.2435  0.4672 -0.4050
  872MPD2    C112791   2.101   0.605  14.067 -0.4360 -0.2440  0.3708
  872MPD2    C212792   1.975   0.660  14.065  0.0617  0.3385 -0.3766
  872MPD2    C312793   1.882   0.638  14.171  0.0063  0.6624 -0.4457
  872MPD2    C412794   1.928   0.557  14.277 -0.4305  0.3900 -1.1374
  872MPD2    C512795   2.044   0.488  14.259 -0.3708  0.5600 -0.5216
  872MPD2     H12796   1.951   0.718  13.977 -2.1486  0.6513  0.4434
  872MPD2    H112797   1.861   0.548  14.362  0.7266 -2.3354 -0.4961
  872MPD2    H212798   2.226   0.458  14.166  1.0562  1.8910  0.0509
  872MPD2    H312799   2.071   0.415  14.334  1.1371  1.3402 -0.3076
  872MPD2     N12800   1.756   0.705  14.174  0.4609  0.3186 -0.0252
  872MPD2    H512801   1.700   0.695  14.258 -0.3451 -1.5903 -0.8108
  872MPD2    N112802   2.192   0.632  13.958 -0.1125 -0.2879 -1.0685
  872MPD2    H712803   2.163   0.712  13.903 -0.7755 -0.8667 -1.5619
  873MPD2     C12804   3.865   0.443   1.199  0.4047  0.0305  0.0391
  873MPD2    C112805   3.913   0.548   1.263 -1.0794  0.3037 -0.0084
  873MPD2    C212806   4.033   0.524   1.331  0.6910  0.0989 -0.2222
  873MPD2    C312807   4.109   0.414   1.323 -0.5277  0.7826 -0.1963
  873MPD2    C412808   4.060   0.313   1.244  0.3688 -0.2403  0.8647
  873MPD2    C512809   3.936   0.332   1.190 -0.1575 -0.6166 -0.1774
  873MPD2     H12810   4.060   0.610   1.392  1.0805 -1.2928  1.5818
  873MPD2    H112811   4.104   0.215   1.260  1.2782 -0.2929 -2.0702
  873MPD2    H212812   3.763   0.452   1.163  1.0579 -1.9047 -2.2316
  873MPD2    H312813   3.891   0.251   1.134 -2.6255  0.2943  0.4789
  873MPD2     N12814   4.228   0.385   1.400  0.5978  0.1139  0.1972
  873MPD2    H512815   4.271   0.295   1.386 -0.5666 -0.5946  1.1075
  873MPD2    N112816   3.833   0.664   1.291  0.4793  0.5449 -0.1269
  873MPD2    H712817   3.732   0.653   1.294  0.5235  0.3359  0.5097
  874MPD2     C12818   2.755   0.550  16.535 -0.5801 -0.1845  0.1976
  874MPD2    C112819   2.866   0.478  16.565 -0.1132 -0.1622  0.7520
  874MPD2    C212820   2.989   0.519  16.512  0.1169 -0.6849 -0.8415
  874MPD2    C312821   2.998   0.642  16.445 -0.0989 -0.0625 -0.2088
  874MPD2    C412822   2.881   0.714  16.417  0.2584  0.4498 -0.3747
  874MPD2    C512823   2.757   0.673  16.465 -0.2390  0.2476 -0.4195
  874MPD2     H12824   3.075   0.453  16.516 -0.0614 -0.8662  0.0545
  874MPD2    H112825   2.880   0.806  16.360  0.9164  0.5607 -0.1968
  874MPD2    H212826   2.657   0.516  16.568  0.4917 -3.0021  0.4634
  874MPD2    H312827   2.670   0.737  16.455  1.5968  2.7617 -0.1935
  874MPD2     N12828   3.131   0.684  16.396 -0.3895  0.3844 -0.6880
  874MPD2    H512829   3.208   0.625  16.427  0.1503  1.0387 -0.7822
  874MPD2    N112830   2.847   0.355  16.634 -0.3021  0.0203  0.2325
  874MPD2    H712831   2.752   0.345  16.669  0.0590 -1.3048  0.8298
  875MPD2     C12832   4.353   3.778  14.314 -0.3898  0.0324  0.2506
  875MPD2    C112833   4.417   3.891  14.260  0.1952 -0.0061 -0.3245
  875MPD2    C212834   4.453   3.995  14.345  0.0530  0.1097  0.2030
  875MPD2    C312835   4.422   3.992  14.480 -0.1587 -0.7668 -0.2830
  875MPD2    C412836   4.349   3.891  14.528  0.3414 -0.1547 -0.2499
  875MPD2    C512837   4.310   3.789  14.447  0.0303 -0.0785 -0.0593
  875MPD2     H12838   4.514   4.073  14.301 -0.9666  0.9355  0.2494
  875MPD2    H112839   4.312   3.900  14.629  2.2105 -1.1706  0.5362
  875MPD2    H212840   4.325   3.685  14.267  0.6015  0.2646 -0.8168
  875MPD2    H312841   4.245   3.714  14.490 -0.2315 -0.3654 -0.9548
  875MPD2     N12842   4.471   4.099  14.567 -0.6375  0.0552 -0.0635
  875MPD2    H512843   4.472   4.078  14.666 -2.5318  0.2560  0.0161
  875MPD2    N112844   4.438   3.910  14.117  0.1588  0.5471 -0.2485
  875MPD2    H712845   4.485   3.995  14.088  1.3782 -0.6070 -1.7228
  876MPD2     C12846   3.520   0.564  15.925 -0.4399 -0.3800  0.5964
  876MPD2    C112847   3.623   0.540  15.834 -0.2988 -0.5880 -1.1884
  876MPD2    C212848   3.655   0.405  15.800 -0.0364  0.0436  0.2206
  876MPD2    C312849   3.602   0.298  15.866 -0.4476 -0.4449  0.0059
  876MPD2    C412850   3.507   0.329  15.957 -0.5230  0.1953 -0.1115
  876MPD2    C512851   3.465   0.457  15.987  0.2019  0.7649 -0.3375
  876MPD2     H12852   3.748   0.385  15.749  1.0958  1.3368  1.7885
  876MPD2    H112853   3.462   0.251  16.017  1.2271  0.9404  2.2032
  876MPD2    H212854   3.479   0.661  15.954 -1.3351 -0.2589 -1.0239
  876MPD2    H312855   3.384   0.458  16.059  1.8675  1.5943  1.5331
  876MPD2     N12856   3.643   0.170  15.834  0.2179 -0.6126 -0.3122
  876MPD2    H512857   3.717   0.170  15.764  0.9016 -0.0049  0.4068
  876MPD2    N112858   3.689   0.650  15.787 -0.0593  0.4508  0.1403
  876MPD2    H712859   3.645   0.733  15.826  1.6313  1.2526  0.3119
  877MPD2     C12860   3.480   1.119  15.219  0.2158 -0.3150 -0.1220
  877MPD2    C112861   3.607   1.078  15.212 -0.0749 -0.0209 -0.0643
  877MPD2    C212862   3.667   1.070  15.083  0.3030 -0.4412  0.1829
  877MPD2    C312863   3.589   1.103  14.970  0.2142  0.0097  0.2836
  877MPD2    C412864   3.464   1.155  14.987 -0.0785 -0.1813  0.7555
  877MPD2    C512865   3.411   1.162  15.114 -1.0612  0.6868 -0.6746
  877MPD2     H12866   3.762   1.018  15.076 -0.1826 -1.2764 -0.2065
  877MPD2    H112867   3.398   1.172  14.903  1.9201  2.6968 -0.2580
  877MPD2    H212868   3.426   1.113  15.313  1.3952  0.9175  0.6447
  877MPD2    H312869   3.306   1.183  15.131 -0.6787  2.3125 -0.3579
  877MPD2     N12870   3.628   1.076  14.842 -0.4594  0.2298  0.5954
  877MPD2    H512871   3.552   1.082  14.775 -0.0334  1.9357  0.2751
  877MPD2    N112872   3.692   1.034  15.323  0.2358  0.5276 -0.2169
  877MPD2    H712873   3.790   1.011  15.309 -0.0307 -1.0066  0.4711
  878MPD2     C12874   3.115   4.660  12.961  0.0206 -0.3432  0.0502
  878MPD2    C112875   3.154   0.065  12.963  0.4018 -0.0052  0.0409
  878MPD2    C212876   3.133   0.137  13.081 -0.2177 -0.1489 -0.2818
  878MPD2    C312877   3.078   0.077  13.190  0.1638  0.2458  1.1721
  878MPD2    C412878   3.039   4.674  13.183 -0.1929 -0.4956 -0.1932
  878MPD2    C512879   3.044   4.608  13.066 -0.0792  0.8284 -0.3878
  878MPD2     H12880   3.168   0.238  13.098  2.9645 -1.0124 -1.6184
  878MPD2    H112881   2.985   4.618  13.259  1.4388 -0.5236  0.9334
  878MPD2    H212882   3.128   4.602  12.871  0.3453 -0.7281  0.3436
  878MPD2    H312883   3.011   4.506  13.047  3.0455 -0.6220  1.9518
  878MPD2     N12884   3.069   0.162  13.312 -0.4126 -0.5852 -0.6946
  878MPD2    H512885   3.109   0.256  13.307 -1.6345  0.0406  0.9812
  878MPD2    N112886   3.203   0.118  12.846  0.9148 -0.4004  1.4855
  878MPD2    H712887   3.196   0.052  12.769 -0.2674 -0.6439  1.8081
  879MPD2     C12888   3.854   1.028  17.230 -0.5486  0.0521 -0.0651
  879MPD2    C112889   3.766   1.003  17.331  0.6092 -0.2392 -0.7307
  879MPD2    C212890   3.650   0.939  17.303  0.8009 -0.1796  1.5300
  879MPD2    C312891   3.601   0.904  17.181  1.0422 -0.1833  0.1381
  879MPD2    C412892   3.689   0.929  17.073  0.3478 -0.1704 -0.2098
  879MPD2    C512893   3.814   0.987  17.106  1.1109  0.0939 -0.0776
  879MPD2     H12894   3.587   0.921  17.390  3.0701 -0.3459  3.1269
  879MPD2    H112895   3.659   0.900  16.973 -0.4349 -0.5247  0.1281
  879MPD2    H212896   3.945   1.088  17.228  1.4139 -2.8895  0.4713
  879MPD2    H312897   3.888   0.996  17.028  0.5893  0.1152 -0.5759
  879MPD2     N12898   3.469   0.851  17.160  0.6679 -0.3166  0.6076
  879MPD2    H512899   3.433   0.834  17.067  1.2110  0.9400  0.1684
  879MPD2    N112900   3.815   1.033  17.460  0.5624 -0.3087  0.1156
  879MPD2    H712901   3.899   1.089  17.473  1.1237 -0.7904 -1.4360
  880MPD2     C12902   4.598   2.891   0.185  0.1507  0.8117  0.1575
  880MPD2    C112903   4.598   3.005   0.266  0.1219  0.7850 -0.4222
  880MPD2    C212904   4.511   3.006   0.373 -0.1097 -0.3908 -0.0250
  880MPD2    C312905   4.434   2.892   0.402 -0.1053  0.2748  0.1954
  880MPD2    C412906   4.435   2.784   0.322  0.2938  0.2492 -0.4733
  880MPD2    C512907   4.517   2.782   0.212 -0.5405 -0.0454 -0.2295
  880MPD2     H12908   4.509   3.079   0.453  0.6635 -0.2907 -0.0892
  880MPD2    H112909   4.378   2.696   0.348  0.1946  0.6539  0.6781
  880MPD2    H212910   4.673   2.870   0.109 -0.7867 -0.6739 -0.3590
  880MPD2    H312911   4.534   2.690   0.158  1.4637  0.7551 -0.9426
  880MPD2     N12912   4.380   2.890   0.538 -0.0706  0.0943  0.8169
  880MPD2    H512913   4.397   2.967   0.601 -0.2975  1.1479 -0.4128
  880MPD2    N112914   4.678   3.117   0.234 -0.4611 -0.3065 -0.2310
  880MPD2    H712915   0.011   3.107   0.152  1.8512 -2.5368  1.6797
  881MPD2     C12916   0.176   3.215  17.134  0.4843  0.5868 -0.2041
  881MPD2    C112917   0.192   3.347  17.161  0.0964 -0.3815  0.4454
  881MPD2    C212918   0.179   3.381  17.297 -0.8602  0.1904 -0.1456
  881MPD2    C312919   0.157   3.286  17.395  0.5591 -0.5817 -0.0859
  881MPD2    C412920   0.145   3.156  17.356 -0.1497  0.7073  0.2321
  881MPD2    C512921   0.158   3.119  17.229  0.2749 -0.4704 -0.4067
  881MPD2     H12922   0.195   3.481  17.334  1.2490 -0.2488  0.1371
  881MPD2    H112923   0.124   3.088  17.438 -1.1473 -0.1293 -0.7140
  881MPD2    H212924   0.200   3.182  17.034  0.8640  1.6347 -0.4607
  881MPD2    H312925   0.156   3.012  17.213  0.9526 -0.4137 -0.8773
  881MPD2     N12926   0.128   3.318  17.535 -0.2765  0.2735  0.5954
  881MPD2    H512927   0.102   3.239  17.593 -0.4067 -0.4633 -0.4649
  881MPD2    N112928   0.265   3.425  17.069 -0.1422 -0.3100 -0.0734
  881MPD2    H712929   0.290   3.387  16.979 -2.2886 -0.4035 -0.6377
  882MPD2     C12930   3.642   0.679  14.068  0.2988  0.3173  0.0912
  882MPD2    C112931   3.567   0.699  14.180 -0.5028  0.1715 -0.3366
  882MPD2    C212932   3.449   0.632  14.202 -0.3838 -0.1302 -0.2434
  882MPD2    C312933   3.402   0.532  14.117  0.2872 -0.4479 -0.3201
  882MPD2    C412934   3.488   0.502  14.010 -0.2520  0.3771 -0.6011
  882MPD2    C512935   3.597   0.575  13.985 -0.0568  0.1720 -0.7523
  882MPD2     H12936   3.392   0.643  14.294 -2.1095  0.7978 -1.4409
  882MPD2    H112937   3.457   0.414  13.954  1.8785 -0.2168 -0.8509
  882MPD2    H212938   3.741   0.719  14.047 -0.0399  1.3886  0.5621
  882MPD2    H312939   3.665   0.549  13.904 -1.4026 -0.7462 -1.5704
  882MPD2     N12940   3.286   0.457  14.123 -0.1212 -0.5284 -0.0137
  882MPD2    H512941   3.292   0.374  14.065  0.0910 -0.5612  0.0564
  882MPD2    N112942   3.627   0.787  14.273  0.1828 -0.2871 -0.2824
  882MPD2    H712943   3.716   0.826  14.244 -1.0282  2.2972 -0.5724
  883MPD2     C12944   0.699   0.988  16.526 -0.2241 -0.3181 -0.3706
  883MPD2    C112945   0.791   0.957  16.430 -0.2578 -0.2761 -0.0901
  883MPD2    C212946   0.908   0.891  16.465  0.5535  0.5507 -0.2812
  883MPD2    C312947   0.945   0.862  16.595 -0.8466 -0.7391 -0.4442
  883MPD2    C412948   0.846   0.890  16.691 -0.5016  0.6457 -0.1410
  883MPD2    C512949   0.729   0.947  16.655 -0.0251 -0.0262 -0.5116
  883MPD2     H12950   0.973   0.865  16.382  0.2911  1.3773 -0.7435
  883MPD2    H112951   0.854   0.872  16.798 -0.2671  0.5341 -0.1772
  883MPD2    H212952   0.605   1.036  16.503  0.3806  0.2099 -1.7404
  883MPD2    H312953   0.665   0.987  16.733 -1.1354 -1.2164 -0.8239
  883MPD2     N12954   1.073   0.797  16.624 -0.7021  0.3819 -0.3915
  883MPD2    H512955   1.137   0.792  16.545  1.3289  0.3345  1.2818
  883MPD2    N112956   0.781   0.987  16.295  0.3404  0.5037  0.7359
  883MPD2    H712957   0.851   0.950  16.233 -1.0948 -1.5731  0.3740
  884MPD2     C12958   2.901   1.468  15.308 -0.2720 -0.0925 -0.3631
  884MPD2    C112959   2.886   1.602  15.308 -0.2221  0.1319  0.2571
  884MPD2    C212960   2.767   1.655  15.262 -0.1420 -0.1604 -0.1505
  884MPD2    C312961   2.657   1.572  15.243 -0.1386 -0.1795 -0.2471
  884MPD2    C412962   2.675   1.431  15.253  0.1945 -1.0664  0.1476
  884MPD2    C512963   2.801   1.384  15.273  0.2266 -0.3212  0.2307
  884MPD2     H12964   2.766   1.763  15.250 -1.8989 -0.1309  0.3213
  884MPD2    H112965   2.600   1.354  15.241  1.0431 -1.4249 -2.8320
  884MPD2    H212966   2.997   1.420  15.324  0.5615  0.8940 -2.3840
  884MPD2    H312967   2.824   1.279  15.283 -1.5906 -0.8598 -1.2398
  884MPD2     N12968   2.536   1.625  15.210  0.5347 -0.2368  0.2476
  884MPD2    H512969   2.542   1.726  15.209  1.4289 -0.2843  1.3543
  884MPD2    N112970   2.987   1.687  15.353 -0.0814 -0.2899 -0.7093
  884MPD2    H712971   2.972   1.788  15.361  0.4251 -0.2898  0.1840
  885MPD2     C12972   0.780   1.823   0.225 -0.5281 -0.2097 -0.3468
  885MPD2    C112973   0.839   1.720   0.154 -0.1741 -0.6050  0.0946
  885MPD2    C212974   0.850   1.734   0.018 -0.2652  1.0484  0.1017
  885MPD2    C312975   0.813   1.854  17.659  0.4682 -0.5665  0.1767
  885MPD2    C412976   0.748   1.955   0.027  0.0051  0.6552  0.3132
  885MPD2    C512977   0.736   1.943   0.161  0.1759 -0.6391  0.2112
  885MPD2     H12978   0.894   1.659  17.656 -0.4738  1.7341 -0.8341
  885MPD2    H112979   0.717   2.042  17.673 -4.0108 -0.6136  0.6008
  885MPD2    H212980   0.773   1.838   0.333  0.6744  0.2867 -0.3385
  885MPD2    H312981   0.696   2.033   0.207 -0.8795 -1.1861  0.3604
  885MPD2     N12982   0.837   1.866  17.522 -0.5815 -0.2615  0.9189
  885MPD2    H512983   0.906   1.799  17.489  0.8565  1.6746 -0.0107
  885MPD2    N112984   0.886   1.610   0.227  0.1034  0.2321  0.2019
  885MPD2    H712985   0.902   1.626   0.326 -1.0647  0.3833  0.3701
  886MPD2     C12986   2.015   0.212  15.086  1.1408 -0.4006  0.5688
  886MPD2    C112987   2.145   0.169  15.082 -0.0472 -0.5004 -0.1018
  886MPD2    C212988   2.232   0.238  15.005  0.1173  0.0659 -0.6449
  886MPD2    C312989   2.192   0.339  14.920  0.0425  0.1622 -0.4346
  886MPD2    C412990   2.059   0.365  14.905  1.7646  0.3480  0.6153
  886MPD2    C512991   1.969   0.305  14.996 -0.0338  0.1188 -0.1487
  886MPD2     H12992   2.335   0.207  15.013 -0.0803 -0.6570 -0.9051
  886MPD2    H112993   2.030   0.447  14.840  3.3909  1.5995  1.4662
  886MPD2    H212994   1.948   0.153  15.148 -0.6238 -0.6353 -1.5971
  886MPD2    H312995   1.861   0.315  14.997 -0.1500 -1.1476 -0.1656
  886MPD2     N12996   2.279   0.416  14.839  0.8014  0.2208  0.6497
  886MPD2    H512997   2.232   0.467  14.765  0.7567 -1.0730 -0.2284
  886MPD2    N112998   2.194   0.066  15.162 -0.1310 -0.3905  0.5170
  886MPD2    H712999   2.284   0.026  15.136 -1.4126 -1.6124 -2.0960
  887MPD2     C13000   2.799   4.502  15.124 -0.4980 -0.1570 -0.4192
  887MPD2    C113001   2.738   4.599  15.210 -0.6728 -0.1669 -0.2496
  887MPD2    C213002   2.801   4.719  15.231  0.8344  0.0854 -0.2665
  887MPD2    C313003   2.918   0.028  15.177  0.3157 -0.3337  0.0190
  887MPD2    C413004   2.966   4.675  15.076  0.2772  0.6882  0.3861
  887MPD2    C513005   2.914   4.546  15.060  0.7588  0.3613  0.2185
  887MPD2     H13006   2.760   0.070  15.295  2.7330  1.2912 -0.4990
  887MPD2    H113007   3.065   4.699  15.040 -0.5676  0.6354 -1.9484
  887MPD2    H213008   2.760   4.403  15.102  1.4868 -1.3696  1.5938
  887MPD2    H313009   2.972   4.469  15.011  2.9228  0.8011  2.0815
  887MPD2     N13010   2.991   0.143  15.216  0.2603  0.3141 -0.3640
  887MPD2    H513011   3.064   0.169  15.150  0.9201 -1.2530 -0.2539
  887MPD2    N113012   2.608   4.588  15.266  0.5626  0.2888  0.9149
  887MPD2    H713013   2.573   4.669  15.315 -0.5950 -0.6567  1.6743
  888MPD2     C13014   4.602   0.276  14.934  1.0820 -0.2312  0.0701
  888MPD2    C113015   0.003   0.316  14.994 -0.5873  1.1665  0.6214
  888MPD2    C213016   0.029   0.455  14.984  0.1547 -0.4358  0.4234
  888MPD2    C313017   4.664   0.539  14.920 -0.1889  0.0769 -0.2200
  888MPD2    C413018   4.555   0.496  14.849 -0.2529 -0.1507  0.7230
  888MPD2    C513019   4.527   0.364  14.861 -0.6624 -0.2209  0.3804
  888MPD2     H13020   0.120   0.496  15.026  1.1446 -0.2889 -1.8702
  888MPD2    H113021   4.499   0.557  14.779 -2.2798 -1.0484  1.5600
  888MPD2    H213022   4.577   0.171  14.922 -0.2842 -0.4456  4.9697
  888MPD2    H313023   4.445   0.333  14.798 -1.1167  0.6187  0.5582
  888MPD2     N13024   4.690   0.676  14.906 -0.6492 -0.4738  0.0229
  888MPD2    H513025   0.059   0.709  14.919 -0.9707  0.8619 -1.1056
  888MPD2    N113026   0.094   0.223  15.045 -0.4471  0.3648 -0.9369
  888MPD2    H713027   0.182   0.264  15.072 -0.7518 -0.4216  1.2604
  889MPD2     C13028   3.664   4.623  12.515  0.6526  0.2482 -0.2105
  889MPD2    C113029   3.768   4.614  12.602 -0.2071 -0.1815  0.4526
  889MPD2    C213030   3.780   4.705  12.702  0.2661 -0.0650 -0.0814
  889MPD2    C313031   3.699   0.090  12.707  0.6968 -0.2032  0.4975
  889MPD2    C413032   3.620   0.104  12.603 -0.5864 -0.1007 -0.4374
  889MPD2    C513033   3.595   0.012  12.510  0.3868 -0.1152 -0.5577
  889MPD2     H13034   3.849   4.677  12.781 -0.8844 -2.3489  0.1228
  889MPD2    H113035   3.555   0.191  12.596  0.7878  0.9764  0.2398
  889MPD2    H213036   3.646   4.561  12.428 -0.8847 -0.0505  0.3249
  889MPD2    H313037   3.517   0.030  12.437  0.7854  4.4408  0.1380
  889MPD2     N13038   3.727   0.193  12.802 -0.0101  0.3856  0.5382
  889MPD2    H513039   3.807   0.186  12.864  2.4839  1.0369 -2.6142
  889MPD2    N113040   3.834   4.490  12.597  0.6952 -0.1184 -0.4049
  889MPD2    H713041   3.795   4.437  12.519  1.2651 -0.9052 -0.1485
  890MPD2     C13042   3.529   1.704  15.083 -0.5809  0.4105  0.5213
  890MPD2    C113043   3.610   1.776  15.176  0.5400  0.5236  0.5453
  890MPD2    C213044   3.642   1.714  15.299  0.2476 -0.8393  0.4086
  890MPD2    C313045   3.592   1.585  15.329  0.3712 -0.7843  0.3770
  890MPD2    C413046   3.516   1.522  15.233  0.3461  0.2881 -0.6838
  890MPD2    C513047   3.473   1.583  15.117  0.6079  0.5585  0.1660
  890MPD2     H13048   3.693   1.771  15.376 -0.5236 -0.5857  0.7379
  890MPD2    H113049   3.466   1.428  15.255  0.2762  0.0144 -2.0670
  890MPD2    H213050   3.497   1.746  14.988 -0.5256 -0.4635  0.1109
  890MPD2    H313051   3.408   1.531  15.047 -2.8032  2.6739  1.7434
  890MPD2     N13052   3.617   1.530  15.456 -0.0108  0.7557 -0.4434
  890MPD2    H513053   3.683   1.579  15.516 -1.2245  0.9682  0.7361
  890MPD2    N113054   3.643   1.911  15.151  1.1042  0.0887 -0.0552
  890MPD2    H713055   3.608   1.945  15.063  0.4238 -2.7418 -0.8821
  891MPD2     C13056   1.537   4.063  16.582  1.2158 -0.0421 -0.0958
  891MPD2    C113057   1.543   4.176  16.661 -0.6297 -0.3265  0.9391
  891MPD2    C213058   1.649   4.205  16.749 -0.0538 -0.0594 -0.2199
  891MPD2    C313059   1.755   4.123  16.744 -0.3325  0.0806  0.4809
  891MPD2    C413060   1.746   3.999  16.687  0.1721 -0.0045  0.1048
  891MPD2    C513061   1.640   3.973  16.605 -0.8849 -0.2046 -0.2275
  891MPD2     H13062   1.656   4.296  16.808 -0.2335  0.4264 -0.9469
  891MPD2    H113063   1.821   3.921  16.695 -0.0924 -0.3711 -1.0359
  891MPD2    H213064   1.465   4.033  16.507 -0.3099  0.7585  1.0356
  891MPD2    H313065   1.651   3.877  16.556 -0.2258 -0.0115 -0.4581
  891MPD2     N13066   1.867   4.157  16.825  0.2573  0.1060 -0.5065
  891MPD2    H513067   1.861   4.249  16.869 -2.1078 -0.9146  1.3062
  891MPD2    N113068   1.423   4.263  16.658 -0.2207 -0.0220  0.1068
  891MPD2    H713069   1.344   4.240  16.598  0.9665  1.4584 -2.0288
  892MPD2     C13070   2.824   1.127  14.228 -0.7881 -0.1304  0.0332
  892MPD2    C113071   2.719   1.040  14.242 -0.5571 -0.7023 -0.4003
  892MPD2    C213072   2.740   0.905  14.237  0.1314 -0.4747  0.4354
  892MPD2    C313073   2.859   0.854  14.191 -0.3688  0.1005 -0.3944
  892MPD2    C413074   2.959   0.943  14.159 -0.2814  0.4197 -0.0962
  892MPD2    C513075   2.938   1.078  14.175 -0.0436 -0.6918 -0.7980
  892MPD2     H13076   2.654   0.849  14.272  0.1781 -0.1331  1.1020
  892MPD2    H113077   3.062   0.924  14.132  0.4028  3.3187  0.5008
  892MPD2    H213078   2.812   1.234  14.241 -2.2551 -0.3353  0.4173
  892MPD2    H313079   3.026   1.140  14.164 -2.1746  2.1327 -1.8082
  892MPD2     N13080   2.878   0.718  14.175  0.2951  0.6043 -0.0520
  892MPD2    H513081   2.973   0.686  14.159 -0.1221  0.8123 -2.8686
  892MPD2    N113082   2.591   1.089  14.280 -0.0254  0.1111  0.3118
  892MPD2    H713083   2.518   1.027  14.313  0.1819  0.0477  0.6510
  893MPD2     C13084   4.143   0.096   1.582  0.0523 -0.0416 -0.6880
  893MPD2    C113085   4.238   0.043   1.655  0.3520  0.3120 -0.3989
  893MPD2    C213086   4.258   0.094   1.786 -0.4610 -0.0567  0.0211
  893MPD2    C313087   4.175   0.196   1.835 -0.3278  0.3133  0.1226
  893MPD2    C413088   4.083   0.254   1.751  0.3099  0.5153  0.1223
  893MPD2    C513089   4.065   0.205   1.622 -0.8304 -0.4736  0.0292
  893MPD2     H13090   4.340   0.052   1.843  1.8726  2.3871 -1.5653
  893MPD2    H113091   4.023   0.333   1.793 -1.3982 -1.7898  2.0270
  893MPD2    H213092   4.122   0.065   1.480  0.4949  0.0226 -0.8026
  893MPD2    H313093   3.999   0.243   1.545 -0.1024  1.5927  0.4330
  893MPD2     N13094   4.176   0.247   1.963 -0.2079  0.1871 -0.3962
  893MPD2    H513095   4.120   0.327   1.990  0.8185  0.4729  0.8607
  893MPD2    N113096   4.314   4.658   1.596 -0.5033  0.1667  0.2520
  893MPD2    H713097   4.284   4.619   1.507  1.1912 -1.0073  0.1986
  894MPD2     C13098   1.775   2.287   0.872  0.2922  0.2128  0.2940
  894MPD2    C113099   1.794   2.189   0.968 -0.1437 -0.1733 -0.1637
  894MPD2    C213100   1.912   2.127   0.987  0.8416 -0.2196  0.3281
  894MPD2    C313101   2.014   2.148   0.902  0.5497 -0.1502  0.4445
  894MPD2    C413102   1.995   2.238   0.799 -0.1080  0.1431 -0.6243
  894MPD2    C513103   1.879   2.308   0.787  0.7646 -0.0814  0.2891
  894MPD2     H13104   1.929   2.058   1.068  0.6097  2.1728  2.4010
  894MPD2    H113105   2.076   2.267   0.733 -1.2472  0.8692 -1.7130
  894MPD2    H213106   1.687   2.349   0.874 -1.6956 -2.5561 -1.0027
  894MPD2    H313107   1.875   2.383   0.709  0.0649  0.2989  0.6861
  894MPD2     N13108   2.130   2.080   0.924 -0.0305  0.0807  0.1048
  894MPD2    H513109   2.132   1.996   0.980 -0.2760  1.2073  1.8183
  894MPD2    N113110   1.680   2.167   1.049  0.5879  0.4353 -0.3971
  894MPD2    H713111   1.603   2.229   1.025 -1.5297 -2.5982 -1.4210
  895MPD2     C13112   1.944   0.288  13.888 -0.0513  0.3094  0.4526
  895MPD2    C113113   1.842   0.253  13.806  0.1194 -0.4225 -0.1098
  895MPD2    C213114   1.824   0.117  13.762  0.1445  0.5586  0.0662
  895MPD2    C313115   1.907   0.021  13.808 -0.2702  0.7245  0.3429
  895MPD2    C413116   2.007   0.058  13.906  0.3446  0.0496 -0.1477
  895MPD2    C513117   2.020   0.194  13.945 -0.0052  0.4992 -0.0783
  895MPD2     H13118   1.737   0.079  13.711  0.8798 -1.1101  0.0634
  895MPD2    H113119   2.067   4.712  13.962  1.0264  0.7754  0.0386
  895MPD2    H213120   1.965   0.389  13.922 -0.3192  0.1873  0.9734
  895MPD2    H313121   2.087   0.224  14.025  1.9228  0.9829 -1.8619
  895MPD2     N13122   1.911   4.624  13.740  0.3491  0.0378 -0.3159
  895MPD2    H513123   1.864   4.613  13.651 -0.6295  0.9614  0.0984
  895MPD2    N113124   1.759   0.351  13.756  0.2490  0.4735 -0.3199
  895MPD2    H713125   1.674   0.323  13.707 -0.2328  0.6369  0.4179
  896MPD2     C13126   3.885   2.386   0.785  0.2985  0.1690  0.2774
  896MPD2    C113127   3.790   2.474   0.840 -0.1719 -0.2285  0.0750
  896MPD2    C213128   3.675   2.418   0.896 -0.4862  0.3334 -0.3851
  896MPD2    C313129   3.649   2.285   0.885 -0.8014  0.1494  0.5512
  896MPD2    C413130   3.745   2.203   0.831 -0.1771  0.2725 -0.0675
  896MPD2    C513131   3.872   2.248   0.790 -0.2018  0.5463 -0.2867
  896MPD2     H13132   3.597   2.481   0.939 -1.1967  0.5397 -1.9838
  896MPD2    H113133   3.729   2.098   0.809 -0.6376  0.0061  1.5279
  896MPD2    H213134   3.976   2.428   0.745 -0.0858 -0.1835 -0.9615
  896MPD2    H313135   3.948   2.184   0.747  0.8367  2.0208 -0.6599
  896MPD2     N13136   3.524   2.241   0.935  0.6452  0.1626  0.1451
  896MPD2    H513137   3.462   2.309   0.980  1.7000  0.7080  0.7642
  896MPD2    N113138   3.816   2.611   0.836  0.4157 -0.0877 -0.4395
  896MPD2    H713139   3.897   2.640   0.783 -0.7526  0.9782 -1.6615
  897MPD2     C13140   0.430   4.282  10.270 -0.0197 -0.1222  0.4073
  897MPD2    C113141   0.297   4.284  10.229 -0.7022  0.4419 -0.0692
  897MPD2    C213142   0.194   4.231  10.307 -0.0311 -0.4887  0.6716
  897MPD2    C313143   0.223   4.192  10.433  0.1362 -0.3428 -0.4877
  897MPD2    C413144   0.351   4.199  10.477 -0.0959  0.2404 -0.2965
  897MPD2    C513145   0.453   4.237  10.396  0.1370  0.8256  0.4172
  897MPD2     H13146   0.091   4.261  10.293  0.2862 -0.1478 -0.9197
  897MPD2    H113147   0.372   4.158  10.575  0.4558  0.4513 -0.3293
  897MPD2    H213148   0.511   4.316  10.207  0.0034 -3.0309 -1.1343
  897MPD2    H313149   0.555   4.224  10.429 -1.0171 -2.8735  2.5519
  897MPD2     N13150   0.130   4.155  10.532  0.6927  0.1748 -0.3826
  897MPD2    H513151   0.164   4.167  10.626 -1.2731  0.9582  0.2268
  897MPD2    N113152   0.282   4.362  10.109  0.7646 -0.2367  0.8257
  897MPD2    H713153   0.364   4.406  10.069 -0.2322  0.8753  0.0404
  898MPD2     C13154   2.535   4.617   0.134  0.5584  0.5359  0.4730
  898MPD2    C113155   2.540   0.028   0.176  0.4289  0.3869  0.0004
  898MPD2    C213156   2.566   0.130   0.083  0.0483  0.1676 -0.3672
  898MPD2    C313157   2.582   0.102  17.654 -0.3401  0.6752  0.3860
  898MPD2    C413158   2.562   4.697  17.606  0.2535 -0.7867  0.3237
  898MPD2    C513159   2.541   4.594  17.702 -0.3626 -0.2008 -0.3946
  898MPD2     H13160   2.572   0.229   0.127  1.7760  0.9295 -2.2672
  898MPD2    H113161   2.564   4.667  17.502  1.0645 -1.2647  0.4703
  898MPD2    H213162   2.503   4.539   0.202  0.9857  0.6181  0.7691
  898MPD2    H313163   2.523   4.494  17.665  3.3067 -1.6471  1.7623
  898MPD2     N13164   2.585   0.216  17.577  0.3628  0.4290  0.2144
  898MPD2    H513165   2.536   0.301  17.604  1.0462  0.0942  2.4498
  898MPD2    N113166   2.531   0.066   0.311 -0.6898  0.4220  0.1908
  898MPD2    H713167   2.528   0.164   0.338  1.6271  0.9557 -1.3989
  899MPD2     C13168   3.370   1.146  17.564 -0.2779 -0.1287 -0.1035
  899MPD2    C113169   3.264   1.167  17.479  0.3454 -0.0607 -0.3871
  899MPD2    C213170   3.144   1.103  17.512  0.3322 -0.0257  0.5145
  899MPD2    C313171   3.131   1.020  17.621 -0.9322 -0.2913 -0.0035
  899MPD2    C413172   3.242   0.993  17.690 -0.5035 -0.1801 -0.1001
  899MPD2    C513173   3.361   1.059  17.672  0.3745  0.2854  0.5515
  899MPD2     H13174   3.058   1.117  17.447 -0.8461 -1.1458  1.8450
  899MPD2    H113175   3.231   0.927   0.072 -2.7025 -1.8034 -1.6758
  899MPD2    H213176   3.471   1.167  17.531  0.0212  0.2818  1.0954
  899MPD2    H313177   3.446   1.025   0.027 -1.4034 -0.2882  2.8225
  899MPD2     N13178   3.010   0.957  17.659 -0.6442 -0.1370 -0.3692
  899MPD2    H513179   3.010   0.886   0.030 -0.9258  2.6155  2.2993
  899MPD2    N113180   3.290   1.242  17.359 -0.7227 -0.2768 -0.9007
  899MPD2    H713181   3.379   1.281  17.330 -1.0793 -0.2555 -1.9442
  900MPD2     C13182   3.073   3.053  12.094 -0.3298  0.8161 -0.0356
  900MPD2    C113183   3.009   2.938  12.127  0.7779  0.1883  0.1491
  900MPD2    C213184   2.872   2.945  12.119  0.2055  0.1879  0.5392
  900MPD2    C313185   2.810   3.067  12.093  0.5870  0.2387 -0.3442
  900MPD2    C413186   2.877   3.180  12.048 -0.0437  0.1270  0.3404
  900MPD2    C513187   3.012   3.168  12.060 -0.4526 -0.1614  0.5546
  900MPD2     H13188   2.809   2.859  12.137  0.3727 -0.0498 -0.0214
  900MPD2    H113189   2.830   3.271  12.013 -1.3414 -0.0057  1.7304
  900MPD2    H213190   3.182   3.046  12.090 -0.4033 -0.2808 -0.2329
  900MPD2    H313191   3.077   3.251  12.031  0.7360 -1.5519 -0.7766
  900MPD2     N13192   2.664   3.068  12.099  0.3905 -0.0780 -0.3050
  900MPD2    H513193   2.613   2.986  12.129 -0.1015  0.0126 -0.9086
  900MPD2    N113194   3.084   2.817  12.159 -0.0520  0.0192 -0.1824
  900MPD2    H713195   3.185   2.821  12.159 -0.0660  0.3388 -0.4330
  901MPD2     C13196   2.774   1.912  12.091  0.7090 -0.6369  0.2987
  901MPD2    C113197   2.880   1.882  12.175 -0.3620 -0.1922 -0.0899
  901MPD2    C213198   2.941   1.979  12.249 -0.5035 -0.7791  0.2824
  901MPD2    C313199   2.893   2.110  12.237 -0.0833 -0.5527  0.6674
  901MPD2    C413200   2.780   2.127  12.162  0.5820 -0.2545  0.2580
  901MPD2    C513201   2.716   2.029  12.083  0.1492  1.3789 -0.4103
  901MPD2     H13202   3.029   1.963  12.311  1.7234 -1.7941 -3.1304
  901MPD2    H113203   2.726   2.221  12.160  0.2488 -0.5162 -3.3075
  901MPD2    H213204   2.728   1.841  12.023  0.3822 -0.3581  0.2265
  901MPD2    H313205   2.635   2.060  12.017 -1.3698  2.1091  1.7805
  901MPD2     N13206   2.949   2.228  12.292  0.5143  0.0824 -0.6252
  901MPD2    H513207   2.902   2.315  12.268  1.4958  0.7954 -0.0172
  901MPD2    N113208   2.915   1.747  12.176 -0.1745 -0.5694 -0.2080
  901MPD2    H713209   2.864   1.684  12.115 -1.3220 -0.1090  0.2844
  902MPD2     C13210   1.770   0.439  12.688 -0.5577  0.1707  0.1793
  902MPD2    C113211   1.747   0.423  12.555  0.7109  0.0993 -0.7355
  902MPD2    C213212   1.757   0.297  12.495  0.7893 -0.9408  0.1690
  902MPD2    C313213   1.780   0.181  12.569 -0.7311  0.7405  0.4025
  902MPD2    C413214   1.808   0.203  12.703  0.0585  0.1925 -0.0876
  902MPD2    C513215   1.803   0.327  12.757 -0.1917 -0.8555  0.4474
  902MPD2     H13216   1.743   0.289  12.388  4.5613 -0.1192 -0.4096
  902MPD2    H113217   1.829   0.123  12.773  1.1884  2.1672  1.8386
  902MPD2    H213218   1.767   0.536  12.738  0.5727  1.6262 -2.5895
  902MPD2    H313219   1.835   0.338  12.861 -1.1229  0.6010  0.5747
  902MPD2     N13220   1.784   0.046  12.532 -0.2332  0.2982  0.1417
  902MPD2    H513221   1.803   4.698  12.600 -1.6616  0.1224  0.3393
  902MPD2    N113222   1.713   0.542  12.488  0.0557 -0.2256 -0.6699
  902MPD2    H713223   1.740   0.627  12.537 -3.5913  0.4442  0.1284
  903MPD2     C13224   1.870   0.017  11.809  0.6447 -0.4205  0.1323
  903MPD2    C113225   1.777   4.699  11.896 -0.3312  0.2621 -0.4586
  903MPD2    C213226   1.652   0.033  11.899 -0.3880  0.2294 -0.4166
  903MPD2    C313227   1.616   0.117  11.801  0.1223  0.4741 -0.7703
  903MPD2    C413228   1.711   0.151  11.703  0.3947  0.5638 -0.0498
  903MPD2    C513229   1.837   0.109  11.714 -0.6352  0.5013 -0.3696
  903MPD2     H13230   1.571   0.015  11.969  0.8510  1.8848  1.4473
  903MPD2    H113231   1.698   0.230  11.630  0.0471  0.2463 -0.3256
  903MPD2    H213232   1.972   4.711  11.823  0.5061  0.3381  2.9458
  903MPD2    H313233   1.911   0.151  11.647  1.4750 -0.4480  1.3134
  903MPD2     N13234   1.502   0.192  11.816 -0.1209  0.0780 -0.0325
  903MPD2    H513235   1.452   0.171  11.902  1.0930 -0.2620  0.5894
  903MPD2    N113236   1.810   4.585  11.974 -0.4317 -0.2325 -0.4817
  903MPD2    H713237   1.909   4.564  11.986 -0.3886  0.9327  1.2176
  904MPD2     C13238   1.972   4.039  14.089  0.5761  0.7116  0.1097
  904MPD2    C113239   1.895   4.152  14.112  0.2562  0.3231  0.3898
  904MPD2    C213240   1.955   4.249  14.193 -0.0276 -0.0322 -0.3245
  904MPD2    C313241   2.089   4.239  14.226 -0.2634  0.2346 -0.5379
  904MPD2    C413242   2.151   4.117  14.204 -0.2136 -0.6554 -0.4308
  904MPD2    C513243   2.095   4.017  14.142  0.0399 -0.2099  0.0645
  904MPD2     H13244   1.896   4.335  14.222  1.4006  0.2657  1.6399
  904MPD2    H113245   2.255   4.104  14.233 -0.7044 -2.2445  0.6406
  904MPD2    H213246   1.934   3.947  14.045 -0.8814  1.6002 -0.5150
  904MPD2    H313247   2.149   3.926  14.118 -0.4489 -0.6508  0.6275
  904MPD2     N13248   2.147   4.347  14.299 -0.5743 -0.1145 -0.1022
  904MPD2    H513249   2.093   4.433  14.301 -0.6258 -0.0905 -2.1375
  904MPD2    N113250   1.764   4.165  14.056 -0.9741 -0.1594  0.4241
  904MPD2    H713251   1.740   4.090  13.992 -0.2730 -1.3713  1.5699
  905MPD2     C13252   1.576   4.512  13.318  0.1676  0.2136  0.9374
  905MPD2    C113253   1.627   4.414  13.407  0.4177 -0.2780 -0.1831
  905MPD2    C213254   1.750   4.353  13.376 -0.3217  0.3633 -1.2484
  905MPD2    C313255   1.819   4.398  13.266 -0.1092 -0.7741  0.1280
  905MPD2    C413256   1.761   4.492  13.185  0.3475  0.3644 -0.2921
  905MPD2    C513257   1.645   4.554  13.209  0.2048  0.2407  0.4225
  905MPD2     H13258   1.796   4.284  13.445 -0.0277  0.9866 -0.8145
  905MPD2    H113259   1.825   4.528  13.106  1.3260 -0.0608  0.3080
  905MPD2    H213260   1.483   4.563  13.343 -0.0563  0.2904 -0.0763
  905MPD2    H313261   1.617   4.630  13.137 -0.3447  0.7373  1.1622
  905MPD2     N13262   1.961   4.363  13.238 -1.0641 -0.2809 -0.0659
  905MPD2    H513263   1.997   4.384  13.145 -1.4495 -0.3842 -0.2391
  905MPD2    N113264   1.556   4.396  13.529 -0.0397  0.3258  0.1624
  905MPD2    H713265   1.467   4.444  13.534 -0.8471 -1.3721  2.1726
  906MPD2     C13266   3.406   4.302  11.330 -0.2857  0.0572  0.3601
  906MPD2    C113267   3.342   4.256  11.216  0.1083  0.9265 -0.6271
  906MPD2    C213268   3.229   4.174  11.230  0.0955  0.0423 -0.7110
  906MPD2    C313269   3.207   4.108  11.351  0.4484  0.5886 -0.2239
  906MPD2    C413270   3.276   4.153  11.458  1.2458 -0.1164 -0.8789
  906MPD2    C513271   3.368   4.251  11.451 -0.4188  0.2453  0.5482
  906MPD2     H13272   3.182   4.138  11.138 -1.0354 -0.2972 -0.0039
  906MPD2    H113273   3.264   4.108  11.556  2.0563  1.1706 -0.1846
  906MPD2    H213274   3.477   4.384  11.326 -1.0076  0.6906  0.5233
  906MPD2    H313275   3.417   4.267  11.546  0.2552 -0.3184  0.2907
  906MPD2     N13276   3.139   3.987  11.371 -0.1533 -0.3880  0.1590
  906MPD2    H513277   3.131   3.950  11.466  0.5711  3.3074  1.6479
  906MPD2    N113278   3.376   4.306  11.083  1.1800 -0.0521  1.2457
  906MPD2    H713279   3.337   4.263  11.000 -2.4506  1.8846  1.9520
  907MPD2     C13280   2.360   3.369  15.854 -0.0953 -0.1509 -0.1947
  907MPD2    C113281   2.463   3.301  15.789  0.0112 -0.4363 -0.7163
  907MPD2    C213282   2.573   3.274  15.865  0.1899  0.1516  0.2782
  907MPD2    C313283   2.586   3.311  15.999 -0.0392  0.3108 -0.6892
  907MPD2    C413284   2.478   3.370  16.060 -0.8709 -0.3785 -0.4124
  907MPD2    C513285   2.363   3.397  15.988 -0.3816 -0.4769 -0.0062
  907MPD2     H13286   2.663   3.235  15.819 -1.7379 -1.0683 -2.5044
  907MPD2    H113287   2.482   3.416  16.157  0.0766 -0.1268 -0.5668
  907MPD2    H213288   2.271   3.406  15.804 -0.8179  0.5011  1.5518
  907MPD2    H313289   2.281   3.458  16.025  1.2933  0.7579  1.6621
  907MPD2     N13290   2.711   3.293  16.065  0.2190  0.0158 -0.6726
  907MPD2    H513291   2.783   3.238  16.019  1.2579  0.4619  0.4376
  907MPD2    N113292   2.472   3.277  15.649 -0.1124  0.1495 -0.1898
  907MPD2    H713293   2.548   3.219  15.615 -1.0227 -1.4838  0.5489
  908MPD2     C13294   4.410   4.401   9.371  0.4707  0.5357  0.0261
  908MPD2    C113295   4.543   4.359   9.384  0.2810  0.8569  0.6401
  908MPD2    C213296   4.618   4.418   9.487 -0.1106 -0.7623  0.5308
  908MPD2    C313297   4.568   4.521   9.565 -0.2222 -0.4067  0.2827
  908MPD2    C413298   4.437   4.572   9.542  0.4284 -0.1407 -0.0095
  908MPD2    C513299   4.359   4.505   9.452 -0.9599  0.6980  0.0285
  908MPD2     H13300   4.718   4.376   9.497 -0.9142 -2.9115 -0.4220
  908MPD2    H113301   4.396   4.650   9.605  0.0956  0.0839 -0.5093
  908MPD2    H213302   4.340   4.361   9.299  1.4199  0.2298 -0.7283
  908MPD2    H313303   4.254   4.527   9.438 -1.3081  0.5691  2.3262
  908MPD2     N13304   4.653   4.561   9.671  0.0163  0.7750 -0.1196
  908MPD2    H513305   0.007   4.501   9.688 -0.2765  1.3004  3.1163
  908MPD2    N113306   4.603   4.249   9.312 -0.9565 -0.1272  0.6399
  908MPD2    H713307   4.691   4.218   9.352 -1.0242 -1.9048 -0.6184
  909MPD2     C13308   0.745   2.233  11.609  0.1595  0.2919  0.0777
  909MPD2    C113309   0.746   2.365  11.568 -1.0053 -0.2209 -0.7920
  909MPD2    C213310   0.641   2.444  11.611  0.8285  0.4393 -0.1742
  909MPD2    C313311   0.528   2.396  11.682 -0.2171 -0.6669  0.2925
  909MPD2    C413312   0.530   2.263  11.715  0.0014 -0.1033  0.3523
  909MPD2    C513313   0.640   2.186  11.685 -0.2756  0.4113 -0.1866
  909MPD2     H13314   0.648   2.549  11.586  3.1768 -0.0267 -1.4578
  909MPD2    H113315   0.440   2.215  11.751 -0.0169 -0.7966 -0.6271
  909MPD2    H213316   0.832   2.170  11.591  0.1900  0.9782 -2.0966
  909MPD2    H313317   0.636   2.084  11.720 -0.5573  0.6109  0.3495
  909MPD2     N13318   0.417   2.479  11.696  0.0965  0.7088 -0.9058
  909MPD2    H513319   0.409   2.553  11.627  1.2609  0.2261 -1.5478
  909MPD2    N113320   0.858   2.419  11.494  0.8412  0.1721  0.3605
  909MPD2    H713321   0.859   2.519  11.483  0.1895  0.0452 -0.8611
  910MPD2     C13322   1.766   4.127  16.257  0.3802 -0.0379  0.0572
  910MPD2    C113323   1.824   4.037  16.170  0.6920 -0.1543  0.0067
  910MPD2    C213324   1.788   4.050  16.039  0.1688 -0.3308  0.6240
  910MPD2    C313325   1.702   4.147  15.994 -0.7028 -0.0434  0.5506
  910MPD2    C413326   1.643   4.227  16.087  0.1924 -0.0117 -0.5952
  910MPD2    C513327   1.682   4.223  16.220 -0.8658 -0.0043  0.8250
  910MPD2     H13328   1.829   3.971  15.977 -1.5812 -1.6914  1.2033
  910MPD2    H113329   1.573   4.305  16.061  0.6331  0.4978 -0.2640
  910MPD2    H213330   1.791   4.131  16.363  2.7573 -2.9480 -0.3868
  910MPD2    H313331   1.639   4.288  16.295  1.4039  2.7000 -0.2282
  910MPD2     N13332   1.656   4.158  15.864 -0.2515 -0.5143 -0.6255
  910MPD2    H513333   1.599   4.241  15.853  1.8113  1.0688  0.6457
  910MPD2    N113334   1.919   3.942  16.211 -0.1792  0.7619  0.3161
  910MPD2    H713335   1.939   3.871  16.142 -1.4397  0.1693  0.5745
  911MPD2     C13336   0.162   4.669  15.921 -0.4875 -0.2255 -0.1759
  911MPD2    C113337   0.248   0.046  15.929  0.6824  0.4368 -0.0780
  911MPD2    C213338   0.212   0.173  15.882  0.4831 -0.4146 -0.1421
  911MPD2    C313339   0.086   0.198  15.829 -0.2320  0.0384  0.3134
  911MPD2    C413340   0.000   0.094  15.833 -0.3774  0.0900  0.2380
  911MPD2    C513341   0.041   4.699  15.878 -0.6845 -0.4676  0.4497
  911MPD2     H13342   0.290   0.248  15.880 -0.6638  0.7280 -2.3598
  911MPD2    H113343   4.625   0.102  15.791  0.1909 -0.2912 -1.2204
  911MPD2    H213344   0.189   4.565  15.940 -0.7677  0.0198  1.6086
  911MPD2    H313345   4.699   4.614  15.871 -0.4502 -0.7374  1.4150
  911MPD2     N13346   0.039   0.312  15.767  0.1019 -0.0188  0.2671
  911MPD2    H513347   4.667   0.311  15.740  0.7170 -0.8945 -1.9432
  911MPD2    N113348   0.379   0.012  15.977 -0.5912 -0.3466  0.9911
  911MPD2    H713349   0.395   4.639  15.997  0.9147 -0.0262  1.3518
  912MPD2     C13350   4.486   0.048  15.367  0.2270  0.2878  0.3038
  912MPD2    C113351   4.435   0.106  15.479  0.0201 -0.9609 -0.1081
  912MPD2    C213352   4.407   0.025  15.591 -0.3819  0.5990  0.0299
  912MPD2    C313353   4.429   4.612  15.593 -0.6038  0.0132 -0.7295
  912MPD2    C413354   4.483   4.555  15.478 -0.3543 -0.3189 -0.3571
  912MPD2    C513355   4.501   4.637  15.363 -0.1570  0.1925 -0.2991
  912MPD2     H13356   4.356   0.070  15.675  0.9241  0.0373  1.1273
  912MPD2    H113357   4.489   4.448  15.461  1.4715 -0.1474 -0.7991
  912MPD2    H213358   4.511   0.097  15.273  2.3743  2.1052  1.8364
  912MPD2    H313359   4.528   4.595  15.267  0.0429 -0.6363  0.1192
  912MPD2     N13360   4.399   4.538  15.704 -0.4425 -0.3337 -0.2188
  912MPD2    H513361   4.353   4.587  15.780  0.5479 -3.0361  2.1234
  912MPD2    N113362   4.451   0.252  15.490  0.2021 -0.4849  0.0867
  912MPD2    H713363   4.461   0.302  15.402  0.5928 -2.2795 -0.8959
  913MPD2     C13364   0.539   0.690  10.872  0.3932 -0.6334 -0.2227
  913MPD2    C113365   0.565   0.824  10.894 -0.0196 -0.6952 -0.1286
  913MPD2    C213366   0.532   0.917  10.804 -0.3444 -0.3723  0.1213
  913MPD2    C313367   0.496   0.882  10.680  0.1527  0.1051  0.1798
  913MPD2    C413368   0.480   0.746  10.651 -0.1476  0.5637  0.8388
  913MPD2    C513369   0.504   0.654  10.748 -0.6770  0.2973  0.1425
  913MPD2     H13370   0.550   1.023  10.822 -3.4881  0.4559 -1.6377
  913MPD2    H113371   0.458   0.704  10.554  0.4550  1.4992  0.2884
  913MPD2    H213372   0.575   0.624  10.950  1.1393 -0.0615 -0.0838
  913MPD2    H313373   0.479   0.552  10.721 -3.0253  0.5570  1.3309
  913MPD2     N13374   0.465   0.970  10.572  0.1111 -0.6378  0.6699
  913MPD2    H513375   0.437   0.940  10.479 -0.8702  2.2484  0.0057
  913MPD2    N113376   0.617   0.857  11.022  0.5772 -0.2577 -0.5850
  913MPD2    H713377   0.638   0.783  11.089  0.1857 -1.5561 -1.8747
  914MPD2     C13378   2.724   1.212  11.552  0.4608 -0.5077 -0.2940
  914MPD2    C113379   2.698   1.339  11.598 -0.2953  0.1453  0.0566
  914MPD2    C213380   2.734   1.366  11.730  0.4676  0.2633 -0.2040
  914MPD2    C313381   2.816   1.284  11.804 -0.0275  0.1986  0.2542
  914MPD2    C413382   2.856   1.161  11.756  0.6437 -0.8499  0.5096
  914MPD2    C513383   2.800   1.127  11.632  0.2588 -0.2766 -0.0292
  914MPD2     H13384   2.701   1.461  11.769 -3.0919 -1.0963  0.0825
  914MPD2    H113385   2.917   1.091  11.811  2.1071 -1.6300 -2.1150
  914MPD2    H213386   2.684   1.173  11.459 -1.4988  0.9647 -0.0758
  914MPD2    H313387   2.821   1.027  11.596  0.7014  0.1424 -0.9129
  914MPD2     N13388   2.861   1.337  11.929 -0.0622  0.9487  0.4067
  914MPD2    H513389   2.843   1.437  11.939 -3.7116  0.3320  0.1018
  914MPD2    N113390   2.631   1.429  11.512  0.3358 -0.5727 -0.1967
  914MPD2    H713391   2.605   1.387  11.423  1.7138  1.6253 -1.6257
  915MPD2     C13392   1.029   1.454  15.598 -0.0042  0.2027  0.1842
  915MPD2    C113393   0.897   1.482  15.631 -0.8936 -0.5439  0.1674
  915MPD2    C213394   0.876   1.558  15.746  0.7339 -0.5915  0.4631
  915MPD2    C313395   0.980   1.603  15.822  0.7215  0.3331 -0.7971
  915MPD2    C413396   1.110   1.579  15.783 -0.8123  0.1784  0.5356
  915MPD2    C513397   1.132   1.498  15.673  0.0176  0.5171  0.1201
  915MPD2     H13398   0.775   1.577  15.781  0.4299  0.1067 -0.7907
  915MPD2    H113399   1.197   1.614  15.837  0.0950  1.1644 -1.5586
  915MPD2    H213400   1.044   1.389  15.513  0.3930 -0.5391  0.8258
  915MPD2    H313401   1.235   1.468  15.654  0.2850  1.2410  0.4382
  915MPD2     N13402   0.950   1.692  15.928 -0.5593 -0.2974 -0.3171
  915MPD2    H513403   0.860   1.739  15.924 -0.6883 -0.5475 -0.3839
  915MPD2    N113404   0.796   1.422  15.555 -0.2745  0.0395  0.1223
  915MPD2    H713405   0.821   1.365  15.474  0.5074  1.2158 -0.4688
  916MPD2     C13406   4.027   0.008  15.372  0.7768 -0.8782  0.7523
  916MPD2    C113407   4.042   4.634  15.468 -0.0869  0.5795  0.4337
  916MPD2    C213408   4.132   4.532  15.437  0.1884  0.7744  0.4887
  916MPD2    C313409   4.182   4.521  15.311  0.0295  0.1251  0.2656
  916MPD2    C413410   4.153   4.611  15.207 -0.2239 -0.2358 -0.4364
  916MPD2    C513411   4.074   4.719  15.244  0.6040 -0.7428  0.5350
  916MPD2     H13412   4.149   4.450  15.506 -2.6054 -0.4731 -0.2977
  916MPD2    H113413   4.204   4.602  15.112  0.5490 -1.8364  0.1428
  916MPD2    H213414   3.978   0.103  15.388 -0.1310 -1.1630 -0.3364
  916MPD2    H313415   4.058   0.071  15.170 -1.2330  1.0128  2.7614
  916MPD2     N13416   4.267   4.412  15.290  0.2173 -0.0362 -0.2564
  916MPD2    H513417   4.267   4.343  15.364  2.1813 -1.3532 -1.4815
  916MPD2    N113418   3.975   4.646  15.592  0.9051  0.1405 -0.6688
  916MPD2    H713419   3.908   4.721  15.598  1.2350  0.3493  0.5383
  917MPD2     C13420   4.537   1.941  10.905  0.2099 -0.4697 -0.6041
  917MPD2    C113421   4.447   2.043  10.878  0.5884 -0.1793 -0.0683
  917MPD2    C213422   4.500   2.169  10.841 -0.1955  0.4488 -0.1172
  917MPD2    C313423   4.638   2.180  10.811 -0.1710 -0.5085 -0.3468
  917MPD2    C413424   4.715   2.070  10.826  0.3205 -0.4467  0.2979
  917MPD2    C513425   4.666   1.955  10.873 -0.3410 -0.2337 -0.1634
  917MPD2     H13426   4.438   2.257  10.826 -0.6001 -0.0206 -1.1751
  917MPD2    H113427   0.090   2.058  10.786 -1.2314 -0.7266 -3.4885
  917MPD2    H213428   4.499   1.846  10.941 -0.2287  0.8427  2.3733
  917MPD2    H313429   0.019   1.883  10.897 -0.9986 -1.2521 -1.0805
  917MPD2     N13430   4.686   2.304  10.759 -0.2712 -0.6157 -1.0626
  917MPD2    H513431   4.615   2.370  10.731 -1.0647 -1.6222 -1.4321
  917MPD2    N113432   4.315   2.020  10.911 -0.2037  0.1936 -0.7623
  917MPD2    H713433   4.295   1.931  10.956 -2.4615  2.0350  1.8157
  918MPD2     C13434   4.077   2.360  11.794 -0.2007 -0.2556 -0.4786
  918MPD2    C113435   4.174   2.259  11.768  0.2712  0.4300  0.6349
  918MPD2    C213436   4.181   2.198  11.642  0.0164  0.3993  0.7648
  918MPD2    C313437   4.104   2.257  11.540  0.2590 -0.1151  0.4054
  918MPD2    C413438   4.024   2.364  11.559  0.3981  0.4063 -0.2153
  918MPD2    C513439   4.008   2.406  11.687 -0.1090  1.1030  0.4671
  918MPD2     H13440   4.242   2.111  11.620  1.1527  1.0598  1.2687
  918MPD2    H113441   3.987   2.423  11.476  0.7706  0.0786 -0.6183
  918MPD2    H213442   4.065   2.406  11.892 -3.2219  0.7874 -1.3351
  918MPD2    H313443   3.950   2.495  11.707 -1.3895  1.1747 -3.5632
  918MPD2     N13444   4.112   2.212  11.410 -0.7114 -0.1867 -0.3835
  918MPD2    H513445   4.090   2.271  11.330  1.4523 -0.8425 -1.4777
  918MPD2    N113446   4.274   2.220  11.858  0.0275 -0.1995  0.3131
  918MPD2    H713447   4.353   2.172  11.817 -1.5344 -2.3994 -0.1447
  919MPD2     C13448   0.414   1.168  11.461  0.0214  0.3353 -0.6908
  919MPD2    C113449   0.328   1.064  11.436  0.2003  0.1449  0.0137
  919MPD2    C213450   0.294   1.031  11.303  0.0512  0.2058  0.2025
  919MPD2    C313451   0.343   1.108  11.203 -0.0818  0.0075 -0.9192
  919MPD2    C413452   0.426   1.215  11.230  0.1903 -0.3513 -0.7605
  919MPD2    C513453   0.460   1.252  11.360 -0.0528 -0.1944 -0.3329
  919MPD2     H13454   0.229   0.948  11.277  0.3484  0.0907 -0.1901
  919MPD2    H113455   0.464   1.267  11.143  0.0332  1.3359  0.1954
  919MPD2    H213456   0.455   1.194  11.557 -2.7529 -0.1437  0.6358
  919MPD2    H313457   0.525   1.338  11.375 -2.2701  1.4020  0.1420
  919MPD2     N13458   0.323   1.072  11.068 -0.1819  0.5003 -0.1883
  919MPD2    H513459   0.334   1.142  10.995 -0.9487 -0.6259 -1.3957
  919MPD2    N113460   0.287   0.970  11.537 -0.1188 -0.2442 -0.9470
  919MPD2    H713461   0.228   0.895  11.503 -0.2587 -0.9354  0.7998
  920MPD2     C13462   0.077   1.463  10.180  0.9469  0.4638 -0.2970
  920MPD2    C113463   4.716   1.356  10.185 -0.4193  0.3988 -0.3921
  920MPD2    C213464   4.719   1.271  10.293  0.1069 -0.4167  0.1526
  920MPD2    C313465   0.071   1.299  10.400  0.6959 -0.5144 -0.2944
  920MPD2    C413466   0.133   1.423  10.407 -0.3417  0.0919 -0.2949
  920MPD2    C513467   0.141   1.506  10.293  0.0453 -0.0713 -0.3489
  920MPD2     H13468   4.650   1.187  10.299  0.0371 -0.3058  0.9355
  920MPD2    H113469   0.186   1.445  10.499 -1.1875  0.6423  0.0683
  920MPD2    H213470   0.085   1.526  10.092  1.8134  0.8440  0.0558
  920MPD2    H313471   0.200   1.597  10.294  2.5658 -1.7425  0.3497
  920MPD2     N13472   0.086   1.192  10.499  0.2278  0.5388  0.2495
  920MPD2    H513473   0.038   1.105  10.480  0.1411  0.5686  0.3349
  920MPD2    N113474   4.633   1.328  10.074 -0.2797  0.4077 -0.0304
  920MPD2    H713475   4.582   1.241  10.079 -0.4167  0.4809 -0.1746
  921MPD2     C13476   0.850   4.431  16.836  0.1950 -0.1853  0.4299
  921MPD2    C113477   0.894   4.548  16.785 -0.7610  0.3983 -1.0659
  921MPD2    C213478   0.836   4.596  16.668  0.4018  0.0007  0.2061
  921MPD2    C313479   0.736   4.522  16.599 -0.4136 -0.0114 -0.1262
  921MPD2    C413480   0.704   4.399  16.652  0.1197  0.4026 -0.2550
  921MPD2    C513481   0.757   4.363  16.773 -0.7734 -0.4665  0.3990
  921MPD2     H13482   0.864   4.690  16.621  0.4029 -0.9193 -1.6307
  921MPD2    H113483   0.633   4.336  16.599  1.0205  0.4662 -1.5400
  921MPD2    H213484   0.903   4.390  16.921  2.5384 -0.7121 -1.2745
  921MPD2    H313485   0.729   4.269  16.820 -0.9213  0.3118  1.8634
  921MPD2     N13486   0.679   4.550  16.478  0.5143 -0.2650  0.2174
  921MPD2    H513487   0.634   4.469  16.436 -1.5396  0.6030  0.7600
  921MPD2    N113488   1.005   4.608  16.843 -0.5230  0.5414  0.3649
  921MPD2    H713489   1.054   4.562  16.918 -1.5316  0.5018  0.9968
  922MPD2     C13490   1.618   2.061  17.428  0.0994 -0.1110  0.4972
  922MPD2    C113491   1.642   2.116  17.303 -1.5304  0.2382 -0.3966
  922MPD2    C213492   1.536   2.172  17.237 -0.3174 -1.1634 -0.8429
  922MPD2    C313493   1.400   2.162  17.279 -0.6675 -0.6514  0.1152
  922MPD2    C413494   1.378   2.103  17.398 -0.0901  0.1295  0.8044
  922MPD2    C513495   1.482   2.054  17.469  0.7878 -0.4450  0.2052
  922MPD2     H13496   1.557   2.220  17.141  0.9244 -0.3963 -0.1793
  922MPD2    H113497   1.280   2.082  17.440 -0.9929  1.2622 -0.7292
  922MPD2    H213498   1.687   2.014  17.497 -0.1992 -1.3551 -0.0463
  922MPD2    H313499   1.471   2.017  17.571 -0.9548  1.5905  0.7671
  922MPD2     N13500   1.297   2.199  17.186 -0.1596  0.2291 -0.4379
  922MPD2    H513501   1.319   2.239  17.096  1.4045 -0.3265 -0.2980
  922MPD2    N113502   1.774   2.126  17.247 -0.7371 -0.2688  0.1073
  922MPD2    H713503   1.786   2.195  17.174 -2.1865 -0.2720 -0.1401
  923MPD2     C13504   2.760   0.056   8.918  0.0923 -0.1650 -0.0520
  923MPD2    C113505   2.794   0.121   9.033 -0.4707 -0.0970 -0.9441
  923MPD2    C213506   2.879   0.057   9.120  0.4796  0.0386 -0.0382
  923MPD2    C313507   2.920   4.652   9.104  0.1678 -0.7134 -0.0301
  923MPD2    C413508   2.896   4.591   8.981 -0.6194 -0.4030 -0.2315
  923MPD2    C513509   2.816   4.656   8.892  0.5079 -0.0869 -0.1063
  923MPD2     H13510   2.912   0.114   9.206  2.3486 -0.9063 -0.1281
  923MPD2    H113511   2.941   4.494   8.964 -0.3427 -0.5130  1.1113
  923MPD2    H213512   2.695   0.093   8.839  0.6942  2.2709  0.6016
  923MPD2    H313513   2.811   4.610   8.794 -0.8237  1.5284 -0.8012
  923MPD2     N13514   3.000   4.584   9.193 -0.2108  0.3259 -0.4654
  923MPD2    H513515   3.031   4.492   9.163 -1.1072  0.0124 -0.4279
  923MPD2    N113516   2.754   0.253   9.066  0.3798 -0.2147 -0.3616
  923MPD2    H713517   2.796   0.300   9.145 -1.3909  0.1166  0.3747
  924MPD2     C13518   3.100   2.484  16.332  0.4787 -0.1783  0.7113
  924MPD2    C113519   3.004   2.553  16.267  0.2703 -0.2880  0.1415
  924MPD2    C213520   3.015   2.686  16.251  0.2305  0.0133 -0.5496
  924MPD2    C313521   3.124   2.760  16.300  0.5419  0.0543  0.2189
  924MPD2    C413522   3.219   2.690  16.378  0.1535 -0.2079 -0.1130
  924MPD2    C513523   3.210   2.555  16.376 -0.3590  0.2989 -0.2714
  924MPD2     H13524   2.933   2.734  16.200 -0.5270 -1.0660 -0.3374
  924MPD2    H113525   3.302   2.747  16.417 -0.0185  0.0107 -0.0686
  924MPD2    H213526   3.098   2.377  16.349 -2.3757  0.1582  2.3910
  924MPD2    H313527   3.294   2.503  16.421 -1.0072 -0.0669  0.5161
  924MPD2     N13528   3.116   2.905  16.303  0.1206  0.1801 -0.5109
  924MPD2    H513529   3.185   2.948  16.365  1.7331 -0.3264 -1.9474
  924MPD2    N113530   2.896   2.475  16.220 -0.1472 -0.4991 -0.3501
  924MPD2    H713531   2.908   2.375  16.228  0.6033 -0.4192 -0.5234
  925MPD2     C13532   1.206   1.257  14.558 -0.2682  0.4780 -0.0463
  925MPD2    C113533   1.281   1.140  14.569 -0.2388 -0.1551 -0.8611
  925MPD2    C213534   1.332   1.105  14.689 -0.1538 -0.3940 -0.4335
  925MPD2    C313535   1.301   1.173  14.808  0.2913 -0.9456  0.2927
  925MPD2    C413536   1.241   1.300  14.794 -0.2558 -0.0169  0.0479
  925MPD2    C513537   1.194   1.337  14.668 -0.2849  0.1341 -0.8957
  925MPD2     H13538   1.396   1.017  14.691  1.0371  0.4806 -0.4325
  925MPD2    H113539   1.200   1.344  14.884  1.7888  1.2738  0.3641
  925MPD2    H213540   1.166   1.294  14.464 -1.9594  1.4981  1.0921
  925MPD2    H313541   1.126   1.421  14.670  0.2883  0.6314 -2.4229
  925MPD2     N13542   1.343   1.127  14.939  0.4042  0.3578 -0.4130
  925MPD2    H513543   1.319   1.184  15.019  0.8780 -0.2624  0.1703
  925MPD2    N113544   1.308   1.078  14.441 -0.4626 -0.5780  0.2938
  925MPD2    H713545   1.266   1.121  14.360  1.8601  1.0546 -0.0334
  926MPD2     C13546   0.495   3.845  13.152 -0.7073 -0.1906  0.0154
  926MPD2    C113547   0.378   3.922  13.151  0.1525 -0.0467 -0.1471
  926MPD2    C213548   0.355   4.014  13.048 -0.1072  0.3978 -0.0409
  926MPD2    C313549   0.434   4.016  12.940 -0.1893 -0.5603  0.0424
  926MPD2    C413550   0.544   3.937  12.937  0.5469  0.2528 -0.3932
  926MPD2    C513551   0.572   3.851  13.040  0.2234 -0.4553  0.7139
  926MPD2     H13552   0.257   4.060  13.052  0.7024  1.9909  1.6368
  926MPD2    H113553   0.608   3.937  12.849  1.2165  0.6041  0.0993
  926MPD2    H213554   0.519   3.773  13.229  1.3737  0.4105 -0.0768
  926MPD2    H313555   0.649   3.777  13.021  0.0729  0.0659 -1.9782
  926MPD2     N13556   0.407   4.110  12.830 -0.5397 -0.3273  0.3089
  926MPD2    H513557   0.464   4.105  12.746 -0.2951 -1.6621  0.5424
  926MPD2    N113558   0.281   3.922  13.252  0.3294  0.5712  0.2736
  926MPD2    H713559   0.209   3.992  13.235 -0.7363 -0.4711  0.4932
  927MPD2     C13560   0.299   1.190   0.406  0.0493 -0.0266 -0.2292
  927MPD2    C113561   0.245   1.307   0.365 -0.4951 -0.0246 -0.7139
  927MPD2    C213562   0.258   1.337   0.226  0.4183  0.3022  0.2685
  927MPD2    C313563   0.312   1.247   0.134 -0.4688  0.6093 -0.0188
  927MPD2    C413564   0.361   1.132   0.182  0.2872 -0.2378 -0.0992
  927MPD2    C513565   0.359   1.107   0.320 -0.7377  0.1293 -0.0045
  927MPD2     H13566   0.212   1.426   0.185  0.3406  0.4435  0.6610
  927MPD2    H113567   0.402   1.049   0.125 -0.4336 -0.5736 -0.1322
  927MPD2    H213568   0.288   1.166   0.511 -3.3392 -0.2868 -0.6594
  927MPD2    H313569   0.390   1.008   0.351  0.0693  1.0030  1.9716
  927MPD2     N13570   0.290   1.282  17.699  0.6854  0.1079  0.9685
  927MPD2    H513571   0.237   1.368  17.682  0.7651  0.2640  1.5133
  927MPD2    N113572   0.196   1.395   0.468 -0.0574 -0.5528 -0.6228
  927MPD2    H713573   0.207   1.369   0.565 -0.5837 -0.2054 -0.4693
  928MPD2     C13574   2.213   0.379   1.536 -0.3915 -0.3838  0.2690
  928MPD2    C113575   2.342   0.431   1.526 -0.1031  0.1461  0.1311
  928MPD2    C213576   2.405   0.410   1.404 -0.2466  1.0561 -0.4475
  928MPD2    C313577   2.352   0.343   1.299  0.4172  0.3824  0.1433
  928MPD2    C413578   2.221   0.298   1.310 -0.9694  0.6155  0.0728
  928MPD2    C513579   2.156   0.318   1.427 -0.0505 -0.0915  0.1346
  928MPD2     H13580   2.508   0.443   1.397  0.1748 -0.2011 -0.2132
  928MPD2    H113581   2.169   0.249   1.229 -0.4576  0.6135 -0.2502
  928MPD2    H213582   2.152   0.385   1.625 -0.6817 -1.8645  0.1646
  928MPD2    H313583   2.052   0.286   1.430 -0.8107  2.4412  0.8870
  928MPD2     N13584   2.425   0.324   1.178  0.1067 -0.4566 -0.6804
  928MPD2    H513585   2.394   0.254   1.112 -1.5044 -0.2662 -0.1241
  928MPD2    N113586   2.392   0.508   1.636  0.5236 -0.0179 -0.3212
  928MPD2    H713587   2.326   0.521   1.712 -0.4548  0.2538 -1.2124
  929MPD2     C13588   2.749   4.364  10.518 -0.1107  0.1656 -0.6383
  929MPD2    C113589   2.668   4.253  10.514  0.1747 -0.2829 -0.2000
  929MPD2    C213590   2.603   4.213  10.393 -0.4099 -0.2648 -0.3609
  929MPD2    C313591   2.615   4.298  10.285 -0.4702  0.6299 -0.3682
  929MPD2    C413592   2.689   4.414  10.292 -0.0511 -0.1289  0.4381
  929MPD2    C513593   2.753   4.447  10.411 -0.5312  0.9483  0.4574
  929MPD2     H13594   2.557   4.115  10.390 -4.7238  1.7063  0.8992
  929MPD2    H113595   2.691   4.484  10.209 -0.4418 -0.7175 -0.0605
  929MPD2    H213596   2.791   4.395  10.613  0.0035 -1.9625  0.0119
  929MPD2    H313597   2.793   4.548  10.415 -0.3533  0.9121 -0.4352
  929MPD2     N13598   2.538   4.269  10.170  0.6699  0.0891 -0.0040
  929MPD2    H513599   2.554   4.327  10.088  0.6964  1.8516  1.2436
  929MPD2    N113600   2.638   4.186  10.632 -0.1483 -0.2288 -0.2956
  929MPD2    H713601   2.676   4.227  10.717 -0.6504 -2.5840  1.0440
  930MPD2     C13602   0.102   1.911  14.305 -0.1354  0.0699 -0.8929
  930MPD2    C113603   0.039   1.982  14.205 -0.2668  1.1033 -0.4595
  930MPD2    C213604   4.664   1.922  14.129  0.4396  0.4782  0.3646
  930MPD2    C313605   4.630   1.791  14.143 -0.0940  0.0278 -0.4948
  930MPD2    C413606   4.680   1.720  14.252  0.1480 -0.0257 -0.3293
  930MPD2    C513607   0.061   1.779  14.320 -0.0568  0.1812  0.2318
  930MPD2     H13608   4.611   1.977  14.052 -2.4464  1.0256  2.7096
  930MPD2    H113609   4.648   1.619  14.274 -0.0539 -0.1407 -1.1717
  930MPD2    H213610   0.184   1.951  14.363  0.1327 -1.8384  0.0553
  930MPD2    H313611   0.104   1.717  14.398 -1.9614 -0.6830  0.6050
  930MPD2     N13612   4.525   1.731  14.060 -0.3913 -0.2292  0.3198
  930MPD2    H513613   4.509   1.631  14.071  0.7692 -0.5122 -0.6158
  930MPD2    N113614   0.074   2.117  14.177 -0.4571  0.2727  0.5875
  930MPD2    H713615   0.170   2.137  14.202 -0.1315 -2.0251  1.1595
  931MPD2     C13616   0.527   1.477   0.988  0.5565  0.1399  0.2814
  931MPD2    C113617   0.398   1.513   1.029 -0.4798 -0.2242 -0.0822
  931MPD2    C213618   0.359   1.489   1.162 -0.1590 -0.6726  0.2363
  931MPD2    C313619   0.445   1.436   1.252  0.1867  0.3524  0.1594
  931MPD2    C413620   0.580   1.408   1.213 -0.2497 -0.3508  0.3212
  931MPD2    C513621   0.610   1.430   1.082  0.4899 -0.1717 -0.3314
  931MPD2     H13622   0.255   1.502   1.189 -0.0278 -0.6643  0.7365
  931MPD2    H113623   0.647   1.356   1.281  0.6877  0.4437  0.0031
  931MPD2    H213624   0.565   1.498   0.889 -0.1130 -0.1962 -0.0458
  931MPD2    H313625   0.707   1.389   1.052 -0.4892 -2.4505 -0.4225
  931MPD2     N13626   0.396   1.384   1.378 -0.6891  0.0496  0.4359
  931MPD2    H513627   0.441   1.304   1.421 -1.4773 -0.5402  0.1554
  931MPD2    N113628   0.322   1.570   0.929 -0.0496 -0.2172  0.3419
  931MPD2    H713629   0.361   1.576   0.836 -1.8699 -0.3137 -0.4345
  932MPD2     C13630   1.923   4.551  11.148  0.4230 -0.2063  0.0101
  932MPD2    C113631   2.024   4.641  11.142 -0.1263  0.7684 -0.2602
  932MPD2    C213632   2.146   4.617  11.201 -0.0848 -0.2410  0.5995
  932MPD2    C313633   2.167   4.497  11.273 -1.4518 -0.5528 -0.0129
  932MPD2    C413634   2.071   4.400  11.259  0.3846  0.2791  0.2677
  932MPD2    C513635   1.951   4.425  11.199  0.4040  0.0173 -0.1770
  932MPD2     H13636   2.214   4.701  11.192 -0.2098 -0.2643 -0.5602
  932MPD2    H113637   2.072   4.304  11.309  0.8218 -0.5499 -1.3193
  932MPD2    H213638   1.823   4.566  11.108  0.5671 -1.2882 -0.7957
  932MPD2    H313639   1.880   4.344  11.200  1.1183 -0.5852  0.9617
  932MPD2     N13640   2.277   4.464  11.357  0.1177 -0.4429 -0.0568
  932MPD2    H513641   2.279   4.374  11.403 -0.8346 -1.3075 -1.7066
  932MPD2    N113642   2.001   0.044  11.080 -0.1661 -0.0577 -0.3643
  932MPD2    H713643   2.073   0.116  11.086  1.4785 -1.7917  0.6438
  933MPD2     C13644   2.417   0.931   2.401 -0.0522 -0.1814  0.0808
  933MPD2    C113645   2.367   0.869   2.295  0.4421  0.3783  0.4280
  933MPD2    C213646   2.227   0.868   2.292  0.0873 -0.2328 -0.3955
  933MPD2    C313647   2.144   0.933   2.377 -0.2347  0.2601  1.0116
  933MPD2    C413648   2.198   1.011   2.470 -0.1526  0.5870 -0.1558
  933MPD2    C513649   2.334   1.008   2.475  0.0613 -0.2207  0.5136
  933MPD2     H13650   2.179   0.793   2.231 -1.1768  0.4364 -0.2245
  933MPD2    H113651   2.138   1.063   2.544  1.4882  2.6561 -0.2746
  933MPD2    H213652   2.521   0.944   2.431 -0.4114  0.6428  0.9785
  933MPD2    H313653   2.379   1.057   2.561  0.4143 -0.1851  0.3083
  933MPD2     N13654   2.011   0.895   2.354  0.5474  0.2053 -0.3144
  933MPD2    H513655   1.999   0.823   2.283 -0.1910  0.0023  0.0189
  933MPD2    N113656   2.443   0.804   2.199  0.0452 -0.0219  0.4736
  933MPD2    H713657   2.542   0.798   2.220  0.3303  1.5851 -0.3794
  934MPD2     C13658   3.270   1.679   2.320  0.1325  0.1287  0.3192
  934MPD2    C113659   3.385   1.653   2.245 -0.0856 -0.9041  0.0566
  934MPD2    C213660   3.366   1.650   2.107 -0.4793  0.2948 -0.5067
  934MPD2    C313661   3.240   1.657   2.051  0.0526  0.0050  0.0282
  934MPD2    C413662   3.131   1.688   2.133 -0.4969 -0.1728 -0.1988
  934MPD2    C513663   3.148   1.693   2.263  0.0264  0.0240  0.1533
  934MPD2     H13664   3.452   1.631   2.044 -0.8357  0.3024 -0.9968
  934MPD2    H113665   3.031   1.692   2.093 -0.0914  0.2694 -1.1787
  934MPD2    H213666   3.279   1.707   2.424 -1.0447 -1.3444  0.8292
  934MPD2    H313667   3.062   1.714   2.327  0.1068  0.8257 -0.0004
  934MPD2     N13668   3.213   1.622   1.915 -0.0543 -0.1191 -0.4326
  934MPD2    H513669   3.113   1.616   1.897 -0.2702  2.6049 -0.2023
  934MPD2    N113670   3.513   1.650   2.296 -0.5337 -0.2117  0.6267
  934MPD2    H713671   3.583   1.665   2.223 -0.6717  1.2078  0.7780
  935MPD2     C13672   3.731   1.159   1.155 -0.1689 -0.0152 -0.0589
  935MPD2    C113673   3.599   1.127   1.137 -0.4046  0.3108 -0.4260
  935MPD2    C213674   3.503   1.189   1.216 -0.0687  0.0238  0.1232
  935MPD2    C313675   3.534   1.275   1.311  0.0623  0.4286 -0.2607
  935MPD2    C413676   3.665   1.315   1.321  0.1622 -0.2080 -0.5084
  935MPD2    C513677   3.762   1.259   1.248  0.0130 -0.0644  0.1655
  935MPD2     H13678   3.404   1.146   1.202 -0.7170  1.5087  0.1517
  935MPD2    H113679   3.683   1.394   1.393  0.7009 -0.8167  0.0200
  935MPD2    H213680   3.815   1.100   1.121 -1.8868 -2.7272  0.4484
  935MPD2    H313681   3.863   1.295   1.257  0.1293 -1.3251  3.5800
  935MPD2     N13682   3.440   1.328   1.408  0.0498  0.4308 -0.3211
  935MPD2    H513683   3.475   1.400   1.472 -3.2614  2.9224 -1.3280
  935MPD2    N113684   3.549   1.042   1.042 -0.1176  0.0598  0.2239
  935MPD2    H713685   3.448   1.035   1.039 -0.1655  0.9348 -0.0586
  936MPD2     C13686   1.578   4.010  12.607 -0.2886 -0.2833 -0.6868
  936MPD2    C113687   1.630   4.044  12.733  0.2859  0.6650 -0.0123
  936MPD2    C213688   1.747   4.114  12.753 -0.5949  0.2570  0.1480
  936MPD2    C313689   1.817   4.144  12.637  0.0436  0.2569  0.0502
  936MPD2    C413690   1.774   4.096  12.514 -0.1026  0.2238 -0.2800
  936MPD2    C513691   1.658   4.029  12.500  0.6023 -0.0404  0.3043
  936MPD2     H13692   1.786   4.146  12.849 -0.4002  1.7065 -0.4111
  936MPD2    H113693   1.836   4.113  12.427 -0.7053  2.7054 -0.2274
  936MPD2    H213694   1.485   3.959  12.586 -0.2943 -0.8624  0.7436
  936MPD2    H313695   1.629   4.003  12.400  0.2788  0.5592  0.2452
  936MPD2     N13696   1.941   4.206  12.652  0.3754  0.6918  0.3105
  936MPD2    H513697   1.960   4.232  12.748 -0.4435 -1.1542  0.9579
  936MPD2    N113698   1.567   4.009  12.854  0.3895 -0.4441 -0.0962
  936MPD2    H713699   1.602   4.054  12.938 -0.9242  0.4094 -0.0054
  937MPD2     C13700   0.246   0.265  11.485  0.6008  0.4513  0.2308
  937MPD2    C113701   0.317   0.384  11.483  0.0297 -0.8757  0.9684
  937MPD2    C213702   0.391   0.426  11.372 -0.1270  0.3007 -0.4134
  937MPD2    C313703   0.412   0.328  11.274  0.3891 -0.0220  0.1330
  937MPD2    C413704   0.344   0.211  11.281 -0.1099  0.1403 -0.0650
  937MPD2    C513705   0.269   0.178  11.386  0.3484  0.4444 -0.2870
  937MPD2     H13706   0.442   0.521  11.367  1.3083 -0.3540  1.5164
  937MPD2    H113707   0.364   0.132  11.209  2.8730  1.4097 -0.6255
  937MPD2    H213708   0.171   0.245  11.560 -0.3112 -0.8073 -1.0135
  937MPD2    H313709   0.220   0.082  11.386 -0.5564  0.9111  0.7425
  937MPD2     N13710   0.502   0.356  11.167 -0.1848 -0.1923  0.1326
  937MPD2    H513711   0.555   0.441  11.180 -0.2993  0.0838 -1.1850
  937MPD2    N113712   0.294   0.496  11.561  0.0900 -0.2324  0.1830
  937MPD2    H713713   0.336   0.585  11.535 -0.0068 -0.6952 -1.5351
  938MPD2     C13714   2.028   1.223   1.551  0.7550  0.6613  0.7806
  938MPD2    C113715   2.147   1.296   1.561 -0.1711 -0.1323 -0.1459
  938MPD2    C213716   2.213   1.291   1.686  0.2943  0.5462  0.8084
  938MPD2    C313717   2.149   1.232   1.793 -0.9465 -0.0691 -0.4447
  938MPD2    C413718   2.026   1.169   1.776  0.5376  0.5709  0.2588
  938MPD2    C513719   1.968   1.158   1.659  0.0068  0.4620 -0.0844
  938MPD2     H13720   2.313   1.331   1.689  0.5187  0.0444 -0.1314
  938MPD2    H113721   1.975   1.122   1.860 -1.8936  2.4677 -0.1688
  938MPD2    H213722   1.964   1.210   1.464  0.7248  0.6068  0.8106
  938MPD2    H313723   1.877   1.099   1.664 -0.7103  1.4152 -1.7696
  938MPD2     N13724   2.204   1.213   1.924 -0.0541 -0.1923 -0.3535
  938MPD2    H513725   2.150   1.160   1.992  0.2992 -3.4030 -2.5528
  938MPD2    N113726   2.207   1.353   1.450  0.3629 -0.1382  0.2853
  938MPD2    H713727   2.292   1.403   1.472  0.5725  0.7221 -2.4087
  939MPD2     C13728   3.593   2.155   0.533 -0.3122  0.6976  0.2853
  939MPD2    C113729   3.581   2.287   0.488 -0.8865  0.1573  0.2363
  939MPD2    C213730   3.651   2.332   0.376  0.3285  0.2513  0.4298
  939MPD2    C313731   3.731   2.241   0.302  0.4252 -0.2730  0.3470
  939MPD2    C413732   3.729   2.104   0.344 -0.1480 -0.4427 -0.3925
  939MPD2    C513733   3.660   2.061   0.458  0.4443  0.4708  0.4370
  939MPD2     H13734   3.651   2.436   0.348 -2.4407  0.1914  0.2878
  939MPD2    H113735   3.791   2.029   0.296 -0.8090 -0.2028 -1.6072
  939MPD2    H213736   3.536   2.121   0.619 -2.8588  4.7301  0.1637
  939MPD2    H313737   3.653   1.959   0.492 -1.0579  0.3534 -0.2520
  939MPD2     N13738   3.807   2.288   0.187 -0.7977 -0.1146  0.9426
  939MPD2    H513739   3.795   2.387   0.167  0.9249 -0.0264  0.3456
  939MPD2    N113740   3.492   2.372   0.565 -0.8323  0.0025 -0.0016
  939MPD2    H713741   3.423   2.333   0.629  0.9084 -1.0338  1.2394
  940MPD2     C13742   2.351   3.436  12.767 -0.0989  0.1223  0.2502
  940MPD2    C113743   2.466   3.480  12.713  0.4509 -0.7316  0.1162
  940MPD2    C213744   2.477   3.488  12.574  0.5563  0.8186  0.5241
  940MPD2    C313745   2.373   3.459  12.492  0.1892  0.9837  0.1620
  940MPD2    C413746   2.256   3.418  12.549  0.0164 -0.1497 -0.6356
  940MPD2    C513747   2.243   3.407  12.685  0.6587 -0.4921 -0.1384
  940MPD2     H13748   2.577   3.517  12.545  0.1652  1.3864 -0.2631
  940MPD2    H113749   2.165   3.405  12.493  0.9842  0.9648 -2.4582
  940MPD2    H213750   2.336   3.430  12.874  1.1657 -0.2917  0.3934
  940MPD2    H313751   2.148   3.373  12.723  0.4230 -1.3663 -1.5107
  940MPD2     N13752   2.378   3.482  12.354  0.1087 -0.6033 -0.2751
  940MPD2    H513753   2.288   3.480  12.308 -0.8625 -1.2151  1.6575
  940MPD2    N113754   2.588   3.503  12.792 -0.7745  0.0763 -0.2909
  940MPD2    H713755   2.671   3.549  12.755 -1.6787  1.5730 -0.4210
  941MPD2     C13756   1.868   2.843   9.311 -0.1623  0.3813  0.4302
  941MPD2    C113757   1.971   2.837   9.397  0.4773  0.7557  0.4076
  941MPD2    C213758   1.952   2.773   9.521  0.2647 -0.6963 -0.0655
  941MPD2    C313759   1.832   2.712   9.555 -0.6787  0.6380 -0.2981
  941MPD2    C413760   1.728   2.715   9.462 -0.5111 -0.3720 -0.2204
  941MPD2    C513761   1.756   2.778   9.343  0.2997  0.4274 -0.3111
  941MPD2     H13762   2.037   2.776   9.588 -0.3346 -0.9617  0.7053
  941MPD2    H113763   1.635   2.662   9.473 -1.1283  0.7236 -0.1495
  941MPD2    H213764   1.876   2.869   9.206  0.7812  0.8039  0.6073
  941MPD2    H313765   1.675   2.778   9.270  0.5695  2.7370 -0.6010
  941MPD2     N13766   1.816   2.647   9.679  0.3357  0.2584 -0.1255
  941MPD2    H513767   1.727   2.600   9.690  0.4469  0.1347  0.2378
  941MPD2    N113768   2.096   2.880   9.362 -0.2425  0.1305 -0.0114
  941MPD2    H713769   2.175   2.836   9.408  0.9405  0.9701 -1.2176
  942MPD2     C13770   1.338   0.096   9.276 -0.1614 -1.1499  0.2338
  942MPD2    C113771   1.411   4.712   9.222 -0.5042 -0.6047  0.6537
  942MPD2    C213772   1.533   0.010   9.160 -0.5425  0.2827 -0.8555
  942MPD2    C313773   1.592   0.138   9.164  0.2432  0.4930 -0.4010
  942MPD2    C413774   1.518   0.244   9.221  0.3644  0.2634  0.9841
  942MPD2    C513775   1.393   0.226   9.276 -0.1300  0.3819 -0.2604
  942MPD2     H13776   1.588   4.658   9.108 -1.6460  0.5543 -2.4299
  942MPD2    H113777   1.558   0.345   9.217  1.4255 -0.1551  1.0100
  942MPD2    H213778   1.238   0.083   9.316  0.0955  0.9537  1.5395
  942MPD2    H313779   1.333   0.308   9.312  1.2804  0.5994  1.5427
  942MPD2     N13780   1.725   0.141   9.125 -0.0859 -0.2271  0.4031
  942MPD2    H513781   1.762   0.057   9.081  0.1752 -0.7380  1.6193
  942MPD2    N113782   1.353   4.581   9.216 -0.3591  0.1432 -0.0649
  942MPD2    H713783   1.408   4.514   9.163  0.1313  1.9946 -1.8779
  943MPD2     C13784   0.767   1.967   9.567 -0.3448 -0.1534  0.7702
  943MPD2    C113785   0.867   2.052   9.603 -0.4356  0.4013  0.4809
  943MPD2    C213786   0.921   2.147   9.513  0.7289  0.0995  0.3092
  943MPD2    C313787   0.836   2.180   9.403 -0.1450  0.6497 -0.9263
  943MPD2    C413788   0.731   2.095   9.372  0.0370 -0.9404 -0.3073
  943MPD2    C513789   0.703   1.982   9.446 -0.6304  0.0796  0.2867
  943MPD2     H13790   1.010   2.202   9.539  0.4094 -0.6796  3.1108
  943MPD2    H113791   0.673   2.112   9.282  1.6289  1.9430 -0.8154
  943MPD2    H213792   0.729   1.900   9.643 -0.3323 -1.0985 -0.0560
  943MPD2    H313793   0.618   1.916   9.428 -2.2680  1.7631  1.8383
  943MPD2     N13794   0.842   2.303   9.328  0.7147  0.0726 -0.2241
  943MPD2    H513795   0.787   2.311   9.243  4.2963 -1.4878 -2.6952
  943MPD2    N113796   0.923   2.023   9.726  0.6480  0.4431 -0.0020
  943MPD2    H713797   0.876   1.948   9.776  0.4240  1.5965  1.5288
  944MPD2     C13798   1.081   1.710  11.162  0.6811 -0.7416 -0.0091
  944MPD2    C113799   0.953   1.768  11.131 -0.2798 -0.1929 -0.3681
  944MPD2    C213800   0.880   1.823  11.234  0.6678  0.0479 -0.0890
  944MPD2    C313801   0.924   1.805  11.365  0.1843 -0.0515 -0.1150
  944MPD2    C413802   1.042   1.743  11.397  0.4465  0.3621 -0.2998
  944MPD2    C513803   1.119   1.695  11.297 -0.3958 -0.2725  0.4445
  944MPD2     H13804   0.787   1.878  11.220 -0.6049 -1.8012  1.0065
  944MPD2    H113805   1.073   1.718  11.498  1.0020  1.1484 -0.2724
  944MPD2    H213806   1.135   1.655  11.086 -0.5171  0.5606 -1.7998
  944MPD2    H313807   1.212   1.643  11.321  0.7105  0.6894 -1.7855
  944MPD2     N13808   0.834   1.845  11.470 -0.1227 -0.8086 -0.0827
  944MPD2    H513809   0.733   1.852  11.459 -0.0625  1.4279  0.8602
  944MPD2    N113810   0.907   1.785  11.000  0.1855 -0.4282 -0.7665
  944MPD2    H713811   0.842   1.861  10.980  2.3427  1.3823 -0.8617
    1TCq1    O113812   2.745   3.287  13.480  0.1840  1.1255  0.3489
    1TCq1    C113813   2.743   3.189  13.580 -0.2139 -0.8276 -0.0902
    1TCq1    O213814   2.729   3.215  13.703  0.1066  0.2228  0.7033
    1TCq1    C213815   2.804   3.070  13.530  0.1254  0.4357  0.0441
    1TCq1    C313816   2.802   3.038  13.398  0.5700  0.0390 -1.1995
    1TCq1    C413817   2.872   2.933  13.350  0.1283  0.1722  0.0064
    1TCq1    C513818   2.944   2.858  13.437 -0.3874 -0.4161 -1.0670
    1TCq1    C613819   2.947   2.889  13.574  0.1724  0.1088 -0.3320
    1TCq1    C713820   2.874   2.997  13.623  0.1843  0.4917  0.4346
    1TCq1    C813821   3.044   2.825  13.664 -0.4471  0.3529  0.2154
    1TCq1    O413822   3.093   2.721  13.634 -0.5149 -0.3525  0.0446
    1TCq1    C913823   2.875   2.898  13.209  0.3974  0.0142  0.3582
    1TCq1    O513824   2.946   2.796  13.173 -0.3063  0.2031 -0.3384
    1TCq1    O613825   2.790   2.955  13.136 -0.3739 -0.0559  0.3191
    1TCq1    H113826   2.789   3.249  13.401 -1.3958 -2.0926  1.0381
    1TCq1    H213827   2.742   3.095  13.327 -0.5546  0.9917  0.5262
    1TCq1    H313828   2.999   2.776  13.393  0.6466 -0.6613  0.6887
    1TCq1    H413829   2.867   3.020  13.729  0.5390 -0.5898  0.6899
    2MPD2     C13830   3.439   2.823  13.986 -0.1656 -0.7065  0.6356
    2MPD2    C113831   3.404   2.957  13.971  0.0644  0.2503  0.2741
    2MPD2    C213832   3.288   2.983  13.896  0.0960 -0.0106 -0.5148
    2MPD2    C313833   3.205   2.880  13.843  0.2397 -0.4180  0.7551
    2MPD2    C413834   3.247   2.750  13.864 -0.1820 -0.4091 -0.0120
    2MPD2    C513835   3.363   2.722  13.927 -0.2547  0.0109 -0.2941
    2MPD2     H13836   3.273   3.089  13.884 -0.9062 -0.0734  0.2475
    2MPD2    H113837   3.198   2.661  13.827  0.8177 -1.7485  1.8835
    2MPD2    H213838   3.516   2.787  14.052 -1.6600 -0.8068  2.3203
    2MPD2    H313839   3.391   2.617  13.931  1.4666  0.4876  0.1085
    2MPD2     N13840   3.101   2.911  13.754 -0.0273  0.2357 -0.2207
    2MPD2    H513841   3.069   3.008  13.755  1.1330  0.6300 -1.3908
    2MPD2    N113842   3.472   3.063  14.038 -0.0398  0.5313 -0.9463
    2MPD2    H713843   3.544   3.032  14.103 -1.4872  2.7646  1.7337
    3TMC2    C113844   3.563   3.277  14.090  0.1404  0.4971 -0.5911
    3TMC2    C213845   3.585   3.242  14.218  0.5386 -0.2037  0.4811
    3TMC2    C313846   3.670   3.325  14.281  0.1614  0.1930  0.1464
    3TMC2    C413847   3.618   3.392  14.031 -0.0247  0.7961 -0.1548
    3TMC2    C513848   3.690   3.478  14.106 -0.6808 -0.2521  0.8642
    3TMC2    C613849   3.719   3.445  14.237 -0.3482 -0.0339  0.9416
    3TMC2     C13850   3.472   3.198  14.006  0.9921 -0.0721  0.5067
    3TMC2     O13851   3.427   3.256  13.907 -0.2922  0.2662  0.1591
    3TMC2     H13852   3.559   3.144  14.257 -2.0364  0.5698  0.7172
    3TMC2    H113853   3.614   3.412  13.924  1.0386 -1.0120 -0.5253
    3TMC2    H213854   3.782   3.508  14.299  1.8007 -0.5572 -0.7207
    3TMC2    C713855   3.718   3.612  14.042  0.2498  0.2391  0.5245
    3TMC2    C813856   3.695   3.300  14.419 -0.4989 -0.6325 -0.3471
    3TMC2    O113857   3.648   3.634  13.944  0.0813 -0.2807 -0.1918
    3TMC2    O213858   3.683   3.394  14.499  0.1272 -0.1434  0.1371
    3TMC2    O513859   3.791   3.213  14.421 -0.2695 -0.2781  0.3581
    3TMC2    H513860   3.783   3.149  14.348  0.9227 -0.7494  0.6325
    4MPD2     C13861   2.932   4.289  14.241  0.2748  0.1667 -0.0689
    4MPD2    C113862   2.903   4.264  14.108  0.5916  0.4332 -0.9114
    4MPD2    C213863   3.007   4.268  14.017  0.3614  0.8620  0.1652
    4MPD2    C313864   3.134   4.295  14.055  0.5869 -0.4218  0.1747
    4MPD2    C413865   3.157   4.326  14.187  0.1860  0.3843  0.3360
    4MPD2    C513866   3.057   4.332  14.281 -0.3608 -0.2980  0.2316
    4MPD2     H13867   2.992   4.249  13.912 -0.8963  1.4732  0.2410
    4MPD2    H113868   3.255   4.358  14.221  0.5327  1.3839 -1.5972
    4MPD2    H213869   2.852   4.299  14.313 -1.0854  0.5961 -1.6516
    4MPD2    H313870   3.076   4.365  14.383 -0.9671 -1.5387  0.7397
    4MPD2     N13871   3.233   4.299  13.949 -0.1190  0.0208  0.3102
    4MPD2    H513872   3.200   4.270  13.857  2.1863 -0.5517 -0.3477
    4MPD2    N113873   2.774   4.225  14.071  0.1468 -0.1554 -1.1683
    4MPD2    H713874   2.708   4.233  14.148 -0.3577 -1.3392 -1.4848
    5TCq2    C113875   3.370   4.308  13.973 -0.3261  0.5057 -0.1292
    5TCq2    O213876   3.434   4.303  14.076  0.3001  0.1962 -0.0095
    5TCq2    C213877   3.439   4.305  13.845 -0.0067  0.7358 -0.1234
    5TCq2    C313878   3.371   4.259  13.737 -0.1116  0.4440  0.3446
    5TCq2    C413879   3.454   4.219  13.630  0.8121 -0.2152 -0.2660
    5TCq2    C513880   3.594   4.221  13.645  0.0906  0.3908 -0.0945
    5TCq2    C613881   3.650   4.267  13.760 -0.4262  0.0249 -0.4512
    5TCq2    C713882   3.575   4.304  13.866 -0.4182 -0.8586  0.3328
    5TCq2    C813883   3.775   4.217  13.800 -0.2655 -0.0058  0.5145
    5TCq2    O413884   3.823   4.301  13.877 -0.4178 -0.3364 -0.3347
    5TCq2    C913885   3.393   4.151  13.513 -0.4915 -0.7795  0.3187
    5TCq2    O513886   3.459   4.138  13.406  0.1499 -0.2994  0.2415
    5TCq2    O613887   3.271   4.126  13.520 -0.8526  0.7427 -0.4344
    5TCq2    H213888   3.265   4.257  13.714 -0.1919 -0.4598  0.7966
    5TCq2    H313889   3.653   4.180  13.564  0.2385  0.8415 -0.2143
    5TCq2    H413890   3.621   4.329  13.961  0.9310 -0.1155 -0.5110
    6MPD1     C13891   2.542   0.329  12.423 -0.4561  0.4664 -0.2263
    6MPD1    C113892   2.557   0.383  12.545 -0.5875 -0.2825 -0.0367
    6MPD1    C213893   2.545   0.306  12.656  0.0622 -0.1580 -0.5925
    6MPD1    C313894   2.491   0.175  12.644 -0.3688  0.5107 -0.2168
    6MPD1    C413895   2.465   0.126  12.521  0.0392 -0.1414  0.7015
    6MPD1    C513896   2.500   0.197  12.408  0.1387 -0.0559 -0.1379
    6MPD1     H13897   2.572   0.351  12.751 -1.2389  1.1251 -0.8271
    6MPD1    H113898   2.432   0.025  12.501  1.7290  0.3035 -4.2643
    6MPD1    H213899   2.574   0.388  12.338 -0.8941  0.9845 -0.0323
    6MPD1    H313900   2.476   0.168  12.306  1.0401 -0.2344 -0.2994
    6MPD1     N13901   2.460   0.091  12.750 -0.1291  0.1731 -0.4687
    6MPD1    H513902   2.419   4.725  12.733 -0.5882  0.6673 -2.0004
    6MPD1    N113903   2.606   0.515  12.553 -0.0312  0.6081  0.1133
    6MPD1    H613904   2.570   0.568  12.475  0.3406  0.4761 -0.1477
    6MPD1    H713905   2.563   0.565  12.630  2.4265  2.1924  0.4491
    7MPD2     C13906   2.321   0.091  13.618 -0.7404  0.1214  0.0428
    7MPD2    C113907   2.302   4.702  13.556 -0.4002 -0.3179  0.1157
    7MPD2    C213908   2.297   4.583  13.622 -0.1040 -0.0340 -0.6022
    7MPD2    C313909   2.317   4.577  13.761 -0.1717 -0.3413 -0.0195
    7MPD2    C413910   2.321   4.691  13.826  0.3089 -0.5652 -0.0272
    7MPD2    C513911   2.318   0.084  13.752  0.3391  0.7037 -0.0720
    7MPD2     H13912   2.298   4.490  13.567  2.5414 -1.3141  1.6125
    7MPD2    H113913   2.319   4.694  13.935 -1.2053 -1.7657 -0.0261
    7MPD2    H213914   2.333   0.187  13.569 -1.1139  0.5109  0.7098
    7MPD2    H313915   2.350   0.172  13.805 -1.4923  0.6043  1.2209
    7MPD2     N13916   2.314   4.447  13.816  0.1494  0.9156  0.0203
    7MPD2    H513917   2.318   4.376  13.743 -0.7255  2.0508 -1.1518
    7MPD2    N113918   2.312   4.692  13.413 -0.0462  0.6978 -0.3392
    7MPD2    H713919   2.296   4.604  13.365 -0.5650 -0.5224  2.0577
    8TMC3    C113920   2.374   4.277  13.959  0.5406 -0.6460 -0.5715
    8TMC3    C213921   2.501   4.260  14.009 -0.1830  0.2726 -0.2515
    8TMC3    C313922   2.583   4.166  13.947  0.4063 -0.2017 -0.3232
    8TMC3    C413923   2.324   4.193  13.857 -0.5378  0.2411  0.1488
    8TMC3    C513924   2.412   4.114  13.792 -0.7843  0.0677 -0.7069
    8TMC3    C613925   2.543   4.095  13.836 -0.2757  0.5380  0.1329
    8TMC3     C13926   2.338   4.416  13.946  0.3005 -0.2969  0.2361
    8TMC3     O13927   2.366   4.492  14.037  0.2406 -0.1572 -0.1364
    8TMC3     H13928   2.550   4.343  14.059 -0.8076 -0.6746  1.9220
    8TMC3    H113929   2.219   4.207  13.835 -0.0564 -2.1520 -3.7019
    8TMC3    H213930   2.614   4.029  13.788  1.2712  1.1740  1.5496
    8TMC3    C713931   2.410   4.140  13.647  0.3648 -0.1689 -0.1165
    8TMC3    C813932   2.727   4.188  13.949 -0.4676 -0.1228 -0.4682
    8TMC3    O113933   2.328   4.224  13.620  0.3713  0.1402  0.2669
    8TMC3    O213934   2.795   4.165  13.851  0.2756  0.0843 -0.0928
    9TMC3    C113935   2.423   0.044  12.982  0.1760  0.1747 -0.2931
    9TMC3    C213936   2.428   4.635  12.965  0.5999  0.3901  0.2613
    9TMC3    C313937   2.431   4.559  13.079  0.3072  0.0260 -0.1275
    9TMC3    C413938   2.399   0.100  13.101 -0.2139  0.1471 -0.3708
    9TMC3    C513939   2.404   0.014  13.206  0.5545  0.6451 -0.3855
    9TMC3    C613940   2.431   4.612  13.201 -0.4790 -0.0681 -0.2847
    9TMC3     C13941   2.455   0.138  12.884 -0.4136  0.5569 -1.0064
    9TMC3     O13942   2.471   0.254  12.925 -0.3734  0.6371  0.3424
    9TMC3     H13943   2.443   4.586  12.870 -0.1294 -1.1202  0.9091
    9TMC3    H113944   2.369   0.204  13.104 -3.1581 -0.7158 -0.1090
    9TMC3    H213945   2.455   4.555  13.290 -2.3335 -0.2447  0.1115
    9TMC3    C713946   2.362   0.069  13.333  1.0558  0.2702 -0.3164
    9TMC3    C813947   2.466   4.415  13.067  1.0406 -0.6896  0.1310
    9TMC3    O113948   2.365   0.191  13.356 -0.4388 -0.6265  0.0932
    9TMC3    O213949   2.517   4.366  12.969 -0.5002  0.4783  0.6127
   10MPD2     C13950   2.594   4.002  13.356 -0.3472 -0.3570  0.0156
   10MPD2    C113951   2.520   4.089  13.432  0.1527 -0.1947  0.2741
   10MPD2    C213952   2.460   4.202  13.371  0.2242  0.1379 -0.2523
   10MPD2    C313953   2.494   4.237  13.241  0.3540 -0.0235  0.5010
   10MPD2    C413954   2.583   4.154  13.172  0.2092 -0.5641 -0.1668
   10MPD2    C513955   2.640   4.045  13.230  0.1651 -0.2801 -0.3926
   10MPD2     H13956   2.392   4.271  13.420  0.2662 -0.0007  0.0027
   10MPD2    H113957   2.611   4.187  13.073  0.2916 -0.1678 -0.0126
   10MPD2    H213958   2.629   3.907  13.395 -0.5175  0.3375  1.8390
   10MPD2    H313959   2.702   3.980  13.171  1.1693 -0.3329  0.7361
   10MPD2     N13960   2.430   4.353  13.180 -0.3036 -0.0217 -1.0057
   10MPD2    H513961   2.392   4.409  13.256 -0.6037  0.9150 -1.8414
   10MPD2    N113962   2.491   4.059  13.568 -0.0606 -0.1819  0.1224
   10MPD2    H713963   2.539   3.978  13.607  0.9312  0.1343 -0.4240
   11MPD2     C13964   3.999   3.859  14.073  0.2016  0.0989 -0.0147
   11MPD2    C113965   3.876   3.804  14.027  0.3890 -0.0192 -0.7504
   11MPD2    C213966   3.806   3.878  13.935 -0.2794 -0.4177 -0.4475
   11MPD2    C313967   3.854   4.004  13.886 -0.3414 -0.4231 -0.1425
   11MPD2    C413968   3.977   4.044  13.939 -0.3382 -0.4499  1.0284
   11MPD2    C513969   4.049   3.975  14.029  0.4498  0.0278  0.1966
   11MPD2     H13970   3.714   3.836  13.895 -1.1493  1.6130 -0.6328
   11MPD2    H113971   4.017   4.138  13.904  0.5743 -0.2666  2.5454
   11MPD2    H213972   4.042   3.803  14.155 -0.4062  0.8391  0.8074
   11MPD2    H313973   4.141   4.008  14.077  0.5169 -2.2645  1.6270
   11MPD2     N13974   3.779   4.077  13.799  0.0447 -0.6295  0.7546
   11MPD2    H513975   3.700   4.040  13.746 -1.2507  1.0507  1.4895
   11MPD2    N113976   3.832   3.679  14.077 -0.5270  0.0710  0.1265
   11MPD2    H713977   3.892   3.622  14.136  1.2280  2.3346  0.5179
    1MPD1     C13978   1.147   0.064  17.483 -0.8956  0.3484 -0.1889
    1MPD1    C113979   1.164   4.719  17.368 -0.3506 -1.3384  0.8609
    1MPD1    C213980   1.291   4.713  17.313 -0.1287  0.3189 -0.1466
    1MPD1    C313981   1.398   0.042  17.377 -0.5485 -0.2697 -0.2922
    1MPD1    C413982   1.384   0.114  17.490 -0.0037  0.3218 -0.3395
    1MPD1    C513983   1.255   0.127  17.545  0.5686 -0.0962  0.0388
    1MPD1     H13984   1.302   4.661  17.219  3.0274 -0.2654  0.5384
    1MPD1    H113985   1.461   0.169  17.544  0.8550 -1.1420 -0.0594
    1MPD1    H213986   1.051   0.071  17.531 -0.4302  1.7566  0.5349
    1MPD1    H313987   1.244   0.189  17.633 -2.1157  0.9002 -1.0261
    1MPD1     N13988   1.529   0.040  17.327  0.8884  0.0287  0.6863
    1MPD1    H513989   1.592   0.088  17.390  0.4123  1.1023  0.3450
    1MPD1    N113990   1.050   4.677  17.295  0.0161 -0.1975  0.3092
    1MPD1    H613991   0.971   4.651  17.354 -0.3703  0.2591 -0.0039
    1MPD1    H713992   1.077   4.608  17.226  1.2154 -3.4369  4.0208
    2MPD1     C13993   2.129   0.082  16.387 -0.3901  0.4212  0.0681
    2MPD1    C113994   2.218   0.072  16.487 -0.6276 -0.0274  0.7214
    2MPD1    C213995   2.174   0.079  16.618  0.2610  0.1489  0.1285
    2MPD1    C313996   2.042   0.076  16.653 -0.2901 -0.4620  0.4149
    2MPD1    C413997   1.951   0.083  16.547 -0.0409  0.4258 -0.1928
    2MPD1    C513998   1.999   0.082  16.420  0.7256  0.1212  0.5172
    2MPD1     H13999   2.253   0.082  16.692  0.2790  0.1626  0.1089
    2MPD1    H114000   1.846   0.073  16.570  0.3083 -1.5303  0.5476
    2MPD1    H214001   2.152   0.077  16.281  0.9826  0.3318  0.3744
    2MPD1    H314002   1.923   0.064  16.345  0.0452  0.8253  1.0363
    2MPD1     N14003   2.004   0.063  16.790 -0.5566 -0.2147  0.0776
    2MPD1    H514004   2.072   0.070  16.865 -0.4958 -0.0943  0.0126
    2MPD1    N114005   2.359   0.084  16.460 -0.0241  0.1728  0.5718
    2MPD1    H614006   2.426   0.053  16.530  0.6519 -1.3394 -0.7516
    2MPD1    H714007   2.383   0.032  16.376 -1.1682  0.0141  0.3309
    3TMC3    C114008   1.863   0.033  16.987  0.4819  0.5548  0.4036
    3TMC3    C214009   1.944   0.118  17.057  0.0950  0.2625 -0.5821
    3TMC3    C314010   1.892   0.165  17.177  0.7133 -0.7967 -0.2298
    3TMC3    C414011   1.748   4.709  17.041 -0.6030 -0.2231 -0.7971
    3TMC3    C514012   1.710   0.028  17.164 -0.1928  0.5771 -0.4507
    3TMC3    C614013   1.779   0.117  17.229 -0.2706 -0.2761 -0.3572
    3TMC3     C14014   1.871   0.046  16.838  0.5225 -0.2044 -0.4752
    3TMC3     O14015   1.771   0.026  16.773 -0.4258  0.6098  0.5444
    3TMC3     H14016   2.016   0.182  17.007 -0.7277  0.3986 -1.5846
    3TMC3    H114017   1.676   4.655  16.981 -1.7076 -0.6071  0.8774
    3TMC3    H214018   1.752   0.146  17.330  0.9423  1.5262 -0.5346
    3TMC3    C714019   1.569   4.717  17.203  0.2826  0.9051  0.2739
    3TMC3    C814020   1.941   0.298  17.221 -0.4123  0.6116  0.4465
    3TMC3    O114021   1.491   4.674  17.122  0.3824 -0.0864 -0.5316
    3TMC3    O214022   2.063   0.316  17.225  0.3231 -0.0598  0.7915
    4MPD1     C14023   1.880   0.794  17.287 -0.3339  0.8471 -0.4012
    4MPD1    C114024   1.758   0.747  17.249 -0.8599  0.4826  0.9453
    4MPD1    C214025   1.750   0.608  17.229 -0.0984 -0.1931 -0.3531
    4MPD1    C314026   1.860   0.527  17.236  0.1096  0.3626  0.3836
    4MPD1    C414027   1.982   0.581  17.270  0.5772 -0.0276  0.7234
    4MPD1    C514028   1.991   0.715  17.287  0.2750  0.0834 -0.1624
    4MPD1     H14029   1.649   0.573  17.213 -0.6125  0.9687  0.3383
    4MPD1    H114030   2.066   0.516  17.288  0.0259 -1.2218 -0.9251
    4MPD1    H214031   1.890   0.897  17.319 -0.6489  0.5070  0.7962
    4MPD1    H314032   2.085   0.755  17.323  0.3757  0.1152 -0.4570
    4MPD1     N14033   1.840   0.390  17.222 -0.1476  0.1778  0.8632
    4MPD1    H514034   1.743   0.362  17.212 -0.2174 -0.1575  2.4420
    4MPD1    N114035   1.636   0.815  17.261  0.2249  0.1905 -0.5212
    4MPD1    H614036   1.656   0.912  17.237 -2.3129  0.8354 -0.0526
    4MPD1    H714037   1.567   0.775  17.198 -0.8773  0.1555  0.7105
    1TCq1    O114038   2.116   0.092  12.573 -0.4881  0.0358 -0.1248
    1TCq1    C114039   2.129   0.200  12.658 -0.5887 -0.4417 -0.3046
    1TCq1    O214040   2.133   0.196  12.780  0.7095 -0.3977  0.1737
    1TCq1    C214041   2.146   0.324  12.589  0.1091 -0.1854 -0.8502
    1TCq1    C314042   2.091   0.343  12.467 -0.1718 -0.5070 -0.0235
    1TCq1    C414043   2.094   0.464  12.400 -0.6126  0.4944  0.6286
    1TCq1    C514044   2.185   0.552  12.449  0.1694  0.4683  0.3687
    1TCq1    C614045   2.251   0.533  12.571  0.3237  0.2577 -0.4522
    1TCq1    C714046   2.225   0.424  12.647 -0.0622  0.4648 -0.1039
    1TCq1    C814047   2.311   0.649  12.645  0.3645  0.5536  0.9041
    1TCq1    O414048   2.358   0.633  12.757  0.0390  0.0924 -0.8827
    1TCq1    C914049   2.032   0.468  12.263  0.7682 -0.1773 -0.0466
    1TCq1    O514050   2.015   0.359  12.204  0.0509 -0.6031 -0.2161
    1TCq1    O614051   2.023   0.579  12.214  0.0716  0.1775 -0.3498
    1TCq1    H114052   2.117   0.116  12.478 -1.1429  0.0111 -0.1415
    1TCq1    H214053   2.017   0.266  12.448 -0.6999  0.4490 -1.8021
    1TCq1    H314054   2.197   0.641  12.389 -0.8658 -1.4030 -2.6353
    1TCq1    H414055   2.273   0.402  12.741  1.4488  1.5765 -0.5929
    2MPD1     C14056   2.400   1.151  12.674 -0.2766  0.4248  0.3997
    2MPD1    C114057   2.405   1.057  12.771 -0.0673  0.6076  0.0517
    2MPD1    C214058   2.360   0.933  12.741  0.6018  0.6551 -0.2767
    2MPD1    C314059   2.332   0.895  12.611 -0.3794 -0.2320 -0.6757
    2MPD1    C414060   2.337   0.988  12.512 -0.5096  0.0634 -0.0939
    2MPD1    C514061   2.366   1.118  12.545  0.5861  0.6041  0.3550
    2MPD1     H14062   2.343   0.866  12.824 -0.0463  0.1092 -0.8510
    2MPD1    H114063   2.307   0.954  12.413 -0.1666 -1.6587  0.4034
    2MPD1    H214064   2.422   1.254  12.703  0.1097  0.7297 -0.9814
    2MPD1    H314065   2.383   1.197  12.473  1.8087  0.8012  0.8550
    2MPD1     N14066   2.296   0.762  12.571 -0.1941  0.1990 -0.0022
    2MPD1    H514067   2.264   0.744  12.476  0.0432  0.7160 -0.1798
    2MPD1    N114068   2.433   1.096  12.907 -0.2833  0.2614  0.1192
    2MPD1    H614069   2.472   1.021  12.962 -1.8485  0.9464  2.1454
    2MPD1    H714070   2.480   1.186  12.911  1.6842 -0.7661 -0.1657
    1TCq1    O114071   0.299   1.972   0.311 -0.2060  0.1110 -0.0318
    1TCq1    C114072   0.368   1.933   0.421 -0.1127 -0.2312  0.4401
    1TCq1    O214073   0.394   1.991   0.524 -0.2409 -0.4081  0.0912
    1TCq1    C214074   0.424   1.806   0.387 -0.2081 -0.1766 -0.1160
    1TCq1    C314075   0.443   1.731   0.496 -0.1487 -0.2177 -0.5991
    1TCq1    C414076   0.507   1.611   0.475  0.7452 -0.3202 -0.2429
    1TCq1    C514077   0.509   1.550   0.359  0.3094 -0.1839 -0.1849
    1TCq1    C614078   0.478   1.629   0.252 -0.4700  0.6441  0.2277
    1TCq1    C714079   0.433   1.757   0.262  0.1796 -0.0451  0.4061
    1TCq1    C814080   0.497   1.568   0.120  0.1072  0.5247  0.3744
    1TCq1    O414081   0.463   1.621   0.014 -0.0695  0.2926 -0.6318
    1TCq1    C914082   0.497   1.520   0.585 -0.3120  0.3934 -0.8130
    1TCq1    O514083   0.459   1.571   0.692 -0.0669 -0.0369  0.0873
    1TCq1    O614084   0.543   1.408   0.571 -0.3197  0.1837  0.3619
    1TCq1    H114085   0.271   1.901   0.249  0.9005 -0.4060  0.0703
    1TCq1    H214086   0.441   1.772   0.597 -0.2527 -1.3331 -0.1464
    1TCq1    H314087   0.513   1.442   0.347 -1.2572 -0.3799  1.0897
    1TCq1    H414088   0.421   1.819   0.173  1.8307 -1.1492 -0.5849
    2MPD1     C14089   0.809   1.284  17.538  0.0620 -0.1084 -0.0204
    2MPD1    C114090   0.785   1.215  17.655  0.2092 -0.3972  0.1414
    2MPD1    C214091   0.686   1.264   0.036 -0.2080  0.5020 -0.0684
    2MPD1    C314092   0.629   1.385   0.016  0.2435  0.2069  0.1277
    2MPD1    C414093   0.655   1.451  17.604 -0.0596 -0.0964 -1.0853
    2MPD1    C514094   0.736   1.396  17.509 -0.6372  0.0852  0.3391
    2MPD1     H14095   0.662   1.222   0.133 -0.0476  0.1136 -0.1964
    2MPD1    H114096   0.618   1.550  17.579  0.9659  0.3826 -0.6610
    2MPD1    H214097   0.865   1.237  17.458  2.5455 -0.7649  2.0803
    2MPD1    H314098   0.739   1.444  17.412  0.2696  1.4574  1.0466
    2MPD1     N14099   0.564   1.447   0.124  0.2449  0.1024  0.2543
    2MPD1    H514100   0.565   1.401   0.215  1.0669 -0.7868 -0.2050
    2MPD1    N114101   0.840   1.088  17.675 -0.0287 -0.1135  0.1017
    2MPD1    H614102   0.934   1.094  17.636  0.1100  1.0089  0.6084
    2MPD1    H714103   0.850   1.079   0.073 -1.2021 -2.0559  0.0367
    1MPD1     C14104   3.801   0.889  11.317  0.3398  0.7987 -0.0506
    1MPD1    C114105   3.875   0.930  11.207 -0.4890  0.0160 -0.5296
    1MPD1    C214106   3.997   0.987  11.226 -1.2179  0.3298  0.2346
    1MPD1    C314107   4.044   1.019  11.350 -1.2885  0.4778 -0.2360
    1MPD1    C414108   3.961   0.992  11.459 -0.4241  0.5544  0.4862
    1MPD1    C514109   3.844   0.922  11.440 -0.3343  0.0150 -0.1507
    1MPD1     H14110   4.052   1.013  11.136  0.4561 -1.5463  0.7234
    1MPD1    H114111   3.994   1.008  11.561  1.3001  0.7730 -0.1105
    1MPD1    H214112   3.701   0.853  11.296  0.6621  0.4111 -0.9217
    1MPD1    H314113   3.780   0.897  11.523 -0.6740  0.6074 -0.2366
    1MPD1     N14114   4.178   1.077  11.357  0.0836 -0.0574  0.1064
    1MPD1    H514115   4.234   1.078  11.273  0.5785  1.4313  0.4427
    1MPD1    N114116   3.831   0.887  11.082 -0.0441 -0.6080  0.3900
    1MPD1    H614117   3.734   0.860  11.074 -0.7251  1.6164  0.9984
    1MPD1    H714118   3.852   0.957  11.011  0.4099 -1.4309 -0.2846
    2MPD1     C14119   3.399   0.752  11.482 -0.1241 -0.2284 -0.1725
    2MPD1    C114120   3.311   0.718  11.381  0.2615  0.6359 -0.6903
    2MPD1    C214121   3.355   0.642  11.282  0.7093 -0.0833  0.0634
    2MPD1    C314122   3.475   0.575  11.283 -0.2013 -0.5372 -0.5331
    2MPD1    C414123   3.556   0.589  11.394 -0.0793 -0.3630  0.2565
    2MPD1    C514124   3.520   0.681  11.492  0.5787 -0.1664  0.2409
    2MPD1     H14125   3.291   0.638  11.194 -0.8047 -0.6850  1.1820
    2MPD1    H114126   3.651   0.537  11.394  0.5133  0.7258  3.0791
    2MPD1    H214127   3.381   0.829  11.556 -3.0934 -1.0593 -0.0262
    2MPD1    H314128   3.587   0.693  11.577 -1.3250  2.2373  1.4007
    2MPD1     N14129   3.519   0.497  11.175  0.6412  0.1470  0.3476
    2MPD1    H514130   3.614   0.461  11.179 -0.3796 -2.5975  0.0462
    2MPD1    N114131   3.189   0.793  11.371  0.1802  0.3565  0.6548
    2MPD1    H614132   3.122   0.748  11.310  1.8910 -1.3819  0.0558
    2MPD1    H714133   3.150   0.830  11.457  0.1806  1.7194  0.0682
    3MPD1     C14134   3.075   4.483  10.798  0.2675  0.6010 -0.4143
    3MPD1    C114135   3.086   4.546  10.914  0.7273 -0.2559 -0.0100
    3MPD1    C214136   3.166   4.653  10.921  0.6352  0.1877 -0.0828
    3MPD1    C314137   3.253   4.697  10.819 -0.0389 -0.4492 -0.0251
    3MPD1    C414138   3.241   4.627  10.701  0.3436 -0.0488  0.0153
    3MPD1    C514139   3.143   4.527  10.691  0.0589  0.4574 -0.3796
    3MPD1     H14140   3.156   4.716  11.008  1.2985 -1.6928  1.3386
    3MPD1    H114141   3.298   4.646  10.611  3.6951 -4.4924  1.2316
    3MPD1    H214142   3.022   4.388  10.792 -0.8683  1.2683 -0.9197
    3MPD1    H314143   3.149   4.471  10.598 -0.9710  0.5823 -0.5243
    3MPD1     N14144   3.330   0.088  10.830 -0.3100  0.0436 -0.4693
    3MPD1    H514145   3.326   0.136  10.919  0.2009  0.4873 -0.6885
    3MPD1    N114146   2.998   4.521  11.019 -0.4709 -0.4568  0.4193
    3MPD1    H614147   3.015   4.566  11.109 -2.9945  1.8073 -0.2441
    3MPD1    H714148   2.974   4.424  11.039 -1.1822 -0.0483  1.5026
    4MPD2     C14149   4.591   0.988  10.940  0.1015 -0.0842 -0.3625
    4MPD2    C114150   4.633   0.952  11.071 -0.1070  0.1791 -0.4138
    4MPD2    C214151   4.657   0.815  11.087  0.2121 -0.2265  0.1074
    4MPD2    C314152   4.634   0.726  10.984  0.5359  0.8806  0.5169
    4MPD2    C414153   4.579   0.767  10.866  0.0589  0.4905  0.0438
    4MPD2    C514154   4.561   0.899  10.839  0.8016 -0.0505 -0.2572
    4MPD2     H14155   4.688   0.781  11.185 -0.3123 -0.0110  0.3436
    4MPD2    H114156   4.549   0.701  10.786  0.8061 -1.0522  1.0316
    4MPD2    H214157   4.573   1.091  10.912 -2.7119 -0.6188 -0.5618
    4MPD2    H314158   4.518   0.933  10.745 -0.9352  1.1465  0.9655
    4MPD2     N14159   4.658   0.584  10.993  0.0554  0.2144  0.2330
    4MPD2    H514160   4.614   0.527  10.922  0.4526  1.1995 -0.7986
    4MPD2    N114161   4.636   1.034  11.184  0.5767 -0.6544  0.0037
    4MPD2    H714162   4.656   0.987  11.272  3.3473 -2.8164 -1.7515
    5TMC3    C114163   4.566   1.192  11.326 -0.4031 -0.3535 -0.5149
    5TMC3    C214164   4.436   1.204  11.357 -0.0815 -0.4200 -0.1363
    5TMC3    C314165   4.382   1.126  11.456  0.3219  0.7366 -0.5944
    5TMC3    C414166   4.646   1.123  11.408  0.1006  0.2624 -0.1105
    5TMC3    C514167   4.598   1.051  11.512 -0.1532 -0.9342 -0.6631
    5TMC3    C614168   4.464   1.050  11.532  0.4856 -0.6451 -0.8595
    5TMC3     C14169   4.576   1.154  11.190  0.1910  0.0311  0.4861
    5TMC3     O14170   4.500   1.205  11.108 -0.3473  1.0068  0.4618
    5TMC3     H14171   4.366   1.262  11.298  1.4640  0.0928 -1.4557
    5TMC3    H114172   0.027   1.124  11.388  0.1468  0.1669  0.1326
    5TMC3    H214173   4.415   0.993  11.610  0.2486 -1.2542 -1.4451
    5TMC3    C714174   4.656   0.924  11.520 -0.5356  0.1619  0.8148
    5TMC3    C814175   4.237   1.118  11.467  0.5192  0.2777  0.1171
    5TMC3    O114176   4.723   0.892  11.426 -0.6069 -0.6441  0.4663
    5TMC3    O214177   4.197   1.113  11.585 -0.3895  0.3724 -0.6033
    6TMC3    C114178   3.513   0.377  10.971 -0.5507  0.5164  0.2111
    6TMC3    C214179   3.437   0.315  10.873 -0.0823  0.1366  0.4894
    6TMC3    C314180   3.498   0.240  10.783 -0.3494 -0.1573  0.6813
    6TMC3    C414181   3.648   0.356  10.977 -0.0637 -0.1248  0.2009
    6TMC3    C514182   3.710   0.279  10.883  0.7307 -0.1414 -0.1983
    6TMC3    C614183   3.635   0.221  10.779 -0.3155 -0.0014 -0.5783
    6TMC3     C14184   3.445   0.458  11.071  0.0680 -0.4902 -0.0008
    6TMC3     O14185   3.321   0.462  11.064  0.3142 -0.5100 -0.4511
    6TMC3     H14186   3.332   0.342  10.866 -1.0883 -4.6239 -2.4825
    6TMC3    H114187   3.711   0.400  11.053 -1.5475 -0.2308  1.4849
    6TMC3    H214188   3.674   0.152  10.706 -2.5087 -2.0795  0.2057
    6TMC3    C714189   3.848   0.251  10.904  0.2640 -0.5689  0.0810
    6TMC3    C814190   3.432   0.120  10.744  0.7531 -0.2226 -0.3963
    6TMC3    O114191   3.895   0.276  11.018 -0.6039 -0.1277  0.5044
    6TMC3    O214192   3.475   0.058  10.645  0.1748  1.1569  0.3254
    7MPD2     C14193   4.585   0.437  11.663  0.0388 -0.1730 -0.6361
    7MPD2    C114194   4.619   0.494  11.541  0.4402 -0.5219 -0.0008
    7MPD2    C214195   4.634   0.633  11.525  0.0126 -0.6310 -0.3244
    7MPD2    C314196   4.620   0.714  11.632  0.0156  0.0540 -0.5588
    7MPD2    C414197   4.593   0.661  11.753 -0.2872  0.2604  0.9388
    7MPD2    C514198   4.577   0.524  11.771 -0.5776  0.4992  0.2627
    7MPD2     H14199   4.638   0.671  11.424 -0.9590  1.3653  0.3816
    7MPD2    H114200   4.590   0.735  11.832 -0.8946  1.1428  0.0944
    7MPD2    H214201   4.586   0.330  11.677 -2.4926 -0.2825 -1.2074
    7MPD2    H314202   4.537   0.481  11.862 -0.2586  0.2500  0.2805
    7MPD2     N14203   4.612   0.855  11.628  0.5339 -0.1231  0.0519
    7MPD2    H514204   4.583   0.902  11.713 -1.2855 -1.3701  0.1356
    7MPD2    N114205   4.641   0.415  11.427 -0.2107  0.6942 -0.1019
    7MPD2    H714206   4.683   0.460  11.347 -0.8530  0.8705 -0.3453
    8TMC3    C114207   4.645   0.227  11.283 -0.0439 -0.3010  0.5273
    8TMC3    C214208   4.525   0.198  11.225 -0.0150  0.4739  0.6461
    8TMC3    C314209   4.494   0.249  11.104  0.6106  0.1957  0.6511
    8TMC3    C414210   0.006   0.308  11.216  0.6507 -0.5054 -0.3065
    8TMC3    C514211   4.688   0.372  11.102  0.3476  0.4759 -0.4356
    8TMC3    C614212   4.568   0.336  11.042  0.1963 -0.0963  0.0700
    8TMC3     C14213   4.624   0.275  11.421  0.4956  0.1760 -0.2600
    8TMC3     O14214   4.583   0.199  11.503 -0.6885  0.4739  0.4549
    8TMC3     H14215   4.451   0.134  11.271  0.1317 -0.1025  0.0874
    8TMC3    H114216   0.099   0.345  11.256  1.2021  1.1634 -3.0879
    8TMC3    H214217   4.524   0.385  10.956  2.7878  0.8584 -0.7268
    8TMC3    C714218   4.719   0.518  11.101 -0.2652  0.0937 -0.0655
    8TMC3    C814219   4.366   0.216  11.044 -0.2598  0.3366  0.0126
    8TMC3    O114220   0.034   0.550  11.209  0.5126 -0.0840  0.0660
    8TMC3    O214221   4.270   0.202  11.115  0.3100 -0.5998 -0.1401
    9MPD2     C14222   4.307   0.134  10.700  0.8011 -0.5504 -0.5660
    9MPD2    C114223   4.269   0.168  10.825  0.0908 -0.0414 -0.0471
    9MPD2    C214224   4.135   0.201  10.860  0.2761  0.1655  0.4331
    9MPD2    C314225   4.039   0.173  10.764 -0.3987  0.6951  0.9609
    9MPD2    C414226   4.076   0.112  10.644  0.4245  0.4144  0.0031
    9MPD2    C514227   4.214   0.106  10.606  0.4837  0.0705  0.1003
    9MPD2     H14228   4.112   0.251  10.953  0.6481  2.6478 -0.8003
    9MPD2    H114229   4.002   0.087  10.568 -0.3678  1.1618  0.5239
    9MPD2    H214230   4.409   0.117  10.667  0.7518 -0.4227 -0.7844
    9MPD2    H314231   4.239   0.052  10.516 -3.8129 -0.6402 -0.6956
    9MPD2     N14232   3.901   0.191  10.791 -0.2564 -0.0610 -0.3619
    9MPD2    H514233   3.835   0.162  10.719 -0.3840 -0.9009  0.0850
    9MPD2    N114234   4.378   0.197  10.911 -0.6059  0.0272  0.4239
    9MPD2    H714235   4.469   0.211  10.869  0.0304 -1.2478  1.3745
    1MPD1     C14236   2.602   3.683  15.897 -0.5499  0.0706  0.2852
    1MPD1    C114237   2.588   3.803  15.831  0.3477 -1.0360 -0.2831
    1MPD1    C214238   2.695   3.863  15.771  0.5237  0.6246 -0.8744
    1MPD1    C314239   2.817   3.796  15.773  0.2219 -0.2285 -0.0827
    1MPD1    C414240   2.830   3.671  15.829  0.1930  0.3333 -0.3262
    1MPD1    C514241   2.726   3.619  15.900  0.5062 -0.5944 -0.2682
    1MPD1     H14242   2.679   3.956  15.718 -0.6212  0.6498 -0.4856
    1MPD1    H114243   2.930   3.629  15.830 -0.8992 -2.1663  1.5385
    1MPD1    H214244   2.522   3.629  15.945 -0.6321 -0.9371 -0.9801
    1MPD1    H314245   2.731   3.520  15.944 -3.3490 -0.2079  1.0483
    1MPD1     N14246   2.934   3.857  15.718  0.4063 -0.4845 -0.4601
    1MPD1    H514247   3.017   3.799  15.728  0.7347 -0.1812 -1.4652
    1MPD1    N114248   2.459   3.851  15.819 -0.0295  0.2353  0.3512
    1MPD1    H614249   2.403   3.824  15.900 -3.4633 -0.5227 -2.2680
    1MPD1    H714250   2.452   3.952  15.812  1.3367  0.2609 -0.5777
    2MPD1     C14251   3.671   4.612  15.411 -0.1327  0.3051 -0.1664
    2MPD1    C114252   3.712   4.485  15.365  0.4901  0.6497 -0.4610
    2MPD1    C214253   3.634   4.374  15.405  0.6798 -0.1970 -0.2299
    2MPD1    C314254   3.526   4.388  15.489 -0.7073  0.2300  0.7224
    2MPD1    C414255   3.502   4.514  15.544  0.9613  0.8227  0.1529
    2MPD1    C514256   3.574   4.627  15.510  0.0032 -0.4684 -0.3446
    2MPD1     H14257   3.665   4.287  15.348 -2.0694 -1.8971  0.8220
    2MPD1    H114258   3.421   4.538  15.612  0.4750 -1.1129  0.2308
    2MPD1    H214259   3.730   4.700  15.385  0.5874 -0.1889 -0.2261
    2MPD1    H314260   3.549   0.005  15.532  0.4192 -0.5148  0.3563
    2MPD1     N14261   3.449   4.270  15.523 -0.2415  0.0151 -0.2358
    2MPD1    H514262   3.460   4.178  15.481  0.4507  0.8522 -1.8977
    2MPD1    N114263   3.816   4.475  15.273 -0.1713 -0.4371 -0.0859
    2MPD1    H614264   3.884   4.549  15.291 -1.3052  0.9102 -1.3481
    2MPD1    H714265   3.861   4.384  15.269 -1.2691 -1.1068  2.7562
    3TCq2    C114266   3.340   4.271  15.608 -0.5194  0.1523 -0.5872
    3TCq2    O214267   3.287   4.361  15.666 -0.1667  0.1429 -0.2654
    3TCq2    C214268   3.278   4.135  15.593 -0.6002 -0.3945 -0.0502
    3TCq2    C314269   3.348   4.026  15.548  0.1793 -0.3678  0.2572
    3TCq2    C414270   3.284   3.910  15.534 -0.4565  0.2576 -0.2519
    3TCq2    C514271   3.151   3.902  15.560 -0.3773  0.4691 -0.6651
    3TCq2    C614272   3.090   4.003  15.617  0.0301 -0.6556  0.2741
    3TCq2    C714273   3.149   4.128  15.627 -0.3119  0.5309  0.3428
    3TCq2    C814274   2.962   3.986  15.681  0.0111  0.6324  1.2489
    3TCq2    O414275   2.886   4.079  15.698  0.0189  0.6588 -0.1011
    3TCq2    C914276   3.360   3.800  15.493 -0.2068  0.4627  0.0676
    3TCq2    O514277   3.483   3.802  15.509 -0.5567 -0.8655  0.0339
    3TCq2    O614278   3.292   3.695  15.470  0.1820  0.4211  0.5137
    3TCq2    H214279   3.456   4.025  15.547  0.2354  2.6410  1.5964
    3TCq2    H314280   3.093   3.813  15.537  1.0414 -0.6786  0.1980
    3TCq2    H414281   3.094   4.213  15.664 -1.4800  0.0732 -0.3570
    1TCq1    O114282   1.849   1.814  12.704 -0.0247 -0.3832  0.0641
    1TCq1    C114283   1.728   1.830  12.651  0.2757 -0.1272 -0.8190
    1TCq1    O214284   1.645   1.746  12.636 -0.1094 -0.4447  0.2218
    1TCq1    C214285   1.721   1.967  12.602 -0.4452  0.3254  1.2442
    1TCq1    C314286   1.599   2.034  12.611  0.1949 -0.0870 -0.2526
    1TCq1    C414287   1.592   2.164  12.575  0.4179  0.5722  0.7484
    1TCq1    C514288   1.711   2.230  12.535  0.3326  0.1561 -0.0683
    1TCq1    C614289   1.826   2.159  12.532  0.8424  0.2087  0.1078
    1TCq1    C714290   1.842   2.028  12.564 -0.2186  0.0249 -0.4490
    1TCq1    C814291   1.946   2.234  12.514  0.1026 -0.0171 -0.4742
    1TCq1    O414292   2.051   2.171  12.503 -0.2697 -0.1472 -0.2045
    1TCq1    C914293   1.468   2.241  12.599  0.1276 -0.6042  0.6045
    1TCq1    O514294   1.439   2.356  12.539 -0.0799 -0.1669  0.4942
    1TCq1    O614295   1.398   2.205  12.697  0.4454 -0.3843 -0.1226
    1TCq1    H114296   1.898   1.898  12.707 -0.4909 -0.1115  0.0791
    1TCq1    H214297   1.510   1.983  12.645 -0.0314 -0.5741 -1.6012
    1TCq1    H314298   1.699   2.334  12.507  0.4261  0.1771 -0.0296
    1TCq1    H414299   1.945   1.995  12.571 -0.2015  0.8100  3.1095
    2MPD2     C14300   2.178   2.433  12.546 -0.2565 -0.6607  0.2613
    2MPD2    C114301   2.045   2.448  12.582  0.1628 -0.1826 -0.1286
    2MPD2    C214302   2.010   2.566  12.644 -1.0035  0.1457 -0.8850
    2MPD2    C314303   2.108   2.655  12.681  0.6003 -1.6380 -0.0125
    2MPD2    C414304   2.235   2.646  12.624  0.5928 -0.3874 -0.3596
    2MPD2    C514305   2.271   2.532  12.556  0.3100 -0.3696  0.3351
    2MPD2     H14306   1.907   2.576  12.675 -0.0737  2.8847  1.3916
    2MPD2    H114307   2.314   2.720  12.630 -0.3767  0.5778  0.5795
    2MPD2    H214308   2.217   2.345  12.497  0.3993 -0.0184 -0.3849
    2MPD2    H314309   2.368   2.531  12.507 -0.3911 -0.0179 -1.0696
    2MPD2     N14310   2.070   2.760  12.761  0.6125  0.1432  0.5884
    2MPD2    H514311   1.970   2.767  12.779  0.2757 -0.2364 -1.2156
    2MPD2    N114312   1.934   2.362  12.555 -0.1678  0.0414  0.0080
    2MPD2    H714313   1.846   2.395  12.592 -0.5338  2.6817 -3.2590
    3TCq1    O114314   2.213   3.290  13.049 -0.1920  0.3253  0.3146
    3TCq1    C114315   2.080   3.294  13.033  0.1260 -1.3549  0.4145
    3TCq1    O214316   2.010   3.396  13.031  0.4642  0.8352 -0.3901
    3TCq1    C214317   2.032   3.155  13.008 -0.1175 -0.2466  0.0176
    3TCq1    C314318   1.899   3.132  13.026  0.4263 -0.3894 -0.2824
    3TCq1    C414319   1.860   3.006  13.005 -0.0395  0.4056  0.0970
    3TCq1    C514320   1.947   2.918  12.940  0.6393 -0.6140  0.3087
    3TCq1    C614321   2.077   2.945  12.912  0.2762  0.5556 -0.5843
    3TCq1    C714322   2.121   3.069  12.944  0.1372 -0.3992 -0.5646
    3TCq1    C814323   2.146   2.861  12.815  0.1612 -0.4029  0.6893
    3TCq1    O414324   2.263   2.888  12.802 -0.5777 -0.2596  0.0124
    3TCq1    C914325   1.724   2.967  13.039 -0.1622  0.3077  0.3192
    3TCq1    O514326   1.690   2.847  13.014 -0.2149 -0.4804 -0.3262
    3TCq1    O614327   1.650   3.064  13.068 -0.0813 -0.0018  0.2664
    3TCq1    H114328   2.254   3.201  13.057  1.5767  1.2265  1.3109
    3TCq1    H214329   1.845   3.208  13.083 -0.5978 -1.8371  0.6907
    3TCq1    H314330   1.912   2.816  12.943 -2.4347  0.4517  0.7481
    3TCq1    H414331   2.222   3.103  12.926 -0.1451  1.2177  0.9118
    1MPD2     C14332   1.803   4.129  14.777  0.4488  0.3792 -0.3157
    1MPD2    C114333   1.722   4.021  14.757 -0.0585 -0.4201  0.2288
    1MPD2    C214334   1.784   3.893  14.772  0.7792 -0.4236 -0.3986
    1MPD2    C314335   1.907   3.879  14.838  0.9911  0.2903 -0.8497
    1MPD2    C414336   1.986   3.993  14.860  0.3549 -0.2741  0.1202
    1MPD2    C514337   1.937   4.121  14.822  0.1297  0.1756 -0.4231
    1MPD2     H14338   1.737   3.797  14.752 -2.4916  0.6178  2.1739
    1MPD2    H114339   2.088   3.989  14.896  0.3324  3.9665  0.5900
    1MPD2    H214340   1.763   4.229  14.759 -1.7177 -0.4042  0.2136
    1MPD2    H314341   1.995   4.207  14.855 -0.4999  0.0161  1.0814
    1MPD2     N14342   1.959   3.749  14.854 -0.2892  0.9232 -0.1855
    1MPD2    H514343   1.909   3.666  14.821  0.8960  0.8765 -1.8845
    1MPD2    N114344   1.586   4.034  14.715  0.7271  0.3594  0.0705
    1MPD2    H714345   1.552   4.129  14.701 -1.1407 -0.3064  0.2208
    2TMC3    C114346   1.370   3.963  14.655 -0.1143 -0.0684  0.8231
    2TMC3    C214347   1.287   3.855  14.660  0.2172  0.4610  0.4414
    2TMC3    C314348   1.207   3.819  14.552 -0.0543  0.1054  0.0414
    2TMC3    C414349   1.373   4.048  14.548  0.9191  0.5005  0.6879
    2TMC3    C514350   1.290   4.014  14.442 -0.6471 -0.6239  0.3766
    2TMC3    C614351   1.215   3.898  14.437  0.2582  0.3588  0.5569
    2TMC3     C14352   1.503   3.927  14.707 -0.7673  0.2990  0.2903
    2TMC3     O14353   1.516   3.808  14.739 -0.3075 -0.4434 -0.5329
    2TMC3     H14354   1.284   3.805  14.756 -1.2516  1.7343  1.0645
    2TMC3    H114355   1.435   4.137  14.545  0.8402  0.5696  1.2090
    2TMC3    H214356   1.157   3.863  14.353  1.6036  1.4484 -0.8322
    2TMC3    C714357   1.277   4.102  14.326  0.2782 -0.2871 -0.1384
    2TMC3    C814358   1.223   3.679  14.518  0.2121 -0.1110  1.0127
    2TMC3    O114359   1.224   4.051  14.230 -0.2465 -0.2364  0.4987
    2TMC3    O214360   1.123   3.617  14.475 -0.4035  0.0971  0.4285
    3TCq1    O114361   1.571   0.591  14.357  0.4115 -0.7474  0.2923
    3TCq1    C114362   1.500   0.491  14.297 -0.1540 -0.2062 -0.5250
    3TCq1    O214363   1.446   0.503  14.186 -0.0552  0.1196  0.7083
    3TCq1    C214364   1.446   0.395  14.392 -0.0605 -0.0211  0.2182
    3TCq1    C314365   1.506   0.375  14.515  0.1753 -0.3654 -0.3358
    3TCq1    C414366   1.475   0.258  14.581  0.7037 -0.5109 -0.4850
    3TCq1    C514367   1.372   0.180  14.527  0.6835 -0.4123 -0.3230
    3TCq1    C614368   1.312   0.207  14.410 -0.1694  0.1064  0.1259
    3TCq1    C714369   1.350   0.310  14.341 -0.1872  0.0952  1.0747
    3TCq1    C814370   1.247   0.112  14.324  0.3872 -0.3186 -0.1703
    3TCq1    O414371   1.150   0.145  14.253 -0.1712 -0.2985  0.2771
    3TCq1    C914372   1.550   0.209  14.695  0.8851 -0.2814  0.3061
    3TCq1    O514373   1.641   0.285  14.736 -0.4457 -0.3368 -0.7681
    3TCq1    O614374   1.499   0.104  14.749  0.1643  0.7005  0.0135
    3TCq1    H114375   1.563   0.594  14.455  2.4134  0.9561  0.4052
    3TCq1    H214376   1.579   0.445  14.555  0.3874 -0.7346 -0.0872
    3TCq1    H314377   1.335   0.095  14.584 -1.3986  1.0261  0.4882
    3TCq1    H414378   1.288   0.362  14.268  0.8241 -1.7203 -1.0926
    4MPD2     C14379   1.154   4.585  14.197 -0.2750 -0.5730  0.3701
    4MPD2    C114380   1.252   4.588  14.291 -0.2706 -0.1390 -0.1252
    4MPD2    C214381   1.311   4.471  14.336  1.0927  0.4883 -0.1026
    4MPD2    C314382   1.273   4.346  14.294  0.2064  0.7401  0.4402
    4MPD2    C414383   1.178   4.340  14.193 -0.4277  0.5274 -0.2579
    4MPD2    C514384   1.130   4.459  14.148  0.4389 -0.2404 -0.9788
    4MPD2     H14385   1.383   4.474  14.418  1.0552 -1.2500  0.0035
    4MPD2    H114386   1.137   4.248  14.152 -0.8623  1.4691 -1.9393
    4MPD2    H214387   1.118   4.668  14.138  1.7660  1.2714  1.7140
    4MPD2    H314388   1.051   4.453  14.074  0.0045  0.6925 -0.5973
    4MPD2     N14389   1.319   4.228  14.353 -0.6089 -0.0963  0.0835
    4MPD2    H514390   1.377   4.253  14.433 -1.3307  1.6276  0.0443
    4MPD2    N114391   1.289   4.709  14.352 -0.0396  0.1227  0.3835
    4MPD2    H714392   1.370   4.705  14.414 -0.2946  0.7501  0.7549
    5TMC2    C114393   1.908   3.431  14.784 -0.2821 -0.0387  0.8617
    5TMC2    C214394   1.845   3.379  14.890 -0.5490 -0.3730 -0.6333
    5TMC2    C314395   1.893   3.414  15.012  0.0276  0.1290  0.1220
    5TMC2    C414396   2.009   3.522  14.803  0.2054  0.0791 -0.0790
    5TMC2    C514397   2.050   3.553  14.927 -0.2583  0.2808  0.3937
    5TMC2    C614398   1.988   3.505  15.038 -0.4608 -0.1184  0.6339
    5TMC2     C14399   1.820   3.466  14.685 -0.0078  0.4765  0.7673
    5TMC2     O14400   1.828   3.584  14.653 -0.0844  0.5170  0.3609
    5TMC2     H14401   1.758   3.314  14.884  0.6609 -1.8675 -2.0456
    5TMC2    H114402   2.075   3.562  14.726 -0.8136 -0.0623 -1.0321
    5TMC2    H214403   2.001   3.552  15.134 -2.4003  0.5061  0.5904
    5TMC2    C714404   2.063   3.706  14.934 -0.0635  0.0237 -0.2929
    5TMC2    C814405   1.819   3.363  15.122  1.4630 -0.3733  0.1462
    5TMC2    O114406   2.131   3.764  15.019 -0.1361 -0.0705 -0.8768
    5TMC2    O214407   1.862   3.319  15.229  0.2945  0.4605 -0.3541
    5TMC2    O514408   1.700   3.424  15.107  0.2495  0.3583  0.4021
    5TMC2    H514409   1.698   3.485  15.031  2.4345 -0.8971 -0.6414
    6MPD2     C14410   1.379   3.422  14.445  0.0553  0.0246  0.0894
    6MPD2    C114411   1.422   3.523  14.526 -0.4392 -0.6191 -0.0046
    6MPD2    C214412   1.541   3.512  14.587  0.5047 -0.4070 -0.5114
    6MPD2    C314413   1.620   3.399  14.574  0.4984 -0.4133  0.4425
    6MPD2    C414414   1.570   3.295  14.497 -0.4996 -0.3126  0.2446
    6MPD2    C514415   1.450   3.308  14.429 -0.8868  0.2624 -0.1963
    6MPD2     H14416   1.573   3.593  14.653  1.0802 -0.1076 -1.1532
    6MPD2    H114417   1.610   3.195  14.490 -0.0215 -0.0288 -1.1052
    6MPD2    H214418   1.279   3.434  14.403  0.4537 -1.8559 -1.3884
    6MPD2    H314419   1.408   3.229  14.367 -0.2710 -0.5461  0.4286
    6MPD2     N14420   1.734   3.371  14.647 -0.2250  0.3747  0.0854
    6MPD2    H514421   1.757   3.274  14.665 -1.9484  0.0601  0.5977
    6MPD2    N114422   1.354   3.644  14.553  0.2975 -0.6733  0.6013
    6MPD2    H714423   1.403   3.703  14.619 -1.0708  1.3294 -0.1748
  945NH3     N114424   2.277   0.196   8.539  0.2688 -0.4543  0.1275
  945NH3     H214425   2.181   0.215   8.515  0.3984  1.4322  1.0713
  945NH3     H314426   2.290   0.266   8.612 -1.7040 -0.9809  0.9998
  945NH3     H414427   2.259   0.110   8.590  0.2248 -0.6283 -0.1871
  946SOD     NA14428   3.624   1.795  12.720  0.2395  0.2527 -0.7456
  947SOD     NA14429   3.220   3.922  13.642  0.4324  0.2029 -0.2472
  948SOD     NA14430   2.380   2.593  11.452  0.6400  0.1732 -0.2706
  949SOD     NA14431   3.785   0.303   0.753  0.7159 -0.1492  0.1626
  950SOD     NA14432   4.041   3.708   4.518 -0.2752  0.5531 -0.2244
  951SOD     NA14433   1.550   2.149  10.257  0.0652  0.5105 -0.7553
  952SOD     NA14434   0.877   3.738  10.894 -0.3511 -0.8938  0.5657
  953SOD     NA14435   3.921   1.507   3.024 -0.4652  0.4315  0.3930
  954SOD     NA14436   3.702   0.057  11.628  0.6545 -0.1409 -0.2565
  955SOD     NA14437   2.686   4.195  15.313  0.2507 -0.4066 -0.0159
  956SOD     NA14438   3.209   1.496   6.019  0.1007  0.5710  0.0546
  957SOD     NA14439   2.065   0.709  13.116 -0.1024  0.1130  0.1051
  958SOD     NA14440   0.945   1.157   7.483  0.1236 -0.1809 -0.0604
  959SOD     NA14441   4.256   3.488  14.780  0.6252 -0.1950 -0.0770
  960SOD     NA14442   3.807   0.116  13.293 -0.2107 -0.1155  0.6128
  961SOD     NA14443   1.123   2.404  10.771 -0.4027 -0.2583  0.4126
  962SOD     NA14444   4.404   2.134  14.090 -0.0721 -0.1188  0.0610
  963SOD     NA14445   0.772   1.821  12.787  0.0872  0.1745  0.1209
  964SOD     NA14446   1.295   2.174  10.537 -0.1813  0.0362 -0.0262
  965SOD     NA14447   4.500   0.288   8.257 -0.7281  0.1175  0.6440
  966SOD     NA14448   1.663   4.447  15.048  0.3838  0.4214  0.3047
  967SOD     NA14449   0.792   0.999   2.597  0.0697  0.2212 -0.0134
  968SOD     NA14450   2.464   2.561  12.080 -0.1481  0.0095  0.1330
  969SOD     NA14451   1.932   3.438  12.040  0.1462 -0.2299 -0.2266
  970SOD     NA14452   2.909   0.089  11.333 -0.1462  0.3994 -0.2124
  971SOD     NA14453   0.068   1.871   1.420 -0.1847 -0.1021  0.0215
  972SOD     NA14454   4.428   2.559  12.735 -0.6368  0.0397 -0.5600
  973SOD     NA14455   1.492   2.149   0.482  0.2038 -0.1615  0.1273
  974SOD     NA14456   2.041   4.048  11.936 -0.0839  0.2019 -0.1190
  975SOD     NA14457   2.718   4.219  15.678  0.0365  0.1612 -0.0731
  976SOD     NA14458   2.520   0.774  15.767 -0.1444  0.0656 -0.4413
  977SOD     NA14459   3.116   2.673  13.096 -0.0757  0.0352  0.1873
  978SOD     NA14460   0.820   4.672  12.384 -0.5257  0.1205  0.1662
  979SOD     NA14461   3.020   3.094  11.310 -0.0761 -0.5575 -0.3848
  980SOD     NA14462   0.123   0.871  15.998 -0.2215  0.1175  0.0169
  981SOD     NA14463   4.646   3.351   9.486  0.0545 -0.1672  0.1449
  982SOD     NA14464   3.299   4.647  16.052 -0.2575  0.2031 -0.0978
  983SOD     NA14465   3.174   3.798   5.728  0.3027 -0.6511  0.3692
  984SOD     NA14466   3.112   3.598   2.201 -0.5158 -0.1747 -0.2831
  985SOD     NA14467   2.664   2.658   9.627 -0.2367  0.3882  0.8297
  986SOD     NA14468   1.336   2.641   9.980  0.2627 -0.2671 -0.4764
  987SOD     NA14469   1.986   4.233   8.666 -0.1656 -0.5885 -0.2790
  988SOD     NA14470   2.544   1.260  10.151  0.2834 -0.2458 -0.5735
  989SOD     NA14471   0.455   0.679   9.211  0.7212 -0.2814 -0.4046
  990SOD     NA14472   3.090   1.289  14.881 -0.2595  0.4393 -0.4593
  991SOD     NA14473   3.742   4.501  15.046  0.1598 -0.2179  0.4748
  992SOD     NA14474   1.299   2.407  12.746 -0.3048 -0.3744 -0.1088
  993SOD     NA14475   0.337   3.711   9.694  0.0403 -0.6898  0.2114
  994SOD     NA14476   2.048   3.005  10.671  0.5193  0.2575  0.3661
  995SOD     NA14477   3.595   3.982  12.826  0.1295 -0.0305 -0.2363
  996SOD     NA14478   2.356   1.937   2.123 -0.3411  0.1507  0.3936
  997SOD     NA14479   3.377   2.652   9.186 -0.2180  0.1995  0.1678
  998SOD     NA14480   3.687   1.851   1.009 -0.3106 -0.2554 -0.2373
  999SOD     NA14481   1.644   4.343   2.057 -0.3515 -0.4870  0.0047
 1000SOD     NA14482   1.469   4.704   7.507 -0.2079  0.0841  0.0714
 1001SOD     NA14483   1.094   2.360  10.441  0.4311 -0.1476  1.0600
 1002SOD     NA14484   2.451   3.478  13.922  0.1732  0.1856  0.3118
 1003SOD     NA14485   4.226   1.211   2.515 -0.1701 -0.0362  0.5047
 1004SOD     NA14486   4.624   4.347   2.603 -0.2064 -0.1527  0.0353
 1005SOD     NA14487   1.231   2.084  12.754 -0.3299  0.4232 -0.0293
 1006SOD     NA14488   1.350   2.416  10.261 -0.2161 -0.3389  0.0587
 1007SOD     NA14489   3.273   3.469   0.993 -0.3983  0.4206 -0.4767
 1008SOD     NA14490   1.207   2.436  15.357  0.0061  0.3935  0.4547
 1009SOD     NA14491   3.251   4.043  13.310  0.4992 -0.2245  0.1643
 1010SOD     NA14492   3.118   0.778   0.366  0.0654 -0.3418 -0.2258
 1011SOD     NA14493   2.266   3.176   0.569  0.1998 -0.2655  0.3415
 1012SOL     OW14494   2.152   4.718   3.128 -0.6598  0.1823 -0.1993
 1012SOL    HW114495   2.243   0.018   3.140 -1.0830  1.6296 -0.0460
 1012SOL    HW214496   2.167   4.625   3.115 -0.0740 -0.0084  1.8741
 1013SOL     OW14497   3.008   0.329   7.592 -0.2235  0.2802 -0.3272
 1013SOL    HW114498   3.011   0.294   7.681  0.0312  0.7245 -0.1590
 1013SOL    HW214499   3.091   0.307   7.550 -0.5546  0.2758 -0.9807
 1014SOL     OW14500   1.736   4.511  10.801  0.1560 -0.6014  0.4110
 1014SOL    HW114501   1.756   4.573  10.872  2.0169  1.5727 -2.0327
 1014SOL    HW214502   1.810   4.450  10.799 -0.5357 -1.4378  0.3413
 1015SOL     OW14503   2.330   0.656  10.384  0.2460  0.5738  0.6092
 1015SOL    HW114504   2.264   0.614  10.439 -0.6054  0.8978 -0.1611
 1015SOL    HW214505   2.277   0.695  10.315  2.2570 -2.2172 -2.5629
 1016SOL     OW14506   1.415   1.331   2.853 -0.1339 -0.4863  0.0754
 1016SOL    HW114507   1.343   1.282   2.813 -0.2061  1.0191 -1.6421
 1016SOL    HW214508   1.427   1.266   2.922 -1.3158 -0.7547  0.0373
 1017SOL     OW14509   1.796   0.367   2.385  0.3559 -0.2266  0.1861
 1017SOL    HW114510   1.763   0.378   2.474 -0.5587 -2.1042  0.0622
 1017SOL    HW214511   1.869   0.306   2.396  1.4315  0.9059 -0.6499
 1018SOL     OW14512   3.799   1.740  13.981  0.2771 -0.9605 -0.4646
 1018SOL    HW114513   3.704   1.734  13.979  0.1609  0.6620  1.4357
 1018SOL    HW214514   3.813   1.684  14.057 -2.0898  0.3698  0.9284
 1019SOL     OW14515   2.425   3.116   7.101  0.2149  0.3004 -0.5500
 1019SOL    HW114516   2.446   3.035   7.055 -0.7506 -1.3879  1.9600
 1019SOL    HW214517   2.344   3.088   7.145  0.7697  2.6824  1.9711
 1020SOL     OW14518   0.746   2.145  11.261  0.1272  0.3450  0.0824
 1020SOL    HW114519   0.763   2.226  11.214 -0.9398  1.3639  1.4661
 1020SOL    HW214520   0.822   2.152  11.319 -0.7775 -0.3547  1.3583
 1021SOL     OW14521   0.130   0.795   3.966  0.5547  0.3660 -0.3298
 1021SOL    HW114522   0.220   0.829   3.956  1.3402 -2.0371 -1.3990
 1021SOL    HW214523   0.085   0.869   4.008  1.7820  0.8001  0.2446
 1022SOL     OW14524   3.644   1.098   4.123  0.2831  0.1940  0.4668
 1022SOL    HW114525   3.730   1.057   4.135 -0.2949 -0.3979  2.6330
 1022SOL    HW214526   3.584   1.024   4.132 -2.2205  2.2038  0.2632
 1023SOL     OW14527   1.344   2.818  16.789 -0.4552  0.2770 -0.0588
 1023SOL    HW114528   1.417   2.773  16.747 -1.1509 -1.0699  0.1896
 1023SOL    HW214529   1.345   2.779  16.876  1.9004  3.6890  1.4728
 1024SOL     OW14530   0.377   0.781   2.217 -0.4863 -0.1201  0.3283
 1024SOL    HW114531   0.439   0.778   2.144  1.4812  0.7218  1.9625
 1024SOL    HW214532   0.299   0.746   2.174 -0.8786  1.8613 -0.5645
 1025SOL     OW14533   0.505   4.041   0.417  0.5730  0.4754 -0.0854
 1025SOL    HW114534   0.415   4.071   0.408  0.4978  0.5128  0.8395
 1025SOL    HW214535   0.527   4.036   0.324 -0.2927 -0.6597 -0.2312
 1026SOL     OW14536   3.538   4.549   6.659 -0.2914  0.2840  0.1914
 1026SOL    HW114537   3.510   4.482   6.721 -0.0437  0.1528  0.1631
 1026SOL    HW214538   3.534   4.621   6.722 -0.4223 -1.4728  2.1943
 1027SOL     OW14539   0.117   1.661   2.266 -0.3515 -0.2343 -0.4320
 1027SOL    HW114540   0.062   1.609   2.207  1.2604 -1.6860 -0.6435
 1027SOL    HW214541   0.053   1.672   2.336  1.6331 -1.7994  1.6164
 1028SOL     OW14542   3.505   4.248   8.405  0.0639  0.0707  0.2001
 1028SOL    HW114543   3.531   4.318   8.466 -0.6266  0.5116 -0.0118
 1028SOL    HW214544   3.411   4.257   8.420 -0.3210 -0.7090 -1.7365
 1029SOL     OW14545   2.646   3.443  17.285 -0.0520 -0.2162  0.1544
 1029SOL    HW114546   2.634   3.395  17.367  0.8437 -1.1553 -0.2689
 1029SOL    HW214547   2.671   3.368  17.231 -0.9402 -0.9316  0.7449
 1030SOL     OW14548   1.133   1.140  10.712  0.4334 -0.3086 -0.6794
 1030SOL    HW114549   1.204   1.169  10.770 -1.1491 -0.7954  1.5302
 1030SOL    HW214550   1.066   1.117  10.777  0.0295  0.8796 -0.6787
 1031SOL     OW14551   2.823   0.890   1.161 -0.0017  0.6217  0.6625
 1031SOL    HW114552   2.786   0.909   1.074  0.2807  1.5193  0.7385
 1031SOL    HW214553   2.753   0.838   1.200 -0.4198  0.1651 -0.6692
 1032SOL     OW14554   1.977   1.076   6.051 -0.5315  0.0172 -0.3014
 1032SOL    HW114555   1.966   1.129   5.972  1.9211 -1.1715 -1.4183
 1032SOL    HW214556   1.927   1.135   6.108 -0.6997 -0.6215  0.2172
 1033SOL     OW14557   0.604   4.205   8.393  0.1886 -0.0484 -0.7918
 1033SOL    HW114558   0.555   4.123   8.385  0.7230 -0.5323  1.0539
 1033SOL    HW214559   0.695   4.196   8.366  0.3610  1.0800 -0.6173
 1034SOL     OW14560   1.991   4.678   2.373  0.2712  0.3359 -0.0173
 1034SOL    HW114561   1.912   4.632   2.345  0.0596  0.0268  1.0624
 1034SOL    HW214562   1.989   4.680   2.469  1.2133 -2.6813  0.0459
 1035SOL     OW14563   0.208   4.429  17.117 -0.2838  0.8342  0.4154
 1035SOL    HW114564   0.280   4.366  17.123 -0.9906 -0.2066 -1.9210
 1035SOL    HW214565   0.159   4.391  17.190 -2.1293 -0.3457 -1.4399
 1036SOL     OW14566   3.253   4.277  16.398 -0.1363  0.6828  0.0497
 1036SOL    HW114567   3.291   4.189  16.386 -0.6045  0.7477 -1.8747
 1036SOL    HW214568   3.202   4.270  16.318 -0.1443  0.1770  0.0974
 1037SOL     OW14569   3.551   1.485  13.760 -0.0522 -0.2003 -0.3583
 1037SOL    HW114570   3.526   1.560  13.813 -0.3032 -2.4335  2.7175
 1037SOL    HW214571   3.474   1.432  13.783  0.1692 -0.4529 -0.1931
 1038SOL     OW14572   2.666   2.140   3.138 -0.1967 -0.1406  0.3776
 1038SOL    HW114573   2.585   2.185   3.160  0.6404  1.3708  0.4301
 1038SOL    HW214574   2.664   2.136   3.043 -0.9695 -3.5445  0.5379
 1039SOL     OW14575   0.810   0.000   5.481  0.2515 -0.6806 -0.3801
 1039SOL    HW114576   0.812   0.069   5.548 -1.8930  0.5889 -1.5938
 1039SOL    HW214577   0.756   0.040   5.413 -2.1842 -0.6131  1.5450
 1040SOL     OW14578   0.841   2.213   5.729 -0.4978 -0.0349  0.1434
 1040SOL    HW114579   0.831   2.121   5.706  0.4948 -0.1211  0.0501
 1040SOL    HW214580   0.843   2.254   5.642  0.0082  0.6530  0.4773
 1041SOL     OW14581   2.533   1.014  12.208  0.6111  0.0133 -0.1076
 1041SOL    HW114582   2.567   0.998  12.120  1.6819  1.9274 -0.0369
 1041SOL    HW214583   2.470   0.943  12.221 -1.2681  1.4887 -1.2253
 1042SOL     OW14584   1.536   2.517   7.816  0.6248  0.2080  0.2902
 1042SOL    HW114585   1.527   2.612   7.823 -0.2080  0.1372  0.1446
 1042SOL    HW214586   1.455   2.493   7.861 -0.7464 -0.3338 -2.5298
 1043SOL     OW14587   1.990   2.380  17.642 -0.0255  0.2528  0.5190
 1043SOL    HW114588   1.958   2.446   0.000  0.7063  0.6604  0.4631
 1043SOL    HW214589   2.075   2.358  17.678  0.4821  0.3507 -0.6038
 1044SOL     OW14590   0.601   4.286   2.978 -0.1843  0.0698 -0.2959
 1044SOL    HW114591   0.654   4.366   2.972 -0.9137  0.6083  0.5133
 1044SOL    HW214592   0.674   4.237   3.015  1.0258  0.3613 -2.2923
 1045SOL     OW14593   2.985   0.869   4.401 -0.2881  0.0208  0.1541
 1045SOL    HW114594   2.987   0.776   4.377 -1.3357  0.5405 -1.9264
 1045SOL    HW214595   2.904   0.873   4.452  1.6603  2.1198  3.0419
 1046SOL     OW14596   1.212   2.569   0.153 -0.4550 -0.5322 -0.4485
 1046SOL    HW114597   1.305   2.585   0.171 -1.1345  0.4423  2.2172
 1046SOL    HW214598   1.213   2.533   0.064  1.1126  0.9070 -1.0171
 1047SOL     OW14599   3.569   3.683   7.220 -0.3173 -0.0449  0.2514
 1047SOL    HW114600   3.585   3.767   7.263 -1.0825  0.3155 -0.1654
 1047SOL    HW214601   3.624   3.633   7.280 -1.4410  0.4693  1.7076
 1048SOL     OW14602   0.003   1.297   4.333  0.2979  0.4234 -0.2381
 1048SOL    HW114603   0.037   1.353   4.403  0.2200  0.3927 -0.1755
 1048SOL    HW214604   0.028   1.347   4.255  1.6515 -0.1432 -0.1645
 1049SOL     OW14605   2.731   2.668   4.545 -0.5457 -0.5652 -0.3364
 1049SOL    HW114606   2.683   2.614   4.483 -1.2282  0.6403 -0.8551
 1049SOL    HW214607   2.792   2.601   4.576 -2.2909 -2.2560 -0.5549
 1050SOL     OW14608   3.478   2.115   5.652  0.4710  0.1874  0.0084
 1050SOL    HW114609   3.440   2.174   5.587  2.2533 -1.5898 -2.6325
 1050SOL    HW214610   3.507   2.182   5.715  0.3674  0.2825 -0.0439
 1051SOL     OW14611   2.721   3.153  12.989  0.2608 -0.2124  0.7431
 1051SOL    HW114612   2.741   3.071  13.036  0.8165  0.0521  0.9725
 1051SOL    HW214613   2.659   3.183  13.056  0.9781  2.2866  0.2688
 1052SOL     OW14614   0.251   3.997   5.400 -0.6615 -0.0637  0.3569
 1052SOL    HW114615   0.347   4.002   5.398 -0.4484 -4.0711  0.4954
 1052SOL    HW214616   0.228   3.996   5.307 -0.8259  0.4762  0.3885
 1053SOL     OW14617   4.258   3.079   9.358  0.5215 -0.0786 -0.2417
 1053SOL    HW114618   4.299   3.026   9.289  0.3896 -2.4239  1.4895
 1053SOL    HW214619   4.173   3.038   9.374 -0.4224  1.8943 -0.2197
 1054SOL     OW14620   1.960   2.489   3.104 -0.1248  0.4587 -0.0935
 1054SOL    HW114621   1.984   2.397   3.121 -1.6290  0.3759  1.5473
 1054SOL    HW214622   2.034   2.541   3.136 -0.0924  1.3383 -1.5860
 1055SOL     OW14623   1.981   1.869   0.751 -0.0408  0.1122  0.1693
 1055SOL    HW114624   2.028   1.875   0.834  3.5854 -1.2795 -1.8026
 1055SOL    HW214625   2.020   1.944   0.706  1.3923 -0.3267  0.6843
 1056SOL     OW14626   0.078   2.886   5.458 -0.0841 -0.4623 -0.5179
 1056SOL    HW114627   0.122   2.803   5.475  2.1645  0.4534 -1.7924
 1056SOL    HW214628   0.008   2.893   5.523 -0.1665  0.7406 -0.7280
 1057SOL     OW14629   0.763   0.465   0.521  0.5100  0.2929 -0.2298
 1057SOL    HW114630   0.768   0.488   0.428  3.5309 -1.6069 -0.5318
 1057SOL    HW214631   0.787   0.373   0.521 -1.3051 -0.2093 -3.2903
 1058SOL     OW14632   1.929   1.818  13.371 -0.3854  0.2873  0.2746
 1058SOL    HW114633   2.023   1.805  13.355 -0.3164  1.9428 -0.6823
 1058SOL    HW214634   1.895   1.785  13.287  0.7551  0.3914 -0.2324
 1059SOL     OW14635   2.296   1.426   4.848 -0.1514  0.1674 -0.1703
 1059SOL    HW114636   2.360   1.475   4.797  0.1545  1.8797  1.8687
 1059SOL    HW214637   2.335   1.441   4.934 -1.3095  0.3645  0.3284
 1060SOL     OW14638   3.536   1.303   1.933 -0.5134  0.7521  0.6019
 1060SOL    HW114639   3.486   1.380   1.908  0.4277  1.3400  0.5503
 1060SOL    HW214640   3.492   1.270   2.011 -1.9645 -1.7826 -1.2472
 1061SOL     OW14641   1.269   4.471   5.219 -0.6751  0.0259  0.3632
 1061SOL    HW114642   1.206   4.414   5.262 -1.0765 -1.0669 -1.6899
 1061SOL    HW214643   1.341   4.441   5.274  0.0891  1.2095  0.0124
 1062SOL     OW14644   1.823   0.226   5.824 -0.8546 -0.3254  0.3396
 1062SOL    HW114645   1.757   0.184   5.769  1.3727 -0.1000 -2.5459
 1062SOL    HW214646   1.883   0.151   5.827 -0.2393  0.3662  4.6114
 1063SOL     OW14647   1.939   2.431   6.730  0.1572 -0.0210  0.2783
 1063SOL    HW114648   1.879   2.481   6.675  0.4127  0.5289  0.5007
 1063SOL    HW214649   1.904   2.342   6.724  0.6765 -0.2895  1.2303
 1064SOL     OW14650   2.763   4.725  15.632  0.0541 -0.1352  0.3241
 1064SOL    HW114651   2.675   4.704  15.601  0.9665 -1.7748 -1.1580
 1064SOL    HW214652   2.815   4.653  15.597  0.7635  1.0873 -1.1115
 1065SOL     OW14653   2.009   0.041   3.829  0.6613  0.2539  0.0023
 1065SOL    HW114654   2.012   0.062   3.922  1.4728  0.5068 -0.0814
 1065SOL    HW214655   2.013   0.122   3.779  0.3253  0.2114 -0.0945
 1066SOL     OW14656   1.933   4.369   4.925  0.0807 -0.1721  0.1552
 1066SOL    HW114657   1.840   4.390   4.914 -0.6766 -3.5715  0.0628
 1066SOL    HW214658   1.979   4.444   4.886 -2.4509  1.0593 -0.4486
 1067SOL     OW14659   1.739   0.870   2.826  0.6590 -0.1765 -0.0165
 1067SOL    HW114660   1.668   0.909   2.775 -2.3788 -3.7896  1.4824
 1067SOL    HW214661   1.754   0.788   2.779 -1.7832 -1.2589  1.0987
 1068SOL     OW14662   2.115   3.527   5.968 -0.0529 -0.4718  0.0268
 1068SOL    HW114663   2.162   3.486   6.041 -0.9586  1.1015  1.4817
 1068SOL    HW214664   2.093   3.453   5.912  0.1286  0.4487 -1.2638
 1069SOL     OW14665   1.157   3.500   2.969 -0.3242 -1.0617  0.2144
 1069SOL    HW114666   1.118   3.434   2.913 -0.8686  2.5362 -3.6584
 1069SOL    HW214667   1.156   3.576   2.912  1.0155  0.9792  2.8749
 1070SOL     OW14668   3.950   4.137   6.921  0.3204  0.0082  0.0375
 1070SOL    HW114669   3.993   4.081   6.856  0.9472  0.8554 -0.2705
 1070SOL    HW214670   3.863   4.099   6.924  0.3859 -0.1828 -0.4958
 1071SOL     OW14671   3.417   3.005   7.904  0.5289  0.5461 -0.2943
 1071SOL    HW114672   3.335   3.038   7.941  1.0432  0.4555  0.9215
 1071SOL    HW214673   3.424   3.079   7.844 -0.5907 -0.0247 -1.1257
 1072SOL     OW14674   0.630   0.053  16.893  0.3955 -0.4625  0.6224
 1072SOL    HW114675   0.705   0.068  16.951  1.1943  1.7161 -0.9697
 1072SOL    HW214676   0.668   0.100  16.818 -1.3189  0.6346  0.4279
 1073SOL     OW14677   2.524   3.119  12.780  0.6667 -0.0519 -0.3728
 1073SOL    HW114678   2.593   3.105  12.845 -0.0213 -2.5023 -0.1735
 1073SOL    HW214679   2.453   3.147  12.837  0.9377 -2.0459  0.9352
 1074SOL     OW14680   0.464   4.163  13.906  0.4259  0.6093 -0.1561
 1074SOL    HW114681   0.454   4.117  13.823  0.4369 -2.0678  1.3024
 1074SOL    HW214682   0.407   4.237  13.890  2.3090  1.7270 -1.6727
 1075SOL     OW14683   3.158   3.308  14.752  0.2493 -0.1547  0.4466
 1075SOL    HW114684   3.169   3.368  14.679 -0.4113 -0.0240  0.4508
 1075SOL    HW214685   3.200   3.230  14.715 -2.1162 -1.3206  0.2022
 1076SOL     OW14686   1.035   2.923  15.473  0.1823  0.3689 -0.1741
 1076SOL    HW114687   1.105   2.980  15.440  2.5011 -0.0237  4.0159
 1076SOL    HW214688   0.968   2.987  15.498  0.6364  0.1410  1.6708
 1077SOL     OW14689   3.197   4.171   6.872 -0.4912  0.2437  0.2469
 1077SOL    HW114690   3.181   4.198   6.963 -1.0915  1.6456 -0.2714
 1077SOL    HW214691   3.281   4.126   6.885 -1.0143 -0.2378  2.0453
 1078SOL     OW14692   4.303   2.465  12.522  0.2613  0.2409  0.1270
 1078SOL    HW114693   4.268   2.472  12.434 -0.9836 -2.5268  0.3961
 1078SOL    HW214694   4.357   2.386  12.522  0.1139  0.1516 -1.5865
 1079SOL     OW14695   0.377   2.080   9.252  0.3571  0.0663 -0.1923
 1079SOL    HW114696   0.380   2.069   9.347 -1.8227  1.3603  0.0060
 1079SOL    HW214697   0.285   2.099   9.234  0.6235 -1.4962 -3.2488
 1080SOL     OW14698   0.083   0.299   4.594  0.0890  0.0549 -0.5324
 1080SOL    HW114699   0.081   0.225   4.655 -1.8700  0.3402 -0.2471
 1080SOL    HW214700   0.011   0.349   4.631 -1.5461 -1.6887 -1.3629
 1081SOL     OW14701   2.006   4.317  10.493  0.4863  0.0608  0.6512
 1081SOL    HW114702   2.095   4.284  10.500  1.1865  1.8123  0.1011
 1081SOL    HW214703   1.944   4.246  10.476  1.6533 -0.9141  0.4564
 1082SOL     OW14704   1.533   2.601  16.724  0.3096 -0.4788 -0.3765
 1082SOL    HW114705   1.461   2.623  16.664  0.2483 -0.1868 -0.1912
 1082SOL    HW214706   1.585   2.539  16.672 -0.7232 -1.7524  0.1169
 1083SOL     OW14707   1.883   1.700   6.641  0.5767  0.4924  0.2990
 1083SOL    HW114708   1.862   1.741   6.557 -0.3325 -0.6573 -0.0399
 1083SOL    HW214709   1.973   1.677   6.620  0.1021  0.9197 -2.1911
 1084SOL     OW14710   0.097   3.833   1.801 -0.4514 -0.2688  0.3112
 1084SOL    HW114711   0.147   3.881   1.867 -0.3373 -0.7828  0.5957
 1084SOL    HW214712   0.140   3.870   1.724 -0.9631  1.0499  0.6545
 1085SOL     OW14713   1.035   1.004   5.511 -0.4229 -0.0628  0.2646
 1085SOL    HW114714   0.987   1.085   5.524  0.5675  0.7099 -0.8370
 1085SOL    HW214715   0.972   0.961   5.453 -0.4693 -0.3157  0.5038
 1086SOL     OW14716   2.382   3.199   3.623  0.3520 -0.9335 -0.2692
 1086SOL    HW114717   2.299   3.171   3.660  1.1046  0.1043  2.2268
 1086SOL    HW214718   2.440   3.154   3.685  0.6689 -1.2116 -0.7653
 1087SOL     OW14719   2.414   0.106  11.666 -0.2008  1.2527 -0.4089
 1087SOL    HW114720   2.500   0.080  11.698 -1.3275 -0.5184  1.1673
 1087SOL    HW214721   2.399   0.169  11.737  0.6198 -0.8004  1.5868
 1088SOL     OW14722   4.300   1.480   8.401 -0.0052 -0.0295 -0.3934
 1088SOL    HW114723   4.277   1.538   8.328  1.6314  0.7955 -0.2522
 1088SOL    HW214724   4.211   1.467   8.433  0.2684  0.5711  0.6293
 1089SOL     OW14725   0.109   1.537   3.731 -0.2243 -0.0848  0.0888
 1089SOL    HW114726   0.091   1.588   3.810 -1.4566 -0.5532  0.1263
 1089SOL    HW214727   0.082   1.594   3.659 -3.1735 -1.3099  0.1927
 1090SOL     OW14728   2.383   2.307   1.377  0.3935  0.4730  0.1098
 1090SOL    HW114729   2.372   2.212   1.370 -0.4023  0.6032 -0.4779
 1090SOL    HW214730   2.299   2.322   1.333  0.5560  0.1063 -0.3167
 1091SOL     OW14731   2.753   3.450  15.602  0.4852 -0.6776  0.8461
 1091SOL    HW114732   2.737   3.356  15.601  1.6562 -0.8542 -0.6253
 1091SOL    HW214733   2.838   3.458  15.645  1.0656  0.8829 -0.6036
 1092SOL     OW14734   1.175   1.528   6.920 -0.1486  0.0884  0.8431
 1092SOL    HW114735   1.237   1.512   6.849 -1.3298 -2.6591  0.4677
 1092SOL    HW214736   1.194   1.621   6.938 -0.7899  0.1920  0.9619
 1093SOL     OW14737   0.563   0.694   6.854  0.0290  0.1722  0.2605
 1093SOL    HW114738   0.485   0.697   6.799 -0.6488  1.5336  1.3000
 1093SOL    HW214739   0.581   0.787   6.844 -4.4436  0.9301 -0.5881
 1094SOL     OW14740   1.122   1.041   3.651 -0.4606 -0.1033 -0.2502
 1094SOL    HW114741   1.191   1.097   3.688 -0.5725  0.1549 -0.4363
 1094SOL    HW214742   1.052   1.059   3.713  1.4170 -0.7655  2.0888
 1095SOL     OW14743   0.388   4.034   6.657 -0.5578 -0.2775  0.0398
 1095SOL    HW114744   0.300   4.072   6.649 -0.3416  0.5347  1.6467
 1095SOL    HW214745   0.447   4.105   6.635 -1.0862  0.8058  2.1315
 1096SOL     OW14746   2.099   3.925  15.562  0.3456  0.0676  0.0036
 1096SOL    HW114747   2.085   3.833  15.539  1.8397 -0.1475  0.0041
 1096SOL    HW214748   2.083   3.927  15.657  0.9416 -2.6507  0.1485
 1097SOL     OW14749   1.522   3.299   6.267  0.6544 -0.6080 -0.1237
 1097SOL    HW114750   1.566   3.377   6.233 -0.9984  1.0927  1.6191
 1097SOL    HW214751   1.521   3.250   6.185 -0.8384  0.9040 -0.9924
 1098SOL     OW14752   4.483   0.794  13.696 -0.2283 -0.0388  0.2601
 1098SOL    HW114753   4.461   0.795  13.789  0.3991  2.4538  0.3838
 1098SOL    HW214754   4.550   0.726  13.696 -0.5477 -0.3453 -0.9358
 1099SOL     OW14755   1.696   4.725   0.275 -0.0301  0.2659  0.6583
 1099SOL    HW114756   1.720   0.011   0.367 -0.2025 -0.0615  0.7454
 1099SOL    HW214757   1.778   4.716   0.228 -1.6746  2.2016 -2.6245
 1100SOL     OW14758   2.711   4.151   1.678 -0.3448  0.0836  0.0087
 1100SOL    HW114759   2.762   4.203   1.616  0.2210 -0.9240 -0.3711
 1100SOL    HW214760   2.779   4.084   1.684  1.2247  1.6266 -0.3319
 1101SOL     OW14761   2.652   2.157  16.025 -0.0763 -0.2617  0.2713
 1101SOL    HW114762   2.731   2.109  16.000 -0.7888 -0.1881 -2.1030
 1101SOL    HW214763   2.698   2.239  16.046 -2.3672  1.8625 -3.0581
 1102SOL     OW14764   4.417   1.041   4.442 -0.6746  0.2843 -0.8463
 1102SOL    HW114765   4.375   1.004   4.364 -0.0723  0.8626 -1.4402
 1102SOL    HW214766   4.397   1.135   4.434  1.4628  0.8614  0.8097
 1103SOL     OW14767   0.623   2.789   9.315  0.0305  0.1593 -0.1350
 1103SOL    HW114768   0.706   2.781   9.364 -1.5942 -4.9818  1.8163
 1103SOL    HW214769   0.612   2.884   9.314 -0.4155  0.1231  0.8997
 1104SOL     OW14770   0.207   3.641   2.861  0.0497 -0.5425  0.2866
 1104SOL    HW114771   0.250   3.664   2.944  0.7480  3.6203 -1.2237
 1104SOL    HW214772   0.116   3.662   2.881  0.4181 -1.6272  3.0840
 1105SOL     OW14773   0.673   3.298   8.700  0.0803  0.2833 -0.0199
 1105SOL    HW114774   0.604   3.300   8.767 -0.6387 -2.7132 -0.6610
 1105SOL    HW214775   0.623   3.260   8.628  3.9957 -0.9194 -2.1019
 1106SOL     OW14776   3.125   2.930   9.334  0.1518  0.1220 -0.1935
 1106SOL    HW114777   3.055   2.872   9.363 -1.2579  2.9705  2.0950
 1106SOL    HW214778   3.196   2.866   9.329  0.5386  0.5153  0.1752
 1107SOL     OW14779   2.933   1.649   2.642  0.1488 -0.3052 -0.1782
 1107SOL    HW114780   2.970   1.561   2.642 -0.6163 -0.6294  1.4713
 1107SOL    HW214781   2.858   1.632   2.585  1.0608 -2.8490 -0.6092
 1108SOL     OW14782   1.361   2.818   8.997 -0.0946 -0.3231  0.2514
 1108SOL    HW114783   1.311   2.828   9.078  1.1661 -4.7378  1.5725
 1108SOL    HW214784   1.381   2.910   8.982  0.8513 -0.5631  0.0344
 1109SOL     OW14785   0.189   2.898   9.234 -0.4494 -0.1112 -0.4171
 1109SOL    HW114786   0.182   2.873   9.326 -0.2086  2.9479  0.4529
 1109SOL    HW214787   0.202   2.993   9.237 -0.6301 -0.0049 -2.7748
 1110SOL     OW14788   3.337   1.328   5.263  0.5710 -0.1658 -0.0958
 1110SOL    HW114789   3.396   1.387   5.309 -2.3608  0.8904  2.2540
 1110SOL    HW214790   3.375   1.243   5.288  0.5763  0.0211  0.5237
 1111SOL     OW14791   3.634   3.904   4.971 -0.5932  0.0286  0.3491
 1111SOL    HW114792   3.626   3.999   4.959 -0.2749 -0.1751 -1.5225
 1111SOL    HW214793   3.660   3.908   5.063 -1.8296 -0.0708  0.6987
 1112SOL     OW14794   1.478   1.218   0.823  0.3995 -0.1751  0.2054
 1112SOL    HW114795   1.417   1.281   0.784 -0.3788 -0.2595  1.2900
 1112SOL    HW214796   1.424   1.169   0.884 -0.0259  2.5083  1.9918
 1113SOL     OW14797   3.337   0.868  15.067 -0.0384  0.0478  0.3977
 1113SOL    HW114798   3.344   0.963  15.072 -1.0562  0.2236 -1.5515
 1113SOL    HW214799   3.353   0.859  14.973 -1.2330 -0.8850  0.2990
 1114SOL     OW14800   3.553   4.289  13.197  0.4836 -0.1807 -0.8947
 1114SOL    HW114801   3.643   4.265  13.216  0.4273 -1.2822 -2.0443
 1114SOL    HW214802   3.515   4.254  13.278 -0.3093  1.2215 -0.6673
 1115SOL     OW14803   1.605   2.262   4.736  0.3025 -0.1032 -0.1454
 1115SOL    HW114804   1.592   2.181   4.686  1.7511 -0.7231  0.4510
 1115SOL    HW214805   1.669   2.310   4.684  2.5410 -2.3139  0.5451
 1116SOL     OW14806   3.877   4.185  10.280  0.1024 -0.2904 -0.1718
 1116SOL    HW114807   3.932   4.229  10.346 -2.0442  1.6111  0.3329
 1116SOL    HW214808   3.800   4.159  10.329 -1.2029  1.3333 -1.3671
 1117SOL     OW14809   3.265   4.613   8.869 -0.4102 -0.0289  0.1285
 1117SOL    HW114810   3.348   4.661   8.868  0.0905 -0.8676  0.7947
 1117SOL    HW214811   3.209   4.679   8.828  1.0315  0.5474 -0.9266
 1118SOL     OW14812   2.936   1.388  17.283 -0.3230  0.0076  0.0373
 1118SOL    HW114813   3.009   1.332  17.254  0.2654  0.7336  0.1311
 1118SOL    HW214814   2.924   1.361  17.374 -1.5544  0.1628 -0.0809
 1119SOL     OW14815   2.814   0.506   3.192 -0.6008 -0.4943  0.1737
 1119SOL    HW114816   2.881   0.489   3.259 -0.1069  1.2050  0.1093
 1119SOL    HW214817   2.811   0.416   3.158  0.5686 -0.8457  0.9827
 1120SOL     OW14818   4.122   4.367   8.726 -0.2036 -0.0957  0.1457
 1120SOL    HW114819   4.140   4.277   8.700 -1.8629 -1.0815  2.4380
 1120SOL    HW214820   4.032   4.377   8.695 -0.0102  0.1762 -0.3417
 1121SOL     OW14821   3.383   1.698  10.852  0.5712  0.0475 -0.3103
 1121SOL    HW114822   3.471   1.725  10.826  0.6814  0.6181  0.6795
 1121SOL    HW214823   3.398   1.663  10.940 -0.0316  1.4844  0.3535
 1122SOL     OW14824   3.969   0.911   4.448  0.1012 -0.1537 -0.1120
 1122SOL    HW114825   3.944   0.868   4.529  1.7796 -0.9776 -0.0231
 1122SOL    HW214826   4.048   0.861   4.426 -0.7486 -1.2034 -0.7461
 1123SOL     OW14827   2.977   1.900  11.541  0.0869  0.2804 -0.6429
 1123SOL    HW114828   2.991   1.932  11.452  0.5705  0.6483 -0.4376
 1123SOL    HW214829   2.973   1.807  11.522 -1.6089 -0.1693  1.9651
 1124SOL     OW14830   2.511   3.251   1.462 -0.0313  0.5203 -0.0453
 1124SOL    HW114831   2.548   3.180   1.514  0.3363  1.2270  0.6518
 1124SOL    HW214832   2.585   3.293   1.419  0.5686  0.0777  0.5515
 1125SOL     OW14833   0.707   2.581   3.663 -0.2918  0.3654 -0.3720
 1125SOL    HW114834   0.743   2.542   3.583  2.7714 -0.3211  1.3330
 1125SOL    HW214835   0.763   2.658   3.665  0.6814 -0.3536  0.2086
 1126SOL     OW14836   1.108   2.464   4.567 -0.4237  0.1057 -0.1485
 1126SOL    HW114837   1.047   2.447   4.495  0.5515  2.1103 -1.4621
 1126SOL    HW214838   1.047   2.493   4.634  0.3325  5.9295 -2.0057
 1127SOL     OW14839   1.793   2.859   8.705 -0.2032 -0.1545 -0.3714
 1127SOL    HW114840   1.881   2.836   8.676  0.2151  3.7283 -2.2299
 1127SOL    HW214841   1.749   2.837   8.622 -0.3190  0.7507 -0.5560
 1128SOL     OW14842   2.628   4.067  15.515  0.4420 -0.0289  0.3625
 1128SOL    HW114843   2.659   3.986  15.474  3.7258  0.8336  1.1263
 1128SOL    HW214844   2.533   4.057  15.520  0.1044  2.5683 -1.0767
 1129SOL     OW14845   1.609   4.283  14.387 -0.5059  0.4389  0.2381
 1129SOL    HW114846   1.635   4.304  14.297 -1.3948  0.7604  0.0512
 1129SOL    HW214847   1.614   4.188  14.385  0.3646  0.4964 -0.3589
 1130SOL     OW14848   2.212   2.606   3.169 -0.1755  0.3457 -0.4357
 1130SOL    HW114849   2.302   2.583   3.145  0.2428  2.0394 -0.5153
 1130SOL    HW214850   2.205   2.548   3.245 -0.5539  0.5176 -0.3388
 1131SOL     OW14851   1.575   0.648   3.216 -0.1869 -0.0472  0.4788
 1131SOL    HW114852   1.578   0.554   3.198  0.5221  0.1519 -0.4426
 1131SOL    HW214853   1.657   0.658   3.263  0.1752  0.5272 -0.2621
 1132SOL     OW14854   3.379   2.228   9.203 -0.1263  0.8116  0.2906
 1132SOL    HW114855   3.415   2.183   9.279 -0.1351 -0.9067 -0.7269
 1132SOL    HW214856   3.321   2.158   9.176  3.0904 -2.6162  2.3233
 1133SOL     OW14857   2.879   3.732  13.719  0.3288 -0.5469  0.1149
 1133SOL    HW114858   2.861   3.728  13.813  1.2801  1.3385  0.3692
 1133SOL    HW214859   2.922   3.817  13.705  1.8999 -0.8189  3.1663
 1134SOL     OW14860   0.962   0.120  11.162 -0.4108 -0.1631  0.4556
 1134SOL    HW114861   0.912   0.081  11.234  0.8788 -0.7437  1.0365
 1134SOL    HW214862   1.002   0.194  11.208  1.8400 -1.0057 -0.1265
 1135SOL     OW14863   4.334   4.116  11.814 -0.0392 -0.5307  0.2087
 1135SOL    HW114864   4.312   4.198  11.771  1.9756 -0.9878 -1.6915
 1135SOL    HW214865   4.407   4.145  11.870  1.6230 -2.4142 -0.9511
 1136SOL     OW14866   1.845   0.465   3.816 -0.3373 -0.0820  0.0384
 1136SOL    HW114867   1.831   0.413   3.895 -0.0421  1.1925  0.9357
 1136SOL    HW214868   1.940   0.452   3.812 -0.1835  0.9201  0.4835
 1137SOL     OW14869   1.343   3.172   3.153  0.3316  0.1888 -0.1743
 1137SOL    HW114870   1.334   3.090   3.201  2.5738 -0.7716 -1.3915
 1137SOL    HW214871   1.308   3.149   3.067  0.7054  0.6453 -0.4463
 1138SOL     OW14872   2.701   4.188   4.671 -0.4441 -0.2087 -0.7149
 1138SOL    HW114873   2.668   4.135   4.599  1.1121  1.1990 -2.4870
 1138SOL    HW214874   2.710   4.127   4.744 -2.1139 -1.9268 -1.9664
 1139SOL     OW14875   3.128   4.298   5.112 -0.0776 -0.0567 -0.0917
 1139SOL    HW114876   3.131   4.346   5.029 -0.8045 -0.5271 -0.3844
 1139SOL    HW214877   3.087   4.355   5.176 -1.8504 -0.8720 -0.5188
 1140SOL     OW14878   3.168   0.527   6.783  0.1042 -0.3567  0.3622
 1140SOL    HW114879   3.179   0.437   6.750  0.2513 -0.5634  0.9786
 1140SOL    HW214880   3.153   0.511   6.876  0.0265 -0.0775  0.3964
 1141SOL     OW14881   2.790   3.992   4.476 -0.0316  0.2872 -0.0309
 1141SOL    HW114882   2.727   3.957   4.539 -0.5151 -0.5301 -0.9629
 1141SOL    HW214883   2.838   4.050   4.535 -0.7547  1.2079 -0.3389
 1142SOL     OW14884   0.231   0.020   6.680 -0.5119  0.1382 -0.0634
 1142SOL    HW114885   0.212   0.013   6.586  2.1328  1.9122 -0.7276
 1142SOL    HW214886   0.324   0.042   6.684  1.0279 -6.2589 -0.2376
 1143SOL     OW14887   3.495   4.460  15.065 -0.8098 -0.9225  0.2556
 1143SOL    HW114888   3.454   4.546  15.059 -0.3116 -0.5846  1.6651
 1143SOL    HW214889   3.484   4.424  14.976  0.4159  0.5137 -0.4771
 1144SOL     OW14890   0.018   3.875   7.022 -0.3761  0.1505 -0.1770
 1144SOL    HW114891   0.060   3.961   7.028  2.3059 -1.1593  0.1480
 1144SOL    HW214892   0.050   3.847   6.936 -1.7126  1.9925 -1.2562
 1145SOL     OW14893   2.755   2.880   0.328 -0.4140 -0.3981  0.0331
 1145SOL    HW114894   2.842   2.918   0.320 -0.6435 -0.0193 -0.6979
 1145SOL    HW214895   2.752   2.819   0.255 -0.9996  2.9623 -2.7694
 1146SOL     OW14896   3.829   0.427   2.745  0.3810  0.3925 -0.2779
 1146SOL    HW114897   3.882   0.448   2.668 -0.4808 -1.7060 -1.4364
 1146SOL    HW214898   3.898   0.424   2.812 -0.6825  0.7840  0.8370
 1147SOL     OW14899   3.258   4.383   8.211  0.6959  0.2787  0.3942
 1147SOL    HW114900   3.326   4.450   8.222 -0.1085  0.7973  2.1606
 1147SOL    HW214901   3.179   4.436   8.207 -0.6515 -1.7940 -0.0956
 1148SOL     OW14902   4.030   0.363   2.919 -0.2140  0.4358 -0.0705
 1148SOL    HW114903   4.047   0.419   2.994 -0.1591 -0.4040  0.5370
 1148SOL    HW214904   4.116   0.332   2.890 -0.0114  0.9610 -0.0379
 1149SOL     OW14905   2.095   4.130  16.588 -0.2316 -0.4836  0.5382
 1149SOL    HW114906   2.041   4.087  16.522  2.7247  0.2866 -2.3539
 1149SOL    HW214907   2.047   4.096  16.664 -0.4166 -1.1525  0.1144
 1150SOL     OW14908   4.484   3.764  17.189  0.6527 -0.0322  0.0337
 1150SOL    HW114909   4.541   3.834  17.222  1.3143 -0.4885 -0.1509
 1150SOL    HW214910   4.545   3.691  17.180 -0.0348 -0.8153  1.5944
 1151SOL     OW14911   4.495   0.912   0.854 -0.2397 -0.0312  0.2821
 1151SOL    HW114912   4.490   0.873   0.941 -0.4750 -0.3536  0.1254
 1151SOL    HW214913   4.453   0.847   0.797 -0.5865  0.4216  0.0241
 1152SOL     OW14914   0.867   2.612   0.891  0.2757 -0.1070 -0.3582
 1152SOL    HW114915   0.854   2.551   0.818 -0.9501  1.2417 -1.2742
 1152SOL    HW214916   0.911   2.683   0.845 -0.5414  0.3132 -0.4886
 1153SOL     OW14917   0.748   3.096   1.402 -0.1160 -0.2674 -0.2336
 1153SOL    HW114918   0.824   3.103   1.344  0.0130 -1.3336 -0.1991
 1153SOL    HW214919   0.780   3.023   1.454  3.2567  0.4397 -1.3163
 1154SOL     OW14920   2.124   2.396   5.279 -0.0968  0.1850 -0.0806
 1154SOL    HW114921   2.197   2.456   5.296  1.1292 -1.4219  0.3234
 1154SOL    HW214922   2.140   2.376   5.186  0.1034 -2.9639  0.6323
 1155SOL     OW14923   1.932   0.399  13.388  0.0087  0.1937 -0.3569
 1155SOL    HW114924   1.976   0.419  13.470  1.2118  1.2496 -1.2559
 1155SOL    HW214925   1.937   0.304  13.395 -2.2175  0.1914  1.0506
 1156SOL     OW14926   1.899   1.114   0.491 -0.0232 -0.2696  0.3863
 1156SOL    HW114927   1.968   1.048   0.494  0.6046  0.2411 -1.9885
 1156SOL    HW214928   1.943   1.200   0.485  1.2830 -1.0161 -0.8767
 1157SOL     OW14929   4.299   2.306  16.471 -0.1143 -0.0426  0.2513
 1157SOL    HW114930   4.261   2.387  16.506  0.0259 -0.4249  1.2881
 1157SOL    HW214931   4.372   2.329  16.414  1.8791  1.0770  3.2641
 1158SOL     OW14932   4.243   1.100   8.325 -0.1853  0.0887  0.2199
 1158SOL    HW114933   4.189   1.094   8.404 -1.8755  0.2822 -0.9330
 1158SOL    HW214934   4.238   1.008   8.298 -2.8118  0.0566  0.7823
 1159SOL     OW14935   2.716   4.129   5.806  0.4402 -0.4544 -0.1944
 1159SOL    HW114936   2.733   4.203   5.747 -0.3054  1.0594  1.5003
 1159SOL    HW214937   2.624   4.106   5.795 -0.2721  1.1063  2.5220
 1160SOL     OW14938   0.116   4.153   9.474  0.2485  0.3369 -0.4325
 1160SOL    HW114939   0.183   4.210   9.438 -0.3237  1.0473 -0.3639
 1160SOL    HW214940   0.126   4.161   9.569  0.5988  0.2590 -0.4635
 1161SOL     OW14941   1.090   2.467  12.643 -0.1555  0.6040  0.0388
 1161SOL    HW114942   1.008   2.507  12.672 -0.1005 -0.9356  2.3730
 1161SOL    HW214943   1.100   2.504  12.555 -0.3005 -0.2639 -0.3402
 1162SOL     OW14944   1.563   0.543  11.898  0.8091  0.1726  0.0824
 1162SOL    HW114945   1.625   0.605  11.939  0.6280 -0.2010  0.9250
 1162SOL    HW214946   1.526   0.608  11.838 -2.1187 -1.8588 -0.2653
 1163SOL     OW14947   2.430   0.427   0.024 -0.4480 -1.7000 -0.2110
 1163SOL    HW114948   2.339   0.442  17.699 -0.3537  0.4539  0.6506
 1163SOL    HW214949   2.425   0.404   0.117  2.2742  1.0947  0.6238
 1164SOL     OW14950   0.226   4.359   7.842  0.3045  0.8350  0.1429
 1164SOL    HW114951   0.261   4.322   7.761 -0.7305  2.3335 -0.9834
 1164SOL    HW214952   0.173   4.430   7.807  1.7248  0.5602 -2.5682
 1165SOL     OW14953   1.011   1.803   5.434  0.0246 -0.3892  0.4154
 1165SOL    HW114954   1.099   1.802   5.474 -1.0761  1.0674  2.8525
 1165SOL    HW214955   1.008   1.876   5.373  1.6717 -1.1625 -0.5943
 1166SOL     OW14956   2.253   3.140   3.102  0.1035 -0.4675 -0.0019
 1166SOL    HW114957   2.183   3.175   3.158 -1.0889 -0.1092 -1.6883
 1166SOL    HW214958   2.243   3.045   3.111  0.3068 -0.2056  2.9311
 1167SOL     OW14959   2.416   4.664   3.241  0.0102 -0.6106  0.2053
 1167SOL    HW114960   2.404   4.615   3.323 -0.2350  0.9843  1.1255
 1167SOL    HW214961   2.478   0.003   3.276  0.0992 -0.1689 -0.7730
 1168SOL     OW14962   0.170   1.836   7.213 -0.2432  0.3196  0.6733
 1168SOL    HW114963   0.235   1.905   7.198 -2.1668  1.9143 -0.3279
 1168SOL    HW214964   0.135   1.859   7.299  0.1448 -1.1344  1.2188
 1169SOL     OW14965   1.727   2.643   3.063  0.3152 -0.3582  0.1123
 1169SOL    HW114966   1.799   2.581   3.056  3.3756  3.0250  1.4908
 1169SOL    HW214967   1.664   2.599   3.006  0.4904  0.0432 -0.3945
 1170SOL     OW14968   0.267   1.652   3.154 -0.2544  0.2757 -0.1885
 1170SOL    HW114969   0.359   1.638   3.175 -0.9711 -1.3351  1.8120
 1170SOL    HW214970   0.275   1.662   3.059 -2.0821  1.3561 -0.2321
 1171SOL     OW14971   3.549   3.357   5.914 -0.5946 -0.2503 -0.0324
 1171SOL    HW114972   3.495   3.374   5.837 -0.7618 -0.9133 -0.0630
 1171SOL    HW214973   3.633   3.330   5.876 -1.2179 -1.0402 -0.8453
 1172SOL     OW14974   1.493   0.488   5.689  0.5494  0.3702 -0.1738
 1172SOL    HW114975   1.557   0.443   5.635  0.0547  0.6285 -0.9670
 1172SOL    HW214976   1.550   0.537   5.749 -0.4527 -0.1136  1.1951
 1173SOL     OW14977   0.319   0.074   5.396  0.1507 -0.0233  0.1570
 1173SOL    HW114978   0.390   0.010   5.399 -0.0443 -0.1341  2.0223
 1173SOL    HW214979   0.358   0.161   5.395  0.3171 -0.1151 -1.2499
 1174SOL     OW14980   3.069   2.478   3.286  0.1436  0.1869  0.2800
 1174SOL    HW114981   3.050   2.421   3.360  1.1275 -1.8229 -1.0410
 1174SOL    HW214982   3.024   2.432   3.216 -0.3888  0.1730  0.6293
 1175SOL     OW14983   0.856   2.246  10.399 -0.0281 -0.1694 -0.6068
 1175SOL    HW114984   0.838   2.238  10.493 -0.9631 -0.4746 -0.8185
 1175SOL    HW214985   0.816   2.325  10.363 -3.3560 -0.5764  2.2026
 1176SOL     OW14986   2.349   2.280   8.036  0.3868  0.9083 -0.0913
 1176SOL    HW114987   2.263   2.242   8.055  0.9800 -0.5228 -0.2265
 1176SOL    HW214988   2.404   2.204   8.056 -1.4353 -1.1792 -2.8515
 1177SOL     OW14989   1.237   3.751   7.399  0.0548  0.3404  0.3166
 1177SOL    HW114990   1.297   3.735   7.471 -0.0321 -0.1331  0.2868
 1177SOL    HW214991   1.300   3.791   7.340  0.5100 -0.3238  0.3479
 1178SOL     OW14992   0.188   3.626   0.979  0.2653  0.0862  0.1943
 1178SOL    HW114993   0.150   3.628   0.891  1.0115 -0.0809 -0.1364
 1178SOL    HW214994   0.279   3.606   0.957  0.4978 -1.2467  2.3349
 1179SOL     OW14995   3.198   1.962  16.486  0.3607 -0.2287 -1.1166
 1179SOL    HW114996   3.241   1.903  16.548 -1.2581 -0.3927 -0.1340
 1179SOL    HW214997   3.114   1.916  16.471 -0.6288  1.0430  0.6008
 1180SOL     OW14998   3.078   2.211   1.449  0.2317  0.3104  0.0833
 1180SOL    HW114999   3.088   2.116   1.454 -1.1728  0.1768  0.4774
 1180SOL    HW215000   3.081   2.229   1.355 -0.1791 -0.8642 -0.1542
 1181SOL     OW15001   3.778   1.856   5.269 -0.5251 -0.4468 -0.5334
 1181SOL    HW115002   3.702   1.858   5.210  0.3874  0.7990 -1.6783
 1181SOL    HW215003   3.750   1.925   5.330 -1.1206 -0.0756 -1.2154
 1182SOL     OW15004   2.407   0.153  11.381  1.0651 -0.1129 -0.0345
 1182SOL    HW115005   2.424   0.071  11.335  0.0252  0.3693 -1.3011
 1182SOL    HW215006   2.412   0.134  11.475  0.7799  0.1388  0.0347
 1183SOL     OW15007   0.706   0.038   7.300 -0.0911  0.0410 -0.2447
 1183SOL    HW115008   0.801   0.041   7.287 -0.4074 -0.2359 -2.7118
 1183SOL    HW215009   0.679   0.127   7.275 -2.6202 -0.9050 -0.9423
 1184SOL     OW15010   2.856   4.070   2.013 -0.3049 -0.6176  0.0582
 1184SOL    HW115011   2.945   4.099   2.034 -0.0531 -1.1693 -0.2645
 1184SOL    HW215012   2.877   4.039   1.925  0.1228  0.9950 -0.4210
 1185SOL     OW15013   1.094   2.211   5.005  0.6471  1.0451  0.0335
 1185SOL    HW115014   1.187   2.203   5.025  0.8412 -1.1114 -1.7330
 1185SOL    HW215015   1.091   2.178   4.915  1.2104 -1.1498  0.8245
 1186SOL     OW15016   4.488   2.506  10.807  0.0088  0.5650  0.3634
 1186SOL    HW115017   4.459   2.591  10.774 -1.6351 -0.4155 -0.7039
 1186SOL    HW215018   4.434   2.494  10.885 -0.3238 -2.2047 -0.2835
 1187SOL     OW15019   3.350   0.660   5.698 -0.0696 -0.6633  0.1167
 1187SOL    HW115020   3.381   0.750   5.706 -1.8189  0.0183 -0.8251
 1187SOL    HW215021   3.268   0.666   5.748  0.1350  0.9524  0.2613
 1188SOL     OW15022   0.608   0.972  17.557  0.5238 -0.8892  0.0674
 1188SOL    HW115023   0.675   1.032  17.591 -0.0413  0.6698 -1.5604
 1188SOL    HW215024   0.531   1.024  17.580  0.2997 -1.5598  0.8066
 1189SOL     OW15025   1.447   3.419   9.667  0.1060  0.0922 -0.2830
 1189SOL    HW115026   1.400   3.340   9.640  0.0601 -0.6051  1.8710
 1189SOL    HW215027   1.407   3.433   9.753  0.6381 -0.5582  0.0719
 1190SOL     OW15028   0.194   0.815   5.456  0.5161 -0.4352  0.0014
 1190SOL    HW115029   0.194   0.894   5.509 -1.0026  1.1664 -2.3429
 1190SOL    HW215030   0.110   0.778   5.485  1.1142 -0.0127  2.2302
 1191SOL     OW15031   0.214   4.536   2.392 -0.2379  0.5853 -0.3448
 1191SOL    HW115032   0.119   4.534   2.406  0.1470 -3.3389  1.7920
 1191SOL    HW215033   0.227   4.617   2.343 -0.2080  2.3309  2.5879
 1192SOL     OW15034   0.526   0.797   8.755  0.1951  0.3716  0.3697
 1192SOL    HW115035   0.569   0.727   8.705 -3.0587 -1.0921 -0.3660
 1192SOL    HW215036   0.579   0.873   8.731 -0.6655  0.4818 -1.2221
 1193SOL     OW15037   0.462   0.205   4.882 -0.4438 -0.3873 -0.4953
 1193SOL    HW115038   0.398   0.134   4.883 -0.0221 -0.7674  0.0863
 1193SOL    HW215039   0.406   0.271   4.841 -0.5613 -1.3726 -1.9326
 1194SOL     OW15040   1.087   1.061   5.943 -0.9593 -0.0416 -0.1439
 1194SOL    HW115041   1.143   0.987   5.920 -1.2948 -0.2147 -0.4085
 1194SOL    HW215042   1.007   1.008   5.946 -0.1897 -1.0839  1.8025
 1195SOL     OW15043   1.924   1.326  11.514 -0.4468 -0.1576 -0.2357
 1195SOL    HW115044   1.983   1.359  11.447  1.6501 -1.2201  1.0613
 1195SOL    HW215045   1.852   1.387  11.501  1.3698  1.8643 -0.7825
 1196SOL     OW15046   0.091   1.300   6.694  0.1776 -0.3759 -0.1572
 1196SOL    HW115047   0.040   1.381   6.690  1.6932  0.6132  0.6533
 1196SOL    HW215048   0.031   1.232   6.722  0.2413 -0.5056 -0.3419
 1197SOL     OW15049   4.303   2.752  12.687  0.3200 -0.9607  0.1536
 1197SOL    HW115050   4.324   2.833  12.641 -1.7104 -1.7474 -2.1504
 1197SOL    HW215051   4.212   2.772  12.706  0.4832  2.4008 -2.7201
 1198SOL     OW15052   1.181   2.945   4.285  0.1327 -0.1019 -0.8877
 1198SOL    HW115053   1.232   3.014   4.242 -0.1211 -0.7612 -2.2710
 1198SOL    HW215054   1.204   2.864   4.238 -2.3304 -1.2366 -0.1689
 1199SOL     OW15055   3.222   4.015  14.367 -0.1768 -0.5398 -0.9087
 1199SOL    HW115056   3.274   3.949  14.413  1.7123  0.7732 -1.1641
 1199SOL    HW215057   3.279   4.090  14.350  1.4142 -1.2101  1.4369
 1200SOL     OW15058   3.345   1.935   8.581 -0.3972  0.4845 -0.7145
 1200SOL    HW115059   3.428   1.888   8.569 -0.2821 -0.2484  2.9275
 1200SOL    HW215060   3.361   2.014   8.633  1.3432 -0.0611 -0.4221
 1201SOL     OW15061   1.537   2.958   3.017  0.2000  0.5505 -0.5043
 1201SOL    HW115062   1.604   2.969   2.950 -1.0729  1.3836 -1.6303
 1201SOL    HW215063   1.467   2.998   2.966 -0.3074  0.1999 -0.0842
 1202SOL     OW15064   2.707   3.064   5.269 -0.7568  0.4308 -0.3332
 1202SOL    HW115065   2.642   3.014   5.318  2.5791 -2.2951  1.2785
 1202SOL    HW215066   2.780   3.002   5.273 -0.4982  0.8571  1.9133
 1203SOL     OW15067   1.725   1.973   9.067  0.6216 -0.6290 -0.6684
 1203SOL    HW115068   1.771   2.039   9.119  0.7400 -2.2289  1.2828
 1203SOL    HW215069   1.702   2.017   8.986  0.9907 -0.7712 -0.8479
 1204SOL     OW15070   0.843   2.964   0.205 -0.1163 -0.4613  0.0636
 1204SOL    HW115071   0.805   2.877   0.221 -0.6995 -0.1336  0.4374
 1204SOL    HW215072   0.936   2.943   0.216 -0.1406  0.1040  1.3764
 1205SOL     OW15073   2.664   3.571   9.787 -0.2340 -0.0494 -0.3882
 1205SOL    HW115074   2.706   3.635   9.730 -2.3238  0.7704 -1.0340
 1205SOL    HW215075   2.674   3.487   9.743 -0.1509  0.0480 -0.5533
 1206SOL     OW15076   0.118   3.361   5.475 -0.2458  0.3817 -0.0248
 1206SOL    HW115077   0.063   3.331   5.403  0.7927 -1.0310 -0.2334
 1206SOL    HW215078   0.170   3.285   5.501  0.9183  1.6184  1.2697
 1207SOL     OW15079   4.370   3.770   3.297 -0.1227 -0.2298 -0.2953
 1207SOL    HW115080   4.462   3.787   3.278  0.3907  0.3621  2.7309
 1207SOL    HW215081   4.376   3.762   3.392 -0.7668  1.0133 -0.1548
 1208SOL     OW15082   3.325   0.185   5.105  0.4472  0.3665 -1.0335
 1208SOL    HW115083   3.396   0.128   5.134 -0.0518  1.0013  1.4617
 1208SOL    HW215084   3.331   0.237   5.186  0.6391  0.1912 -0.9346
 1209SOL     OW15085   4.007   1.232   5.365  0.0990 -0.4961  0.3324
 1209SOL    HW115086   4.088   1.250   5.317 -1.3972 -0.1081 -2.0299
 1209SOL    HW215087   4.028   1.287   5.440 -3.9147  1.3582  0.0914
 1210SOL     OW15088   4.536   0.454   0.812  0.2063 -0.2029 -0.9070
 1210SOL    HW115089   4.590   0.504   0.873 -1.0272 -0.2491  0.2282
 1210SOL    HW215090   4.599   0.441   0.741 -0.9225  1.2157 -2.1650
 1211SOL     OW15091   4.352   1.379   6.748 -0.6954 -0.7241 -0.3645
 1211SOL    HW115092   4.432   1.431   6.737 -0.7451 -0.7904 -1.0627
 1211SOL    HW215093   4.328   1.390   6.840  0.4189 -0.9174 -0.0527
 1212SOL     OW15094   4.323   3.243   4.124  0.1124 -0.0816 -0.1104
 1212SOL    HW115095   4.246   3.189   4.107  3.1500 -4.2125 -0.7119
 1212SOL    HW215096   4.394   3.180   4.110  1.1391  1.7267 -2.9790
 1213SOL     OW15097   3.307   4.652   4.983  0.1056 -0.4190 -0.5757
 1213SOL    HW115098   3.218   4.644   5.016  0.7270 -1.0307  0.9444
 1213SOL    HW215099   3.329   0.018   5.003  0.0674 -0.9498  1.9177
 1214SOL     OW15100   0.112   2.327   7.640  0.4442 -0.0116  0.1313
 1214SOL    HW115101   0.131   2.344   7.547 -0.2921 -0.0180 -0.0179
 1214SOL    HW215102   0.055   2.396   7.672  0.6267  0.5136 -0.6570
 1215SOL     OW15103   2.664   3.053   3.154 -0.3338 -0.1022  0.5209
 1215SOL    HW115104   2.579   3.034   3.195  0.7632 -0.3428  2.6882
 1215SOL    HW215105   2.691   3.133   3.197  1.8715 -0.7540  0.3405
 1216SOL     OW15106   0.504   3.321   4.935  0.0672 -0.1813  0.4509
 1216SOL    HW115107   0.538   3.299   4.848 -2.8273 -0.3283 -0.6696
 1216SOL    HW215108   0.429   3.378   4.915 -0.1795 -1.1476 -1.3661
 1217SOL     OW15109   3.021   0.763  13.063  0.3683  0.6451 -0.3272
 1217SOL    HW115110   3.106   0.795  13.093  1.2009 -1.4291 -0.4699
 1217SOL    HW215111   2.966   0.838  13.082  0.1021  0.8321 -1.7928
 1218SOL     OW15112   3.342   2.877  13.379  0.0908 -0.6020 -0.1963
 1218SOL    HW115113   3.390   2.959  13.366  1.9622 -1.4507  1.4271
 1218SOL    HW215114   3.339   2.835  13.292  5.4335  2.8733 -2.0634
 1219SOL     OW15115   3.353   3.940   8.408  0.2067 -0.4529  0.3041
 1219SOL    HW115116   3.277   3.891   8.375 -0.7558  0.6200  0.9505
 1219SOL    HW215117   3.318   4.029   8.413  2.2723  0.3637  0.1327
 1220SOL     OW15118   4.180   2.052   8.013  0.0322  0.7632  0.8480
 1220SOL    HW115119   4.223   2.077   8.094  0.0211  1.1754  0.7283
 1220SOL    HW215120   4.135   1.974   8.045  0.4613  0.9649  1.9401
 1221SOL     OW15121   1.043   1.903   7.801  0.0772 -0.2348 -0.0839
 1221SOL    HW115122   1.106   1.970   7.773  0.6052 -0.2338  1.1225
 1221SOL    HW215123   0.967   1.958   7.814 -0.7059 -1.0856 -1.0287
 1222SOL     OW15124   2.116   0.781   8.834 -0.3082 -0.3684  0.7012
 1222SOL    HW115125   2.084   0.728   8.762  0.9670  0.9177 -0.8275
 1222SOL    HW215126   2.072   0.741   8.909  0.0823 -1.0506  0.5678
 1223SOL     OW15127   1.186   3.579   3.959 -0.2908 -0.6525 -0.1183
 1223SOL    HW115128   1.254   3.536   3.906 -0.3052  1.2475 -1.6793
 1223SOL    HW215129   1.186   3.524   4.037 -0.2716  0.6865  0.8225
 1224SOL     OW15130   2.377   0.566   2.837 -0.3153  0.3859 -0.4079
 1224SOL    HW115131   2.287   0.592   2.857  0.4084  2.1940  0.4932
 1224SOL    HW215132   2.397   0.630   2.768 -1.5433  1.4000  0.1820
 1225SOL     OW15133   2.675   2.328   0.732  0.1584 -0.2506 -0.8575
 1225SOL    HW115134   2.769   2.312   0.739  0.3280  0.5239 -1.3192
 1225SOL    HW215135   2.670   2.424   0.739  0.1567 -0.1786 -1.8848
 1226SOL     OW15136   4.619   0.364   7.223  0.0412  0.1510  0.1337
 1226SOL    HW115137   4.631   0.458   7.205  0.3586  0.0973  0.0713
 1226SOL    HW215138   4.699   0.348   7.273  1.0263  2.0391 -0.8268
 1227SOL     OW15139   4.564   3.668   0.158  0.2834  0.8137 -0.1605
 1227SOL    HW115140   4.531   3.726   0.090  0.0582 -0.3244 -1.0201
 1227SOL    HW215141   4.559   3.588   0.106  0.5742 -0.1500  1.3015
 1228SOL     OW15142   2.307   3.752  16.060  0.0863 -0.1994  0.6913
 1228SOL    HW115143   2.358   3.689  16.112  0.7243  0.5454  0.9508
 1228SOL    HW215144   2.316   3.823  16.123  0.9309  0.4602 -0.1865
 1229SOL     OW15145   1.740   2.571   4.364 -0.0115  0.4153 -0.4488
 1229SOL    HW115146   1.705   2.515   4.294 -0.5758 -0.1955  0.3136
 1229SOL    HW215147   1.773   2.645   4.314  0.1073  0.5031 -0.2423
 1230SOL     OW15148   4.365   0.471   3.130 -0.4351 -0.1987  0.0383
 1230SOL    HW115149   4.279   0.511   3.144 -0.8381 -0.9435 -0.3403
 1230SOL    HW215150   4.423   0.545   3.148 -2.4076  0.9279  1.6978
 1231SOL     OW15151   0.906   4.075  13.215  0.6113 -0.2222  0.2473
 1231SOL    HW115152   0.942   4.042  13.132  1.3838 -2.0462  1.3090
 1231SOL    HW215153   0.819   4.110  13.196  0.4726 -0.0159  1.2893
 1232SOL     OW15154   0.078   3.144   8.680 -0.2338  0.6665  0.0146
 1232SOL    HW115155   4.713   3.152   8.712 -0.6736 -1.1115 -0.7895
 1232SOL    HW215156   0.070   3.109   8.592 -2.3434  0.0909  0.4313
 1233SOL     OW15157   4.558   0.065   5.369  0.3989  0.0473 -0.1664
 1233SOL    HW115158   4.577   4.717   5.428 -0.0476 -1.0000 -1.3025
 1233SOL    HW215159   4.513   0.118   5.434 -1.8758 -2.6509  0.4570
 1234SOL     OW15160   2.238   0.063   7.327  0.2328  0.1938 -0.2438
 1234SOL    HW115161   2.154   0.109   7.313  0.0211 -0.2373 -0.3784
 1234SOL    HW215162   2.215   4.725   7.395 -0.3857 -1.8739 -2.3881
 1235SOL     OW15163   0.575   4.602   4.675  0.9000 -0.8963  0.3462
 1235SOL    HW115164   0.493   4.551   4.675  0.1267  0.3296 -0.3649
 1235SOL    HW215165   0.546   4.682   4.719  1.6012 -0.4139 -0.0897
 1236SOL     OW15166   2.558   3.796   5.555  0.4620 -0.1701  0.7516
 1236SOL    HW115167   2.630   3.734   5.544  1.0445  0.5041  0.7211
 1236SOL    HW215168   2.497   3.756   5.494 -0.4657 -0.7667  2.0809
 1237SOL     OW15169   1.972   1.222   4.210  0.1857  0.6556  0.0311
 1237SOL    HW115170   2.066   1.242   4.213  0.0712  0.9955  1.1291
 1237SOL    HW215171   1.972   1.129   4.184 -1.9291  0.9050 -0.8614
 1238SOL     OW15172   2.824   1.581   6.958  0.0256 -0.0433  0.2845
 1238SOL    HW115173   2.885   1.552   6.890  0.5491 -0.4635  0.9432
 1238SOL    HW215174   2.769   1.503   6.956  0.3792 -0.2321 -2.1989
 1239SOL     OW15175   2.661   3.162   6.711 -0.2214 -0.6933 -0.1153
 1239SOL    HW115176   2.747   3.149   6.672  0.1140  1.6737 -0.2156
 1239SOL    HW215177   2.629   3.074   6.729 -2.0731  0.1575  0.7718
 1240SOL     OW15178   4.248   1.810   6.122  0.2850 -0.3709  0.3016
 1240SOL    HW115179   4.266   1.770   6.207  0.4114 -0.3702  0.2747
 1240SOL    HW215180   4.285   1.896   6.138  0.5590 -0.2841 -0.7664
 1241SOL     OW15181   0.174   0.681   8.534 -0.0264  0.7234 -0.2648
 1241SOL    HW115182   0.228   0.758   8.549 -0.3986  1.4313 -2.5994
 1241SOL    HW215183   0.097   0.684   8.591  0.7045  2.5787  0.6098
 1242SOL     OW15184   2.488   0.937   9.732 -0.3043  0.2225  0.0656
 1242SOL    HW115185   2.417   0.947   9.796 -1.6572 -0.7775 -1.2979
 1242SOL    HW215186   2.455   0.863   9.682  1.3964  0.5123 -1.4627
 1243SOL     OW15187   3.604   4.511   1.736 -0.6492 -0.3147 -0.4317
 1243SOL    HW115188   3.575   4.460   1.660 -0.2108 -0.3917 -0.5438
 1243SOL    HW215189   3.691   4.483   1.762 -0.7677 -0.6737 -0.4220
 1244SOL     OW15190   4.091   2.883   8.113 -0.0210  0.0521  0.2174
 1244SOL    HW115191   4.035   2.877   8.190  0.5125 -0.6919  0.5407
 1244SOL    HW215192   4.021   2.880   8.047 -0.6902  0.6187  0.8962
 1245SOL     OW15193   1.933   0.808   8.302 -0.2018  0.5784  0.1546
 1245SOL    HW115194   1.911   0.736   8.361 -0.4826  2.2806  2.1251
 1245SOL    HW215195   1.998   0.852   8.356 -1.5719 -0.2247  2.4367
 1246SOL     OW15196   4.129   3.967   3.660  0.0055 -0.0980 -0.3196
 1246SOL    HW115197   4.100   3.876   3.645  2.2906 -1.1985  2.0254
 1246SOL    HW215198   4.221   3.964   3.636  0.3723  0.8938  1.0126
 1247SOL     OW15199   0.160   1.451  16.950  0.0352 -0.2597  0.2139
 1247SOL    HW115200   0.113   1.470  16.869 -0.3976  0.2334  0.5854
 1247SOL    HW215201   0.246   1.418  16.923  1.3687  1.8818  1.7870
 1248SOL     OW15202   1.509   1.823   7.890  0.1410  0.5354  0.2595
 1248SOL    HW115203   1.498   1.909   7.849  1.5784  0.2812 -0.6218
 1248SOL    HW215204   1.456   1.835   7.969  1.5126  0.5476  1.1723
 1249SOL     OW15205   2.304   4.202   7.936  0.4245 -0.2589  0.6527
 1249SOL    HW115206   2.381   4.157   7.970  0.3405 -0.9489 -0.0812
 1249SOL    HW215207   2.243   4.188   8.009  2.5621 -0.8564  2.3272
 1250SOL     OW15208   0.286   3.780   8.086  0.1690  0.0395 -0.0731
 1250SOL    HW115209   0.278   3.782   7.991  0.3768 -0.9527 -0.1043
 1250SOL    HW215210   0.222   3.713   8.110  0.0885  0.3175  0.4958
 1251SOL     OW15211   4.398   0.869  11.954 -0.2546 -0.8846  0.7554
 1251SOL    HW115212   4.354   0.813  12.018 -2.9651  2.7673  2.0810
 1251SOL    HW215213   4.335   0.890  11.885  1.3137 -1.2848 -0.8002
 1252SOL     OW15214   1.242   3.647  12.711  0.0742  0.4557 -0.3571
 1252SOL    HW115215   1.311   3.595  12.668 -0.7478  0.3893 -1.6109
 1252SOL    HW215216   1.293   3.704  12.767  0.1549 -0.0459  0.0727
 1253SOL     OW15217   3.261   0.501   8.191 -0.3426  0.3999  0.2538
 1253SOL    HW115218   3.183   0.502   8.137 -0.4431  0.0032  0.3969
 1253SOL    HW215219   3.233   0.482   8.281 -0.4144  1.3199  0.4250
 1254SOL     OW15220   2.213   0.495   9.710 -0.6739  0.4033  0.1007
 1254SOL    HW115221   2.136   0.439   9.709 -0.9365  0.7452  2.4451
 1254SOL    HW215222   2.239   0.483   9.618  0.2051  1.0386  0.2617
 1255SOL     OW15223   3.537   1.791   9.661 -0.0445  0.0589 -0.2027
 1255SOL    HW115224   3.468   1.845   9.622 -1.0378  0.6246  2.3499
 1255SOL    HW215225   3.500   1.709   9.629 -0.0123 -0.4472  1.0495
 1256SOL     OW15226   0.495   3.479   9.931  0.2250 -0.6756 -0.1239
 1256SOL    HW115227   0.522   3.552   9.987 -1.2671 -1.2604  1.3490
 1256SOL    HW215228   0.441   3.443  10.001  1.8343 -0.4672  1.2235
 1257SOL     OW15229   2.684   3.737   1.563 -0.4248 -0.0256  0.2397
 1257SOL    HW115230   2.706   3.779   1.480  2.0235 -0.5565  0.6056
 1257SOL    HW215231   2.611   3.686   1.528  0.0949 -0.3715 -0.3465
 1258SOL     OW15232   0.324   2.237   2.884  0.0320  0.0385 -0.1224
 1258SOL    HW115233   0.355   2.169   2.943 -0.3416 -1.2252 -1.4121
 1258SOL    HW215234   0.378   2.225   2.806 -0.0449 -3.8379  0.4515
 1259SOL     OW15235   2.721   2.709  15.433 -0.4405  0.2365 -0.0026
 1259SOL    HW115236   2.659   2.782  15.437 -0.5780  0.0811  0.8277
 1259SOL    HW215237   2.720   2.696  15.338  0.6758 -2.8982  0.4024
 1260SOL     OW15238   3.553   0.765   7.264 -0.6622  0.4528 -0.0971
 1260SOL    HW115239   3.463   0.736   7.253  0.9004 -4.2018 -0.4318
 1260SOL    HW215240   3.545   0.812   7.347  3.4300 -1.5180  1.4418
 1261SOL     OW15241   3.084   2.601   4.280 -0.4606 -0.4186  0.3925
 1261SOL    HW115242   3.128   2.533   4.230 -3.0450 -3.8915  2.8387
 1261SOL    HW215243   3.104   2.592   4.373  2.3509 -0.8557 -0.2701
 1262SOL     OW15244   2.328   0.319  11.839 -0.1224 -0.2586 -0.2698
 1262SOL    HW115245   2.244   0.331  11.883 -0.2342 -1.8109 -0.0804
 1262SOL    HW215246   2.324   0.380  11.765  0.5891 -0.0789 -0.1674
 1263SOL     OW15247   3.046   2.322   3.975  0.5844  0.0237  1.0345
 1263SOL    HW115248   3.117   2.360   4.028 -0.5088  0.4824  2.1941
 1263SOL    HW215249   3.044   2.404   3.926 -1.9404 -1.9309 -2.1152
 1264SOL     OW15250   4.525   2.307  11.703 -0.3964 -0.1440 -0.0263
 1264SOL    HW115251   4.456   2.328  11.640  0.0064  3.5033  0.7875
 1264SOL    HW215252   4.508   2.382  11.759  2.3535  0.8203 -0.5092
 1265SOL     OW15253   3.287   3.965  10.643  0.4591 -0.3335  1.1338
 1265SOL    HW115254   3.268   3.901  10.712  0.1916 -2.0297 -0.5096
 1265SOL    HW215255   3.265   4.037  10.702 -1.3532  1.4408 -1.7084
 1266SOL     OW15256   3.064   1.156  15.058  0.5235  0.2510  0.3213
 1266SOL    HW115257   3.064   1.162  15.154  0.2552  1.0182  0.2683
 1266SOL    HW215258   3.094   1.065  15.055 -1.2525 -0.4231  2.7701
 1267SOL     OW15259   0.340   0.823   8.172  0.0563  0.2102  0.3677
 1267SOL    HW115260   0.415   0.882   8.179  1.9093 -1.9705 -1.1279
 1267SOL    HW215261   0.293   0.830   8.255 -1.5666 -1.7695 -0.3943
 1268SOL     OW15262   3.742   1.393  12.151 -0.2412  0.3910 -0.0957
 1268SOL    HW115263   3.667   1.448  12.127 -1.0691 -0.4696  0.5498
 1268SOL    HW215264   3.818   1.447  12.128 -0.7362  2.2440  2.5479
 1269SOL     OW15265   1.961   0.307   2.117 -0.0864  1.0674  0.0503
 1269SOL    HW115266   1.972   0.381   2.058 -1.6458 -0.2413 -1.8654
 1269SOL    HW215267   1.869   0.317   2.139  0.1205 -0.4626  1.7159
 1270SOL     OW15268   3.320   2.866   6.458 -0.3576  0.2635  0.4137
 1270SOL    HW115269   3.367   2.877   6.376 -0.0295  1.0201  0.7010
 1270SOL    HW215270   3.239   2.824   6.429 -0.6184  0.1394  1.3208
 1271SOL     OW15271   1.232   2.630  17.379 -0.3854 -0.6831 -0.2584
 1271SOL    HW115272   1.200   2.595  17.462 -0.7459 -0.7566 -0.4304
 1271SOL    HW215273   1.214   2.723  17.390 -0.0366 -0.4708 -1.4996
 1272SOL     OW15274   0.988   3.717  12.807 -0.1803  0.3138  0.7224
 1272SOL    HW115275   1.057   3.684  12.750  1.3756  1.3062  2.0494
 1272SOL    HW215276   0.972   3.642  12.866 -0.1058  0.0861  0.4520
 1273SOL     OW15277   4.691   0.803  15.845  0.0472  0.2927  0.4127
 1273SOL    HW115278   4.644   0.721  15.857 -0.6011  0.6632  0.3981
 1273SOL    HW215279   4.626   0.865  15.813  0.2171  0.3555  0.1867
 1274SOL     OW15280   4.253   2.510   1.587  0.3206 -0.4616 -0.2157
 1274SOL    HW115281   4.344   2.497   1.560  0.8694  2.6997  0.1734
 1274SOL    HW215282   4.202   2.476   1.513  0.5084  0.0462 -0.5750
 1275SOL     OW15283   3.076   3.561   5.263 -0.5071 -0.0128 -0.8010
 1275SOL    HW115284   3.087   3.652   5.236 -0.3157  0.0733 -0.4288
 1275SOL    HW215285   2.984   3.538   5.253 -0.1310 -1.2034 -1.5389
 1276SOL     OW15286   4.209   3.558   0.919 -0.0963  0.4125 -0.1155
 1276SOL    HW115287   4.276   3.591   0.978 -0.6817 -1.6040  1.6555
 1276SOL    HW215288   4.133   3.615   0.930 -0.7477  0.1016 -2.9811
 1277SOL     OW15289   2.673   3.655   8.492 -0.1213  0.8115  0.3987
 1277SOL    HW115290   2.665   3.605   8.574  0.9570  0.0992  0.0648
 1277SOL    HW215291   2.638   3.742   8.511  0.6904  1.4282 -0.9457
 1278SOL     OW15292   0.694   2.803   6.265 -0.3168 -0.0894  0.4122
 1278SOL    HW115293   0.628   2.871   6.275  0.1775  0.5551 -0.6607
 1278SOL    HW215294   0.754   2.847   6.205  1.5342 -1.1882  1.4897
 1279SOL     OW15295   1.523   4.043   3.560  0.4754 -0.0313 -0.0844
 1279SOL    HW115296   1.604   4.057   3.510  0.6138  0.0910  0.1744
 1279SOL    HW215297   1.504   3.952   3.540  0.2967 -0.0159  0.0254
 1280SOL     OW15298   3.325   1.051   7.983  0.4242 -0.2024 -0.1052
 1280SOL    HW115299   3.366   1.025   8.065  0.6501 -0.1858 -0.2118
 1280SOL    HW215300   3.398   1.092   7.936  1.3076  0.1102  1.5626
 1281SOL     OW15301   1.205   4.195   6.602  0.3588  0.5957  0.0602
 1281SOL    HW115302   1.131   4.150   6.560  0.2145 -0.2214  1.1911
 1281SOL    HW215303   1.176   4.282   6.575  0.8691  1.0064  0.8344
 1282SOL     OW15304   1.944   3.640   1.508 -0.6775  0.2864 -0.5099
 1282SOL    HW115305   1.961   3.728   1.542  0.9379 -0.0938 -0.3101
 1282SOL    HW215306   2.017   3.597   1.552  1.5278  1.5198 -2.9659
 1283SOL     OW15307   1.281   2.902   7.476 -0.8901  0.2072 -0.0576
 1283SOL    HW115308   1.348   2.923   7.541 -1.2065  3.2483 -0.7057
 1283SOL    HW215309   1.246   2.820   7.512  0.2471 -0.2651 -0.0246
 1284SOL     OW15310   4.067   1.513  16.806 -0.2789 -0.2119 -0.2159
 1284SOL    HW115311   4.116   1.500  16.887  0.8514 -0.2623 -0.9103
 1284SOL    HW215312   4.017   1.593  16.824 -1.5891 -1.2451  0.7166
 1285SOL     OW15313   0.945   3.520   7.473 -0.1804 -1.0574 -0.7283
 1285SOL    HW115314   0.981   3.581   7.409 -1.7209  0.7885  0.1357
 1285SOL    HW215315   1.010   3.451   7.461 -0.9708 -1.7276 -1.1838
 1286SOL     OW15316   3.563   2.796   7.811  0.5364  0.2216 -0.1435
 1286SOL    HW115317   3.513   2.856   7.866 -0.2446 -0.0901 -0.5197
 1286SOL    HW215318   3.597   2.747   7.886  1.0661 -1.0623 -1.2106
 1287SOL     OW15319   2.149   4.713   4.565 -0.5130  0.3378  0.0948
 1287SOL    HW115320   2.165   4.723   4.471 -1.9341 -0.7728 -0.2617
 1287SOL    HW215321   2.120   0.077   4.583  1.6367  0.7437  1.4968
 1288SOL     OW15322   0.932   2.633   3.968  0.2824  0.3719 -0.1522
 1288SOL    HW115323   0.970   2.617   3.882  2.8489 -0.4385  1.1309
 1288SOL    HW215324   0.998   2.696   3.997  2.8605 -0.8887 -3.3035
 1289SOL     OW15325   1.278   3.493   4.420  0.0839  0.1309  0.5148
 1289SOL    HW115326   1.321   3.421   4.467 -0.1698 -0.2089  0.2291
 1289SOL    HW215327   1.234   3.533   4.495  0.2065 -0.0010  0.6588
 1290SOL     OW15328   1.390   1.859   1.986 -0.2437  0.8687 -0.2032
 1290SOL    HW115329   1.447   1.917   2.036  1.0189 -0.2495 -0.3508
 1290SOL    HW215330   1.444   1.839   1.910 -0.7657 -0.3881 -0.2571
 1291SOL     OW15331   0.247   2.811   2.306 -0.6138 -0.0224 -0.1475
 1291SOL    HW115332   0.304   2.871   2.257 -0.7338 -0.1895 -0.4927
 1291SOL    HW215333   0.287   2.824   2.392 -2.2691  1.1320  0.4514
 1292SOL     OW15334   0.181   0.043   9.601  0.0898 -0.1766  0.2961
 1292SOL    HW115335   0.217   4.680   9.612 -1.0163 -0.7140 -0.3081
 1292SOL    HW215336   0.206   0.069   9.512 -1.8569 -0.7975 -0.4577
 1293SOL     OW15337   4.609   0.548   8.854  0.3806  0.0403  0.2177
 1293SOL    HW115338   4.530   0.494   8.857  1.3473 -1.3933 -0.8285
 1293SOL    HW215339   4.662   0.530   8.932  0.8682  0.7564  0.0482
 1294SOL     OW15340   4.612   1.985  13.528 -0.0092 -0.0828 -0.4884
 1294SOL    HW115341   4.669   1.931  13.473  0.5000 -0.6659  0.6088
 1294SOL    HW215342   4.529   1.977  13.481  1.2288  0.4087 -2.7533
 1295SOL     OW15343   2.419   0.309   5.546 -0.2112  0.0678  0.5214
 1295SOL    HW115344   2.378   0.261   5.474  1.7918 -1.5660  0.4755
 1295SOL    HW215345   2.509   0.277   5.535 -0.4097 -0.0797 -0.6650
 1296SOL     OW15346   0.191   0.207   1.069  0.1126 -0.5051 -0.0014
 1296SOL    HW115347   0.241   0.131   1.098 -1.0649 -2.0293 -1.9428
 1296SOL    HW215348   0.107   0.197   1.114 -0.4471  0.3860 -0.8518
 1297SOL     OW15349   4.670   4.647  11.408 -0.2204 -0.3075  0.1396
 1297SOL    HW115350   4.669   0.005  11.455  0.5806 -0.1296 -0.1426
 1297SOL    HW215351   4.677   4.582  11.477  1.3424 -0.8627 -0.5207
 1298SOL     OW15352   4.231   0.870   1.494 -0.7965  0.9089 -0.1701
 1298SOL    HW115353   4.258   0.780   1.511  0.6704  1.0249 -1.8727
 1298SOL    HW215354   4.167   0.849   1.425 -3.8254  2.2367  2.2164
 1299SOL     OW15355   0.721   1.559   8.306 -0.4058  0.2035  0.2651
 1299SOL    HW115356   0.676   1.476   8.288  0.5923 -0.9192  3.0308
 1299SOL    HW215357   0.762   1.576   8.221  0.9503  0.2310  0.9284
 1300SOL     OW15358   1.782   2.053   7.116  0.4804  0.5191  0.2554
 1300SOL    HW115359   1.769   1.958   7.117  1.0936  0.4117 -0.9066
 1300SOL    HW215360   1.875   2.065   7.132  0.6296  0.0291 -0.2568
 1301SOL     OW15361   4.274   3.223   6.569 -0.5110 -0.2061 -0.4992
 1301SOL    HW115362   4.358   3.245   6.529  0.0555  1.9054  1.9068
 1301SOL    HW215363   4.222   3.294   6.532  1.0436  1.6003  0.8346
 1302SOL     OW15364   0.758   1.065   8.324  0.0276  0.6642  0.3925
 1302SOL    HW115365   0.847   1.067   8.359  0.8636 -2.1095 -1.5339
 1302SOL    HW215366   0.781   1.016   8.245  0.4123 -2.0582  2.1930
 1303SOL     OW15367   3.593   4.237   4.661 -0.1277  0.1110  0.6229
 1303SOL    HW115368   3.601   4.280   4.746  1.1874  1.0954  0.0069
 1303SOL    HW215369   3.507   4.263   4.627  0.3448  0.0467 -0.6152
 1304SOL     OW15370   1.756   3.624   7.433 -0.6744 -0.0772  0.6285
 1304SOL    HW115371   1.707   3.611   7.352  1.3494 -1.3044 -0.4080
 1304SOL    HW215372   1.823   3.688   7.407 -2.0649  1.6725  1.3808
 1305SOL     OW15373   3.584   3.880   7.609 -0.7824 -0.0373  0.3434
 1305SOL    HW115374   3.658   3.825   7.582 -0.8498 -0.4402  0.9754
 1305SOL    HW215375   3.604   3.926   7.691 -0.5237 -0.9660  0.8027
 1306SOL     OW15376   0.179   2.638   5.516 -0.3091 -0.4359  0.2310
 1306SOL    HW115377   0.170   2.636   5.611 -0.8888  0.8448  0.2010
 1306SOL    HW215378   0.112   2.576   5.488 -1.7473  1.1467  0.2052
 1307SOL     OW15379   0.826   0.293   2.174 -0.6217 -0.4196 -0.1547
 1307SOL    HW115380   0.773   0.358   2.221  0.1469  0.8278 -1.0261
 1307SOL    HW215381   0.890   0.345   2.125 -0.1505 -0.3141  0.5722
 1308SOL     OW15382   3.542   1.115  16.705 -0.2448 -0.3820  0.4863
 1308SOL    HW115383   3.506   1.204  16.700 -0.0726 -0.2929  0.8132
 1308SOL    HW215384   3.466   1.072  16.665 -0.6091  1.2337 -0.5627
 1309SOL     OW15385   3.387   0.822  15.341  0.0788  0.3893  0.5817
 1309SOL    HW115386   3.447   0.896  15.347  2.7799 -1.9066  2.2237
 1309SOL    HW215387   3.365   0.831  15.249 -0.9271 -2.7230  0.5166
 1310SOL     OW15388   3.810   3.803   1.332 -0.4909  0.4310  0.4714
 1310SOL    HW115389   3.852   3.742   1.271 -0.3938  1.4847 -0.5146
 1310SOL    HW215390   3.881   3.820   1.394 -1.1929 -0.1127  1.4346
 1311SOL     OW15391   4.597   3.988  12.607 -0.1898  0.8161 -0.4802
 1311SOL    HW115392   4.650   3.969  12.685 -2.6825  0.7671  1.1800
 1311SOL    HW215393   4.512   3.961  12.642  0.8675 -0.6295  1.0038
 1312SOL     OW15394   4.412   3.633   6.591 -0.5907  0.2999 -0.2372
 1312SOL    HW115395   4.355   3.584   6.650 -0.5552 -1.6550 -1.8185
 1312SOL    HW215396   4.383   3.724   6.593 -1.8050 -0.0805 -0.5233
 1313SOL     OW15397   3.882   3.559   3.524  0.1562 -0.2539 -0.0547
 1313SOL    HW115398   3.868   3.648   3.493 -1.7011 -0.8791 -0.9931
 1313SOL    HW215399   3.817   3.514   3.470 -1.4912  0.7289  1.1217
 1314SOL     OW15400   1.082   0.872  15.520 -0.4833  0.1585 -0.1895
 1314SOL    HW115401   1.016   0.803  15.533  2.8943 -2.7819  1.2674
 1314SOL    HW215402   1.025   0.949  15.511  0.4757  1.0411  1.3773
 1315SOL     OW15403   0.704   0.132   5.265 -0.4454  0.2529  0.1615
 1315SOL    HW115404   0.660   0.070   5.208 -0.3692 -1.0880  1.5527
 1315SOL    HW215405   0.733   0.199   5.203  2.8097  1.0281  2.4928
 1316SOL     OW15406   2.553   1.726   0.726 -0.9747  0.0699  0.2606
 1316SOL    HW115407   2.588   1.733   0.815  0.4754  0.4677 -0.3437
 1316SOL    HW215408   2.464   1.760   0.731  0.1409  3.6414 -4.1322
 1317SOL     OW15409   3.401   0.029   4.258  0.1844 -0.5787 -0.2261
 1317SOL    HW115410   3.357   0.100   4.305  1.5293 -0.5557  0.9929
 1317SOL    HW215411   3.327   4.707   4.219 -0.3266  0.5402 -0.5903
 1318SOL     OW15412   2.049   1.657  17.311 -0.2243  0.0110  0.3974
 1318SOL    HW115413   2.125   1.671  17.368  0.4062  1.7594 -0.8823
 1318SOL    HW215414   1.976   1.687  17.365 -0.1632  3.1421 -1.2817
 1319SOL     OW15415   0.931   0.505   6.106 -0.4029  0.2727  0.0517
 1319SOL    HW115416   0.977   0.518   6.023 -0.8663 -1.6676 -0.5178
 1319SOL    HW215417   0.985   0.557   6.165  1.3234 -0.8191 -0.5522
 1320SOL     OW15418   0.123   3.558   8.216  0.0246 -0.0059  0.1445
 1320SOL    HW115419   0.074   3.523   8.141  0.1000  0.5967 -0.1928
 1320SOL    HW215420   0.118   3.499   8.290 -1.1554  0.6579  0.6005
 1321SOL     OW15421   4.061   3.368   8.680 -0.1472  0.6885 -0.5455
 1321SOL    HW115422   4.045   3.335   8.768 -0.9723  1.0253 -0.5746
 1321SOL    HW215423   4.018   3.301   8.626  1.1470  0.7045 -1.6060
 1322SOL     OW15424   3.362   3.525  17.330  0.7104  0.2222  1.2789
 1322SOL    HW115425   3.401   3.525  17.243  0.3984 -0.4523  1.1365
 1322SOL    HW215426   3.434   3.492  17.384 -0.0086 -0.7492  1.6523
 1323SOL     OW15427   1.583   2.155   3.682 -0.6012  0.0255 -0.2528
 1323SOL    HW115428   1.604   2.061   3.676 -1.7889 -0.3757  1.9142
 1323SOL    HW215429   1.665   2.201   3.699 -0.9032  0.3194  0.4156
 1324SOL     OW15430   4.006   0.228   4.801  0.3570 -0.0897  0.3837
 1324SOL    HW115431   4.000   0.140   4.839 -0.2981 -1.2727 -2.4871
 1324SOL    HW215432   4.048   0.274   4.874  2.0629 -1.3714  0.2160
 1325SOL     OW15433   3.476   2.112  10.535 -0.1241 -0.2265 -0.0968
 1325SOL    HW115434   3.502   2.191  10.488 -0.4334 -0.8503 -1.3055
 1325SOL    HW215435   3.434   2.065  10.463  1.1260 -2.3425  0.5567
 1326SOL     OW15436   2.092   1.241   5.084  0.0522 -0.9631 -0.3274
 1326SOL    HW115437   2.126   1.315   5.035  1.5087  1.0259  3.7188
 1326SOL    HW215438   2.007   1.227   5.040 -0.4495 -1.5315  0.8284
 1327SOL     OW15439   1.716   0.037   7.203 -0.2234 -0.0064  0.3603
 1327SOL    HW115440   1.720   0.095   7.127  0.5919 -1.8390 -0.9931
 1327SOL    HW215441   1.720   4.672   7.172  0.2106  0.8002 -1.9736
 1328SOL     OW15442   1.179   0.201   6.591  0.6755  0.5173  0.0839
 1328SOL    HW115443   1.173   0.215   6.685  2.8482 -2.3920  0.6678
 1328SOL    HW215444   1.274   0.209   6.584  0.5881  1.5596  0.0698
 1329SOL     OW15445   1.633   2.829   4.400  0.0051 -0.4861  0.0595
 1329SOL    HW115446   1.664   2.814   4.311  2.8967 -0.9228  1.1364
 1329SOL    HW215447   1.565   2.762   4.397 -1.8145  1.3385  1.1354
 1330SOL     OW15448   0.579   4.677   3.684  0.1755 -0.2735  0.0360
 1330SOL    HW115449   0.623   0.015   3.627  1.1659  0.6930  1.8556
 1330SOL    HW215450   0.510   4.657   3.622 -0.9460 -3.0077  2.1718
 1331SOL     OW15451   2.241   0.641  12.046 -0.4427 -0.2102 -0.3336
 1331SOL    HW115452   2.177   0.615  12.112 -0.2582 -0.3483 -0.2101
 1331SOL    HW215453   2.194   0.616  11.966 -0.1574 -1.9859  0.0579
 1332SOL     OW15454   3.590   0.123   7.867  0.3130 -0.5615 -0.1225
 1332SOL    HW115455   3.508   0.124   7.818  0.7123  1.3867 -0.7720
 1332SOL    HW215456   3.555   0.120   7.956  2.8589 -2.6233  0.8015
 1333SOL     OW15457   0.224   1.005  12.747 -0.3245 -0.5898  0.3213
 1333SOL    HW115458   0.229   0.946  12.822  0.5336 -0.2914  0.5017
 1333SOL    HW215459   0.130   1.021  12.738 -0.0079  0.1580 -1.7324
 1334SOL     OW15460   3.706   2.086   8.896  0.3965 -0.5059 -0.2119
 1334SOL    HW115461   3.788   2.121   8.932  1.6040 -1.1151 -2.3894
 1334SOL    HW215462   3.704   1.997   8.931 -0.0217 -0.2599  0.3901
 1335SOL     OW15463   4.375   2.894   9.083  0.4773  0.3925 -0.2739
 1335SOL    HW115464   4.334   2.966   9.035 -0.2543  0.2691  0.1719
 1335SOL    HW215465   4.454   2.888   9.029 -0.6271 -0.9905 -1.7556
 1336SOL     OW15466   4.336   0.395   8.122  0.3964  0.4790 -0.0802
 1336SOL    HW115467   4.317   0.476   8.075 -1.0725 -0.0823 -0.4394
 1336SOL    HW215468   4.251   0.387   8.164  0.9733  0.6569  1.1263
 1337SOL     OW15469   3.310   4.329   3.078  0.4090  0.4706 -0.0814
 1337SOL    HW115470   3.334   4.248   3.123  0.3852  0.0238 -0.8805
 1337SOL    HW215471   3.236   4.359   3.131  0.2466  1.1707 -0.7086
 1338SOL     OW15472   1.747   2.632   1.296 -0.3571  0.1185 -0.3456
 1338SOL    HW115473   1.705   2.602   1.215 -2.5799 -1.3809  1.3707
 1338SOL    HW215474   1.670   2.643   1.351 -0.0406 -2.2755  0.5564
 1339SOL     OW15475   1.022   1.388  12.575  0.1134  0.1166 -0.3760
 1339SOL    HW115476   1.056   1.350  12.493 -0.9084 -1.8038  0.1007
 1339SOL    HW215477   0.933   1.397  12.541 -0.3330 -1.0866  0.4485
 1340SOL     OW15478   3.426   3.866  10.029 -0.1167  0.5448  0.1252
 1340SOL    HW115479   3.386   3.821  10.104 -1.1767  0.6778 -0.3672
 1340SOL    HW215480   3.351   3.924  10.014 -1.4138 -1.0507  0.3810
 1341SOL     OW15481   2.176   3.155   8.367 -0.5783  0.6414  0.1319
 1341SOL    HW115482   2.261   3.112   8.376 -0.3630  0.1052 -4.5216
 1341SOL    HW215483   2.163   3.178   8.459  1.4952  1.6123  0.1659
 1342SOL     OW15484   3.743   0.125   6.469  0.4963  0.0950 -0.8969
 1342SOL    HW115485   3.680   0.196   6.475 -0.6232 -0.9592 -0.1564
 1342SOL    HW215486   3.798   0.161   6.538 -1.8661 -1.2001  1.7104
 1343SOL     OW15487   1.806   2.760   4.169 -0.2085 -0.3481 -0.4524
 1343SOL    HW115488   1.857   2.829   4.126  0.1525  0.2707  0.9496
 1343SOL    HW215489   1.746   2.736   4.099  0.3619 -0.3115 -0.9531
 1344SOL     OW15490   3.382   3.154   7.637  0.1740  0.4313 -0.0627
 1344SOL    HW115491   3.378   3.081   7.575  1.9754  1.7777 -1.7469
 1344SOL    HW215492   3.290   3.179   7.644  0.0749  0.3552 -1.0823
 1345SOL     OW15493   3.508   4.104   5.674 -0.7975 -0.1001 -0.1804
 1345SOL    HW115494   3.447   4.038   5.706 -0.3243 -1.6619 -2.4595
 1345SOL    HW215495   3.557   4.053   5.609 -2.1928  0.1517 -1.4238
 1346SOL     OW15496   0.788   4.390  10.435  0.9406  0.0040 -0.3304
 1346SOL    HW115497   0.795   4.299  10.406 -1.0938  0.0552 -0.9723
 1346SOL    HW215498   0.870   4.429  10.404  1.1643  0.3257  0.6370
 1347SOL     OW15499   0.785   1.751   9.866  0.2143  0.7378  0.0442
 1347SOL    HW115500   0.709   1.693   9.865 -0.7445  1.9938  0.7862
 1347SOL    HW215501   0.785   1.778   9.958  0.4738  2.4367 -0.4482
 1348SOL     OW15502   4.256   1.304  15.854 -0.0322  0.1751 -0.1400
 1348SOL    HW115503   4.220   1.344  15.933  0.0560  0.3928 -0.2110
 1348SOL    HW215504   4.332   1.359  15.835 -0.1798  0.2874 -0.4017
 1349SOL     OW15505   2.506   1.744   5.495  0.0547 -0.1511 -0.6286
 1349SOL    HW115506   2.457   1.771   5.573  1.5495  0.3161  0.1666
 1349SOL    HW215507   2.543   1.830   5.472 -0.9122  0.4619  0.1194
 1350SOL     OW15508   2.534   2.787   0.460 -0.3727  0.1085 -0.8502
 1350SOL    HW115509   2.607   2.830   0.415  1.1876 -0.1594  1.4698
 1350SOL    HW215510   2.577   2.703   0.445  0.2131 -0.1558  2.2982
 1351SOL     OW15511   1.438   3.671   5.619 -0.7740 -0.4895 -0.2653
 1351SOL    HW115512   1.391   3.617   5.683  0.0090  0.4187  1.0873
 1351SOL    HW215513   1.510   3.704   5.674 -0.3187  0.1433 -1.2300
 1352SOL     OW15514   2.653   4.561   1.679  0.2525  0.3430  0.6726
 1352SOL    HW115515   2.732   4.514   1.704 -0.2370 -1.5693 -1.4578
 1352SOL    HW215516   2.610   4.501   1.619 -1.2380  0.2548  1.8221
 1353SOL     OW15517   3.734   2.845   1.686 -0.2813 -0.1131 -0.2266
 1353SOL    HW115518   3.646   2.869   1.657  1.0373 -0.1442 -4.1849
 1353SOL    HW215519   3.794   2.860   1.613  0.5892 -1.6464  0.1715
 1354SOL     OW15520   4.456   2.723   7.618  0.0710  0.1146  0.5547
 1354SOL    HW115521   4.432   2.793   7.556  1.3670 -0.1598 -0.2553
 1354SOL    HW215522   4.390   2.743   7.685 -0.2333 -1.9588  0.8891
 1355SOL     OW15523   1.888   2.580   7.572  0.1288  0.0476  0.0114
 1355SOL    HW115524   1.794   2.560   7.569 -0.0738  1.2688 -1.7488
 1355SOL    HW215525   1.921   2.496   7.605  2.0100  0.1505 -1.6547
 1356SOL     OW15526   0.294   1.018   2.327  0.1923 -0.1605  0.1536
 1356SOL    HW115527   0.206   1.012   2.291  0.4877  1.3509 -0.8140
 1356SOL    HW215528   0.341   0.952   2.276 -2.5251 -1.8300 -0.1850
 1357SOL     OW15529   0.258   3.094   5.532 -0.3083 -0.2685 -0.0141
 1357SOL    HW115530   0.316   3.051   5.595 -0.4653 -0.1187  0.2303
 1357SOL    HW215531   0.196   3.021   5.534  0.1893 -0.6812  0.4786
 1358SOL     OW15532   3.248   1.469  12.965  0.1050 -0.5038 -0.1438
 1358SOL    HW115533   3.236   1.403  13.033 -0.4021 -0.2264  0.0338
 1358SOL    HW215534   3.176   1.529  12.985 -0.4215 -1.1217 -0.1977
 1359SOL     OW15535   4.036   1.974  15.471 -0.0165 -0.3561 -0.1120
 1359SOL    HW115536   3.944   1.999  15.463  0.4306  1.1185 -0.6176
 1359SOL    HW215537   4.045   1.935  15.384  0.0756  3.0155 -1.5851
 1360SOL     OW15538   1.053   2.794   0.176 -0.1241 -0.4191 -0.2701
 1360SOL    HW115539   1.102   2.712   0.168 -1.1314 -1.0278 -0.0531
 1360SOL    HW215540   1.123   2.853   0.146 -0.7779  0.6602  0.3577
 1361SOL     OW15541   1.590   1.833   3.810  0.1891 -0.0285  0.5231
 1361SOL    HW115542   1.558   1.753   3.852  0.2771 -0.1118  0.4334
 1361SOL    HW215543   1.550   1.900   3.865 -1.5657 -1.1035  0.5607
 1362SOL     OW15544   2.374   2.751  14.921  0.2452 -0.2612 -0.1231
 1362SOL    HW115545   2.412   2.734  14.835 -1.6132 -1.2719 -0.7336
 1362SOL    HW215546   2.446   2.730  14.981  2.1418  1.8717 -1.6316
 1363SOL     OW15547   0.283   1.224   5.244  0.2319 -0.2419 -0.1284
 1363SOL    HW115548   0.312   1.175   5.166 -0.3531 -0.6424 -0.0939
 1363SOL    HW215549   0.200   1.184   5.268  0.0381 -0.4678 -1.1516
 1364SOL     OW15550   3.034   1.557   7.509  0.1608 -0.8814 -0.5287
 1364SOL    HW115551   2.963   1.619   7.491 -0.2746 -1.9107 -2.3278
 1364SOL    HW215552   3.111   1.587   7.460  0.5467  0.6012  0.9713
 1365SOL     OW15553   1.248   3.093   8.663 -0.6294 -0.1397  0.3227
 1365SOL    HW115554   1.191   3.016   8.661 -0.4098 -0.4072  4.7109
 1365SOL    HW215555   1.311   3.063   8.597  1.8292 -0.2550  2.7249
 1366SOL     OW15556   2.512   3.396   5.889 -0.0369 -0.1190  0.1140
 1366SOL    HW115557   2.564   3.346   5.825 -2.0140  1.6231 -2.8376
 1366SOL    HW215558   2.517   3.482   5.847 -0.5509 -0.1838 -0.0792
 1367SOL     OW15559   1.877   3.585   3.908  0.5439  0.0679  0.0022
 1367SOL    HW115560   1.801   3.624   3.951  0.2975 -0.6373  0.1966
 1367SOL    HW215561   1.855   3.571   3.816 -0.2511  1.8931 -0.0829
 1368SOL     OW15562   0.697   1.365  14.433  0.2328 -0.0977 -0.0738
 1368SOL    HW115563   0.658   1.335  14.515 -0.5828  1.1716  0.0063
 1368SOL    HW215564   0.619   1.366  14.377  1.3828 -1.8417 -1.7138
 1369SOL     OW15565   4.148   0.581  17.683 -0.1158  0.7865 -0.5828
 1369SOL    HW115566   4.177   0.664  17.646  0.1594  0.6945 -0.5731
 1369SOL    HW215567   4.131   0.602   0.072  2.2171 -1.9494  0.4799
 1370SOL     OW15568   1.587   2.708  17.397  0.1256 -0.1731 -0.3570
 1370SOL    HW115569   1.647   2.783  17.394 -0.3897  0.1806 -1.9993
 1370SOL    HW215570   1.575   2.690  17.304  0.4986 -0.9226 -0.2657
 1371SOL     OW15571   3.047   4.660   2.011  0.1384  0.3049  0.6479
 1371SOL    HW115572   3.024   0.013   2.061  3.9378  1.8280  0.0387
 1371SOL    HW215573   2.964   4.612   2.018  0.2191  0.1863  0.7963
 1372SOL     OW15574   1.281   1.592   9.384  0.2784  0.3034 -0.7937
 1372SOL    HW115575   1.283   1.497   9.375 -2.0689  0.0269  1.5525
 1372SOL    HW215576   1.227   1.606   9.462  0.1653 -0.0133 -0.8128
 1373SOL     OW15577   3.494   1.901   1.929  0.5972  0.4125  0.1694
 1373SOL    HW115578   3.423   1.860   1.882  1.2139 -0.2977 -0.1405
 1373SOL    HW215579   3.519   1.975   1.873 -1.1626  0.4912 -0.4935
 1374SOL     OW15580   0.683   2.957   6.582 -0.2783 -0.7040 -0.1133
 1374SOL    HW115581   0.776   2.933   6.589  0.2045  1.8211  2.0640
 1374SOL    HW215582   0.696   3.051   6.571 -0.5529 -1.0550 -3.3139
 1375SOL     OW15583   2.970   4.486   3.305 -0.1088 -0.1115 -0.3373
 1375SOL    HW115584   2.884   4.445   3.299 -0.4348  0.3615  1.0689
 1375SOL    HW215585   3.029   4.414   3.328 -0.7676 -1.0195 -1.4637
 1376SOL     OW15586   1.499   3.012   0.604 -0.4130 -0.3602 -0.2541
 1376SOL    HW115587   1.581   3.013   0.554  0.8092 -0.5070  1.7576
 1376SOL    HW215588   1.544   2.962   0.673  0.9646  0.1725 -0.7716
 1377SOL     OW15589   3.113   0.163   0.398 -0.8571  0.1202 -0.1927
 1377SOL    HW115590   3.058   0.236   0.370 -2.8742 -2.0547 -1.8759
 1377SOL    HW215591   3.098   0.155   0.492  0.3743  0.8831  0.0721
 1378SOL     OW15592   4.303   3.700   1.852 -0.0362  0.3386  0.6980
 1378SOL    HW115593   4.358   3.624   1.832  3.0399  2.4061  1.2133
 1378SOL    HW215594   4.343   3.758   1.787  0.6291 -0.2624  0.5783
 1379SOL     OW15595   1.966   3.629   4.545 -0.0291 -0.1591 -0.6297
 1379SOL    HW115596   1.948   3.607   4.453 -0.0450 -0.1719 -0.6236
 1379SOL    HW215597   1.880   3.653   4.580  1.3565  2.3094  1.0077
 1380SOL     OW15598   1.419   3.605   0.246  0.3317 -1.0414 -0.6497
 1380SOL    HW115599   1.395   3.636   0.159 -1.4387 -0.6502 -0.0189
 1380SOL    HW215600   1.340   3.619   0.298  1.2341  1.7404  0.0129
 1381SOL     OW15601   1.530   2.376   2.677  0.2237  0.1052 -0.2303
 1381SOL    HW115602   1.444   2.355   2.713 -0.2401  0.7745 -0.9398
 1381SOL    HW215603   1.549   2.306   2.615  2.4691 -0.0755  0.6358
 1382SOL     OW15604   2.567   4.710  12.123  0.0530  0.1338 -0.4312
 1382SOL    HW115605   2.592   4.629  12.078 -0.1193  0.7968 -1.7386
 1382SOL    HW215606   2.617   4.700  12.203 -4.4064 -0.9002  2.2455
 1383SOL     OW15607   1.818   1.513  13.438 -0.3210  0.0362  0.1470
 1383SOL    HW115608   1.899   1.480  13.400 -0.9767  0.5506 -1.7006
 1383SOL    HW215609   1.780   1.556  13.362 -1.3483 -0.8644  0.1602
 1384SOL     OW15610   0.298   0.288   7.745 -1.3115 -0.0344 -0.5825
 1384SOL    HW115611   0.210   0.300   7.781 -0.4956 -0.6313  1.6227
 1384SOL    HW215612   0.323   0.200   7.773 -1.5112  0.6356  1.6844
 1385SOL     OW15613   4.683   0.319   2.170 -0.0050 -0.2825  0.0440
 1385SOL    HW115614   4.632   0.380   2.117  1.7664  2.3008  1.3331
 1385SOL    HW215615   4.646   0.333   2.257 -0.1953  1.3568 -0.3085
 1386SOL     OW15616   1.920   3.120   1.211 -0.3006 -0.1221  0.4713
 1386SOL    HW115617   1.861   3.174   1.157 -2.8839 -1.1754  2.2646
 1386SOL    HW215618   1.956   3.178   1.278  0.7742  1.8671 -1.8208
 1387SOL     OW15619   1.357   2.280  15.314  0.0826  0.2563  0.3864
 1387SOL    HW115620   1.347   2.187  15.337 -0.2698  0.0788 -0.4770
 1387SOL    HW215621   1.446   2.277  15.280  0.1489  3.6905  0.2604
 1388SOL     OW15622   3.431   2.730   7.415 -0.5811  0.1895 -0.0420
 1388SOL    HW115623   3.340   2.727   7.385 -0.9559  0.3414  1.0908
 1388SOL    HW215624   3.469   2.651   7.376  0.7210  0.5073  0.5756
 1389SOL     OW15625   1.423   3.169   4.425 -0.2687 -0.7786 -0.3064
 1389SOL    HW115626   1.375   3.098   4.468  0.6035 -0.1085  1.7443
 1389SOL    HW215627   1.387   3.168   4.337 -0.3743 -2.0682 -0.2458
 1390SOL     OW15628   3.302   4.095   7.723 -0.2225  0.2627  0.4447
 1390SOL    HW115629   3.334   4.120   7.810 -0.4882 -0.3585  0.7277
 1390SOL    HW215630   3.300   4.001   7.741 -0.4256  0.5865  2.1158
 1391SOL     OW15631   3.320   0.535   3.037 -0.2497 -0.3368 -0.5414
 1391SOL    HW115632   3.357   0.469   3.096 -2.0954 -1.0856 -0.2089
 1391SOL    HW215633   3.255   0.579   3.092 -0.6053 -0.1614 -1.0987
 1392SOL     OW15634   2.905   0.232   3.090  0.5946  0.4090  0.0918
 1392SOL    HW115635   2.898   0.138   3.070  3.0122 -0.1649  1.9781
 1392SOL    HW215636   2.975   0.258   3.031  1.3607 -1.5002  0.1526
 1393SOL     OW15637   2.178   4.587   1.737  0.6365 -0.5367  0.2053
 1393SOL    HW115638   2.213   4.642   1.666 -0.2629  0.2529  0.3724
 1393SOL    HW215639   2.209   4.638   1.812  0.8013 -1.8628  1.0297
 1394SOL     OW15640   4.309   1.438  12.571  0.3250 -0.0062 -0.0092
 1394SOL    HW115641   4.220   1.408  12.551  0.7580 -0.9989 -0.4362
 1394SOL    HW215642   4.313   1.521  12.524  3.7453 -0.8287 -1.1446
 1395SOL     OW15643   4.028   3.349   6.487 -0.1006 -0.0367  0.2960
 1395SOL    HW115644   4.007   3.430   6.440  0.3220 -0.8184 -1.2554
 1395SOL    HW215645   4.037   3.384   6.576 -2.8280 -2.6220  1.5719
 1396SOL     OW15646   0.110   1.983   6.851  0.4974  0.9592  0.3973
 1396SOL    HW115647   0.176   2.027   6.905 -1.5396  0.7667  3.0683
 1396SOL    HW215648   0.067   1.927   6.916  0.0541 -1.4887 -1.9917
 1397SOL     OW15649   3.829   0.642   9.594  0.1361 -0.2031 -0.4228
 1397SOL    HW115650   3.807   0.589   9.518  1.3707  0.5238 -1.2811
 1397SOL    HW215651   3.846   0.571   9.657  0.4519  2.0884  2.0539
 1398SOL     OW15652   3.265   0.424   3.482 -0.2590 -0.6276 -0.3440
 1398SOL    HW115653   3.264   0.504   3.534  1.5201 -0.1137 -1.0834
 1398SOL    HW215654   3.295   0.358   3.545 -1.9076 -1.0720 -0.0361
 1399SOL     OW15655   2.821   2.878   3.801 -0.7727 -0.0133 -0.1592
 1399SOL    HW115656   2.762   2.866   3.727  0.3089  2.0578 -1.3478
 1399SOL    HW215657   2.892   2.824   3.767  2.7236  3.5040  1.6401
 1400SOL     OW15658   4.302   3.041  13.312 -0.0544  0.7044  0.0607
 1400SOL    HW115659   4.249   3.023  13.234  0.7870  0.4838 -0.4723
 1400SOL    HW215660   4.348   3.120  13.283  0.9791  0.4940  1.1432
 1401SOL     OW15661   2.056   4.564   4.825 -0.7145 -0.4970  0.4399
 1401SOL    HW115662   2.084   4.631   4.763  0.0661 -1.8482 -0.6747
 1401SOL    HW215663   2.097   4.601   4.903 -0.8363  1.1992 -0.3044
 1402SOL     OW15664   3.664   3.579   7.463  0.2159 -0.1860  0.3457
 1402SOL    HW115665   3.714   3.634   7.524  2.4594 -3.6444  1.5856
 1402SOL    HW215666   3.721   3.503   7.469  0.3712  0.0564  1.9633
 1403SOL     OW15667   3.024   3.773   5.099 -0.0526 -0.1295  0.1136
 1403SOL    HW115668   3.102   3.748   5.050  0.0782 -1.1971  0.8713
 1403SOL    HW215669   3.009   3.861   5.064 -0.4446 -0.3751 -0.3414
 1404SOL     OW15670   1.682   1.803   7.083 -0.6785 -0.3185 -0.4025
 1404SOL    HW115671   1.591   1.828   7.099  0.5003  3.5458  0.3164
 1404SOL    HW215672   1.693   1.738   7.153 -1.4561 -1.6439 -1.5182
 1405SOL     OW15673   0.031   1.892   8.145  0.4921  0.3166  0.0263
 1405SOL    HW115674   0.061   1.896   8.236 -2.9133 -0.6321  1.1873
 1405SOL    HW215675   0.013   1.798   8.134 -0.2426  0.4154  0.3721
 1406SOL     OW15676   1.324   2.515   6.853  0.1473 -0.1826  0.2893
 1406SOL    HW115677   1.378   2.560   6.788  0.9724  0.6686  1.5786
 1406SOL    HW215678   1.385   2.447   6.883 -1.7847 -1.0840  2.2016
 1407SOL     OW15679   1.094   0.279  10.595 -0.2489  0.4888 -0.5466
 1407SOL    HW115680   1.124   0.189  10.610  0.7422  1.1931  1.6732
 1407SOL    HW215681   1.135   0.299  10.511  1.6484 -0.2742  0.2010
 1408SOL     OW15682   3.716   0.896   8.589 -0.0766 -0.6942 -0.3839
 1408SOL    HW115683   3.751   0.809   8.609 -2.4577 -1.1452  1.9215
 1408SOL    HW215684   3.691   0.924   8.677  1.0189  0.3745 -0.4218
 1409SOL     OW15685   4.123   2.172  10.578 -0.5169 -0.0608  0.3146
 1409SOL    HW115686   4.074   2.092  10.599  0.6858 -0.7700  0.4083
 1409SOL    HW215687   4.199   2.161  10.636 -0.0009  0.0391 -0.3427
 1410SOL     OW15688   2.842   1.707   3.305  0.4710  0.4315 -0.5776
 1410SOL    HW115689   2.936   1.692   3.309  0.1176 -1.0592  2.3774
 1410SOL    HW215690   2.810   1.641   3.244  0.3758 -0.1451  0.1042
 1411SOL     OW15691   0.773   2.402   9.039 -0.6514  0.0791  0.3299
 1411SOL    HW115692   0.710   2.391   8.967 -0.5980 -1.8356  0.5588
 1411SOL    HW215693   0.743   2.486   9.073 -2.7209 -0.5886  0.1487
 1412SOL     OW15694   0.239   2.636   3.620  0.3173 -0.0253 -0.4643
 1412SOL    HW115695   0.331   2.622   3.598  0.6155  0.0430  0.7788
 1412SOL    HW215696   0.202   2.649   3.532 -0.0096 -0.0478 -0.3288
 1413SOL     OW15697   1.320   2.419   7.962 -0.0011 -0.0115  0.2928
 1413SOL    HW115698   1.238   2.408   8.010 -0.5245  1.5412 -0.2520
 1413SOL    HW215699   1.347   2.327   7.955 -1.4833 -0.3710 -0.8132
 1414SOL     OW15700   4.472   0.533   3.525 -0.1719  0.0164  0.3857
 1414SOL    HW115701   4.523   0.502   3.450 -1.0636 -0.6528  0.0467
 1414SOL    HW215702   4.530   0.580   3.584  0.0419 -1.9870  1.7405
 1415SOL     OW15703   1.702   4.123  11.263  0.5172 -0.7504 -0.1914
 1415SOL    HW115704   1.763   4.054  11.235  0.2781 -0.7637 -0.6763
 1415SOL    HW215705   1.691   4.100  11.355  0.5619  2.5850  0.6399
 1416SOL     OW15706   3.476   1.177   3.665  0.8040 -0.3523  0.3064
 1416SOL    HW115707   3.442   1.201   3.579 -0.3128 -0.4555  0.7206
 1416SOL    HW215708   3.534   1.103   3.647 -0.6029 -1.2142 -0.6836
 1417SOL     OW15709   4.378   1.880  16.557 -0.3984  0.2187  0.0755
 1417SOL    HW115710   4.336   1.882  16.471 -1.0128  0.3142  0.3777
 1417SOL    HW215711   4.321   1.946  16.597  1.1527  0.5238  1.8148
 1418SOL     OW15712   0.943   3.463  11.283  0.5366  0.0541 -0.3098
 1418SOL    HW115713   0.935   3.390  11.344 -1.1291  0.4269 -0.0731
 1418SOL    HW215714   1.037   3.480  11.288  0.9154 -2.6533  1.7933
 1419SOL     OW15715   0.319   3.560   6.758 -0.8426 -0.5080 -0.1002
 1419SOL    HW115716   0.368   3.573   6.677  0.7340  0.6518  1.0523
 1419SOL    HW215717   0.238   3.522   6.724 -0.1849 -0.2774 -1.9072
 1420SOL     OW15718   1.856   2.796   6.059 -0.4207 -0.0909  0.2287
 1420SOL    HW115719   1.780   2.814   6.004 -0.0654  0.2565 -0.1430
 1420SOL    HW215720   1.813   2.802   6.144 -0.0183  1.6850  0.3136
 1421SOL     OW15721   3.749   0.000  15.079  0.2012 -0.1248 -0.1263
 1421SOL    HW115722   3.679   0.041  15.027 -0.5347  0.1124  1.0409
 1421SOL    HW215723   3.779   0.074  15.131 -1.6123 -1.5808  3.0532
 1422SOL     OW15724   3.203   0.787  12.210  0.2389 -0.0049  0.3978
 1422SOL    HW115725   3.161   0.732  12.276 -1.4932 -0.0524 -0.7489
 1422SOL    HW215726   3.276   0.729  12.190 -0.2744 -0.3308 -0.5604
 1423SOL     OW15727   3.895   0.135   2.752  0.4736 -0.0562  0.0648
 1423SOL    HW115728   3.919   0.215   2.800 -2.3816  1.1286 -0.4918
 1423SOL    HW215729   3.978   0.115   2.709 -1.9299 -1.6109 -3.8516
 1424SOL     OW15730   2.977   4.310   7.909  0.3471  0.3882 -0.2939
 1424SOL    HW115731   3.004   4.224   7.941 -0.8561 -0.6215 -1.9323
 1424SOL    HW215732   2.901   4.285   7.856  1.6529 -0.0563 -1.9585
 1425SOL     OW15733   1.847   2.877  16.108 -0.5925  0.4196  0.2406
 1425SOL    HW115734   1.788   2.948  16.132  0.6113  1.2320  0.7906
 1425SOL    HW215735   1.936   2.911  16.116  0.4624 -2.1580 -0.5483
 1426SOL     OW15736   0.005   0.231   5.261  0.1211  0.0537  0.3997
 1426SOL    HW115737   4.703   0.140   5.266  0.2433  0.0500  0.9635
 1426SOL    HW215738   4.689   0.249   5.345 -0.0860  0.4166  0.2225
 1427SOL     OW15739   3.005   1.419   5.333 -0.5022  0.0300 -0.1594
 1427SOL    HW115740   2.925   1.379   5.298  1.4907 -1.7057 -2.7181
 1427SOL    HW215741   3.076   1.373   5.289 -1.2000 -2.5872  1.4060
 1428SOL     OW15742   1.695   4.293   5.626 -0.0545 -0.3003  0.5171
 1428SOL    HW115743   1.708   4.213   5.575 -0.4468  0.1389 -0.2653
 1428SOL    HW215744   1.768   4.280   5.687 -0.0578  1.1807  0.8361
 1429SOL     OW15745   3.794   2.677   0.429  0.8177  0.3876 -0.1824
 1429SOL    HW115746   3.714   2.676   0.482  0.6349  0.6853 -0.4512
 1429SOL    HW215747   3.764   2.671   0.338  1.3560 -0.8185 -0.2691
 1430SOL     OW15748   4.578   1.863   5.190  0.2099 -0.6439 -0.3656
 1430SOL    HW115749   4.538   1.784   5.227 -0.3618 -1.2434 -2.2816
 1430SOL    HW215750   4.632   1.889   5.265  1.4279  0.6094 -1.6902
 1431SOL     OW15751   1.219   2.371   0.558 -0.2935  0.2136 -0.2730
 1431SOL    HW115752   1.172   2.439   0.510  1.5344  1.0880 -0.8252
 1431SOL    HW215753   1.278   2.345   0.487  0.3804  0.3058  0.2485
 1432SOL     OW15754   1.975   1.458   6.405 -0.0401  0.3844  0.5889
 1432SOL    HW115755   2.068   1.438   6.395 -0.3549 -1.1983  0.9054
 1432SOL    HW215756   1.940   1.400   6.339  0.6574 -1.2390  1.6487
 1433SOL     OW15757   0.140   0.366   6.611 -0.5809  0.0262 -0.4956
 1433SOL    HW115758   0.159   0.286   6.563 -0.5476 -0.1683 -0.1541
 1433SOL    HW215759   0.105   0.332   6.694 -1.4413  1.3705 -0.2951
 1434SOL     OW15760   2.762   4.224   7.739  0.2427  0.1191 -0.2537
 1434SOL    HW115761   2.671   4.226   7.710  0.3726 -1.1881 -0.7568
 1434SOL    HW215762   2.807   4.293   7.691  0.0798  0.0081 -0.5683
 1435SOL     OW15763   3.338   0.477  16.539 -0.0162  0.0499 -0.1814
 1435SOL    HW115764   3.319   0.384  16.528  2.6013 -0.7040  1.5619
 1435SOL    HW215765   3.430   0.460  16.561  0.7230  3.1051 -0.8896
 1436SOL     OW15766   2.850   0.308   2.641  0.2257 -0.1405  0.1798
 1436SOL    HW115767   2.819   0.260   2.718 -1.7181 -1.8461 -1.6509
 1436SOL    HW215768   2.876   0.235   2.585  2.5650 -0.2757  1.4001
 1437SOL     OW15769   1.862   1.627   1.905 -0.0429  0.2126  0.4129
 1437SOL    HW115770   1.856   1.535   1.877  0.8442  0.8796 -1.9091
 1437SOL    HW215771   1.824   1.672   1.830  3.4069  1.0775 -0.7896
 1438SOL     OW15772   0.932   3.077  13.112  0.4652  0.2821 -0.3023
 1438SOL    HW115773   0.914   2.996  13.161 -0.2826  0.4794 -0.2470
 1438SOL    HW215774   1.022   3.060  13.085  0.7842 -0.0598  0.9679
 1439SOL     OW15775   3.530   2.711   9.597  0.4840 -0.2981  0.3147
 1439SOL    HW115776   3.578   2.640   9.640 -2.4336 -0.8989  2.5499
 1439SOL    HW215777   3.501   2.753   9.678  1.5409 -0.9879  1.0379
 1440SOL     OW15778   2.468   1.856   7.029  0.1409 -0.1410 -0.0730
 1440SOL    HW115779   2.513   1.889   6.951  0.4828  3.6593  1.7151
 1440SOL    HW215780   2.379   1.848   6.994  0.2664  0.4540 -0.5310
 1441SOL     OW15781   0.463   1.699  12.260 -0.2003  0.3524 -0.2290
 1441SOL    HW115782   0.398   1.734  12.199  0.1976 -1.3050 -1.5997
 1441SOL    HW215783   0.447   1.762  12.331 -1.6043 -0.3353  0.0740
 1442SOL     OW15784   4.173   0.860  10.108 -0.1185 -0.2142 -0.3677
 1442SOL    HW115785   4.110   0.796  10.142  0.4809 -0.7090 -0.1814
 1442SOL    HW215786   4.130   0.936  10.146 -0.3012 -0.8428  0.7127
 1443SOL     OW15787   4.427   0.459  17.646 -0.1176 -0.1875  0.2752
 1443SOL    HW115788   4.341   0.500  17.656  1.4671  2.5841  2.4262
 1443SOL    HW215789   4.449   0.455   0.036 -1.8644 -0.4612  0.6753
 1444SOL     OW15790   2.695   2.593  13.579 -0.3549 -0.3817 -0.0971
 1444SOL    HW115791   2.665   2.588  13.670 -2.0752  1.0869 -0.6017
 1444SOL    HW215792   2.786   2.563  13.577 -0.9071 -2.0979  0.3124
 1445SOL     OW15793   0.046   2.293   6.827  0.4626  1.0483  0.0978
 1445SOL    HW115794   0.094   2.265   6.905  2.5468  1.8903 -0.8736
 1445SOL    HW215795   0.010   2.378   6.853 -1.5637  0.2458 -0.0946
 1446SOL     OW15796   0.641   1.888  12.965 -0.2262 -0.2041  0.2699
 1446SOL    HW115797   0.630   1.959  13.028 -1.4172  1.4863 -1.8409
 1446SOL    HW215798   0.568   1.839  13.003 -0.2390  0.8145  1.5594
 1447SOL     OW15799   3.310   4.599   2.294 -0.1574  0.4938  0.1895
 1447SOL    HW115800   3.359   4.648   2.360  0.8915  0.6054 -0.6665
 1447SOL    HW215801   3.311   4.661   2.220 -2.2394  1.3661  0.9171
 1448SOL     OW15802   2.833   3.703  13.995  0.2085 -0.0598  0.2228
 1448SOL    HW115803   2.900   3.688  14.063 -0.3888 -1.2856  0.5524
 1448SOL    HW215804   2.749   3.686  14.038  0.0254 -1.0326 -0.5105
 1449SOL     OW15805   3.728   1.185   8.813  0.6491 -0.9016  0.3577
 1449SOL    HW115806   3.758   1.210   8.726  0.1249  0.8318  0.6730
 1449SOL    HW215807   3.811   1.186   8.860  1.3765 -0.5137 -0.9314
 1450SOL     OW15808   3.195   0.406  16.205  0.2957 -0.2882 -0.0513
 1450SOL    HW115809   3.217   0.384  16.115  0.7191  0.2757 -0.0899
 1450SOL    HW215810   3.101   0.423  16.198  0.7821  3.2323  1.6397
 1451SOL     OW15811   3.845   1.435   1.007 -0.4416 -0.5244 -0.4999
 1451SOL    HW115812   3.766   1.415   1.057 -1.7102  0.5416 -2.0423
 1451SOL    HW215813   3.836   1.526   0.977  0.3628  0.1706  1.3813
 1452SOL     OW15814   2.192   1.655   8.474  0.1018  0.3045  0.4090
 1452SOL    HW115815   2.250   1.590   8.433 -1.3872  0.2573 -1.6234
 1452SOL    HW215816   2.177   1.605   8.554  0.4433 -0.1592  0.1872
 1453SOL     OW15817   3.455   0.763  16.645 -0.1931 -0.2589  0.0081
 1453SOL    HW115818   3.414   0.841  16.607  0.4022  1.3996  2.7253
 1453SOL    HW215819   3.405   0.746  16.726 -1.8716 -1.5305 -1.2916
 1454SOL     OW15820   3.997   2.169   9.485 -0.5171 -0.3048  0.2207
 1454SOL    HW115821   3.903   2.188   9.488 -0.5312 -0.5980  1.8999
 1454SOL    HW215822   4.038   2.254   9.478 -0.3638 -0.3453  0.6411
 1455SOL     OW15823   2.083   2.262   1.859 -0.2106 -0.1924  0.4255
 1455SOL    HW115824   2.063   2.355   1.855 -0.5153 -0.3512 -2.1389
 1455SOL    HW215825   2.065   2.231   1.770  1.8481  0.1835 -0.1114
 1456SOL     OW15826   4.724   1.388   2.400 -0.2325 -0.1148 -0.5402
 1456SOL    HW115827   0.082   1.343   2.389 -0.6999 -0.8574 -1.0358
 1456SOL    HW215828   4.706   1.361   2.490  0.6987 -1.4402 -0.7430
 1457SOL     OW15829   3.622   1.693   2.946  0.0086 -0.3428  0.2015
 1457SOL    HW115830   3.680   1.767   2.965 -1.4343  0.9455 -0.5047
 1457SOL    HW215831   3.683   1.626   2.913 -1.2747 -1.0290 -0.8083
 1458SOL     OW15832   1.295   0.649   7.942  0.1855  0.3480 -0.3093
 1458SOL    HW115833   1.200   0.662   7.935  0.1168  0.2862  0.5100
 1458SOL    HW215834   1.321   0.694   8.022 -0.9182 -0.6523  0.6172
 1459SOL     OW15835   0.608   2.007   8.313  0.3417  0.3291  0.0798
 1459SOL    HW115836   0.696   2.045   8.317 -0.1745  1.3629  1.5166
 1459SOL    HW215837   0.555   2.069   8.362 -0.1299 -0.8030  1.0046
 1460SOL     OW15838   2.892   0.324   4.866  0.2393 -0.3768 -0.1504
 1460SOL    HW115839   2.957   0.274   4.917 -0.2262 -0.3043  0.5052
 1460SOL    HW215840   2.846   0.246   4.835 -0.0685 -0.7910  1.3106
 1461SOL     OW15841   0.096   0.008   3.362  0.0217  0.4326 -0.6168
 1461SOL    HW115842   0.073   4.676   3.289  0.2775  0.7938 -0.9790
 1461SOL    HW215843   0.035   4.702   3.429 -3.0559  0.9490 -3.1660
 1462SOL     OW15844   3.005   3.501   6.089 -0.1349  0.0638  0.1860
 1462SOL    HW115845   2.987   3.407   6.078  2.2931  0.0426 -3.6364
 1462SOL    HW215846   3.011   3.501   6.184  4.4355  2.0615 -0.1431
 1463SOL     OW15847   0.527   2.300   8.942  0.8718  0.0718 -0.2704
 1463SOL    HW115848   0.449   2.248   8.925  1.3516 -0.2048 -1.5692
 1463SOL    HW215849   0.588   2.228   8.927  1.1091  0.0080  0.9632
 1464SOL     OW15850   0.820   2.976   4.669 -0.2152 -0.0116  0.5698
 1464SOL    HW115851   0.799   3.057   4.623  0.4315 -0.5839 -0.7339
 1464SOL    HW215852   0.738   2.967   4.717 -0.0872  1.0431  0.9974
 1465SOL     OW15853   2.453   0.899   6.364 -0.5030 -0.2108 -0.1003
 1465SOL    HW115854   2.461   0.906   6.459 -0.2560 -1.2086 -0.0460
 1465SOL    HW215855   2.416   0.984   6.341 -1.9720 -0.7680  0.2015
 1466SOL     OW15856   3.160   1.308  11.737 -0.0481 -0.1891  0.2703
 1466SOL    HW115857   3.199   1.222  11.726 -0.9140 -0.4281 -0.9730
 1466SOL    HW215858   3.067   1.289  11.721 -0.1347 -1.0133  1.7788
 1467SOL     OW15859   2.536   3.972   6.371 -0.8461 -0.3760 -0.1723
 1467SOL    HW115860   2.585   3.994   6.292 -0.8199  0.0826 -0.0291
 1467SOL    HW215861   2.605   3.962   6.437 -1.6751 -0.3512  0.6995
 1468SOL     OW15862   2.156   2.078   0.299 -0.0781 -0.1167  0.1748
 1468SOL    HW115863   2.103   2.054   0.224  1.8005 -0.1511 -1.1587
 1468SOL    HW215864   2.241   2.091   0.255 -0.6823 -1.3432 -1.3427
 1469SOL     OW15865   0.859   1.490   8.670 -0.1078 -0.2440  0.6163
 1469SOL    HW115866   0.948   1.525   8.668 -0.4193  0.5150 -0.1962
 1469SOL    HW215867   0.879   1.398   8.683  1.6061 -0.0163 -0.3915
 1470SOL     OW15868   2.510   4.462   7.006 -0.9470  0.6922  0.0198
 1470SOL    HW115869   2.479   4.536   6.955  0.7136  0.0996 -1.8265
 1470SOL    HW215870   2.496   4.487   7.098  2.4157 -1.8203  1.2065
 1471SOL     OW15871   3.645   1.157  12.244  0.1126 -0.4853  0.0935
 1471SOL    HW115872   3.679   1.240  12.210  2.8545 -2.2554 -1.4542
 1471SOL    HW215873   3.722   1.103  12.263  0.5451 -0.6541 -2.2214
 1472SOL     OW15874   3.379   2.863   2.511  0.5727  0.5739 -0.0460
 1472SOL    HW115875   3.400   2.856   2.418 -0.3705 -0.1344 -0.2115
 1472SOL    HW215876   3.441   2.801   2.550  1.1693  1.3764  0.2842
 1473SOL     OW15877   0.012   1.257   2.653 -0.1773 -0.4254  0.4009
 1473SOL    HW115878   4.678   1.214   2.592 -1.4289 -0.7414  1.8597
 1473SOL    HW215879   0.032   1.179   2.703  1.6927  0.0118  0.3451
 1474SOL     OW15880   1.717   3.825   3.104 -0.3388 -0.2492 -0.1203
 1474SOL    HW115881   1.658   3.779   3.165  0.5624  1.7359  2.2417
 1474SOL    HW215882   1.655   3.885   3.063  0.5097  1.1333  0.6547
 1475SOL     OW15883   3.856   1.263   7.718 -0.2142  0.3243  0.3524
 1475SOL    HW115884   3.875   1.294   7.630 -0.1008  1.8336  0.9150
 1475SOL    HW215885   3.782   1.319   7.743 -0.7886 -0.4753  0.4412
 1476SOL     OW15886   3.377   1.884   0.447  0.4013  0.2211  0.4253
 1476SOL    HW115887   3.430   1.808   0.422  1.6252 -0.1801  4.2057
 1476SOL    HW215888   3.388   1.888   0.542  0.4803 -0.9585  0.4690
 1477SOL     OW15889   3.737   0.207  15.264 -0.2178 -0.1304  0.4826
 1477SOL    HW115890   3.686   0.288  15.273 -0.6976 -0.3459 -0.2854
 1477SOL    HW215891   3.828   0.238  15.263 -0.0410 -0.6235  1.0556
 1478SOL     OW15892   0.923   3.063   6.192  0.1255 -0.0741 -0.3206
 1478SOL    HW115893   0.989   3.007   6.151  0.1037 -0.7269  0.5157
 1478SOL    HW215894   0.910   3.133   6.129  0.6602  1.8492  1.6980
 1479SOL     OW15895   4.527   0.931  17.498 -0.6966  0.1529  0.2840
 1479SOL    HW115896   4.594   0.880  17.452  0.1941  1.0444  0.5939
 1479SOL    HW215897   4.531   0.879  17.578  1.6813  0.9902  0.7114
 1480SOL     OW15898   4.313   1.881  17.530  0.4011  0.1049  0.2170
 1480SOL    HW115899   4.274   1.967  17.514  1.1952  0.6845  1.3986
 1480SOL    HW215900   4.405   1.891  17.504 -0.4034  1.2957 -2.0949
 1481SOL     OW15901   3.040   0.246   1.339  0.0148 -0.1564  0.2370
 1481SOL    HW115902   2.994   0.305   1.398  1.7117  1.2607  0.1567
 1481SOL    HW215903   2.966   0.197   1.304  0.1542 -0.4853  0.3970
 1482SOL     OW15904   1.977   0.838   6.187 -0.2630 -0.0053  0.3286
 1482SOL    HW115905   1.923   0.781   6.133  0.9113  0.9538 -1.8317
 1482SOL    HW215906   1.973   0.925   6.149 -0.3402 -0.1658 -0.0325
 1483SOL     OW15907   0.797   1.639   3.865  0.1598 -0.6120 -0.4472
 1483SOL    HW115908   0.880   1.653   3.911 -0.3637  0.3956  0.1726
 1483SOL    HW215909   0.826   1.669   3.779 -1.2316  1.8121 -0.0554
 1484SOL     OW15910   3.819   2.210   7.551 -0.0454  0.1264 -0.0753
 1484SOL    HW115911   3.806   2.184   7.642  0.2296 -1.6191 -0.5322
 1484SOL    HW215912   3.856   2.296   7.568 -0.3862  0.5518 -1.5109
 1485SOL     OW15913   2.852   2.747   3.388 -0.3505  0.0862 -0.0420
 1485SOL    HW115914   2.840   2.774   3.297  0.2126  0.2468 -0.0653
 1485SOL    HW215915   2.838   2.652   3.384  2.4460 -0.2882 -0.9196
 1486SOL     OW15916   2.914   1.572   1.907 -0.1905  0.0329  0.7518
 1486SOL    HW115917   2.858   1.518   1.963 -0.9791 -0.2737 -0.3331
 1486SOL    HW215918   2.881   1.658   1.932 -0.5264  0.2376 -0.4277
 1487SOL     OW15919   2.965   2.943   6.398  0.2572 -0.0178 -0.2616
 1487SOL    HW115920   2.912   2.918   6.474 -0.0024  1.7069  0.1258
 1487SOL    HW215921   3.037   2.879   6.396 -0.1714 -0.3847 -2.7833
 1488SOL     OW15922   4.312   3.253   2.559  0.6259  0.1752 -0.2364
 1488SOL    HW115923   4.310   3.166   2.598  0.1329 -0.9068 -2.6875
 1488SOL    HW215924   4.399   3.270   2.594  0.1843  2.1813 -0.0817
 1489SOL     OW15925   1.989   0.929  13.092 -0.5132  0.3918  0.2413
 1489SOL    HW115926   2.054   0.987  13.052  0.1954 -0.8680 -0.4039
 1489SOL    HW215927   1.942   0.997  13.142  0.6788  1.8876 -0.6677
 1490SOL     OW15928   2.808   4.472  17.288 -0.2039 -0.1276 -0.4714
 1490SOL    HW115929   2.716   4.499  17.284 -0.1204 -0.0582 -2.1615
 1490SOL    HW215930   2.857   4.547  17.256 -0.6760  0.3497 -0.0712
 1491SOL     OW15931   2.124   4.477   2.254  0.3611  0.0005 -0.0777
 1491SOL    HW115932   2.214   4.502   2.276  0.4823  0.3556 -0.9366
 1491SOL    HW215933   2.086   4.555   2.295 -2.5525 -1.4118 -0.0930
 1492SOL     OW15934   2.226   4.261   9.036 -0.0655 -0.6182  0.1383
 1492SOL    HW115935   2.311   4.247   8.994 -0.3275 -3.4936  0.6043
 1492SOL    HW215936   2.175   4.187   9.003  2.0137 -1.3265 -1.5397
 1493SOL     OW15937   1.959   0.912  13.533 -0.4327 -0.0779  0.0151
 1493SOL    HW115938   2.039   0.882  13.489 -1.4281 -3.6311  0.6358
 1493SOL    HW215939   1.893   0.875  13.474 -0.9799 -0.6002  0.9646
 1494SOL     OW15940   0.464   1.783   4.045 -0.2232  0.2044  0.6246
 1494SOL    HW115941   0.537   1.799   4.104  0.4405  0.1898 -0.1816
 1494SOL    HW215942   0.446   1.869   4.007  1.4602 -0.5348 -1.8602
 1495SOL     OW15943   2.355   2.482  16.755 -0.0271 -0.2631 -0.5858
 1495SOL    HW115944   2.403   2.400  16.765 -1.0927 -0.6851  1.1531
 1495SOL    HW215945   2.371   2.508  16.665  1.0296  1.8355  0.2209
 1496SOL     OW15946   3.536   3.377   2.011 -0.5927 -0.7153 -0.7368
 1496SOL    HW115947   3.582   3.429   2.076 -0.2237 -1.1969 -0.6110
 1496SOL    HW215948   3.606   3.311   2.013  1.6441  1.7049  0.1448
 1497SOL     OW15949   1.551   0.894  16.667  0.2991 -0.0536  0.6829
 1497SOL    HW115950   1.468   0.933  16.696  1.0015  1.0919  1.1679
 1497SOL    HW215951   1.534   0.885  16.573 -0.7170  0.9858  0.7556
 1498SOL     OW15952   1.060   4.396  15.699 -0.0882  0.0801  0.5354
 1498SOL    HW115953   1.122   4.328  15.673  0.0357 -0.4763  2.2970
 1498SOL    HW215954   1.112   4.434  15.770 -1.0603  0.9693  0.7767
 1499SOL     OW15955   0.878   0.721   2.305 -0.4815  0.0573 -0.0328
 1499SOL    HW115956   0.838   0.804   2.330 -0.3771 -0.0343  0.4350
 1499SOL    HW215957   0.929   0.755   2.232 -1.7960  1.4873 -0.2745
 1500SOL     OW15958   2.830   4.261  10.006  0.0321  0.2506  0.0994
 1500SOL    HW115959   2.885   4.310   9.944 -0.6764  0.4662 -0.3652
 1500SOL    HW215960   2.755   4.319  10.021  0.4037 -0.1315  3.3571
 1501SOL     OW15961   1.076   2.068   1.760 -0.1077 -0.3628 -0.0972
 1501SOL    HW115962   1.026   1.998   1.802  1.3763  0.0371  2.3682
 1501SOL    HW215963   1.005   2.133   1.759 -0.0086 -0.2592 -0.5498
 1502SOL     OW15964   3.294   1.602   3.574  0.6893 -0.7830  0.0903
 1502SOL    HW115965   3.250   1.618   3.490  0.3462  4.9142  1.3067
 1502SOL    HW215966   3.223   1.579   3.634  1.2698 -0.5843  0.8584
 1503SOL     OW15967   0.084   4.151   8.378 -0.0492 -0.3501  0.2257
 1503SOL    HW115968   0.082   4.153   8.473  1.3892  1.0371  0.2443
 1503SOL    HW215969   0.139   4.076   8.353  1.9163  0.7592  1.1822
 1504SOL     OW15970   2.519   0.481  10.475  0.4521 -0.5386 -0.6884
 1504SOL    HW115971   2.500   0.476  10.568  0.9631  0.1787 -0.5408
 1504SOL    HW215972   2.451   0.544  10.451  0.7631 -0.5350 -1.5734
 1505SOL     OW15973   2.049   3.330   8.177 -0.4547  0.0156  0.0476
 1505SOL    HW115974   2.074   3.421   8.195  3.0223 -1.0283  0.5542
 1505SOL    HW215975   2.099   3.286   8.246 -1.0294  0.3057  0.6453
 1506SOL     OW15976   0.437   0.567   3.968 -0.3130 -0.4614  0.6195
 1506SOL    HW115977   0.354   0.558   4.014 -1.6517 -1.7831 -2.0099
 1506SOL    HW215978   0.467   0.477   3.982  0.0871 -0.5888 -1.0343
 1507SOL     OW15979   1.494   3.304  16.319  0.0464 -0.5558 -0.5155
 1507SOL    HW115980   1.587   3.322  16.305 -0.2639  1.1420 -0.4978
 1507SOL    HW215981   1.458   3.341  16.238  0.3339  2.8393  0.9107
 1508SOL     OW15982   4.435   3.779   5.623 -0.3741 -0.2670  0.1702
 1508SOL    HW115983   4.519   3.736   5.642 -1.1125 -2.3246 -1.1427
 1508SOL    HW215984   4.464   3.867   5.599  0.8729 -0.4281  1.0744
 1509SOL     OW15985   0.881   3.171   8.060 -0.0233  0.2006 -0.1333
 1509SOL    HW115986   0.851   3.226   7.987 -0.0560 -0.3257 -0.5174
 1509SOL    HW215987   0.972   3.199   8.059  0.5073 -1.5074  1.2228
 1510SOL     OW15988   0.828   2.967   0.639 -0.7698 -0.2079  0.0234
 1510SOL    HW115989   0.737   2.961   0.667 -0.5869 -4.2508 -0.2457
 1510SOL    HW215990   0.818   3.007   0.552 -2.4424  1.3335  0.9236
 1511SOL     OW15991   4.192   3.868  13.269 -0.6444  1.3458  0.1424
 1511SOL    HW115992   4.251   3.830  13.335  2.1834  1.4255 -2.3369
 1511SOL    HW215993   4.195   3.790  13.213 -2.9586  1.5750 -0.3002
 1512SOL     OW15994   3.703   1.730   6.308 -0.4016  0.0030 -0.5135
 1512SOL    HW115995   3.743   1.656   6.263 -3.4784 -1.7485 -0.3867
 1512SOL    HW215996   3.744   1.798   6.254  1.5550 -0.2996  0.5712
 1513SOL     OW15997   0.738   2.467   7.008  0.3039  0.1442  0.2706
 1513SOL    HW115998   0.781   2.451   7.092  0.3366 -1.2018 -0.0008
 1513SOL    HW215999   0.666   2.404   7.011  0.8593 -0.6147 -2.0981
 1514SOL     OW16000   0.126   4.362   2.623  0.6694  0.0004  0.4488
 1514SOL    HW116001   0.153   4.421   2.694  3.3058  0.5519 -1.0213
 1514SOL    HW216002   0.175   4.392   2.547 -0.5471  0.8041 -0.0162
 1515SOL     OW16003   0.583   2.967   8.635  0.2037 -0.5924  0.1302
 1515SOL    HW116004   0.658   2.999   8.585  0.2537  1.1163  1.2654
 1515SOL    HW216005   0.599   3.004   8.722 -2.1672  1.3166 -0.2383
 1516SOL     OW16006   1.151   3.047   2.658  0.4982  0.7881  0.1267
 1516SOL    HW116007   1.179   2.956   2.666  1.3198  0.9682 -0.6613
 1516SOL    HW216008   1.074   3.036   2.602  1.3307 -0.1078 -0.8474
 1517SOL     OW16009   1.414   4.335   4.510  0.3845  0.0685  0.4611
 1517SOL    HW116010   1.344   4.400   4.518  0.4916  0.2010  0.3126
 1517SOL    HW216011   1.424   4.321   4.416  0.0207 -0.3113  0.4794
 1518SOL     OW16012   4.228   2.941   6.639  0.5917  0.4208 -0.1824
 1518SOL    HW116013   4.317   2.907   6.647  0.5154  0.4405  0.7384
 1518SOL    HW216014   4.239   3.018   6.583 -1.4620  1.7057  1.1563
 1519SOL     OW16015   2.682   3.380   4.576  0.3648 -0.4945 -0.1207
 1519SOL    HW116016   2.759   3.436   4.564  0.8671 -1.3781 -1.0459
 1519SOL    HW216017   2.688   3.349   4.666 -1.8349 -2.6024 -0.6980
 1520SOL     OW16018   2.395   3.445   2.176 -0.6542 -0.4016  0.2905
 1520SOL    HW116019   2.320   3.421   2.121 -0.8833  0.4467  0.2283
 1520SOL    HW216020   2.405   3.365   2.229 -0.2647 -0.7044 -0.2383
 1521SOL     OW16021   0.997   0.653   4.926  0.1459  0.2734  0.4373
 1521SOL    HW116022   0.913   0.683   4.890  0.6383  0.8000 -0.2835
 1521SOL    HW216023   0.973   0.646   5.018  0.1920 -0.9724  0.3612
 1522SOL     OW16024   2.909   2.805  14.640 -0.4268  0.4321 -0.4475
 1522SOL    HW116025   2.869   2.827  14.555  0.2238  0.4236 -0.7533
 1522SOL    HW216026   3.000   2.804  14.610 -0.4636 -2.7680 -0.4930
 1523SOL     OW16027   4.574   0.270  12.014 -0.0566 -0.4627 -0.1899
 1523SOL    HW116028   4.513   0.207  11.977  2.7425 -2.3547 -1.5766
 1523SOL    HW216029   4.525   0.336  12.064  1.0603  0.5276 -0.4062
 1524SOL     OW16030   2.768   2.552   9.810  0.0181 -0.6153 -0.2508
 1524SOL    HW116031   2.799   2.468   9.845  1.7603  0.6460  1.1786
 1524SOL    HW216032   2.729   2.583   9.891 -2.6452 -2.4558 -0.8150
 1525SOL     OW16033   2.981   4.515  12.144 -0.4244  0.0909 -0.1708
 1525SOL    HW116034   2.928   4.442  12.112  1.3430 -1.0344 -0.5206
 1525SOL    HW216035   3.051   4.459  12.176  0.1711 -0.6389 -2.7349
 1526SOL     OW16036   3.186   3.218   9.302  0.2837  0.1215 -0.0307
 1526SOL    HW116037   3.090   3.226   9.298  0.2546  0.4056  1.4759
 1526SOL    HW216038   3.208   3.307   9.331 -0.6982  0.6586 -0.9201
 1527SOL     OW16039   2.441   2.524  11.847  0.6279  0.4820 -0.4986
 1527SOL    HW116040   2.399   2.589  11.791 -1.8275 -0.6617  0.0254
 1527SOL    HW216041   2.497   2.479  11.783  1.4254  0.6548  0.0721
 1528SOL     OW16042   0.227   2.858   6.484 -0.2036 -0.0315  0.5997
 1528SOL    HW116043   0.318   2.832   6.496 -0.1686 -0.4836 -0.6086
 1528SOL    HW216044   0.213   2.812   6.401 -0.5292 -1.6919  1.5632
 1529SOL     OW16045   3.889   0.761  11.766  0.0371 -0.1818 -0.1075
 1529SOL    HW116046   3.963   0.745  11.824  0.8569  0.4774 -0.9679
 1529SOL    HW216047   3.939   0.739  11.687  0.3552  0.3852 -0.0649
 1530SOL     OW16048   2.198   1.926   8.167  0.7098  0.0637 -0.1558
 1530SOL    HW116049   2.177   1.833   8.157  0.1211  0.2123 -0.3513
 1530SOL    HW216050   2.270   1.924   8.230  1.6928 -2.0405 -1.3381
 1531SOL     OW16051   1.138   4.195  12.968  0.3222 -0.0615  0.0883
 1531SOL    HW116052   1.218   4.199  12.916  1.2382  0.4521  1.5289
 1531SOL    HW216053   1.111   4.110  12.932  2.2849 -1.0575  0.9529
 1532SOL     OW16054   4.047   3.598  12.080 -0.2184 -0.4337 -0.3419
 1532SOL    HW116055   3.990   3.559  12.147 -0.4744 -1.5819 -1.2194
 1532SOL    HW216056   4.133   3.598  12.123 -0.6099 -2.2014  0.4455
 1533SOL     OW16057   4.135   2.638   7.468 -0.3710 -0.9662  0.1590
 1533SOL    HW116058   4.201   2.584   7.424 -1.9358 -3.4612  0.8746
 1533SOL    HW216059   4.116   2.575   7.538  1.4719 -2.6880 -0.8932
 1534SOL     OW16060   4.425   2.266  15.058 -0.1524 -0.1252  0.8182
 1534SOL    HW116061   4.349   2.209  15.044  0.3495 -0.3875 -0.8404
 1534SOL    HW216062   4.396   2.307  15.139  0.7892  0.6400  0.7663
 1535SOL     OW16063   0.265   0.434   8.523 -0.1421  0.8316  0.0009
 1535SOL    HW116064   0.217   0.516   8.515  0.9589  1.6012  1.2727
 1535SOL    HW216065   0.297   0.448   8.612  0.1560  2.4945 -0.3713
 1536SOL     OW16066   2.304   4.627   6.496 -0.7177  0.1457  0.3747
 1536SOL    HW116067   2.304   4.711   6.541  0.3888  0.0068  0.6185
 1536SOL    HW216068   2.253   4.656   6.420 -1.5520  1.7793  1.5601
 1537SOL     OW16069   0.422   1.164   8.582 -0.5146  0.6820  0.0673
 1537SOL    HW116070   0.408   1.235   8.520  0.2262 -0.4755 -1.4083
 1537SOL    HW216071   0.447   1.217   8.658  1.2335  1.3239 -0.9517
 1538SOL     OW16072   0.237   1.488   8.227  0.0270 -0.5638  0.4532
 1538SOL    HW116073   0.248   1.399   8.193  0.4292  0.1593 -1.3384
 1538SOL    HW216074   0.252   1.527   8.141  2.5296 -0.0577  1.1386
 1539SOL     OW16075   1.871   0.858   8.693  0.1287  0.0958  0.2421
 1539SOL    HW116076   1.839   0.928   8.636  0.2728 -0.5973 -0.6943
 1539SOL    HW216077   1.958   0.888   8.719 -0.1336  1.0972 -0.0521
 1540SOL     OW16078   1.213   2.430   6.223  0.3854 -0.4888 -0.3832
 1540SOL    HW116079   1.175   2.343   6.212 -0.4902  0.0196 -1.3446
 1540SOL    HW216080   1.138   2.484   6.246  1.4415  0.6626  0.4246
 1541SOL     OW16081   3.920   2.679   7.859 -0.3424 -0.6777 -0.1277
 1541SOL    HW116082   3.828   2.691   7.883  0.1480 -0.8649  1.8473
 1541SOL    HW216083   3.945   2.601   7.909  1.4775  0.6284  0.9694
 1542SOL     OW16084   2.481   3.654   4.086  0.0293 -0.1122  0.2888
 1542SOL    HW116085   2.526   3.709   4.150  1.2759 -3.2549  2.1187
 1542SOL    HW216086   2.387   3.664   4.104  0.2040  1.5092  0.3081
 1543SOL     OW16087   2.634   1.804   7.218 -0.9945 -0.1179 -0.9304
 1543SOL    HW116088   2.551   1.791   7.173 -0.8874 -2.2918 -0.5178
 1543SOL    HW216089   2.680   1.849   7.147  1.1221 -1.7090 -0.6002
 1544SOL     OW16090   0.614   0.887  12.855  0.2542  0.9020 -0.0147
 1544SOL    HW116091   0.632   0.954  12.921 -0.2707  1.8902 -0.8713
 1544SOL    HW216092   0.700   0.851  12.834  0.6714  1.7713  0.2057
 1545SOL     OW16093   4.564   2.165   7.466  0.5825  0.6822 -0.3596
 1545SOL    HW116094   4.591   2.253   7.493  3.8268 -0.5702  0.4243
 1545SOL    HW216095   4.526   2.136   7.549  0.0256  0.9349 -0.5295
 1546SOL     OW16096   1.527   2.419   5.681 -0.1802  0.3252  0.0710
 1546SOL    HW116097   1.457   2.450   5.623 -2.0697 -3.1558  0.5156
 1546SOL    HW216098   1.551   2.330   5.658  0.8329  0.3595  0.9847
 1547SOL     OW16099   4.580   0.734   3.652  0.3315 -0.0095  0.0464
 1547SOL    HW116100   4.661   0.748   3.701 -0.0417  0.1221  0.6176
 1547SOL    HW216101   4.600   0.779   3.570 -0.3247  1.6952  0.8372
 1548SOL     OW16102   0.936   0.140   2.370  0.1895 -0.0406  0.2222
 1548SOL    HW116103   0.874   0.186   2.427  1.9899 -0.1322  2.2554
 1548SOL    HW216104   0.890   0.165   2.290 -0.6221 -0.4588  0.5618
 1549SOL     OW16105   1.636   0.549   6.959  0.7107 -0.6624  0.2172
 1549SOL    HW116106   1.683   0.626   6.929 -0.2826 -0.2571 -0.3133
 1549SOL    HW216107   1.612   0.577   7.048  0.6167 -2.6932  0.8399
 1550SOL     OW16108   1.551   1.667   6.456 -0.0479 -0.3231 -0.0344
 1550SOL    HW116109   1.642   1.659   6.429  0.6171 -0.4134  2.2654
 1550SOL    HW216110   1.552   1.745   6.512  1.6756 -1.7622  1.9115
 1551SOL     OW16111   4.385   4.517  11.766 -0.1837 -0.1980  0.1897
 1551SOL    HW116112   4.400   4.515  11.861  0.6260  0.4532  0.0842
 1551SOL    HW216113   4.464   4.475  11.734  0.5655  0.8252  0.6766
 1552SOL     OW16114   1.472   1.309   6.922  0.1723 -0.7401  0.9023
 1552SOL    HW116115   1.476   1.368   6.847  2.8425  1.0968  2.4923
 1552SOL    HW216116   1.464   1.371   6.994  0.9992 -2.0894  2.1647
 1553SOL     OW16117   1.369   2.031   4.272  0.4349  0.0225  0.5757
 1553SOL    HW116118   1.324   1.962   4.320  0.0411 -1.4562 -1.8653
 1553SOL    HW216119   1.402   2.084   4.344 -2.7897  1.6016  0.8661
 1554SOL     OW16120   0.915   2.001   9.088  0.0900  0.1082 -0.1534
 1554SOL    HW116121   0.929   2.002   9.182  0.0991  0.9177 -0.1667
 1554SOL    HW216122   0.966   2.076   9.058 -0.1964  0.1166 -0.6322
 1555SOL     OW16123   2.096   1.693   7.604 -0.0503 -0.3179 -0.0398
 1555SOL    HW116124   2.158   1.642   7.656  0.1143 -0.2136 -0.1361
 1555SOL    HW216125   2.113   1.783   7.632  0.4302 -0.4318  0.0396
 1556SOL     OW16126   2.113   3.004   4.569  0.6896 -1.1197  0.6264
 1556SOL    HW116127   2.175   3.013   4.641 -0.1256 -0.5939  1.2604
 1556SOL    HW216128   2.066   2.933   4.611 -0.9331 -0.2086  0.3603
 1557SOL     OW16129   4.340   4.226   5.718 -0.3340 -0.4433 -0.1899
 1557SOL    HW116130   4.247   4.204   5.718 -0.0233 -1.7573 -0.7692
 1557SOL    HW216131   4.363   4.186   5.634 -1.9969  0.3765 -1.0206
 1558SOL     OW16132   4.400   2.250   3.331  0.2327 -0.3123 -0.4552
 1558SOL    HW116133   4.320   2.260   3.279 -0.8509 -0.9337  1.0997
 1558SOL    HW216134   4.461   2.310   3.289 -0.6453  1.4713  0.8042
 1559SOL     OW16135   2.403   0.795   5.727 -1.1304  0.1276 -0.7813
 1559SOL    HW116136   2.459   0.810   5.803  0.4150  3.1121 -2.5274
 1559SOL    HW216137   2.337   0.738   5.767  0.0991  0.9758  2.4395
 1560SOL     OW16138   0.127   4.226   3.214 -0.0259  0.0538  0.2177
 1560SOL    HW116139   0.179   4.223   3.294  0.6698 -0.4754 -0.2586
 1560SOL    HW216140   0.152   4.309   3.174 -1.1379  0.7383  0.9356
 1561SOL     OW16141   2.645   4.131   2.459  0.1599  0.0220 -0.0598
 1561SOL    HW116142   2.720   4.115   2.517 -1.3874 -0.1426  1.9003
 1561SOL    HW216143   2.573   4.081   2.498  0.9467 -1.8371 -0.9783
 1562SOL     OW16144   2.078   0.952   1.996  0.3863  0.5834 -0.0546
 1562SOL    HW116145   2.061   0.889   1.926  2.4503 -1.1309  0.9778
 1562SOL    HW216146   2.154   0.909   2.036 -1.2376  0.6471  3.0290
 1563SOL     OW16147   3.417   1.535  14.097  0.2035  0.1347  0.6110
 1563SOL    HW116148   3.420   1.470  14.026  3.4613  0.8963  0.0759
 1563SOL    HW216149   3.414   1.481  14.176 -2.9843 -0.4894  0.0772
 1564SOL     OW16150   0.549   1.711   3.538 -0.5488 -0.2059  0.1456
 1564SOL    HW116151   0.598   1.631   3.517 -1.7172 -0.2163 -2.5319
 1564SOL    HW216152   0.459   1.682   3.523 -0.3896 -1.1918  1.1259
 1565SOL     OW16153   4.047   0.168   9.884  0.0824 -0.2205 -0.5913
 1565SOL    HW116154   3.964   0.173   9.836 -0.5223 -1.3828  0.3372
 1565SOL    HW216155   4.066   0.075   9.884  2.9368  0.3523  0.1709
 1566SOL     OW16156   3.367   4.625   3.135  0.1203  0.4819  0.2677
 1566SOL    HW116157   3.343   4.712   3.104 -1.5006 -0.6410 -1.6340
 1566SOL    HW216158   3.461   4.637   3.124  0.3074 -2.5346 -1.3613
 1567SOL     OW16159   4.301   2.393  15.246  0.3476 -0.3071 -0.0485
 1567SOL    HW116160   4.253   2.468  15.281  0.9632 -0.3684  0.9201
 1567SOL    HW216161   4.284   2.329  15.315  0.4389 -1.8139 -1.3975
 1568SOL     OW16162   2.136   0.185  10.222 -0.1856  0.3473  0.5448
 1568SOL    HW116163   2.173   0.262  10.180 -1.8542  1.3678  0.9435
 1568SOL    HW216164   2.166   0.194  10.313 -0.9529 -2.4219  1.1063
 1569SOL     OW16165   3.846   3.957   8.728  0.0766 -0.3500 -0.4972
 1569SOL    HW116166   3.797   3.930   8.806  1.1282  0.8854  0.5955
 1569SOL    HW216167   3.773   3.997   8.681 -1.0161  0.6793  2.0616
 1570SOL     OW16168   2.367   2.698  16.942  0.6793  0.3847 -0.5205
 1570SOL    HW116169   2.426   2.756  16.895 -0.1849  0.2507 -1.7797
 1570SOL    HW216170   2.337   2.650  16.865  2.6055 -0.9807 -0.4279
 1571SOL     OW16171   4.181   2.697  14.852  0.7952  0.2884 -0.1030
 1571SOL    HW116172   4.219   2.784  14.853  1.4562  0.0328 -3.1475
 1571SOL    HW216173   4.142   2.688  14.939  0.6527 -0.3513 -0.2317
 1572SOL     OW16174   2.889   4.305   9.136 -0.1027 -0.5297 -0.4564
 1572SOL    HW116175   2.806   4.349   9.122 -0.2119  0.2214  2.3973
 1572SOL    HW216176   2.907   4.259   9.055  0.5045  0.4004 -0.8438
 1573SOL     OW16177   3.492   3.148   1.287  0.0911  0.4570  0.3010
 1573SOL    HW116178   3.551   3.153   1.362 -0.4527 -1.7452  0.8776
 1573SOL    HW216179   3.488   3.054   1.267  2.5625  0.9332 -2.4497
 1574SOL     OW16180   3.279   0.529   4.850 -0.6108 -0.2113  0.0513
 1574SOL    HW116181   3.253   0.621   4.846 -0.6973 -0.3127 -1.4612
 1574SOL    HW216182   3.290   0.509   4.758  0.2998 -1.2412  0.3893
 1575SOL     OW16183   2.700   4.373   5.600  0.5695  0.0503  0.1880
 1575SOL    HW116184   2.605   4.366   5.602  0.5880 -0.5142 -1.6222
 1575SOL    HW216185   2.715   4.444   5.664 -0.7894 -0.2590  0.8494
 1576SOL     OW16186   4.295   3.796   2.089  0.3307 -0.1608  0.5078
 1576SOL    HW116187   4.218   3.752   2.126 -1.1955  0.5005 -1.8402
 1576SOL    HW216188   4.292   3.754   2.003  2.1058  1.2681 -0.2521
 1577SOL     OW16189   1.358   2.400   1.314 -0.3454  0.2047  0.0870
 1577SOL    HW116190   1.318   2.409   1.228 -1.5609  1.4824  0.7830
 1577SOL    HW216191   1.312   2.320   1.338  0.4469 -0.7542 -1.6675
 1578SOL     OW16192   1.646   1.324   5.635  0.4479  0.2550 -0.4890
 1578SOL    HW116193   1.613   1.283   5.555 -0.8430 -1.9904  1.1581
 1578SOL    HW216194   1.620   1.415   5.627  0.3866  0.3709  1.0112
 1579SOL     OW16195   2.188   2.923   5.072  0.2857 -0.0508  0.5228
 1579SOL    HW116196   2.219   2.841   5.033  1.6101  0.5702  0.2327
 1579SOL    HW216197   2.094   2.909   5.064  0.6751 -2.1922 -0.2146
 1580SOL     OW16198   0.647   4.059   0.141 -0.1275  0.1858  0.5486
 1580SOL    HW116199   0.694   4.141   0.124 -0.4134  0.1978 -0.1387
 1580SOL    HW216200   0.705   3.998   0.188 -3.8950 -1.4754  3.0196
 1581SOL     OW16201   0.191   3.178   2.817  0.2499 -0.3058 -0.2225
 1581SOL    HW116202   0.121   3.243   2.823 -1.1892 -1.7253 -1.7701
 1581SOL    HW216203   0.259   3.227   2.770 -0.0223 -0.7273 -1.0701
 1582SOL     OW16204   0.919   0.310   6.460 -0.1080  0.3301 -0.1763
 1582SOL    HW116205   0.897   0.248   6.390  5.4494 -1.5025 -0.3054
 1582SOL    HW216206   1.008   0.280   6.481 -0.4907 -0.1680  0.6982
 1583SOL     OW16207   4.384   3.498   5.549 -0.4260  0.2268  0.7850
 1583SOL    HW116208   4.469   3.536   5.529 -0.0021  0.1559  2.4192
 1583SOL    HW216209   4.324   3.570   5.571  0.6772  1.0317  1.1522
 1584SOL     OW16210   0.741   0.138   8.362  0.4419 -0.2598 -0.6363
 1584SOL    HW116211   0.675   0.205   8.343  0.7121 -0.2105 -1.4062
 1584SOL    HW216212   0.683   0.063   8.375  1.3174 -0.5860  1.4269
 1585SOL     OW16213   1.406   3.190   2.285  0.0063 -0.4914  0.5485
 1585SOL    HW116214   1.435   3.124   2.222 -2.4662 -0.8453 -0.2476
 1585SOL    HW216215   1.405   3.269   2.231  0.6522  0.0549  1.3376
 1586SOL     OW16216   1.023   4.609   7.680  0.4388  0.0402 -0.1034
 1586SOL    HW116217   0.996   4.697   7.703  0.4010 -1.4761  5.5590
 1586SOL    HW216218   0.949   4.589   7.622 -0.6388 -2.0177  1.9915
 1587SOL     OW16219   1.658   3.722   8.045  0.3293 -0.1174 -0.3134
 1587SOL    HW116220   1.689   3.647   7.995 -0.5249 -0.9099  0.3379
 1587SOL    HW216221   1.563   3.717   8.056  0.2341 -0.7925 -1.4016
 1588SOL     OW16222   3.186   4.440   1.201 -0.2236  0.3429 -0.1979
 1588SOL    HW116223   3.223   4.445   1.289  1.8616 -2.9483 -0.8919
 1588SOL    HW216224   3.101   4.484   1.211 -1.6641 -2.0043 -1.8455
 1589SOL     OW16225   1.669   2.643   3.952  0.1156 -0.3266 -0.1193
 1589SOL    HW116226   1.656   2.549   3.953 -1.6764 -0.0469  1.0296
 1589SOL    HW216227   1.675   2.669   3.860  0.6418  1.3126  0.3645
 1590SOL     OW16228   2.050   1.325   5.554  0.4708  0.2326 -0.4797
 1590SOL    HW116229   2.068   1.309   5.646  1.3888 -3.4021 -1.2935
 1590SOL    HW216230   1.994   1.401   5.563  0.9026  0.4401  0.3928
 1591SOL     OW16231   0.870   2.946  10.709  0.5113 -0.4112 -0.0980
 1591SOL    HW116232   0.918   3.022  10.675 -3.0094  2.5832  1.6421
 1591SOL    HW216233   0.934   2.875  10.707  0.7487 -0.2282  1.2397
 1592SOL     OW16234   1.230   2.909  17.412  0.0411 -0.2625  0.1448
 1592SOL    HW116235   1.243   2.967  17.337 -1.7308  2.3160  1.8275
 1592SOL    HW216236   1.296   2.954  17.466 -2.1218  0.1633  2.4032
 1593SOL     OW16237   3.870   3.915   7.346 -0.0795  0.2083  0.4875
 1593SOL    HW116238   3.898   3.858   7.418 -1.1811 -0.8895  0.0409
 1593SOL    HW216239   3.904   3.869   7.270 -0.6961  1.3458 -0.4711
 1594SOL     OW16240   4.269   4.495   0.138  0.2068 -0.0067 -0.4828
 1594SOL    HW116241   4.344   4.436   0.130 -0.4403 -0.6245 -2.0411
 1594SOL    HW216242   4.221   4.458   0.064  0.6861  0.0893 -0.8431
 1595SOL     OW16243   0.750   4.706   6.485 -1.0593 -0.1805  0.0457
 1595SOL    HW116244   0.673   0.038   6.489 -2.4882 -2.2168  1.3482
 1595SOL    HW216245   0.805   0.018   6.416 -1.7552  1.4952  0.3989
 1596SOL     OW16246   1.143   2.675   5.279  0.2779  0.1282 -0.5126
 1596SOL    HW116247   1.069   2.650   5.334  0.3914  0.0494 -0.3947
 1596SOL    HW216248   1.139   2.770   5.281 -1.8112  0.0749 -2.0441
 1597SOL     OW16249   3.859   3.773   5.349  0.2253  0.1108  0.1576
 1597SOL    HW116250   3.831   3.702   5.292  0.8898  1.0868 -1.3647
 1597SOL    HW216251   3.805   3.847   5.321 -0.3002  0.4657  2.0951
 1598SOL     OW16252   4.016   2.613   7.218  0.4544  0.4823  0.4519
 1598SOL    HW116253   4.017   2.518   7.233 -1.9326  0.5322  0.8722
 1598SOL    HW216254   4.061   2.635   7.300 -3.4209  2.0776  2.1553
 1599SOL     OW16255   2.106   4.540  13.045 -0.1977 -0.2144 -0.0635
 1599SOL    HW116256   2.174   4.598  13.012  0.4531 -0.0976  1.4986
 1599SOL    HW216257   2.073   4.589  13.121 -1.3963 -1.5630  0.2921
 1600SOL     OW16258   1.718   3.548  10.485  0.1170 -0.1760  0.2485
 1600SOL    HW116259   1.707   3.594  10.568  1.6464  2.3771 -0.9660
 1600SOL    HW216260   1.669   3.594  10.417 -0.4053  0.1845  0.8670
 1601SOL     OW16261   2.921   3.233  11.482 -0.6063  0.5125 -0.3182
 1601SOL    HW116262   2.971   3.299  11.530 -2.4104  1.6435 -0.0093
 1601SOL    HW216263   2.868   3.199  11.554 -1.6963 -0.6555 -1.6516
 1602SOL     OW16264   2.845   1.325   4.793  0.5354 -0.3002 -0.1733
 1602SOL    HW116265   2.865   1.251   4.735  2.8930  0.7248 -0.6567
 1602SOL    HW216266   2.924   1.379   4.786  0.8675 -0.3663  3.2944
 1603SOL     OW16267   4.293   1.894   1.428 -0.1400  0.2111  0.0464
 1603SOL    HW116268   4.207   1.913   1.390  0.1296 -1.3767 -1.3329
 1603SOL    HW216269   4.280   1.825   1.492 -1.5590  2.5940  2.3139
 1604SOL     OW16270   1.699   0.966   3.100  0.2167 -0.3077  0.4057
 1604SOL    HW116271   1.605   0.950   3.095  0.3359 -0.2398 -2.1158
 1604SOL    HW216272   1.717   1.001   3.013 -0.8261  0.1551  0.3793
 1605SOL     OW16273   3.746   0.313   8.323  0.0791  0.6402  0.1771
 1605SOL    HW116274   3.672   0.361   8.286  0.1262  1.8954  1.6981
 1605SOL    HW216275   3.784   0.273   8.245 -2.1503 -0.8151 -0.1588
 1606SOL     OW16276   3.513   0.619   8.603  0.3990  0.0283 -0.4579
 1606SOL    HW116277   3.579   0.563   8.645 -1.6883 -2.0430  0.0855
 1606SOL    HW216278   3.501   0.685   8.671  1.4998  0.1116 -0.3428
 1607SOL     OW16279   0.305   1.967   4.731 -0.0014 -0.1783  0.0241
 1607SOL    HW116280   0.295   1.971   4.826  1.5274 -0.1973  0.1975
 1607SOL    HW216281   0.398   1.989   4.718  0.6222 -2.8581 -0.1846
 1608SOL     OW16282   2.186   2.449   3.398 -0.0539 -0.6971 -0.0450
 1608SOL    HW116283   2.148   2.382   3.456 -0.5544  0.2266  0.6942
 1608SOL    HW216284   2.276   2.418   3.397 -0.0473 -0.6831  0.0679
 1609SOL     OW16285   4.094   4.674   2.690 -0.1591 -0.2572 -0.1273
 1609SOL    HW116286   4.167   0.010   2.678 -0.6325  0.9295  3.1677
 1609SOL    HW216287   4.143   4.597   2.720 -0.7051 -0.1061  1.1422
 1610SOL     OW16288   1.167   4.088   5.314  0.3564 -0.1776 -0.2701
 1610SOL    HW116289   1.119   4.168   5.338  1.8934  1.5128 -2.8156
 1610SOL    HW216290   1.158   4.044   5.398  0.6091 -0.3293 -0.3235
 1611SOL     OW16291   0.426   2.675   1.097  0.1041  0.6677  0.0109
 1611SOL    HW116292   0.418   2.648   1.006 -1.0063 -0.2825  0.3915
 1611SOL    HW216293   0.414   2.769   1.082  2.1771  0.6612 -1.7489
 1612SOL     OW16294   3.969   3.381   0.792 -0.3948 -0.1832 -0.7043
 1612SOL    HW116295   4.031   3.454   0.791 -0.0973 -0.4159  0.6337
 1612SOL    HW216296   3.901   3.421   0.847  0.5975 -0.6501  0.8725
 1613SOL     OW16297   4.035   3.372  11.000  0.2086  0.7453 -0.3208
 1613SOL    HW116298   4.110   3.431  11.004  2.7805 -2.4326 -1.3506
 1613SOL    HW216299   4.048   3.336  11.088 -1.6855 -0.5480 -0.5670
 1614SOL     OW16300   4.595   3.534  11.452  0.1786 -0.5409 -1.0759
 1614SOL    HW116301   4.638   3.613  11.419 -1.4220  0.0197 -1.8156
 1614SOL    HW216302   4.667   3.477  11.479 -0.1056  0.1107  1.0625
 1615SOL     OW16303   1.196   0.376   7.147 -0.0117  0.5591  0.3023
 1615SOL    HW116304   1.124   0.439   7.141  0.7808  1.5626  1.2364
 1615SOL    HW216305   1.240   0.392   7.231  2.2294 -0.6747 -0.6458
 1616SOL     OW16306   4.654   1.110   6.784 -0.2041 -0.1596 -0.1878
 1616SOL    HW116307   4.591   1.085   6.852 -1.7604 -0.6291 -1.8065
 1616SOL    HW216308   4.585   1.113   6.718  0.3031  1.2644 -0.6496
 1617SOL     OW16309   2.766   2.796   7.815  0.8938  0.0931  0.4203
 1617SOL    HW116310   2.828   2.864   7.842 -0.6798  0.7864  2.2394
 1617SOL    HW216311   2.678   2.834   7.815  0.7885 -0.1462 -1.0473
 1618SOL     OW16312   2.077   0.584   2.054 -0.0009 -0.6396  0.4112
 1618SOL    HW116313   2.057   0.572   2.147  1.4539  0.0122  0.8142
 1618SOL    HW216314   2.161   0.629   2.056  1.2256 -2.9736  2.4482
 1619SOL     OW16315   1.891   0.081  15.990  0.2427 -0.0764 -0.0834
 1619SOL    HW116316   1.858   0.025  16.060  0.8037 -1.3710 -0.8501
 1619SOL    HW216317   1.838   0.053  15.916 -0.2706  0.1859  0.1834
 1620SOL     OW16318   1.788   1.701   2.904 -0.0455 -0.6867 -0.1639
 1620SOL    HW116319   1.810   1.702   2.997 -1.6470 -0.6689  0.2246
 1620SOL    HW216320   1.696   1.676   2.914 -0.0575 -0.2014  0.9093
 1621SOL     OW16321   0.537   4.236   6.177 -0.0132 -0.5992  0.4420
 1621SOL    HW116322   0.496   4.272   6.099  2.2150 -1.7568 -1.2585
 1621SOL    HW216323   0.477   4.269   6.244 -0.9399 -1.1436 -0.1234
 1622SOL     OW16324   0.505   2.519   3.057 -0.5305 -0.7682  0.0545
 1622SOL    HW116325   0.580   2.559   3.102 -2.1283  1.9603  0.2961
 1622SOL    HW216326   0.447   2.487   3.127 -1.3096  1.7683  0.5934
 1623SOL     OW16327   4.552   3.234  17.340 -0.1513  0.1965  0.7511
 1623SOL    HW116328   4.520   3.214  17.252  0.7595 -1.5828  0.8533
 1623SOL    HW216329   4.598   3.157  17.371 -0.6454 -0.2717  0.3141
 1624SOL     OW16330   4.555   1.653   3.830 -0.3397  0.6216 -0.4145
 1624SOL    HW116331   4.489   1.592   3.796 -1.8537  1.1499  1.5472
 1624SOL    HW216332   4.534   1.737   3.789 -1.5045 -0.4830 -2.0853
 1625SOL     OW16333   3.858   1.094   4.785  0.7500 -0.4352 -0.5757
 1625SOL    HW116334   3.938   1.118   4.831 -1.0184  0.3562  2.1157
 1625SOL    HW216335   3.891   1.010   4.754 -1.7433 -1.3382 -0.7922
 1626SOL     OW16336   0.594   4.516   5.984  0.2698  0.0728  0.1204
 1626SOL    HW116337   0.639   4.598   5.965  0.4429  0.3555  1.7167
 1626SOL    HW216338   0.568   4.533   6.075  3.2467  2.4167  0.5428
 1627SOL     OW16339   0.455   2.010   7.251  0.4680 -0.1472  0.4834
 1627SOL    HW116340   0.474   2.065   7.328 -0.2589  0.1622  0.4418
 1627SOL    HW216341   0.544   1.993   7.222  0.4461 -0.7434  0.7677
 1628SOL     OW16342   3.305   3.682   0.946  0.0244  0.3820 -0.1108
 1628SOL    HW116343   3.252   3.742   1.000 -1.0637 -0.3472 -0.3622
 1628SOL    HW216344   3.345   3.745   0.886  1.5687 -0.3461  0.1748
 1629SOL     OW16345   1.000   0.480  16.445 -0.1725 -0.4482  0.1526
 1629SOL    HW116346   1.063   0.491  16.375  0.6171 -0.7445  0.8148
 1629SOL    HW216347   0.945   0.405  16.422  0.0047 -0.3033 -0.7084
 1630SOL     OW16348   3.219   4.191   8.410  0.7240 -0.5890  0.0808
 1630SOL    HW116349   3.132   4.208   8.446  0.3404 -2.3124 -0.0438
 1630SOL    HW216350   3.218   4.243   8.329  3.2996  0.5869  0.7699
 1631SOL     OW16351   3.505   2.833   6.197 -0.1952  0.2634  0.5858
 1631SOL    HW116352   3.566   2.767   6.230  0.1973 -0.0344 -0.7119
 1631SOL    HW216353   3.557   2.875   6.129 -0.7629 -0.4546 -0.2963
 1632SOL     OW16354   4.522   2.902   8.128  0.5712 -0.1321 -0.2567
 1632SOL    HW116355   4.498   2.864   8.043  1.5968  1.3703 -1.2174
 1632SOL    HW216356   4.519   2.832   8.193  0.1676  1.7550  1.7545
 1633SOL     OW16357   1.665   4.281   3.014  0.2120  0.1820 -0.2777
 1633SOL    HW116358   1.741   4.242   2.971  0.0779  2.3779 -2.5097
 1633SOL    HW216359   1.654   4.230   3.094 -0.9069  0.0174 -0.5374
 1634SOL     OW16360   1.192   2.740   4.717 -0.0629 -0.7321  0.6963
 1634SOL    HW116361   1.169   2.736   4.810 -2.3182 -1.5053  0.1003
 1634SOL    HW216362   1.263   2.677   4.715  2.1457  1.7744 -0.6752
 1635SOL     OW16363   4.244   0.606   6.682  0.0750 -0.2274  0.4872
 1635SOL    HW116364   4.250   0.535   6.619  1.5107  1.4974 -1.3203
 1635SOL    HW216365   4.206   0.559   6.756 -1.6060  0.5600  0.1304
 1636SOL     OW16366   3.125   3.012   2.411 -0.2913  0.6104  0.0312
 1636SOL    HW116367   3.172   3.095   2.416  0.1734  0.5724 -4.0137
 1636SOL    HW216368   3.182   2.954   2.463  0.1553  0.5766 -0.4969
 1637SOL     OW16369   4.106   4.665   6.933 -0.3466 -0.2082  0.4748
 1637SOL    HW116370   4.174   4.635   6.993 -0.1918 -3.0458 -1.1156
 1637SOL    HW216371   4.157   4.681   6.854 -0.7696 -1.8558 -0.1366
 1638SOL     OW16372   3.043   0.803   4.765  0.4569 -0.1897  0.4660
 1638SOL    HW116373   3.003   0.730   4.812 -1.5158  1.2657  1.0291
 1638SOL    HW216374   2.986   0.877   4.783  0.5440 -0.0814  0.2962
 1639SOL     OW16375   1.316   2.837   1.364 -0.5799 -0.0198 -0.5590
 1639SOL    HW116376   1.230   2.810   1.332 -0.0287 -0.6396 -1.5342
 1639SOL    HW216377   1.351   2.879   1.285 -0.1137 -1.0406 -0.9004
 1640SOL     OW16378   0.112   1.544   4.770  0.1965  0.2064 -0.5343
 1640SOL    HW116379   0.078   1.592   4.845  1.0876  1.2676 -0.8093
 1640SOL    HW216380   0.201   1.520   4.798 -0.2662 -1.1365 -0.1940
 1641SOL     OW16381   4.318   2.632   3.199 -0.3650 -0.1081  0.4915
 1641SOL    HW116382   4.251   2.608   3.262  1.3164 -1.1307  1.8823
 1641SOL    HW216383   4.306   2.727   3.201 -1.1729 -0.1646 -1.8174
 1642SOL     OW16384   1.998   0.140  13.434  0.3113 -0.2849 -0.2721
 1642SOL    HW116385   1.924   0.096  13.474 -0.9179  0.0578 -2.1715
 1642SOL    HW216386   2.062   0.133  13.505 -0.5835  0.4875  0.6058
 1643SOL     OW16387   1.658   2.837  17.154 -0.0358 -0.3132 -0.2023
 1643SOL    HW116388   1.682   2.825  17.062 -0.4203 -4.3146  0.2295
 1643SOL    HW216389   1.733   2.791  17.193  0.3310  0.0577 -0.4706
 1644SOL     OW16390   0.230   2.249   4.299  0.3191  0.1672 -0.2980
 1644SOL    HW116391   0.145   2.233   4.340  0.2849 -0.3031 -0.5547
 1644SOL    HW216392   0.283   2.200   4.362 -0.7291 -0.9310 -0.2824
 1645SOL     OW16393   4.714   1.700   6.141  0.7272  0.0514  0.3508
 1645SOL    HW116394   4.720   1.727   6.050 -3.5274 -0.0159  0.0591
 1645SOL    HW216395   4.644   1.635   6.145 -0.3387  1.0538 -2.5131
 1646SOL     OW16396   3.126   2.092   3.578  0.1120  0.3908 -0.3544
 1646SOL    HW116397   3.156   2.047   3.498  0.8554  0.5307 -0.1609
 1646SOL    HW216398   3.191   2.047   3.632 -1.2757 -0.2266  0.7843
 1647SOL     OW16399   3.973   3.413   4.800 -0.4656  0.5707  0.0721
 1647SOL    HW116400   3.977   3.347   4.869  3.4156 -0.2442 -0.9703
 1647SOL    HW216401   4.041   3.375   4.744 -0.7907 -1.6865  1.1998
 1648SOL     OW16402   3.963   2.394   4.980  0.3338  0.7495  0.2671
 1648SOL    HW116403   3.880   2.430   5.011 -0.2858 -2.2098  2.0467
 1648SOL    HW216404   3.951   2.300   4.991  1.0697  0.5693 -0.4900
 1649SOL     OW16405   2.516   2.146   4.361  0.5365 -0.4281 -0.2531
 1649SOL    HW116406   2.599   2.179   4.326  1.9028 -1.9785  1.5375
 1649SOL    HW216407   2.496   2.074   4.301  0.8130  0.2943 -1.2251
 1650SOL     OW16408   0.940   1.547  15.230  0.0172  0.0554 -0.0205
 1650SOL    HW116409   0.857   1.575  15.191 -1.1668 -0.3246  2.2395
 1650SOL    HW216410   1.014   1.572  15.175 -0.4057  0.6743 -0.3143
 1651SOL     OW16411   4.104   2.930   8.655 -0.3986  0.2100 -0.1543
 1651SOL    HW116412   4.073   2.960   8.570  1.0827 -1.7364 -1.3473
 1651SOL    HW216413   4.191   2.899   8.631 -0.0972 -0.3879  1.7150
 1652SOL     OW16414   2.618   2.389  12.828 -0.3959 -0.0457 -0.3476
 1652SOL    HW116415   2.598   2.448  12.901 -0.0822 -2.6037  1.7975
 1652SOL    HW216416   2.686   2.443  12.789 -1.0054  1.5263  0.7502
 1653SOL     OW16417   2.938   3.260   1.324  0.2239  0.2982 -0.4182
 1653SOL    HW116418   2.890   3.236   1.404 -0.3004  0.7475 -0.5960
 1653SOL    HW216419   3.018   3.208   1.318  0.3674  0.8866 -3.3025
 1654SOL     OW16420   2.544   2.934  11.194 -0.0302 -0.0502  0.2981
 1654SOL    HW116421   2.495   2.908  11.116 -1.5499  0.3243  1.1158
 1654SOL    HW216422   2.492   3.009  11.224 -2.8254 -1.6247 -0.6404
 1655SOL     OW16423   0.267   4.263   3.849  0.1814 -0.5688  0.2647
 1655SOL    HW116424   0.309   4.260   3.762  0.5246 -1.6383  0.4729
 1655SOL    HW216425   0.345   4.293   3.896  0.6445 -0.7610 -0.3700
 1656SOL     OW16426   4.470   1.132   4.718 -0.1155 -0.2658  0.0297
 1656SOL    HW116427   4.547   1.187   4.732  0.3681 -0.7182 -0.8027
 1656SOL    HW216428   4.495   1.058   4.663  0.3127 -1.2710  1.5553
 1657SOL     OW16429   1.353   1.678  15.221  0.0605  0.4940 -0.0241
 1657SOL    HW116430   1.283   1.727  15.177 -2.1649 -2.7815 -0.1229
 1657SOL    HW216431   1.417   1.750  15.220  0.5904  0.0155 -1.0033
 1658SOL     OW16432   3.963   3.449   7.098  0.8266 -0.2127 -0.6639
 1658SOL    HW116433   3.876   3.479   7.073  0.1515 -1.2013  0.4934
 1658SOL    HW216434   4.009   3.488   7.023 -0.4809  0.3809 -1.1582
 1659SOL     OW16435   4.016   1.688  12.177  0.9356 -0.5494 -0.2476
 1659SOL    HW116436   4.073   1.763  12.196 -0.1022  0.1753  0.0216
 1659SOL    HW216437   4.090   1.628  12.166  1.7960  0.4892 -0.1089
 1660SOL     OW16438   0.564   3.956   2.542  0.0632 -0.2064 -0.3991
 1660SOL    HW116439   0.506   4.028   2.567  1.0872  0.0420  1.2762
 1660SOL    HW216440   0.517   3.880   2.577 -0.1325 -0.8125 -1.9919
 1661SOL     OW16441   2.359   1.740   1.987 -0.4780 -0.5908  0.0071
 1661SOL    HW116442   2.287   1.695   1.944  1.5568 -2.7955 -1.1221
 1661SOL    HW216443   2.427   1.676   1.966  0.3369  0.3367 -0.2574
 1662SOL     OW16444   2.218   4.604   3.800 -0.0879  0.0694 -0.1258
 1662SOL    HW116445   2.296   4.643   3.759  0.5694  0.9503  1.9401
 1662SOL    HW216446   2.149   4.669   3.792 -0.2385 -0.1015 -0.1971
 1663SOL     OW16447   2.506   1.907   7.792 -0.4897 -0.3820  0.1183
 1663SOL    HW116448   2.522   1.813   7.789  1.8493  0.0684 -1.9352
 1663SOL    HW216449   2.415   1.915   7.819 -1.1470  0.1645 -2.2263
 1664SOL     OW16450   0.644   1.325  12.247  0.4725 -0.2134 -0.0426
 1664SOL    HW116451   0.585   1.288  12.313 -0.1285  1.7726  0.5164
 1664SOL    HW216452   0.697   1.378  12.306 -1.8043  1.6079  0.3913
 1665SOL     OW16453   2.340   3.712   2.992 -0.2621 -0.1023 -0.3427
 1665SOL    HW116454   2.263   3.769   3.001 -0.3121 -0.0874 -0.8382
 1665SOL    HW216455   2.302   3.632   2.954  0.0310 -1.9816  3.2485
 1666SOL     OW16456   0.419   1.378  16.835 -0.6033 -0.0962  0.3808
 1666SOL    HW116457   0.452   1.316  16.769  0.7920  1.4448 -0.3740
 1666SOL    HW216458   0.457   1.332  16.910  1.7510  1.9213  0.4131
 1667SOL     OW16459   1.415   1.085   2.971  0.0136  0.2372 -0.3614
 1667SOL    HW116460   1.387   1.128   3.051  0.7209  1.3749 -0.7188
 1667SOL    HW216461   1.430   0.996   3.004 -1.8231 -0.2592 -0.8857
 1668SOL     OW16462   3.674   1.461  17.686 -0.2589 -0.0419  0.0374
 1668SOL    HW116463   3.682   1.400   0.057 -3.0136  1.2092  1.3575
 1668SOL    HW216464   3.648   1.543   0.024 -0.1017  0.1974 -0.3509
 1669SOL     OW16465   1.317   1.392   4.224 -0.0963 -0.0597 -0.2497
 1669SOL    HW116466   1.264   1.349   4.157 -0.0947 -0.3265 -0.0795
 1669SOL    HW216467   1.299   1.481   4.193  3.3162  0.7408  0.0235
 1670SOL     OW16468   4.492   3.677   5.905 -0.3767  0.2403  0.1105
 1670SOL    HW116469   4.405   3.644   5.927 -0.0630 -0.9296 -0.4398
 1670SOL    HW216470   4.459   3.727   5.830 -0.0267  1.5808  0.8348
 1671SOL     OW16471   3.156   0.764   5.928  0.5145  0.0190 -0.0783
 1671SOL    HW116472   3.104   0.743   5.851  0.8403  0.2419 -0.3621
 1671SOL    HW216473   3.103   0.714   5.989 -0.9520  3.6216  1.6096
 1672SOL     OW16474   1.660   2.272   7.730  0.9171  0.0969  0.4431
 1672SOL    HW116475   1.674   2.242   7.820 -2.9466 -0.6615  0.8078
 1672SOL    HW216476   1.595   2.339   7.749 -0.2371 -0.2927 -2.1381
 1673SOL     OW16477   0.505   2.475   4.792 -0.0448  0.6742 -0.6434
 1673SOL    HW116478   0.470   2.533   4.724  0.3610  0.2836 -1.1753
 1673SOL    HW216479   0.508   2.392   4.745  0.5991 -0.9422  2.2627
 1674SOL     OW16480   2.921   1.772   3.594 -0.7791  0.6368 -0.2850
 1674SOL    HW116481   2.907   1.712   3.667  2.4145 -0.2976 -0.4712
 1674SOL    HW216482   2.901   1.720   3.516 -0.0649 -1.8637  1.2296
 1675SOL     OW16483   3.316   2.223   2.550 -0.0414  0.6515 -0.4883
 1675SOL    HW116484   3.317   2.317   2.569 -0.9721  0.4085  0.7459
 1675SOL    HW216485   3.402   2.211   2.590 -0.9752  1.0966  1.6287
 1676SOL     OW16486   2.130   2.198   7.372 -0.3237  0.1720  0.1079
 1676SOL    HW116487   2.188   2.273   7.385 -1.6864  0.9997  1.3577
 1676SOL    HW216488   2.116   2.163   7.460 -0.4636 -0.7362 -0.2795
 1677SOL     OW16489   0.328   4.196  17.142  0.4362 -0.0792 -0.2058
 1677SOL    HW116490   0.267   4.140  17.190  0.3815 -0.8966 -1.2294
 1677SOL    HW216491   0.381   4.137  17.088  1.3808  2.0636 -1.6156
 1678SOL     OW16492   1.588   1.079  17.123  0.3150  0.0604  0.2902
 1678SOL    HW116493   1.502   1.083  17.165 -0.6437 -0.8859 -1.5861
 1678SOL    HW216494   1.578   1.141  17.051 -0.9709  0.7309  1.0371
 1679SOL     OW16495   3.931   1.264  11.271 -0.2746 -0.0244  0.5560
 1679SOL    HW116496   4.004   1.323  11.291  1.4565 -2.3688  1.0015
 1679SOL    HW216497   3.929   1.201  11.342 -0.7696 -1.1359 -0.4523
 1680SOL     OW16498   0.975   2.799   4.542 -0.0242 -0.7901 -1.0271
 1680SOL    HW116499   1.039   2.800   4.613 -1.1846 -2.4844  0.0279
 1680SOL    HW216500   0.910   2.860   4.578 -0.3889 -1.7654 -0.0550
 1681SOL     OW16501   2.891   2.969  15.302  0.1036 -0.5110  0.4266
 1681SOL    HW116502   2.920   2.878  15.298 -0.4392 -0.7347  1.7281
 1681SOL    HW216503   2.913   2.992  15.212  0.3984 -1.7334  0.1809
 1682SOL     OW16504   1.572   3.154  12.837  0.0126  0.5463 -0.1345
 1682SOL    HW116505   1.587   3.116  12.923  1.2946  1.9235  0.2465
 1682SOL    HW216506   1.617   3.101  12.772 -1.5342 -1.7243  0.6734
 1683SOL     OW16507   4.202   1.035   4.714 -0.3047  0.5069  0.0377
 1683SOL    HW116508   4.153   1.089   4.651 -0.3437  1.5201  0.9483
 1683SOL    HW216509   4.286   1.080   4.719  0.6871 -1.0770 -1.9690
 1684SOL     OW16510   2.221   2.924  11.257 -0.7134  0.4688  0.2650
 1684SOL    HW116511   2.263   3.008  11.274  0.3361  0.1410 -0.6176
 1684SOL    HW216512   2.141   2.940  11.207  0.1326  0.2592 -1.1586
 1685SOL     OW16513   3.506   1.677   5.395 -0.5152  0.8823 -0.1179
 1685SOL    HW116514   3.547   1.680   5.309 -0.7615  0.4375 -0.2560
 1685SOL    HW216515   3.421   1.717   5.379 -0.0566  1.9827  0.2380
 1686SOL     OW16516   2.573   2.330  17.047  0.0868  0.8808  0.7929
 1686SOL    HW116517   2.630   2.276  16.992 -0.7444  0.1106  0.6914
 1686SOL    HW216518   2.521   2.267  17.096  0.9924  0.7552  1.5726
 1687SOL     OW16519   2.965   4.429  16.526 -0.0915  0.4150  0.0483
 1687SOL    HW116520   3.050   4.473  16.519  0.7799 -1.0092  1.5858
 1687SOL    HW216521   2.966   4.416  16.621 -0.3408  2.8575  0.3799
 1688SOL     OW16522   3.806   0.650  17.355  0.3627 -0.2471 -0.5148
 1688SOL    HW116523   3.845   0.731  17.322  1.5130 -0.9125 -0.7705
 1688SOL    HW216524   3.804   0.598  17.274  2.0319 -0.8154 -0.1813
 1689SOL     OW16525   3.383   3.898   6.931  0.4058  0.1740  0.5892
 1689SOL    HW116526   3.458   3.842   6.910 -1.6717 -2.2435 -0.4340
 1689SOL    HW216527   3.406   3.942   7.013 -0.0626 -0.7846  1.2411
 1690SOL     OW16528   3.832   3.967   2.728 -0.0998  0.5353  0.3010
 1690SOL    HW116529   3.808   3.992   2.817  0.7022  2.3423  0.0128
 1690SOL    HW216530   3.905   3.909   2.751  0.1250  1.0329  0.8500
 1691SOL     OW16531   0.308   1.363   6.834 -0.1561  0.6460 -0.1779
 1691SOL    HW116532   0.229   1.358   6.780 -1.7740  1.2013  2.1384
 1691SOL    HW216533   0.298   1.458   6.841 -2.2873  0.2798  1.7921
 1692SOL     OW16534   0.188   3.663   1.419 -0.1942 -0.0216 -0.2156
 1692SOL    HW116535   0.095   3.683   1.429  0.8724  3.6232  2.2150
 1692SOL    HW216536   0.223   3.738   1.370  1.5536 -2.3981 -2.5858
 1693SOL     OW16537   1.119   4.671   6.979  0.5225  0.6822  0.4888
 1693SOL    HW116538   1.108   0.039   6.962  1.5019  0.5182 -1.1070
 1693SOL    HW216539   1.133   4.637   6.890  0.8430 -1.4038  1.3254
 1694SOL     OW16540   2.039   2.509   1.000 -0.1309  0.0229 -0.9179
 1694SOL    HW116541   1.996   2.497   1.085 -0.2276  2.3351 -0.6552
 1694SOL    HW216542   2.033   2.423   0.959 -2.1973  0.1342 -0.8634
 1695SOL     OW16543   0.921   3.753   7.190 -0.1991  0.2217  0.1113
 1695SOL    HW116544   0.971   3.709   7.122  0.7075  3.5609 -1.3600
 1695SOL    HW216545   0.879   3.673   7.223 -0.3102 -0.1767 -1.0027
 1696SOL     OW16546   1.223   3.628   5.476  0.1224 -0.1377  0.1069
 1696SOL    HW116547   1.285   3.655   5.544  1.6748  1.0369 -1.8043
 1696SOL    HW216548   1.195   3.540   5.503 -0.3608 -0.1572 -0.4758
 1697SOL     OW16549   0.351   2.389  15.419 -0.2716  0.3343  0.1612
 1697SOL    HW116550   0.321   2.406  15.329 -1.2155  3.2447  1.0175
 1697SOL    HW216551   0.270   2.376  15.469 -0.1383 -0.3458  0.2055
 1698SOL     OW16552   3.381   2.052   7.361 -0.6948  0.3660  1.1196
 1698SOL    HW116553   3.347   2.110   7.293  0.4028 -0.3159 -0.0007
 1698SOL    HW216554   3.419   2.123   7.412 -1.7831  0.9041  1.1716
 1699SOL     OW16555   1.038   2.493  13.534  0.0670 -0.3483  0.1987
 1699SOL    HW116556   1.119   2.543  13.529 -0.3974  0.1784 -2.0986
 1699SOL    HW216557   1.053   2.447  13.617 -0.1917  0.7288  0.8541
 1700SOL     OW16558   0.037   2.888   7.649 -0.3530 -0.8273  0.4891
 1700SOL    HW116559   0.057   2.824   7.718 -0.4083 -1.1775  0.1831
 1700SOL    HW216560   4.667   2.893   7.650 -0.3717 -1.2306  1.4194
 1701SOL     OW16561   4.539   3.068   4.894 -0.8848  0.1465 -0.2625
 1701SOL    HW116562   4.445   3.049   4.887 -1.0499  1.1677 -0.7878
 1701SOL    HW216563   4.575   2.979   4.899  0.3066  0.5639 -1.3801
 1702SOL     OW16564   2.146   1.516   8.705 -0.4237  0.6259 -0.3799
 1702SOL    HW116565   2.061   1.528   8.748 -1.6256 -0.3150 -2.4850
 1702SOL    HW216566   2.150   1.420   8.709  1.4484  0.6837 -1.0284
 1703SOL     OW16567   0.713   2.193   6.228 -0.5852  0.2859 -0.1338
 1703SOL    HW116568   0.785   2.217   6.287  1.6857  0.4959 -2.9771
 1703SOL    HW216569   0.738   2.259   6.163 -1.0763  1.5872  1.0035
 1704SOL     OW16570   3.505   3.690   2.048  0.0233  0.7862  0.0463
 1704SOL    HW116571   3.409   3.685   2.051 -0.2114  3.0453 -2.9896
 1704SOL    HW216572   3.526   3.723   2.135 -1.9836  2.8849 -0.2629
 1705SOL     OW16573   3.591   0.090  16.391 -0.2182 -0.4264  0.1345
 1705SOL    HW116574   3.653   0.154  16.427 -0.4404 -1.1079  1.7254
 1705SOL    HW216575   3.526   0.152  16.357  0.2680 -0.2783 -0.5237
 1706SOL     OW16576   3.674   1.776  17.299  0.0011  0.0464  1.0076
 1706SOL    HW116577   3.667   1.868  17.273  1.6503  0.0570  0.6097
 1706SOL    HW216578   3.591   1.746  17.263  0.1024  0.2829  0.5817
 1707SOL     OW16579   2.506   1.530   4.669  0.1619 -0.2117 -0.0613
 1707SOL    HW116580   2.491   1.597   4.603  4.4466  0.6210 -0.1833
 1707SOL    HW216581   2.583   1.566   4.713 -0.9964 -0.5075  2.2095
 1708SOL     OW16582   1.499   4.536  11.736  0.5828 -0.5970 -0.1515
 1708SOL    HW116583   1.452   4.539  11.653  2.9347  0.4950 -1.4341
 1708SOL    HW216584   1.496   4.624  11.774  0.1483  0.3081 -2.2622
 1709SOL     OW16585   3.744   0.121  11.203  0.6877  0.7481 -0.4523
 1709SOL    HW116586   3.833   0.086  11.215  0.3306 -0.3913 -1.1367
 1709SOL    HW216587   3.778   0.208  11.182 -2.3580  1.8158 -0.9714
 1710SOL     OW16588   0.293   2.118   8.053  0.0092 -0.3052  0.1001
 1710SOL    HW116589   0.283   2.096   8.146 -1.9275  1.3950  0.2887
 1710SOL    HW216590   0.356   2.050   8.031 -1.7028 -1.6815 -0.4674
 1711SOL     OW16591   0.342   2.066   6.996  0.2854  0.0812 -0.5879
 1711SOL    HW116592   0.294   2.138   7.038  0.1465  0.5262 -1.5213
 1711SOL    HW216593   0.384   2.036   7.077  0.2323 -0.8807 -0.9232
 1712SOL     OW16594   4.194   0.479   3.426 -0.3356 -0.3823  0.6264
 1712SOL    HW116595   4.224   0.417   3.360  0.8144 -0.5699  1.3233
 1712SOL    HW216596   4.275   0.490   3.476 -0.5052  0.5510  0.6977
 1713SOL     OW16597   0.965   0.302   6.813 -0.1769  0.1489  0.1627
 1713SOL    HW116598   0.947   0.345   6.897 -1.0640 -1.9528  1.0357
 1713SOL    HW216599   0.983   0.214   6.846  0.4582 -0.7502 -2.5706
 1714SOL     OW16600   0.782   1.224   6.289 -0.2799  0.8146 -0.1650
 1714SOL    HW116601   0.745   1.288   6.229 -0.9165  0.1347 -0.4942
 1714SOL    HW216602   0.722   1.150   6.281  1.4146 -0.9062  2.9824
 1715SOL     OW16603   0.448   2.894   3.755 -0.2014  0.4240 -0.7347
 1715SOL    HW116604   0.394   2.938   3.690 -0.8190  0.4582 -0.2002
 1715SOL    HW216605   0.495   2.973   3.785  1.3186  0.2745 -2.7128
 1716SOL     OW16606   0.211   0.300   1.801 -0.1757  0.1861  0.3462
 1716SOL    HW116607   0.254   0.383   1.821 -0.7159  0.4623  0.3690
 1716SOL    HW216608   0.284   0.239   1.796 -1.8157 -1.7011 -0.5008
 1717SOL     OW16609   3.180   2.529  11.180  0.2196 -0.1315  0.1295
 1717SOL    HW116610   3.262   2.494  11.216 -0.5239 -0.4464  1.5083
 1717SOL    HW216611   3.178   2.620  11.208  1.4895 -0.6819  1.9788
 1718SOL     OW16612   3.970   3.950   7.704 -0.4836  0.0661 -0.3898
 1718SOL    HW116613   3.933   3.992   7.781  1.3164  0.4618  0.2430
 1718SOL    HW216614   4.049   3.908   7.736 -0.8297 -0.2400  0.0494
 1719SOL     OW16615   1.476   1.601   8.262  0.5263  0.0926  0.2120
 1719SOL    HW116616   1.515   1.689   8.263 -0.1034  0.3736 -0.1248
 1719SOL    HW216617   1.554   1.545   8.266  0.2887 -0.1044  2.2143
 1720SOL     OW16618   2.732   1.607   0.557  0.0368 -1.2878 -0.2242
 1720SOL    HW116619   2.695   1.586   0.471  0.8740 -2.4435 -0.2992
 1720SOL    HW216620   2.661   1.657   0.597 -0.2045  0.3747 -2.7471
 1721SOL     OW16621   2.014   1.163  11.185 -0.0850  0.6820 -0.7437
 1721SOL    HW116622   1.956   1.146  11.259  0.9262 -1.0477 -0.3523
 1721SOL    HW216623   1.994   1.086  11.133 -1.2184  0.5100 -0.0419
 1722SOL     OW16624   1.687   4.458   2.756  0.4938 -0.0639 -0.2087
 1722SOL    HW116625   1.734   4.401   2.817 -0.8582  0.0993  0.9634
 1722SOL    HW216626   1.696   4.545   2.794 -0.6626  0.4287 -1.0521
 1723SOL     OW16627   2.183   0.261  11.270  0.0548 -0.7812  0.0640
 1723SOL    HW116628   2.193   0.353  11.247  0.1942 -0.0855  2.9103
 1723SOL    HW216629   2.268   0.231  11.302  1.2397  1.4905 -0.9857
 1724SOL     OW16630   0.931   3.771   3.057  0.4566 -0.0053  0.1493
 1724SOL    HW116631   0.982   3.848   3.034 -1.0604  1.2590  1.0453
 1724SOL    HW216632   0.910   3.744   2.967 -1.0214  1.1892  0.1248
 1725SOL     OW16633   1.829   3.493   0.997 -0.2424  0.1697  0.2096
 1725SOL    HW116634   1.758   3.539   0.953 -0.3071  1.8911  2.1286
 1725SOL    HW216635   1.866   3.563   1.051 -1.4690  0.1718  1.0283
 1726SOL     OW16636   3.558   3.693   6.659  0.6512  0.0537  0.5630
 1726SOL    HW116637   3.527   3.716   6.747  1.5788  1.8362  0.4149
 1726SOL    HW216638   3.497   3.737   6.601 -0.3192  1.0517  2.3649
 1727SOL     OW16639   4.222   1.778  15.875 -0.1386 -0.5039  0.1148
 1727SOL    HW116640   4.295   1.804  15.819 -0.7708  1.4441  0.2026
 1727SOL    HW216641   4.214   1.849  15.939  4.3946 -1.3610  1.6074
 1728SOL     OW16642   0.771   3.470   6.394 -0.5112 -0.1814  0.0816
 1728SOL    HW116643   0.845   3.483   6.334 -0.8925  0.9938 -0.1182
 1728SOL    HW216644   0.730   3.554   6.377 -0.4278 -0.3126 -0.7982
 1729SOL     OW16645   4.322   3.906  17.537 -0.3881 -0.1669  0.0783
 1729SOL    HW116646   4.380   3.932  17.466  0.3847 -0.8536  0.4602
 1729SOL    HW216647   4.297   3.819  17.506  1.0203 -0.7812  0.6532
 1730SOL     OW16648   1.760   0.699   9.122 -0.0852  0.3918  0.7829
 1730SOL    HW116649   1.704   0.656   9.057  0.7850 -1.5280  1.2874
 1730SOL    HW216650   1.701   0.703   9.196  0.1019  1.6847  0.8584
 1731SOL     OW16651   0.439   1.263  10.892 -0.1200 -0.2513  0.1212
 1731SOL    HW116652   0.427   1.351  10.855  1.0934  1.1663  3.0760
 1731SOL    HW216653   0.476   1.211  10.821  0.5308 -0.6465  0.7550
 1732SOL     OW16654   2.071   0.647   5.156 -0.0756 -0.5059  0.3398
 1732SOL    HW116655   2.153   0.695   5.144 -0.0166 -0.2731  1.6709
 1732SOL    HW216656   2.011   0.722   5.156 -0.2882 -0.6750 -1.0848
 1733SOL     OW16657   2.400   3.692  11.330  0.4802  0.1838 -0.0573
 1733SOL    HW116658   2.441   3.778  11.343  0.6573  0.1048 -0.0975
 1733SOL    HW216659   2.467   3.632  11.297  1.3475  2.1024 -1.7591
 1734SOL     OW16660   1.896   4.380  11.541 -0.0551 -0.2432  0.4653
 1734SOL    HW116661   1.839   4.348  11.611 -2.9868  2.8681 -0.4883
 1734SOL    HW216662   1.974   4.400  11.593  0.2506 -0.8128  0.2257
 1735SOL     OW16663   1.708   1.905   9.389  0.4306 -0.5271 -0.1178
 1735SOL    HW116664   1.663   1.990   9.380  2.8113  0.7966  0.5370
 1735SOL    HW216665   1.711   1.899   9.484 -1.8104 -1.5145 -0.1024
 1736SOL     OW16666   2.236   1.292   6.036 -0.1986  0.6315 -0.2634
 1736SOL    HW116667   2.295   1.313   5.964  1.3544  2.3766  1.5254
 1736SOL    HW216668   2.194   1.375   6.058 -1.1892  0.2558 -0.7007
 1737SOL     OW16669   1.756   1.827   0.929 -0.1542  0.4327  0.5341
 1737SOL    HW116670   1.826   1.833   0.864  0.1310  2.0766  0.9897
 1737SOL    HW216671   1.801   1.800   1.010 -0.9045 -1.1539  0.4240
 1738SOL     OW16672   2.596   0.341   9.408  0.7447  0.4739 -0.5620
 1738SOL    HW116673   2.624   0.274   9.470 -0.9516 -1.2382 -1.6689
 1738SOL    HW216674   2.672   0.349   9.351  2.0371  1.4664  1.3058
 1739SOL     OW16675   2.071   4.391   2.837  0.5283  0.3765 -0.4672
 1739SOL    HW116676   2.002   4.332   2.866  2.1245 -1.6557 -0.8454
 1739SOL    HW216677   2.115   4.415   2.919  1.4710  3.0257 -1.7370
 1740SOL     OW16678   1.085   0.178  17.132  0.0151 -0.2303  0.3009
 1740SOL    HW116679   1.063   0.241  17.199 -2.2810 -1.9649  1.1707
 1740SOL    HW216680   1.075   0.100  17.187 -0.0236  0.5244  1.3525
 1741SOL     OW16681   0.386   4.700   3.447 -0.2785  0.3792 -0.2390
 1741SOL    HW116682   0.316   4.671   3.388 -0.1814 -1.3652  0.5356
 1741SOL    HW216683   0.453   0.008   3.387 -1.9684 -0.4565 -2.5817
 1742SOL     OW16684   1.037   4.287   4.984  0.8056 -0.3515 -0.0747
 1742SOL    HW116685   1.081   4.351   5.040 -0.4491 -0.0654  0.5855
 1742SOL    HW216686   1.049   4.324   4.896 -3.3338  0.4326 -0.3265
 1743SOL     OW16687   0.316   1.159   4.250  0.7430 -0.6917  0.4152
 1743SOL    HW116688   0.394   1.161   4.195 -0.0661 -0.8900 -0.7258
 1743SOL    HW216689   0.288   1.251   4.248 -1.3787 -1.3704 -1.3132
 1744SOL     OW16690   3.857   0.622   0.739  0.3727  0.0280 -0.2217
 1744SOL    HW116691   3.891   0.564   0.670  0.8763 -0.0293  0.0769
 1744SOL    HW216692   3.783   0.571   0.770  1.1821 -0.2818  1.1695
 1745SOL     OW16693   0.204   1.741   3.937  0.5083  0.1357  0.2184
 1745SOL    HW116694   0.177   1.802   4.005 -1.3048  1.3209 -1.5774
 1745SOL    HW216695   0.297   1.740   3.957  0.6950 -3.0878 -0.7444
 1746SOL     OW16696   2.310   3.036  10.602  0.1258 -0.0464 -0.2586
 1746SOL    HW116697   2.286   3.055  10.693  1.0162  0.9255 -0.2274
 1746SOL    HW216698   2.350   3.123  10.590 -0.2337  0.1534 -0.0030
 1747SOL     OW16699   0.583   4.689   7.678 -0.2398 -0.0622 -0.4954
 1747SOL    HW116700   0.662   4.664   7.631 -0.5186 -0.0963 -0.9537
 1747SOL    HW216701   0.598   4.660   7.768 -1.6621 -0.2004 -0.2994
 1748SOL     OW16702   4.192   2.780   8.415 -0.2353  0.3296  0.1297
 1748SOL    HW116703   4.104   2.772   8.378 -0.1151 -1.6548  0.2495
 1748SOL    HW216704   4.202   2.709   8.479 -0.3177  0.3237  0.1357
 1749SOL     OW16705   1.968   4.504   1.167  0.1483 -0.0471  0.1667
 1749SOL    HW116706   2.025   4.567   1.210  2.4471 -0.8247 -1.7551
 1749SOL    HW216707   2.005   4.492   1.079 -1.1958 -1.1268 -0.2493
 1750SOL     OW16708   3.817   3.331   0.549 -0.1493 -0.0874 -0.6067
 1750SOL    HW116709   3.908   3.344   0.575 -0.3453  1.8881 -0.8599
 1750SOL    HW216710   3.769   3.332   0.632  0.2507  2.4757 -0.4008
 1751SOL     OW16711   4.648   1.821   4.299  0.2851  0.1145 -0.1881
 1751SOL    HW116712   4.573   1.857   4.347  0.3008  2.3692 -1.8436
 1751SOL    HW216713   4.634   1.849   4.208 -1.2332 -1.6964 -0.5319
 1752SOL     OW16714   3.206   1.305  15.471  0.0241 -0.4231  0.1198
 1752SOL    HW116715   3.302   1.300  15.476 -0.0766 -0.4493  1.9826
 1752SOL    HW216716   3.203   1.394  15.435  0.5192 -1.3135 -2.0998
 1753SOL     OW16717   3.657   2.331   5.442  0.3550  0.1651 -0.5768
 1753SOL    HW116718   3.610   2.345   5.360  1.6906 -0.6610 -1.4750
 1753SOL    HW216719   3.712   2.254   5.428  0.1051 -0.1856  0.3744
 1754SOL     OW16720   2.363   3.351   7.791 -0.1308  0.1267 -0.3429
 1754SOL    HW116721   2.270   3.364   7.811 -0.3007  0.2331 -1.1985
 1754SOL    HW216722   2.409   3.405   7.856  1.6650 -0.9087 -0.7435
 1755SOL     OW16723   1.519   0.325   6.282 -0.0656 -0.4670 -0.0748
 1755SOL    HW116724   1.572   0.280   6.217 -0.6850 -1.0847 -0.1484
 1755SOL    HW216725   1.587   0.323   6.349  3.7986  2.6463 -3.9525
 1756SOL     OW16726   3.014   0.329   8.757  0.2184 -0.2751  0.2213
 1756SOL    HW116727   2.931   0.360   8.721 -0.7677 -0.6825  2.1762
 1756SOL    HW216728   3.022   0.398   8.823  0.6518 -1.1929  1.1326
 1757SOL     OW16729   4.019   1.830   8.033 -0.0362  0.2212 -0.4718
 1757SOL    HW116730   3.940   1.797   7.990 -1.1758  0.8801  1.1262
 1757SOL    HW216731   4.032   1.758   8.095 -1.3055  1.3964  1.1254
 1758SOL     OW16732   0.562   1.318   3.025  0.3488  0.1915 -0.1473
 1758SOL    HW116733   0.524   1.389   2.973  1.4798 -0.2236 -1.5383
 1758SOL    HW216734   0.585   1.247   2.965 -0.3368  0.2046 -0.4263
 1759SOL     OW16735   4.031   1.068   7.659  0.0041  0.1833  0.0843
 1759SOL    HW116736   3.980   0.988   7.649  0.0551 -0.1762  2.7845
 1759SOL    HW216737   3.965   1.124   7.700  1.4230  1.3436  0.8154
 1760SOL     OW16738   1.523   4.622  10.597  0.1299  0.2517 -0.0642
 1760SOL    HW116739   1.593   4.679  10.564 -0.8645  2.6617  1.9843
 1760SOL    HW216740   1.563   4.584  10.675 -0.5831  0.8226  0.5741
 1761SOL     OW16741   0.800   1.443   7.966 -0.1787  0.1844  0.2768
 1761SOL    HW116742   0.771   1.499   7.893 -1.3745 -0.8189 -0.0255
 1761SOL    HW216743   0.876   1.493   7.995  1.9601 -1.9639 -1.6106
 1762SOL     OW16744   0.229   1.614   6.209 -0.4312 -0.2034 -0.3271
 1762SOL    HW116745   0.188   1.545   6.156 -0.2999  0.0121 -0.7072
 1762SOL    HW216746   0.143   1.648   6.233 -1.4146 -2.8854 -0.0410
 1763SOL     OW16747   3.597   4.265   7.658  0.0147  0.1137 -0.2694
 1763SOL    HW116748   3.568   4.190   7.605 -0.4629  1.9098 -2.5258
 1763SOL    HW216749   3.673   4.300   7.613 -0.5383  0.7433 -0.7121
 1764SOL     OW16750   1.519   0.995   3.486  0.1329 -0.5726 -0.0146
 1764SOL    HW116751   1.462   0.924   3.516  1.7155 -2.0569 -0.5068
 1764SOL    HW216752   1.592   0.989   3.547 -1.0921  0.5574  1.5583
 1765SOL     OW16753   1.673   4.709  16.204  0.1487 -0.0291  0.2154
 1765SOL    HW116754   1.648   4.680  16.291  0.9144 -0.8709  0.1600
 1765SOL    HW216755   1.599   0.039  16.177  1.5335  0.4900 -2.6022
 1766SOL     OW16756   4.471   3.288   7.798 -0.3331  1.2368 -0.1437
 1766SOL    HW116757   4.527   3.324   7.867  2.5735 -1.6096 -1.0260
 1766SOL    HW216758   4.502   3.338   7.723  3.0065 -0.3116  0.1962
 1767SOL     OW16759   0.934   0.917   7.828 -0.2261  0.3802 -0.0055
 1767SOL    HW116760   0.932   1.012   7.817 -0.7583  0.3611 -0.0350
 1767SOL    HW216761   0.924   0.906   7.923 -1.4987 -2.7775 -0.4879
 1768SOL     OW16762   2.538   2.624  12.981 -0.4076 -0.6003 -0.1049
 1768SOL    HW116763   2.527   2.718  12.968 -0.8800 -0.4681  1.2623
 1768SOL    HW216764   2.614   2.622  13.038 -0.7075 -0.3817  0.2992
 1769SOL     OW16765   1.921   4.602   8.294 -0.0571  0.3835 -0.3887
 1769SOL    HW116766   1.896   4.511   8.309 -1.1444  0.6573 -0.5382
 1769SOL    HW216767   2.007   4.604   8.252 -1.0093  0.5770 -2.3234
 1770SOL     OW16768   3.415   1.014   6.933  0.0012  0.2293 -0.1494
 1770SOL    HW116769   3.482   1.082   6.931  1.3492 -1.1138  0.7051
 1770SOL    HW216770   3.380   1.029   6.845 -0.6482  0.5555  0.1546
 1771SOL     OW16771   2.524   0.076   6.133 -0.1493  0.6908  0.4744
 1771SOL    HW116772   2.476   0.153   6.161 -3.6239 -1.1330 -0.5079
 1771SOL    HW216773   2.569   0.129   6.067  1.1512 -1.2995 -0.2636
 1772SOL     OW16774   1.262   2.438   7.674 -0.1828 -0.3439  0.1900
 1772SOL    HW116775   1.320   2.452   7.748  1.3891 -1.3630 -0.8494
 1772SOL    HW216776   1.185   2.408   7.723 -0.6553 -0.0354 -0.3563
 1773SOL     OW16777   2.546   0.166   2.740 -0.4465  0.0545  0.4786
 1773SOL    HW116778   2.578   0.240   2.793  0.3653 -0.6668  0.9865
 1773SOL    HW216779   2.488   0.115   2.796  1.9495 -2.5484  0.5733
 1774SOL     OW16780   2.490   0.493  12.122 -0.1178  0.5736  0.0070
 1774SOL    HW116781   2.533   0.577  12.106  0.8734  0.0601 -0.0410
 1774SOL    HW216782   2.401   0.523  12.103 -0.3210 -0.8522 -1.2540
 1775SOL     OW16783   2.178   4.160   8.584 -0.1098 -0.5260 -0.4262
 1775SOL    HW116784   2.165   4.066   8.574  1.8822 -0.7542 -0.8884
 1775SOL    HW216785   2.261   4.166   8.632 -0.4740  1.3705 -0.0264
 1776SOL     OW16786   1.227   2.082   7.682  0.2129 -0.2159 -0.1689
 1776SOL    HW116787   1.314   2.079   7.642 -0.0900 -4.5958 -0.4261
 1776SOL    HW216788   1.170   2.122   7.616 -0.4153  0.6540  0.8952
 1777SOL     OW16789   0.245   3.633   7.005 -0.0362 -0.0950  0.5394
 1777SOL    HW116790   0.269   3.622   6.913  0.0948 -1.0508  0.6826
 1777SOL    HW216791   0.222   3.543   7.030 -1.6575 -0.5541 -2.6107
 1778SOL     OW16792   4.606   4.295   6.556 -0.1183 -0.1935 -0.1741
 1778SOL    HW116793   4.688   4.344   6.551 -0.1543  0.0313  1.4548
 1778SOL    HW216794   4.590   4.291   6.650  0.6516 -2.6557 -0.1539
 1779SOL     OW16795   1.357   2.550   7.261 -0.1744 -0.2065 -0.4081
 1779SOL    HW116796   1.293   2.495   7.307 -0.9994  1.6936  0.6923
 1779SOL    HW216797   1.427   2.582   7.317 -0.7981  0.3502  0.0385
 1780SOL     OW16798   0.519   2.503   5.214  0.0053 -0.2867 -0.3548
 1780SOL    HW116799   0.462   2.446   5.162  0.0479  0.9679 -1.7988
 1780SOL    HW216800   0.471   2.490   5.296  3.2500 -0.8022  1.4212
 1781SOL     OW16801   4.590   1.178  15.710 -0.6766  0.0359 -0.7162
 1781SOL    HW116802   4.573   1.270  15.693 -0.8242  0.4026  1.4751
 1781SOL    HW216803   4.614   1.142  15.624  1.3558 -0.5263  0.0903
 1782SOL     OW16804   0.307   1.237   8.149 -0.3876 -0.2007 -0.3716
 1782SOL    HW116805   0.374   1.183   8.192  0.5624  0.8730 -0.5070
 1782SOL    HW216806   0.224   1.193   8.170 -0.2177 -0.8593 -1.1156
 1783SOL     OW16807   2.203   3.024   6.473  0.2050  0.2022 -0.4795
 1783SOL    HW116808   2.133   3.084   6.448  0.3502  0.3509 -0.5322
 1783SOL    HW216809   2.239   3.082   6.541 -0.5639 -0.9385  0.9105
 1784SOL     OW16810   1.051   4.161   1.235 -0.2823  0.0905  0.1363
 1784SOL    HW116811   1.112   4.124   1.172  0.6275  0.2549  0.9229
 1784SOL    HW216812   1.092   4.172   1.321 -1.1841  1.6660  0.3642
 1785SOL     OW16813   2.140   0.174   5.621  0.1881 -0.5095 -0.4251
 1785SOL    HW116814   2.173   0.128   5.698 -0.5286  0.0334  0.2124
 1785SOL    HW216815   2.073   0.223   5.669 -0.7861 -1.5372 -0.7482
 1786SOL     OW16816   0.002   0.748   7.787 -0.4216  0.3238  0.3028
 1786SOL    HW116817   0.030   0.692   7.859 -1.6667  0.0158  0.5358
 1786SOL    HW216818   4.658   0.807   7.815 -0.5883  0.4167 -0.2941
 1787SOL     OW16819   3.681   2.860   2.644 -0.0338 -0.2318  0.2699
 1787SOL    HW116820   3.739   2.866   2.568  0.7207  0.6410  0.9247
 1787SOL    HW216821   3.621   2.793   2.609  0.6811 -0.8074  0.1358
 1788SOL     OW16822   2.654   4.200   3.213 -0.6592  0.0822  0.6682
 1788SOL    HW116823   2.729   4.141   3.213 -1.4978 -1.0005 -0.9894
 1788SOL    HW216824   2.642   4.209   3.307 -0.7431 -3.3973  1.0225
 1789SOL     OW16825   4.349   3.914   6.577 -0.2978  0.5378  0.2465
 1789SOL    HW116826   4.306   3.952   6.500 -2.7415 -3.8804 -0.5807
 1789SOL    HW216827   4.361   3.997   6.622 -2.1903 -0.5903  2.8470
 1790SOL     OW16828   1.978   1.018  14.463 -0.3609 -0.5934 -0.2942
 1790SOL    HW116829   1.883   1.018  14.470 -0.3551 -1.1062 -0.2503
 1790SOL    HW216830   2.001   0.952  14.529  0.9713  0.2583  0.0948
 1791SOL     OW16831   1.525   0.880  16.407  0.3788  0.2093 -0.1761
 1791SOL    HW116832   1.524   0.944  16.336 -0.8152  0.4200  0.0437
 1791SOL    HW216833   1.598   0.828  16.373  1.5410  1.7266  0.0105
 1792SOL     OW16834   2.991   0.022   1.607  0.0578 -0.2609  0.8330
 1792SOL    HW116835   3.052   4.692   1.656  0.9135 -0.4459 -0.4297
 1792SOL    HW216836   3.032   0.007   1.522 -2.7566 -4.1002  0.1524
 1793SOL     OW16837   1.937   1.068   3.879 -0.1552  1.0307 -0.1181
 1793SOL    HW116838   1.979   1.018   3.949 -0.8291 -0.3329 -0.7001
 1793SOL    HW216839   2.004   1.074   3.811 -0.7785  0.8360 -0.7503
 1794SOL     OW16840   4.050   3.149   7.124 -0.6752  0.0361 -0.2216
 1794SOL    HW116841   4.009   3.101   7.053 -1.3401 -0.3899  0.4444
 1794SOL    HW216842   4.053   3.232   7.077 -2.8932 -0.0543 -0.5401
 1795SOL     OW16843   0.827   2.828  15.335  0.3408  0.0841 -0.2038
 1795SOL    HW116844   0.913   2.853  15.370  1.0282 -0.9349 -1.1793
 1795SOL    HW216845   0.787   2.775  15.404 -1.5969  3.3914  1.2408
 1796SOL     OW16846   2.420   0.073   3.570  0.3282  0.1328 -0.6814
 1796SOL    HW116847   2.381   0.135   3.508  1.3123  1.3410 -0.0958
 1796SOL    HW216848   2.494   0.122   3.605 -0.0332  1.2819 -1.5253
 1797SOL     OW16849   2.907   2.478   4.633  0.5693 -0.1798  0.1986
 1797SOL    HW116850   2.944   2.402   4.589 -1.8682 -0.2504 -1.7365
 1797SOL    HW216851   2.844   2.431   4.688 -0.5324  0.4208 -0.5409
 1798SOL     OW16852   3.773   3.303   8.668 -0.1812 -0.1252 -0.4489
 1798SOL    HW116853   3.764   3.226   8.723  1.2774 -0.2165 -0.3356
 1798SOL    HW216854   3.725   3.372   8.713 -2.5431 -0.8485 -1.8684
 1799SOL     OW16855   1.809   3.148  11.677  0.1603  0.0571  0.1010
 1799SOL    HW116856   1.764   3.184  11.601 -0.8688  0.4932  0.9256
 1799SOL    HW216857   1.774   3.059  11.673 -0.8466  0.4700 -0.1858
 1800SOL     OW16858   4.152   3.129  17.436  0.6722  0.2741 -0.3913
 1800SOL    HW116859   4.137   3.212  17.483  0.4290  0.2567 -0.4411
 1800SOL    HW216860   4.114   3.064  17.495 -1.7637 -1.3580 -3.7761
 1801SOL     OW16861   2.822   2.984   1.179  0.2752 -0.2425  0.6476
 1801SOL    HW116862   2.891   2.934   1.135 -1.8704 -1.2063 -1.6055
 1801SOL    HW216863   2.802   2.912   1.239  2.0990 -0.9771  0.3528
 1802SOL     OW16864   2.168   4.662   8.173 -0.7781  0.2912  0.0905
 1802SOL    HW116865   2.199   0.027   8.177 -0.3898  0.2351 -1.7955
 1802SOL    HW216866   2.225   4.634   8.102 -2.1197 -0.3918 -0.7216
 1803SOL     OW16867   2.577   4.129  14.296  0.8486 -0.3469  0.0929
 1803SOL    HW116868   2.500   4.180  14.322  1.8518  0.1457  2.1434
 1803SOL    HW216869   2.618   4.121  14.382  0.3012  0.0528  0.3894
 1804SOL     OW16870   1.441   4.139   5.314  0.2817 -0.1582 -0.3242
 1804SOL    HW116871   1.479   4.077   5.377  0.4172  0.0420 -0.2077
 1804SOL    HW216872   1.352   4.106   5.308 -0.1793  1.1293 -0.5403
 1805SOL     OW16873   2.013   1.770  12.303 -0.6820 -0.0512 -0.4273
 1805SOL    HW116874   2.036   1.860  12.278 -0.8085  0.2155  0.4374
 1805SOL    HW216875   2.072   1.756  12.377  1.1713 -1.1246 -2.1157
 1806SOL     OW16876   4.577   4.083  17.631 -0.2698  0.3255 -0.5001
 1806SOL    HW116877   4.577   4.158  17.691 -0.4367  0.4615 -0.6671
 1806SOL    HW216878   4.652   4.110  17.578  0.5958 -0.4494  0.3484
 1807SOL     OW16879   0.803   1.137   4.343  0.0547 -0.7395  0.5321
 1807SOL    HW116880   0.898   1.125   4.341  0.3506  0.9611  3.9176
 1807SOL    HW216881   0.778   1.128   4.252  1.5914  0.0794  0.0216
 1808SOL     OW16882   3.160   2.319   5.939 -0.0100 -0.4162 -0.0484
 1808SOL    HW116883   3.160   2.269   5.857  0.6749 -0.6305  0.0844
 1808SOL    HW216884   3.159   2.239   5.992  2.1428  0.3679  1.1842
 1809SOL     OW16885   3.509   4.220   1.976  0.4466 -0.4970 -0.0265
 1809SOL    HW116886   3.496   4.314   1.990 -0.8697 -0.9132  1.5923
 1809SOL    HW216887   3.539   4.222   1.885  0.3425  1.9188 -0.0277
 1810SOL     OW16888   2.858   1.776  10.846 -0.1593  0.1038  0.2259
 1810SOL    HW116889   2.812   1.766  10.929  2.8836  1.4086  2.0576
 1810SOL    HW216890   2.843   1.869  10.827  1.3766  0.7533  2.2351
 1811SOL     OW16891   0.081   3.837   8.803 -0.0857  0.3626  0.1120
 1811SOL    HW116892   0.074   3.754   8.755 -0.2091  0.9285 -0.8628
 1811SOL    HW216893   0.006   3.874   8.756  1.3290  3.5164  0.3304
 1812SOL     OW16894   3.586   3.753  12.158  0.3460 -0.1165 -0.6543
 1812SOL    HW116895   3.655   3.703  12.115  2.0756  1.2610  0.5139
 1812SOL    HW216896   3.614   3.740  12.249 -2.5996 -1.1924  0.0827
 1813SOL     OW16897   3.627   1.701   5.857  0.0484 -0.2683  0.2778
 1813SOL    HW116898   3.691   1.709   5.786  0.5651 -0.2234  0.7387
 1813SOL    HW216899   3.692   1.689   5.927 -0.9093 -0.6044  1.1174
 1814SOL     OW16900   1.645   0.321   5.222  0.1837 -0.7314 -0.0183
 1814SOL    HW116901   1.667   0.397   5.168  0.2798 -1.8131 -1.4785
 1814SOL    HW216902   1.732   0.281   5.229  1.2670  1.5947 -0.1356
 1815SOL     OW16903   3.205   0.566   2.760  0.0990 -0.4145  0.0357
 1815SOL    HW116904   3.211   0.624   2.836  0.9666 -1.2483  0.6018
 1815SOL    HW216905   3.284   0.513   2.761 -0.8705 -1.8651 -0.1575
 1816SOL     OW16906   2.141   4.069   1.171 -0.0524 -0.3766 -0.1213
 1816SOL    HW116907   2.064   4.025   1.134 -0.7035  0.5621  0.1213
 1816SOL    HW216908   2.100   4.135   1.227  1.9750  0.7003  0.0693
 1817SOL     OW16909   1.734   0.955  14.604  0.5733 -0.2425 -0.0977
 1817SOL    HW116910   1.645   0.939  14.571  0.0411 -3.5380  2.9430
 1817SOL    HW216911   1.741   0.910  14.688 -2.2329  5.0936  2.9620
 1818SOL     OW16912   0.674   2.690   8.423  0.3187  0.0772  0.2630
 1818SOL    HW116913   0.683   2.785   8.409  0.5002 -0.1986 -1.5425
 1818SOL    HW216914   0.673   2.677   8.518 -0.0795 -3.5305 -0.2486
 1819SOL     OW16915   2.204   4.264   5.869  0.3637  0.2071  0.0656
 1819SOL    HW116916   2.159   4.236   5.789  0.3689  0.9214 -0.1862
 1819SOL    HW216917   2.142   4.317   5.918 -0.8489 -1.3776  0.2668
 1820SOL     OW16918   3.636   3.944   5.503  0.2811  0.3038 -0.1670
 1820SOL    HW116919   3.575   3.907   5.439 -0.9039  0.5336  0.8100
 1820SOL    HW216920   3.661   3.868   5.556 -0.1750  0.5742  0.4454
 1821SOL     OW16921   3.259   1.866   3.701 -0.0160 -0.0116  0.3686
 1821SOL    HW116922   3.194   1.812   3.747 -0.3929 -1.6858 -2.0988
 1821SOL    HW216923   3.296   1.799   3.643  2.7815  0.9393  1.0855
 1822SOL     OW16924   0.124   3.570   0.724  0.1189 -0.2964 -0.4965
 1822SOL    HW116925   0.116   3.607   0.636  1.4968 -1.2592 -1.0286
 1822SOL    HW216926   0.070   3.491   0.725  0.0827 -0.2711 -0.4187
 1823SOL     OW16927   2.933   3.549   1.989  0.3071 -0.2059 -0.3527
 1823SOL    HW116928   2.887   3.607   1.929 -1.2257 -0.3768  0.6459
 1823SOL    HW216929   2.856   3.519   2.036  1.1247 -2.8401 -0.7057
 1824SOL     OW16930   3.849   0.772   4.969  0.0270 -0.5937 -0.5820
 1824SOL    HW116931   3.827   0.687   5.007 -1.1120 -1.3859 -3.0273
 1824SOL    HW216932   3.940   0.792   4.993 -0.1465  0.0497 -0.4832
 1825SOL     OW16933   0.283   3.978   7.325  0.3079  0.2673 -0.4903
 1825SOL    HW116934   0.188   3.975   7.321  0.3149 -0.6050 -0.0807
 1825SOL    HW216935   0.305   3.915   7.256 -1.4194  0.3359 -1.0934
 1826SOL     OW16936   1.103   3.590   6.483 -0.1375  0.4554 -0.1650
 1826SOL    HW116937   1.122   3.521   6.419  0.6940 -1.1770  1.8636
 1826SOL    HW216938   1.083   3.550   6.568 -1.2528 -0.4680 -0.8523
 1827SOL     OW16939   1.136   3.335   8.619 -0.0748  0.1292 -0.2435
 1827SOL    HW116940   1.206   3.272   8.635  0.1704  0.8223  1.3937
 1827SOL    HW216941   1.079   3.328   8.696  0.1627  0.9559  0.0063
 1828SOL     OW16942   0.165   2.000   6.573 -0.4233 -0.2637  0.5727
 1828SOL    HW116943   0.125   1.980   6.657 -1.0734  0.4862  0.4418
 1828SOL    HW216944   0.145   2.093   6.572  0.5954 -0.0500 -0.5927
 1829SOL     OW16945   0.633   1.124  12.658 -0.1943  0.2297  0.2113
 1829SOL    HW116946   0.650   1.042  12.611 -0.1352  0.2270  0.2377
 1829SOL    HW216947   0.562   1.102  12.718  0.3665 -0.6845  0.5559
 1830SOL     OW16948   3.335   4.621   7.935  0.2463 -0.4186  0.0790
 1830SOL    HW116949   3.310   4.708   7.905 -0.0908 -0.0917  1.3345
 1830SOL    HW216950   3.265   4.565   7.902  1.2892  0.0759 -3.0606
 1831SOL     OW16951   1.499   2.164   3.317 -0.2442 -0.3110  0.2881
 1831SOL    HW116952   1.516   2.116   3.236 -2.4052 -0.9785  0.2312
 1831SOL    HW216953   1.587   2.178   3.352 -0.4194  2.3595 -0.3333
 1832SOL     OW16954   4.403   4.695  12.645  0.2215 -0.3911 -0.0875
 1832SOL    HW116955   4.441   4.608  12.654 -0.3707 -0.7552 -1.1362
 1832SOL    HW216956   4.488   0.014  12.650  0.4044 -0.8131  0.4708
 1833SOL     OW16957   0.518   2.269  12.297  0.4327  0.2236 -0.2837
 1833SOL    HW116958   0.584   2.298  12.360  2.3058  0.6425 -2.4225
 1833SOL    HW216959   0.479   2.350  12.264 -1.9039 -0.4179  0.8773
 1834SOL     OW16960   4.494   0.920  15.671 -0.1301 -0.4615  0.2803
 1834SOL    HW116961   4.492   1.007  15.711 -1.0915 -1.6369  2.7924
 1834SOL    HW216962   4.407   0.910  15.634  0.0139  1.4004 -0.5442
 1835SOL     OW16963   3.739   3.066   6.261  0.0021  0.0335 -0.3572
 1835SOL    HW116964   3.690   3.025   6.332 -0.5040  1.2654  0.0151
 1835SOL    HW216965   3.829   3.064   6.293  0.2765 -0.6359 -1.1607
 1836SOL     OW16966   1.159   3.225   9.335 -0.5620 -0.0031  0.0432
 1836SOL    HW116967   1.139   3.312   9.301 -2.3702 -0.9767 -1.4296
 1836SOL    HW216968   1.099   3.177   9.277 -0.8461 -1.2815  1.3768
 1837SOL     OW16969   2.930   1.729   0.147 -0.3493 -0.4320 -0.0194
 1837SOL    HW116970   2.839   1.758   0.154  0.3150  1.9359 -1.1684
 1837SOL    HW216971   2.956   1.697   0.233 -1.0750 -1.2124 -0.0918
 1838SOL     OW16972   4.585   0.459   6.616  0.1973 -0.3076 -0.2649
 1838SOL    HW116973   4.665   0.407   6.604  0.2132 -0.2896 -0.2378
 1838SOL    HW216974   4.514   0.395   6.617  0.0463 -0.1153  1.4828
 1839SOL     OW16975   3.425   0.557   6.214 -0.1853  0.0409 -0.1055
 1839SOL    HW116976   3.397   0.631   6.160  0.4635 -0.6439 -1.3813
 1839SOL    HW216977   3.396   0.580   6.302 -1.3568  0.7277 -0.6798
 1840SOL     OW16978   4.113   1.863  16.841 -0.0225 -0.0098  0.0457
 1840SOL    HW116979   4.037   1.811  16.869  0.7149 -1.9144 -1.5612
 1840SOL    HW216980   4.109   1.843  16.748  1.9276  2.1112 -0.5012
 1841SOL     OW16981   1.583   1.282   3.804  0.2649 -0.3531 -0.5818
 1841SOL    HW116982   1.637   1.263   3.880  0.0171  0.8225 -0.1179
 1841SOL    HW216983   1.539   1.360   3.836 -1.8434 -1.8062  0.1002
 1842SOL     OW16984   4.563   3.988  12.137 -0.3036 -0.5650 -0.0862
 1842SOL    HW116985   4.629   3.926  12.105 -0.5582  0.2940 -2.2604
 1842SOL    HW216986   4.485   3.944  12.169 -1.8505  0.3202 -2.7033
 1843SOL     OW16987   1.116   3.434   2.609 -0.2746  0.2690 -0.1232
 1843SOL    HW116988   1.087   3.515   2.650 -0.2412  0.0892  0.2545
 1843SOL    HW216989   1.059   3.375   2.658  0.5165  0.3137  0.8586
 1844SOL     OW16990   2.029   2.137   2.327  0.0687 -0.0202  0.2343
 1844SOL    HW116991   1.992   2.221   2.353 -0.4660 -0.5202  1.1188
 1844SOL    HW216992   2.065   2.093   2.405 -1.0429 -1.4231 -0.0449
 1845SOL     OW16993   2.031   0.696   7.124 -0.6130  0.1925  0.3843
 1845SOL    HW116994   2.040   0.754   7.049  4.0019 -0.7199  0.1967
 1845SOL    HW216995   2.117   0.659   7.102 -1.2479 -1.1783  0.1689
 1846SOL     OW16996   0.642   0.411   7.113  0.1012 -0.2999  0.3929
 1846SOL    HW116997   0.558   0.380   7.078  0.3822 -1.1917  0.5191
 1846SOL    HW216998   0.611   0.453   7.193  0.6307 -0.3781  0.6384
 1847SOL     OW16999   2.766   3.226   2.170  0.4646 -0.0680  0.0966
 1847SOL    HW117000   2.763   3.172   2.250 -1.5449 -0.7558 -0.4541
 1847SOL    HW217001   2.813   3.165   2.112 -0.1664 -0.1594 -0.3176
 1848SOL     OW17002   1.451   0.187   5.372 -0.2353  0.3277 -0.2119
 1848SOL    HW117003   1.380   0.136   5.332 -0.1894  0.2956 -0.2525
 1848SOL    HW217004   1.488   0.239   5.301 -1.8988  0.1547 -1.2073
 1849SOL     OW17005   1.638   4.024  14.350 -0.0543  0.4990  0.0499
 1849SOL    HW117006   1.602   3.940  14.323  1.5829  0.1082 -0.9088
 1849SOL    HW217007   1.726   4.012  14.314  2.0897  0.5140  5.2958
 1850SOL     OW17008   3.344   3.440   9.859  0.4578 -0.1413  0.1870
 1850SOL    HW117009   3.254   3.432   9.830  0.1654 -0.3127  1.1440
 1850SOL    HW217010   3.375   3.500   9.792 -0.3621  2.4520  2.1402
 1851SOL     OW17011   3.792   3.045   8.451  0.3729 -0.4779  0.4601
 1851SOL    HW117012   3.697   3.038   8.450  0.3140  0.2527  1.3799
 1851SOL    HW217013   3.805   3.136   8.476  0.8249 -0.8016  1.4212
 1852SOL     OW17014   3.351   3.824   6.524 -0.3027  0.0652  0.3415
 1852SOL    HW117015   3.313   3.895   6.576 -0.3557  1.3809 -1.4916
 1852SOL    HW217016   3.274   3.773   6.499 -0.2961 -0.1446  0.7517
 1853SOL     OW17017   3.499   2.806   9.335  0.0116  0.0181  0.2190
 1853SOL    HW117018   3.479   2.891   9.374 -1.1144 -0.6226  1.0215
 1853SOL    HW217019   3.516   2.762   9.418 -0.1556 -0.2165  0.1297
 1854SOL     OW17020   2.121   2.230   1.257  0.0638  0.1700 -0.0890
 1854SOL    HW117021   2.059   2.295   1.224  0.7313  1.4370  1.1823
 1854SOL    HW217022   2.077   2.147   1.236  0.9011 -0.2233 -0.2885
 1855SOL     OW17023   2.002   2.984  11.108 -0.2176  0.0043 -0.2512
 1855SOL    HW117024   1.934   3.050  11.094 -0.3731 -0.5820 -2.2155
 1855SOL    HW217025   2.034   2.961  11.021  0.2444  1.2536 -0.4221
 1856SOL     OW17026   0.409   0.767  12.382  0.2904  0.4258 -1.1070
 1856SOL    HW117027   0.325   0.809  12.396 -0.0152 -0.1477 -1.2353
 1856SOL    HW217028   0.451   0.767  12.468  0.9290  2.8043 -1.4356
 1857SOL     OW17029   0.008   4.715   9.187  0.1905  0.1183  0.1287
 1857SOL    HW117030   4.667   0.005   9.120 -0.2524  1.8789  0.9510
 1857SOL    HW217031   4.723   0.068   9.242 -2.4446 -0.1650  0.0526
 1858SOL     OW17032   1.345   2.500  17.638  0.3004  0.2440  0.2219
 1858SOL    HW117033   1.438   2.476  17.640 -0.1718 -1.6769 -0.5537
 1858SOL    HW217034   1.295   2.426  17.602  0.9183  0.1593 -0.4693
 1859SOL     OW17035   2.085   2.594  16.814 -1.0656 -0.1630 -0.1617
 1859SOL    HW117036   2.155   2.530  16.833  0.1729  1.5630  1.0539
 1859SOL    HW217037   2.014   2.541  16.780 -0.7833 -0.0833 -0.8732
 1860SOL     OW17038   2.043   1.285   3.208 -0.4174 -0.1362  0.3598
 1860SOL    HW117039   2.072   1.285   3.117  0.0296  1.8749  0.5026
 1860SOL    HW217040   1.948   1.285   3.193 -0.3990 -1.0025  0.2582
 1861SOL     OW17041   0.140   2.481   4.902 -0.1661  0.7993  0.3885
 1861SOL    HW117042   0.224   2.437   4.919 -1.0233 -1.5243 -1.4364
 1861SOL    HW217043   0.156   2.557   4.958  1.3053  0.7851 -0.0173
 1862SOL     OW17044   2.921   1.188   9.350 -0.0124 -0.3519 -0.0885
 1862SOL    HW117045   2.869   1.130   9.405 -0.3382  0.4225  0.4121
 1862SOL    HW217046   3.005   1.143   9.366  0.3769  0.8574  1.3039
 1863SOL     OW17047   3.580   2.483   7.426  0.4485  0.0155  0.6473
 1863SOL    HW117048   3.656   2.467   7.482 -0.0743 -1.3357  0.9600
 1863SOL    HW217049   3.601   2.436   7.345  0.5363  0.1316  0.6024
 1864SOL     OW17050   1.194   2.368   1.105 -0.0204  0.1998 -0.0615
 1864SOL    HW117051   1.120   2.427   1.117 -0.3574 -0.6071  1.8993
 1864SOL    HW217052   1.192   2.345   1.012 -2.3345 -0.9196  0.2620
 1865SOL     OW17053   2.134   2.980   3.693 -0.1153 -0.1142 -0.0110
 1865SOL    HW117054   2.120   2.898   3.740  0.8141  0.9094  2.0275
 1865SOL    HW217055   2.130   3.049   3.759 -0.3050 -2.0740  2.0281
 1866SOL     OW17056   4.127   0.696   7.602  0.2100  0.1860 -0.2730
 1866SOL    HW117057   4.215   0.716   7.635  0.2663  2.9299 -2.0980
 1866SOL    HW217058   4.121   0.602   7.616  2.9806 -0.3648 -2.8630
 1867SOL     OW17059   2.142   1.038  15.652 -0.1775 -0.1205  0.0479
 1867SOL    HW117060   2.096   0.997  15.579 -2.2764 -0.2468  1.4316
 1867SOL    HW217061   2.097   1.121  15.665  0.5755  0.4883 -1.2508
 1868SOL     OW17062   1.916   3.842   1.838  0.1610  0.1024  0.2606
 1868SOL    HW117063   1.849   3.780   1.811  0.5270  0.6965 -1.9779
 1868SOL    HW217064   1.938   3.877   1.752  0.3593 -2.1334 -0.5753
 1869SOL     OW17065   1.508   2.135   2.550  0.2893 -0.0229  0.1255
 1869SOL    HW117066   1.553   2.055   2.521  1.2423  0.1295  1.1595
 1869SOL    HW217067   1.474   2.160   2.464 -2.1525  0.4629  1.2534
 1870SOL     OW17068   1.761   0.934  15.326  0.8308 -0.4140 -0.9010
 1870SOL    HW117069   1.699   0.917  15.397  1.5331 -0.9259 -0.3986
 1870SOL    HW217070   1.737   1.024  15.305  1.0888 -0.2229 -0.3822
 1871SOL     OW17071   2.177   4.235   7.070 -0.0414 -0.1240 -0.4060
 1871SOL    HW117072   2.115   4.276   7.010  0.7415  0.3720 -0.8737
 1871SOL    HW217073   2.219   4.312   7.107  0.9588 -1.1389  0.5451
 1872SOL     OW17074   1.464   2.609   0.582  0.4079  0.1637  0.4165
 1872SOL    HW117075   1.486   2.683   0.638 -0.5771  1.6079 -1.0826
 1872SOL    HW217076   1.369   2.613   0.580  0.5228  2.6599  0.2606
 1873SOL     OW17077   1.407   4.496   1.727  0.0068 -0.6215 -0.1924
 1873SOL    HW117078   1.339   4.435   1.756 -0.4250  0.2409  0.6174
 1873SOL    HW217079   1.393   4.563   1.794 -0.7500 -0.7957 -0.1718
 1874SOL     OW17080   4.038   4.223  15.578 -0.3107  0.4521  0.0364
 1874SOL    HW117081   4.030   4.310  15.617 -0.4476  0.4993 -0.0950
 1874SOL    HW217082   4.123   4.203  15.616  0.2860  0.2008 -1.4265
 1875SOL     OW17083   0.752   3.352   3.756 -0.0985  0.0449  0.4213
 1875SOL    HW117084   0.808   3.343   3.679  0.7796 -1.4772  1.2523
 1875SOL    HW217085   0.802   3.405   3.819 -0.1152 -0.4949  0.8926
 1876SOL     OW17086   2.044   2.814  10.811  0.9096 -0.2395  0.5533
 1876SOL    HW117087   2.117   2.768  10.769 -0.8251 -2.5325 -0.0001
 1876SOL    HW217088   1.986   2.738  10.814 -0.5065  0.8743  1.6681
 1877SOL     OW17089   2.332   4.397  17.511  0.0215  0.5227  0.0340
 1877SOL    HW117090   2.265   4.416  17.446 -0.6170 -1.4278  0.1156
 1877SOL    HW217091   2.296   4.321  17.556 -0.3797  1.4213  1.2300
 1878SOL     OW17092   4.183   1.243   4.534  0.3766  0.1213 -0.5296
 1878SOL    HW117093   4.251   1.211   4.475  1.0535 -1.0088  0.8736
 1878SOL    HW217094   4.104   1.219   4.485 -0.4617 -1.0768  1.3978
 1879SOL     OW17095   1.879   1.339   5.281 -0.3637 -0.2061 -0.0305
 1879SOL    HW117096   1.934   1.396   5.335 -0.0006  0.3680 -1.0059
 1879SOL    HW217097   1.915   1.340   5.193  0.9480  2.5764  0.5355
 1880SOL     OW17098   2.295   2.753   7.325 -0.3987 -0.2290  0.0644
 1880SOL    HW117099   2.231   2.685   7.345 -0.3188 -0.3396 -0.0577
 1880SOL    HW217100   2.279   2.777   7.234  0.4590 -0.0790 -0.0444
 1881SOL     OW17101   4.243   3.524   2.528  0.1162 -0.3838 -0.5040
 1881SOL    HW117102   4.256   3.436   2.562  0.0376 -0.3274 -0.3301
 1881SOL    HW217103   4.209   3.493   2.444 -0.1792  0.6931 -0.7916
 1882SOL     OW17104   2.999   3.990  13.575 -0.2555  0.2757  0.3349
 1882SOL    HW117105   2.973   3.981  13.484  1.1266  0.5269 -0.0940
 1882SOL    HW217106   3.016   4.084  13.575 -1.8167  0.5660  1.7170
 1883SOL     OW17107   3.610   3.023   6.009 -0.5628 -0.4215  0.1707
 1883SOL    HW117108   3.665   3.060   6.079 -2.1826  0.7581  0.8191
 1883SOL    HW217109   3.667   2.954   5.975  2.2471  2.1189 -0.3579
 1884SOL     OW17110   3.448   4.722   8.629  0.0905 -0.1300 -0.4114
 1884SOL    HW117111   3.458   0.027   8.719  0.7017  2.5566 -1.3919
 1884SOL    HW217112   3.430   0.081   8.586 -2.1895 -1.2692 -1.7132
 1885SOL     OW17113   3.223   2.898   5.438  0.0630 -0.2421  0.2588
 1885SOL    HW117114   3.148   2.944   5.476 -1.2267 -1.6160 -0.6198
 1885SOL    HW217115   3.232   2.830   5.506  0.2296  0.7804  1.2519
 1886SOL     OW17116   0.101   3.040  12.035  0.4560  0.6053  0.1223
 1886SOL    HW117117   0.088   2.991  12.116 -1.7964  0.3926 -0.3827
 1886SOL    HW217118   0.184   3.001  12.007 -0.8600 -1.3748 -0.9796
 1887SOL     OW17119   0.113   2.328   3.900  0.0346  0.5396 -0.2903
 1887SOL    HW117120   0.172   2.395   3.936  0.4311 -0.2646  0.5621
 1887SOL    HW217121   0.026   2.367   3.908 -0.7888 -1.1257 -1.4231
 1888SOL     OW17122   0.191   1.234   3.840 -0.1609  0.1624  0.1182
 1888SOL    HW117123   0.147   1.315   3.866 -1.2209 -0.0051 -1.1371
 1888SOL    HW217124   0.266   1.284   3.808 -0.1635 -0.0662 -0.2498
 1889SOL     OW17125   0.567   3.632   3.002 -0.8799 -0.2806 -0.6396
 1889SOL    HW117126   0.629   3.685   2.951 -0.7965  0.6875  0.4662
 1889SOL    HW217127   0.596   3.542   2.986  0.5167  0.1596 -0.5839
 1890SOL     OW17128   0.925   2.786   4.863 -0.1847  0.2090  0.1119
 1890SOL    HW117129   0.913   2.703   4.817 -0.3017 -0.8571  2.0989
 1890SOL    HW217130   0.895   2.845   4.794 -0.1681 -1.3942 -1.2826
 1891SOL     OW17131   2.525   2.861  12.815 -0.1606 -0.0167 -0.0690
 1891SOL    HW117132   2.532   2.956  12.818  2.9023 -0.2509  0.9413
 1891SOL    HW217133   2.431   2.857  12.828  0.1299  1.8954  2.5850
 1892SOL     OW17134   0.430   4.343  16.872  0.0954 -0.2385  0.2266
 1892SOL    HW117135   0.438   4.417  16.933 -2.1805 -0.2029  0.4708
 1892SOL    HW217136   0.499   4.279  16.889  1.5997  1.6623  1.3415
 1893SOL     OW17137   3.063   4.652   5.096  0.0804 -0.1195  0.1197
 1893SOL    HW117138   3.008   4.589   5.144  1.5469  1.0321  3.3385
 1893SOL    HW217139   3.050   0.006   5.147 -0.4465  0.5571 -1.0725
 1894SOL     OW17140   4.075   2.907   7.809  0.2967 -0.2152 -0.4419
 1894SOL    HW117141   4.116   2.856   7.740 -1.8727 -1.2500 -0.9533
 1894SOL    HW217142   3.992   2.861   7.825 -0.0396  0.5740  0.1107
 1895SOL     OW17143   3.304   1.322   6.630 -0.0311  0.3743  0.2306
 1895SOL    HW117144   3.229   1.345   6.575  0.3024 -0.7119 -0.6791
 1895SOL    HW217145   3.281   1.370   6.710 -2.6163 -0.6641  0.1147
 1896SOL     OW17146   1.288   2.913   0.074  0.0608  0.8003 -0.1197
 1896SOL    HW117147   1.352   2.854   0.035  1.0519  0.9976  1.2076
 1896SOL    HW217148   1.344   2.952   0.142  0.5791  1.8685 -1.1675
 1897SOL     OW17149   3.275   1.071  11.689 -0.9976  0.1951 -0.2823
 1897SOL    HW117150   3.342   1.092  11.624  2.1010 -1.1161  2.4512
 1897SOL    HW217151   3.323   1.021  11.755 -0.6565  1.2389  0.2572
 1898SOL     OW17152   1.320   0.410  13.972 -0.3649  0.9469 -0.1322
 1898SOL    HW117153   1.371   0.439  14.047  0.3137  2.1868 -1.0839
 1898SOL    HW217154   1.267   0.356  14.031  0.3302 -1.1960 -1.4839
 1899SOL     OW17155   0.556   2.201   3.058  0.1726 -0.1331  0.1750
 1899SOL    HW117156   0.534   2.123   3.007 -2.2912 -1.3395  3.0699
 1899SOL    HW217157   0.497   2.199   3.134  1.0370 -3.9263  0.7720
 1900SOL     OW17158   3.885   4.675   4.931  0.4673 -0.1969  0.2409
 1900SOL    HW117159   3.859   4.606   4.870  1.5525  0.2839 -0.7583
 1900SOL    HW217160   3.980   4.673   4.922  0.3342 -1.7262 -0.8530
 1901SOL     OW17161   0.046   1.854   5.912 -0.5234  0.6042  0.1390
 1901SOL    HW117162   0.083   1.925   5.964 -1.5579 -0.1845  1.9809
 1901SOL    HW217163   0.124   1.814   5.874 -1.4575  0.8673 -2.0262
 1902SOL     OW17164   3.084   0.335   2.895 -0.7549  0.2703 -0.8457
 1902SOL    HW117165   3.100   0.315   2.803 -1.6407 -2.0567 -0.4821
 1902SOL    HW217166   3.160   0.394   2.896  0.3793 -1.1874  0.0974
 1903SOL     OW17167   1.682   1.406   8.270  0.4423  0.2844  0.0092
 1903SOL    HW117168   1.691   1.352   8.191  0.9666 -0.1167  0.3424
 1903SOL    HW217169   1.711   1.340   8.333  0.1860  1.0278  0.9046
 1904SOL     OW17170   1.386   4.671   5.583 -0.1121  0.2803 -0.1780
 1904SOL    HW117171   1.335   4.594   5.559  0.5548  0.1117 -1.0731
 1904SOL    HW217172   1.421   4.631   5.662  0.4019 -0.6644 -0.8941
 1905SOL     OW17173   0.187   0.579   0.380 -0.2084 -0.2266 -0.7139
 1905SOL    HW117174   0.271   0.620   0.363 -0.1051 -0.3190 -0.4277
 1905SOL    HW217175   0.162   0.557   0.290  2.0592 -2.1462 -0.8528
 1906SOL     OW17176   3.547   2.614   2.591  0.2389 -0.1268 -0.4829
 1906SOL    HW117177   3.556   2.591   2.683 -0.1820 -0.3882 -0.5077
 1906SOL    HW217178   3.555   2.529   2.547 -0.0141 -0.4053  0.0188
 1907SOL     OW17179   2.644   4.586   4.910 -0.0998 -0.1412 -0.0073
 1907SOL    HW117180   2.687   4.530   4.846  0.0293 -0.5375  0.4277
 1907SOL    HW217181   2.558   4.582   4.867 -0.1103  0.6590 -0.0554
 1908SOL     OW17182   3.956   0.369   0.897 -0.2527  0.4796 -0.1056
 1908SOL    HW117183   3.956   0.440   0.962  1.1562 -0.5152  0.9594
 1908SOL    HW217184   4.044   0.333   0.903  0.4290  1.5377 -4.1038
 1909SOL     OW17185   0.114   1.838   5.408 -0.0573 -0.8007 -0.1510
 1909SOL    HW117186   0.095   1.932   5.409  1.1587 -0.5410 -3.4885
 1909SOL    HW217187   0.053   1.800   5.472 -1.8216  1.4040 -0.5432
 1910SOL     OW17188   0.310   1.898   7.561  0.1069  0.6386 -0.0625
 1910SOL    HW117189   0.229   1.945   7.539 -0.7708 -1.0056 -0.3274
 1910SOL    HW217190   0.378   1.963   7.545  0.2218  0.6032  0.2915
 1911SOL     OW17191   2.012   2.294   9.441  0.1263 -0.5867 -0.1940
 1911SOL    HW117192   2.090   2.348   9.431  0.2552 -0.4553  1.4538
 1911SOL    HW217193   2.041   2.219   9.492  1.1887  0.6086  0.9659
 1912SOL     OW17194   3.061   2.653   2.217 -0.0865  0.0216  0.0808
 1912SOL    HW117195   3.111   2.645   2.136 -0.5030 -0.1653 -0.1612
 1912SOL    HW217196   3.117   2.594   2.268 -0.3772 -0.1195  0.2381
 1913SOL     OW17197   4.554   0.746   6.301 -0.2072 -0.3181  0.1143
 1913SOL    HW117198   4.531   0.659   6.270 -1.2319 -0.6185  1.6979
 1913SOL    HW217199   4.474   0.784   6.338 -0.5183 -2.1343  1.3024
 1914SOL     OW17200   0.184   1.202   2.981 -0.3064 -0.5541 -0.4430
 1914SOL    HW117201   0.168   1.270   3.047  0.5127 -0.0605 -0.7510
 1914SOL    HW217202   0.216   1.255   2.907 -2.3163  0.2017 -0.7910
 1915SOL     OW17203   0.589   2.205   3.726 -0.3565 -0.2253 -0.1919
 1915SOL    HW117204   0.497   2.202   3.749 -0.7094  0.4601 -1.4778
 1915SOL    HW217205   0.613   2.114   3.745 -0.0753 -0.5591 -2.0626
 1916SOL     OW17206   3.183   1.007   5.645 -0.3052 -0.4863 -0.4725
 1916SOL    HW117207   3.260   0.963   5.681  1.5998  1.1641 -2.5690
 1916SOL    HW217208   3.113   0.958   5.689 -2.1840  0.5983 -2.2564
 1917SOL     OW17209   1.894   0.242   5.295  0.1926  0.3651 -0.6088
 1917SOL    HW117210   1.872   0.172   5.356  0.2138  0.0050 -1.0114
 1917SOL    HW217211   1.969   0.280   5.340  0.5575 -1.0589 -0.0423
 1918SOL     OW17212   1.924   3.835  10.664  0.3666  0.3116  0.0996
 1918SOL    HW117213   1.993   3.902  10.663 -0.9515  1.6725  0.3755
 1918SOL    HW217214   1.895   3.843  10.573  0.8219  1.1000  0.0156
 1919SOL     OW17215   3.950   1.275   3.009  0.1706 -0.8174 -0.3887
 1919SOL    HW117216   3.942   1.198   3.065 -0.9072 -1.8075 -1.8719
 1919SOL    HW217217   4.018   1.239   2.951 -0.1948 -0.9097 -0.7651
 1920SOL     OW17218   2.623   3.442  13.778 -0.2977  0.5345 -0.4211
 1920SOL    HW117219   2.621   3.356  13.737 -0.8872 -0.4697  1.7737
 1920SOL    HW217220   2.717   3.461  13.781 -0.3548  0.7033  0.3622
 1921SOL     OW17221   1.193   2.089   3.140 -0.1167 -0.3573 -0.5990
 1921SOL    HW117222   1.261   2.023   3.150 -0.0503 -0.1516  0.3152
 1921SOL    HW217223   1.152   2.051   3.062  1.8116  0.4495 -2.0162
 1922SOL     OW17224   0.803   1.735  13.168  0.9036 -0.2512  0.4918
 1922SOL    HW117225   0.772   1.791  13.097  1.4704 -1.8872 -1.0198
 1922SOL    HW217226   0.874   1.788  13.204 -1.0381  1.9065  1.1475
 1923SOL     OW17227   1.382   2.700   3.874  0.3589 -0.3574  0.3019
 1923SOL    HW117228   1.340   2.671   3.955 -0.5883  2.8907  0.9988
 1923SOL    HW217229   1.474   2.700   3.901  0.9405 -0.1676 -1.6913
 1924SOL     OW17230   2.807   4.334  14.799 -0.1302  0.1204 -0.1832
 1924SOL    HW117231   2.716   4.351  14.775 -0.1350 -1.7592 -1.4683
 1924SOL    HW217232   2.857   4.387  14.737  1.9936 -1.6586  0.0294
 1925SOL     OW17233   2.487   0.749   2.683 -0.0647 -0.6671 -0.1676
 1925SOL    HW117234   2.462   0.689   2.612  0.2323 -2.5250  1.3160
 1925SOL    HW217235   2.564   0.782   2.638 -0.4631 -0.5156 -0.7437
 1926SOL     OW17236   3.313   1.898   5.453  0.0428 -0.4944 -0.2426
 1926SOL    HW117237   3.276   1.981   5.483  3.6400  1.2792 -0.6592
 1926SOL    HW217238   3.263   1.884   5.373  1.1602 -0.5171 -0.9309
 1927SOL     OW17239   3.278   1.914  16.132 -0.1719  0.0240 -0.0310
 1927SOL    HW117240   3.364   1.896  16.169 -1.3628 -1.3421  2.0653
 1927SOL    HW217241   3.292   1.983  16.067 -2.7744 -0.3410 -0.9750
 1928SOL     OW17242   2.682   0.039   9.746 -0.3881  0.2158 -0.2625
 1928SOL    HW117243   2.739   0.023   9.821  0.3274  0.1789 -0.8120
 1928SOL    HW217244   2.740   0.078   9.680 -2.9248  2.2501 -1.3130
 1929SOL     OW17245   3.964   1.729   5.431 -0.7594 -0.7243 -0.4552
 1929SOL    HW117246   3.918   1.780   5.365  0.5175 -0.8296 -1.4178
 1929SOL    HW217247   3.921   1.643   5.435  0.8750 -1.5302 -0.2923
 1930SOL     OW17248   0.578   2.600   9.125 -0.2604  0.5347  0.5516
 1930SOL    HW117249   0.583   2.663   9.198 -0.0974  0.7018  0.3970
 1930SOL    HW217250   0.532   2.526   9.164 -1.1292  0.3929 -0.7464
 1931SOL     OW17251   0.479   1.381   5.597 -0.4400 -0.0543 -0.1982
 1931SOL    HW117252   0.386   1.400   5.606  0.0054  1.8090  0.5233
 1931SOL    HW217253   0.496   1.462   5.549  2.1572  0.1051  0.9881
 1932SOL     OW17254   0.310   0.686   2.526 -0.9230  0.3016 -0.1532
 1932SOL    HW117255   0.396   0.669   2.564 -0.5775  0.1804 -1.0053
 1932SOL    HW217256   0.315   0.766   2.475 -2.9472  0.7816  0.4150
 1933SOL     OW17257   0.540   2.946   6.825  0.4229 -0.1800 -0.1765
 1933SOL    HW117258   0.589   2.937   6.743  1.5874 -0.5371  0.5643
 1933SOL    HW217259   0.586   2.880   6.877 -0.6705 -0.7572  0.0541
 1934SOL     OW17260   2.900   2.732   5.543 -0.0906 -0.3278  0.1451
 1934SOL    HW117261   2.926   2.676   5.617  0.4500 -1.6136 -1.0126
 1934SOL    HW217262   2.816   2.699   5.512  0.1246 -0.1087 -0.6710
 1935SOL     OW17263   1.237   2.583   3.161  0.1861 -0.9706  0.3965
 1935SOL    HW117264   1.325   2.617   3.147  0.3407 -1.5989 -0.1379
 1935SOL    HW217265   1.249   2.489   3.169  0.5345 -0.8493  1.3034
 1936SOL     OW17266   1.954   2.714   7.870  0.2536  0.7337  0.0540
 1936SOL    HW117267   1.899   2.638   7.851  0.8147  0.6137 -1.1397
 1936SOL    HW217268   1.952   2.755   7.784  1.3595  0.1679 -0.2500
 1937SOL     OW17269   1.179   2.121  10.982 -0.0929 -0.1051 -0.2002
 1937SOL    HW117270   1.091   2.146  10.954 -0.1561 -0.6550 -0.4892
 1937SOL    HW217271   1.159   2.075  11.064  2.0303  0.1200  0.4579
 1938SOL     OW17272   1.774   1.483   1.427 -0.0409  0.6335 -0.7327
 1938SOL    HW117273   1.737   1.407   1.382  0.8924  0.1588 -0.7146
 1938SOL    HW217274   1.798   1.449   1.514  0.0356  1.3327 -0.4809
 1939SOL     OW17275   0.553   0.890   9.233  0.2136  0.0470  0.3051
 1939SOL    HW117276   0.561   0.968   9.288  0.7696 -0.0713  0.3937
 1939SOL    HW217277   0.505   0.927   9.159  0.4131  2.2840  1.2992
 1940SOL     OW17278   0.576   1.725  15.339  0.6029 -0.3553  0.3353
 1940SOL    HW117279   0.613   1.804  15.301 -1.0730  1.0421  1.6315
 1940SOL    HW217280   0.547   1.681  15.258  0.7682 -1.7926  1.0461
 1941SOL     OW17281   3.784   1.385  14.555 -0.4009  0.0501  0.0377
 1941SOL    HW117282   3.720   1.317  14.532  0.6414 -0.9286  0.0636
 1941SOL    HW217283   3.781   1.398  14.650 -1.3935 -0.6186  0.1102
 1942SOL     OW17284   3.453   3.007  14.591 -0.4762  0.4408 -0.3425
 1942SOL    HW117285   3.448   3.102  14.586 -2.3809  0.2877 -1.5345
 1942SOL    HW217286   3.495   2.987  14.675 -0.7616 -0.0681 -0.3169
 1943SOL     OW17287   2.163   3.426   4.987 -0.5942  0.2138 -0.1617
 1943SOL    HW117288   2.084   3.422   5.041 -0.1094 -0.2180  0.5096
 1943SOL    HW217289   2.119   3.439   4.903  0.7240  0.4799 -0.7986
 1944SOL     OW17290   1.060   0.519   8.722 -0.0846 -0.7082 -0.2017
 1944SOL    HW117291   1.086   0.431   8.694  0.6769 -0.9870  1.3229
 1944SOL    HW217292   1.135   0.541   8.778 -1.9188 -2.3625  2.9521
 1945SOL     OW17293   3.074   3.154   4.559  0.5408  0.0762 -0.0859
 1945SOL    HW117294   3.063   3.240   4.600  1.3585 -1.2554  2.9494
 1945SOL    HW217295   3.155   3.169   4.511  1.9353  0.7673  2.4684
 1946SOL     OW17296   2.922   3.436  15.183 -0.8238 -0.9577 -0.3277
 1946SOL    HW117297   2.833   3.421  15.150  0.1222 -1.8372 -2.4713
 1946SOL    HW217298   2.981   3.397  15.118 -0.4753  1.1809 -1.2779
 1947SOL     OW17299   4.519   1.412   2.927 -0.5522 -0.1938  0.3454
 1947SOL    HW117300   4.494   1.501   2.953  0.2468  0.0897  0.1769
 1947SOL    HW217301   4.430   1.380   2.938 -0.8210  0.0281 -1.2110
 1948SOL     OW17302   1.862   1.014   3.304  0.1013 -0.0758 -0.3999
 1948SOL    HW117303   1.800   1.014   3.231  1.1465 -1.7864 -1.3179
 1948SOL    HW217304   1.829   1.095   3.342 -0.1991 -1.0404  1.3776
 1949SOL     OW17305   2.252   2.662  10.685  0.3995 -0.1387 -0.3855
 1949SOL    HW117306   2.320   2.595  10.691 -0.5754 -0.8694  2.4583
 1949SOL    HW217307   2.286   2.716  10.614 -0.7180 -0.4396 -1.1524
 1950SOL     OW17308   0.442   0.747   5.048 -0.5241 -0.1813 -0.0503
 1950SOL    HW117309   0.431   0.787   4.961 -1.2483 -0.2759 -0.0011
 1950SOL    HW217310   0.485   0.667   5.020  0.9737  0.2528  0.9979
 1951SOL     OW17311   1.351   4.602   4.719 -0.5389  0.1084  0.4004
 1951SOL    HW117312   1.280   4.568   4.664  0.7957  0.0575 -1.2839
 1951SOL    HW217313   1.381   4.524   4.766  1.3494  0.1787 -0.6845
 1952SOL     OW17314   1.390   0.775   3.953  0.0698 -0.2194  0.4965
 1952SOL    HW117315   1.359   0.808   4.038 -0.3289  2.0282 -0.5249
 1952SOL    HW217316   1.484   0.794   3.960 -0.4707  1.9962  1.7981
 1953SOL     OW17317   1.701   3.460   6.798  0.0163  0.3851  0.4038
 1953SOL    HW117318   1.654   3.506   6.728 -0.1573  1.7079  1.4040
 1953SOL    HW217319   1.735   3.533   6.849 -0.7103 -0.5720  2.2405
 1954SOL     OW17320   1.442   4.453   8.921  0.0625 -0.3610 -0.3473
 1954SOL    HW117321   1.383   4.495   8.859 -1.0413 -0.8828  0.3512
 1954SOL    HW217322   1.508   4.405   8.871 -0.1193 -0.8581 -0.1115
 1955SOL     OW17323   1.890   3.691  15.938  0.0625 -0.5449 -0.1814
 1955SOL    HW117324   1.976   3.715  15.903  0.2116  1.6679  1.6931
 1955SOL    HW217325   1.910   3.606  15.977  3.0886  0.5195  0.6332
 1956SOL     OW17326   3.890   3.129   2.545 -0.3122  0.6965  0.3109
 1956SOL    HW117327   3.939   3.210   2.535  2.1406 -0.5817  2.2539
 1956SOL    HW217328   3.891   3.111   2.639 -1.2492 -1.6839 -0.1280
 1957SOL     OW17329   2.246   4.000   3.408  0.3122  0.5623  0.5043
 1957SOL    HW117330   2.225   4.068   3.344 -4.0248 -0.4692  0.8377
 1957SOL    HW217331   2.225   3.918   3.362  0.5065  2.2749 -2.6076
 1958SOL     OW17332   2.166   2.507  14.059 -0.4102  0.0501 -0.1918
 1958SOL    HW117333   2.202   2.525  14.146  0.6098 -1.3943 -0.3138
 1958SOL    HW217334   2.198   2.417  14.052 -0.5821  0.0447 -0.9640
 1959SOL     OW17335   1.511   2.554  12.375 -0.2085 -0.1363  0.2096
 1959SOL    HW117336   1.482   2.490  12.440  1.8440 -0.6653  0.6123
 1959SOL    HW217337   1.566   2.494  12.326  1.4931  1.8406 -0.3269
 1960SOL     OW17338   0.938   3.606   4.382 -0.6381  0.3648  0.4472
 1960SOL    HW117339   0.846   3.620   4.402 -0.7996  1.2387 -0.9164
 1960SOL    HW217340   0.952   3.679   4.322 -0.8296  0.7302  0.8431
 1961SOL     OW17341   1.606   1.764   4.270  0.1079  0.2396 -0.5766
 1961SOL    HW117342   1.702   1.763   4.267  0.0982 -1.5281  0.1113
 1961SOL    HW217343   1.579   1.716   4.348  2.2075 -0.0578 -0.0187
 1962SOL     OW17344   0.343   0.667  10.042  0.1110  0.4186 -0.3065
 1962SOL    HW117345   0.386   0.719   9.974 -0.1462 -1.6998 -2.0840
 1962SOL    HW217346   0.382   0.583  10.018 -0.9778  0.0843 -0.8900
 1963SOL     OW17347   0.672   3.637  13.357  0.5498  0.2148 -0.0287
 1963SOL    HW117348   0.747   3.578  13.359 -0.6474 -1.2968  0.9475
 1963SOL    HW217349   0.706   3.726  13.355  2.0537 -0.3404  0.3321
 1964SOL     OW17350   1.298   3.143   1.398 -0.1545 -0.0063  0.0117
 1964SOL    HW117351   1.271   3.054   1.423 -1.4060  0.5662  0.6919
 1964SOL    HW217352   1.240   3.164   1.324 -0.1097 -2.3715 -0.7052
 1965SOL     OW17353   0.700   4.250   5.002  0.1670  0.0726 -0.3084
 1965SOL    HW117354   0.784   4.203   5.004 -0.5104 -1.1107  0.1041
 1965SOL    HW217355   0.697   4.256   4.906 -2.1127  1.1980 -0.1690
 1966SOL     OW17356   4.696   0.119  11.845  0.2186 -0.2109  0.5485
 1966SOL    HW117357   4.621   0.153  11.795  1.7195  0.4323 -1.2687
 1966SOL    HW217358   4.686   0.166  11.928 -1.4042  2.2652 -1.0448
 1967SOL     OW17359   0.279   3.324   6.985  0.4016 -0.5552  0.3785
 1967SOL    HW117360   0.237   3.349   6.903 -0.2281 -2.1846  0.1905
 1967SOL    HW217361   0.290   3.231   6.966  0.7419 -0.8948  2.2243
 1968SOL     OW17362   3.493   3.088  13.277  0.4477  0.4005 -0.1014
 1968SOL    HW117363   3.453   3.130  13.201 -2.0869 -1.8782 -0.0257
 1968SOL    HW217364   3.573   3.058  13.235  0.4057 -2.1288  1.6603
 1969SOL     OW17365   0.819   3.633   5.665 -0.1647 -0.4526  0.1927
 1969SOL    HW117366   0.735   3.591   5.684  0.4613 -0.9212  1.9211
 1969SOL    HW217367   0.784   3.696   5.602  1.4083 -0.9907 -1.2373
 1970SOL     OW17368   2.878   0.499  12.664 -0.5546  0.3976  0.6219
 1970SOL    HW117369   2.799   0.518  12.614 -0.1374  1.5515  0.4086
 1970SOL    HW217370   2.864   0.543  12.747  0.6129  0.0386  1.0067
 1971SOL     OW17371   3.136   3.635   3.052  0.2566 -0.0217 -0.5666
 1971SOL    HW117372   3.043   3.653   3.066  0.2520 -1.3343  1.1371
 1971SOL    HW217373   3.123   3.552   3.006 -2.0030  1.0251 -1.7903
 1972SOL     OW17374   2.475   2.440   3.437  0.5806 -0.0222 -0.7532
 1972SOL    HW117375   2.565   2.459   3.410  0.0139  1.0203 -1.9057
 1972SOL    HW217376   2.482   2.478   3.525 -1.7610 -1.6277  0.1215
 1973SOL     OW17377   1.837   1.541   4.986 -0.0542 -0.0427  0.4713
 1973SOL    HW117378   1.836   1.629   4.950 -1.1929 -1.5032 -3.1233
 1973SOL    HW217379   1.928   1.545   5.015 -0.0623  0.2546  0.4541
 1974SOL     OW17380   0.238   2.963  15.194 -0.1017  0.4314 -0.8536
 1974SOL    HW117381   0.249   2.947  15.288  2.3609 -2.8332 -1.6801
 1974SOL    HW217382   0.277   2.880  15.164  0.2568 -0.6666  2.6467
 1975SOL     OW17383   1.684   4.082   7.188  0.5424  1.2117  0.4533
 1975SOL    HW117384   1.664   4.168   7.153  2.0652  0.0536 -3.1974
 1975SOL    HW217385   1.708   4.035   7.109 -1.0034  0.9339  0.1512
 1976SOL     OW17386   1.212   1.486   2.293  0.4285  0.0195  0.2888
 1976SOL    HW117387   1.248   1.426   2.359 -0.1994 -0.9583 -0.2517
 1976SOL    HW217388   1.269   1.562   2.303  0.0118  0.3578  0.1180
 1977SOL     OW17389   2.472   3.570   0.957  0.0768  0.1144 -0.2371
 1977SOL    HW117390   2.412   3.500   0.980 -0.6640 -0.0952 -2.8097
 1977SOL    HW217391   2.423   3.622   0.893 -1.6443 -1.5447 -0.2627
 1978SOL     OW17392   0.215   3.794  12.694  0.5819  0.1127  0.0096
 1978SOL    HW117393   0.279   3.725  12.679 -0.6346 -1.2308  1.0097
 1978SOL    HW217394   0.205   3.826  12.604 -0.7027 -1.2786 -0.3199
 1979SOL     OW17395   1.838   2.951   3.606  0.2368 -0.1939 -0.2544
 1979SOL    HW117396   1.914   2.929   3.552 -0.9421 -0.8379 -1.6710
 1979SOL    HW217397   1.862   3.032   3.650 -1.7411 -0.6566  1.6710
 1980SOL     OW17398   2.482   4.723  10.593  0.4878 -0.0020  0.1149
 1980SOL    HW117399   2.498   4.633  10.619 -0.1982  0.2768  1.4937
 1980SOL    HW217400   2.411   4.698  10.534  0.8003 -0.0681 -0.2347
 1981SOL     OW17401   3.182   1.594   3.308  0.7647  0.2553 -0.0463
 1981SOL    HW117402   3.188   1.545   3.226  1.5274 -1.0970  0.8293
 1981SOL    HW217403   3.224   1.671   3.269  0.4015  1.4895  2.0187
 1982SOL     OW17404   3.925   3.450  15.136 -0.0829 -0.1106 -0.3610
 1982SOL    HW117405   3.972   3.523  15.098 -0.3189 -0.0992 -0.6318
 1982SOL    HW217406   3.864   3.502  15.189 -1.2303  0.6849 -2.4675
 1983SOL     OW17407   0.747   1.054   1.453  0.1345 -0.1485  0.5273
 1983SOL    HW117408   0.674   0.994   1.437 -1.1566  1.2089  1.4490
 1983SOL    HW217409   0.809   1.029   1.383  0.3405  0.5351  0.4636
 1984SOL     OW17410   4.488   4.242   5.935 -0.4896 -0.0805 -0.2305
 1984SOL    HW117411   4.454   4.242   5.846  0.6808  1.5754 -0.6837
 1984SOL    HW217412   4.410   4.225   5.988 -0.1063 -0.9306  0.0614
 1985SOL     OW17413   2.321   4.372   0.360  0.1790 -0.2472  0.2275
 1985SOL    HW117414   2.363   4.450   0.396  1.8380 -1.8060  1.6597
 1985SOL    HW217415   2.309   4.316   0.437  3.5898  1.7663  2.1823
 1986SOL     OW17416   4.285   3.197   6.857  0.4222  0.3686 -0.3722
 1986SOL    HW117417   4.353   3.134   6.880  0.1561  0.3640  0.4167
 1986SOL    HW217418   4.265   3.168   6.768  0.0178  2.2703 -0.8978
 1987SOL     OW17419   4.579   0.664   5.719  0.5614  0.0062  0.2717
 1987SOL    HW117420   4.593   0.571   5.706  0.7242  0.3357 -1.8848
 1987SOL    HW217421   4.498   0.664   5.668 -0.7609 -1.5569  2.3535
 1988SOL     OW17422   3.511   0.135   8.151 -0.3033 -0.1899 -0.0950
 1988SOL    HW117423   3.450   0.065   8.127  1.5108 -1.2750 -1.4858
 1988SOL    HW217424   3.495   0.133   8.245  0.3646 -3.9487 -0.0334
 1989SOL     OW17425   1.066   1.532   8.958 -0.1343  0.1573 -0.2436
 1989SOL    HW117426   1.025   1.457   9.004 -0.9911  1.2072  0.7198
 1989SOL    HW217427   1.152   1.538   9.000  0.2967 -0.5758 -1.0171
 1990SOL     OW17428   0.894   1.785   6.998 -0.0403 -0.2171  0.1213
 1990SOL    HW117429   0.907   1.754   6.908  0.7021  0.6428 -0.0697
 1990SOL    HW217430   0.805   1.819   6.990 -1.2879 -3.0706  1.9279
 1991SOL     OW17431   2.574   0.304   4.277 -0.1247 -0.3944  0.1843
 1991SOL    HW117432   2.662   0.279   4.249 -0.3013  0.4449 -1.1425
 1991SOL    HW217433   2.559   0.376   4.216 -2.4671 -0.5897  0.5328
 1992SOL     OW17434   1.512   0.275   4.814 -0.4884 -0.3251  0.0459
 1992SOL    HW117435   1.459   0.275   4.895  1.7340 -1.4985  1.4863
 1992SOL    HW217436   1.456   0.219   4.760 -1.0539  0.6098 -0.3351
 1993SOL     OW17437   1.764   2.443   0.514 -0.4127  0.1086  0.4590
 1993SOL    HW117438   1.747   2.497   0.437 -1.2365  1.3383  1.5021
 1993SOL    HW217439   1.852   2.409   0.499 -0.2845  1.5417 -1.9268
 1994SOL     OW17440   2.292   3.673   8.014  0.5462  0.7324 -0.4380
 1994SOL    HW117441   2.221   3.647   8.073 -0.2352  1.9681 -0.8517
 1994SOL    HW217442   2.356   3.602   8.023 -0.3178 -0.0769 -0.6969
 1995SOL     OW17443   0.229   0.191   3.986 -0.0029  0.0125  0.8704
 1995SOL    HW117444   0.216   0.100   4.012  0.9848  0.2622  2.1942
 1995SOL    HW217445   0.153   0.220   4.035  0.6424  0.7167  1.4482
 1996SOL     OW17446   2.298   2.600   5.330  0.1473  0.7282  0.0525
 1996SOL    HW117447   2.249   2.662   5.384  0.8204 -1.0514  2.7411
 1996SOL    HW217448   2.374   2.570   5.381  0.8856  1.8278 -0.3861
 1997SOL     OW17449   0.378   0.539   7.836  0.2323  0.0846  0.9106
 1997SOL    HW117450   0.367   0.512   7.927  2.5423 -0.8543  0.9042
 1997SOL    HW217451   0.341   0.465   7.787 -1.9157  1.4791  0.4247
 1998SOL     OW17452   4.381   4.333   4.765 -0.1559  0.0253 -0.1597
 1998SOL    HW117453   4.333   4.257   4.732 -1.9124  1.0188  0.1082
 1998SOL    HW217454   4.460   4.282   4.780  0.5767  1.7252  1.5915
 1999SOL     OW17455   1.034   4.183  14.640 -0.0133 -0.1262  0.1516
 1999SOL    HW117456   1.042   4.132  14.720  0.6133 -1.3033 -0.6530
 1999SOL    HW217457   1.053   4.274  14.665  0.4835 -0.4459  0.9420
 2000SOL     OW17458   3.702   2.074   4.474 -0.2906 -0.0831  0.3047
 2000SOL    HW117459   3.742   2.160   4.490  3.2716 -1.1547 -2.7861
 2000SOL    HW217460   3.779   2.027   4.443 -0.1100 -0.8457  1.9186
 2001SOL     OW17461   0.624   1.516   4.471  0.1430 -0.2953  0.2849
 2001SOL    HW117462   0.547   1.554   4.429  1.3296  0.4406 -1.2717
 2001SOL    HW217463   0.589   1.437   4.511  0.3513 -0.9176 -0.7592
 2002SOL     OW17464   0.498   3.947  10.998 -0.1871  0.2140 -0.3541
 2002SOL    HW117465   0.500   3.964  10.904  0.4260  0.1741 -0.3461
 2002SOL    HW217466   0.544   3.863  11.004  1.2273  1.0196  0.1086
 2003SOL     OW17467   2.016   1.293   6.629  0.5770  0.4805 -0.4624
 2003SOL    HW117468   1.985   1.375   6.589 -2.2240 -0.5105 -0.3421
 2003SOL    HW217469   1.927   1.265   6.650  1.3071 -0.8004  0.9155
 2004SOL     OW17470   2.888   0.429   3.661  0.5119 -0.5855 -0.0008
 2004SOL    HW117471   2.972   0.415   3.705  0.4133  1.9287  0.9448
 2004SOL    HW217472   2.824   0.449   3.729  0.2258  1.5200 -0.8839
 2005SOL     OW17473   0.489   1.497   7.243  0.0922  0.4611  0.1896
 2005SOL    HW117474   0.509   1.423   7.185  2.0917 -0.3668  1.9657
 2005SOL    HW217475   0.548   1.498   7.318 -0.0596 -2.3110  0.3499
 2006SOL     OW17476   2.279   0.250   3.400 -0.3928  0.0887  0.2299
 2006SOL    HW117477   2.329   0.262   3.319 -2.5565 -0.5327 -1.1860
 2006SOL    HW217478   2.190   0.247   3.367 -0.7209  0.6814  1.0541
 2007SOL     OW17479   1.314   3.182  17.678  0.0520 -0.0884 -0.1897
 2007SOL    HW117480   1.296   3.088  17.676 -1.6301  0.2246  0.1550
 2007SOL    HW217481   1.393   3.192  17.626  0.3735  0.5958  0.4236
 2008SOL     OW17482   4.290   1.476   4.129  0.0139  0.3024 -0.3853
 2008SOL    HW117483   4.202   1.451   4.153  0.4464 -1.5789 -0.7559
 2008SOL    HW217484   4.276   1.570   4.120  2.1991  0.6323 -0.5080
 2009SOL     OW17485   2.388   3.835   4.378 -0.6893 -1.0841 -0.6244
 2009SOL    HW117486   2.459   3.807   4.436 -0.7853 -1.9221 -0.9117
 2009SOL    HW217487   2.320   3.771   4.399 -0.1285 -1.5560 -0.2634
 2010SOL     OW17488   4.701   4.432   0.273  0.4540  0.0547 -0.1681
 2010SOL    HW117489   0.043   4.443   0.206  1.3744  1.9056  1.0605
 2010SOL    HW217490   4.628   4.382   0.238  0.0479  1.3444 -1.1625
 2011SOL     OW17491   4.044   3.824   1.497 -0.3223 -0.3405  0.8268
 2011SOL    HW117492   4.113   3.886   1.521 -1.6535  1.0918  0.9583
 2011SOL    HW217493   4.015   3.781   1.578  0.5095  2.2889  2.5185
 2012SOL     OW17494   0.250   2.079   3.531  0.1618 -0.1330 -0.3051
 2012SOL    HW117495   0.319   2.027   3.489 -0.6093 -1.9957  0.7322
 2012SOL    HW217496   0.203   2.105   3.452 -2.3507  0.6920  1.4481
 2013SOL     OW17497   0.073   4.059  17.208 -0.2515 -0.9283  0.1071
 2013SOL    HW117498   0.018   4.087  17.135 -2.4553  1.3589  2.6471
 2013SOL    HW217499   0.050   3.966  17.208 -0.3374 -0.9189  1.9036
 2014SOL     OW17500   2.176   1.717   3.564 -0.2933 -0.4697  0.2011
 2014SOL    HW117501   2.120   1.749   3.493  2.1321  5.5840  0.9573
 2014SOL    HW217502   2.201   1.630   3.531 -0.5394 -0.7551  0.7852
 2015SOL     OW17503   3.114   3.230  14.128  0.9628 -0.2785  0.1473
 2015SOL    HW117504   3.120   3.143  14.168  0.9574 -0.1040  0.5286
 2015SOL    HW217505   3.157   3.288  14.191  0.5521 -0.0683  0.2359
 2016SOL     OW17506   3.806   4.524   0.586 -0.5752  0.0235  0.0199
 2016SOL    HW117507   3.865   4.581   0.537 -1.2607 -1.5112 -2.5752
 2016SOL    HW217508   3.833   4.435   0.564 -2.1364 -1.0336  2.3434
 2017SOL     OW17509   1.561   1.584  15.559  0.1188 -0.4120 -0.6357
 2017SOL    HW117510   1.535   1.543  15.642  0.8582 -0.4810 -0.4344
 2017SOL    HW217511   1.498   1.544  15.499 -0.3479 -0.4672 -0.1119
 2018SOL     OW17512   3.702   4.710  13.431 -0.2326  0.5585  0.2406
 2018SOL    HW117513   3.649   4.642  13.390  0.7710 -1.6419  2.6529
 2018SOL    HW217514   3.675   4.700  13.522  1.0472 -0.5790  0.4873
 2019SOL     OW17515   3.755   1.675   8.438 -0.4382 -0.3522 -0.6255
 2019SOL    HW117516   3.743   1.614   8.365 -1.9898 -2.0646  1.0685
 2019SOL    HW217517   3.847   1.699   8.442 -0.4698 -0.1666 -0.9641
 2020SOL     OW17518   2.148   0.580   5.874 -0.4658 -0.3569  1.0238
 2020SOL    HW117519   2.228   0.552   5.831  0.0015 -1.3968  2.5672
 2020SOL    HW217520   2.084   0.558   5.807  1.2893  0.6711 -0.9615
 2021SOL     OW17521   1.587   2.347  11.880  0.2393 -0.6985  0.1082
 2021SOL    HW117522   1.497   2.320  11.898 -0.2289 -0.5365 -1.9838
 2021SOL    HW217523   1.594   2.415  11.946 -2.2962 -0.2822 -0.0645
 2022SOL     OW17524   2.013   3.987  11.697 -0.1074 -0.0817 -0.1493
 2022SOL    HW117525   1.946   3.979  11.629 -0.4574  1.2415  0.0356
 2022SOL    HW217526   2.084   3.938  11.656 -1.2509 -3.0228  1.3355
 2023SOL     OW17527   0.667   0.993   0.230 -0.2340 -0.4176 -0.7585
 2023SOL    HW117528   0.760   0.972   0.235 -0.1196 -0.0079 -1.1672
 2023SOL    HW217529   0.654   1.078   0.272 -1.5567 -1.8843  1.8153
 2024SOL     OW17530   4.535   2.017   5.927  0.2049 -0.4854  0.1956
 2024SOL    HW117531   4.542   1.993   6.019 -2.4996 -1.6359  0.1240
 2024SOL    HW217532   4.576   1.943   5.881 -2.3752 -2.1716  0.6378
 2025SOL     OW17533   3.869   0.015   1.061 -0.2143  0.3566 -0.2409
 2025SOL    HW117534   3.889   4.678   0.991 -1.2612 -0.4194  0.1458
 2025SOL    HW217535   3.788   0.056   1.030 -0.0551 -0.1140 -1.2608
 2026SOL     OW17536   3.832   4.626   4.538  0.0249 -0.6944  0.1326
 2026SOL    HW117537   3.747   4.654   4.503  2.3677 -1.3322 -6.1396
 2026SOL    HW217538   3.889   4.674   4.478  0.9560 -0.0248  1.5613
 2027SOL     OW17539   2.392   1.650   5.005 -0.1161  0.3827  0.0187
 2027SOL    HW117540   2.396   1.690   5.091  0.0515 -0.0231  0.1978
 2027SOL    HW217541   2.458   1.708   4.968 -1.0779  0.9566 -0.8255
 2028SOL     OW17542   0.458   3.479   2.360 -0.3329  0.2064  0.2425
 2028SOL    HW117543   0.518   3.477   2.434 -1.1981  0.5313  0.9459
 2028SOL    HW217544   0.379   3.437   2.393 -1.3553  0.7518 -1.4844
 2029SOL     OW17545   1.075   4.408   6.471 -0.7738 -0.1973  0.0650
 2029SOL    HW117546   1.003   4.449   6.519 -1.9987 -1.6966 -0.4811
 2029SOL    HW217547   1.033   4.381   6.389 -0.6486  0.6329 -0.2667
 2030SOL     OW17548   4.145   0.469  12.169 -0.7578  0.3830  0.0121
 2030SOL    HW117549   4.053   0.449  12.152 -1.1311  2.8818 -1.0314
 2030SOL    HW217550   4.151   0.490  12.262 -3.8554 -3.9304  1.2039
 2031SOL     OW17551   3.173   0.446   8.454 -0.0059  1.0290 -0.2105
 2031SOL    HW117552   3.175   0.500   8.534 -0.8884  0.2114  0.3711
 2031SOL    HW217553   3.079   0.430   8.447 -0.4364  3.1619  0.6646
 2032SOL     OW17554   3.295   1.039   6.698 -0.4870 -0.5999  0.2918
 2032SOL    HW117555   3.255   1.006   6.617  0.7721 -2.8476  0.6142
 2032SOL    HW217556   3.353   1.107   6.663 -0.6967 -0.3820  0.3660
 2033SOL     OW17557   4.694   4.416   5.858 -0.0716 -0.4776 -0.3269
 2033SOL    HW117558   4.697   4.393   5.765  1.3617  1.7412 -0.8227
 2033SOL    HW217559   4.630   4.357   5.897  0.1532  0.6811  1.8070
 2034SOL     OW17560   0.096   0.685  10.163 -0.7431 -0.1343 -0.0282
 2034SOL    HW117561   0.054   0.600  10.148 -1.7138  0.3276  0.0408
 2034SOL    HW217562   0.170   0.686  10.103 -0.5151 -2.3376  0.2102
 2035SOL     OW17563   4.525   1.529   2.275  0.3472 -0.5527  0.1204
 2035SOL    HW117564   4.580   1.478   2.335  1.6256  1.3667  0.5783
 2035SOL    HW217565   4.476   1.459   2.233 -0.9981  2.1167 -2.7323
 2036SOL     OW17566   1.623   4.188   4.048  0.0038 -0.0689 -0.1030
 2036SOL    HW117567   1.649   4.103   4.014 -0.6507 -0.8334  1.3127
 2036SOL    HW217568   1.616   4.235   3.964  1.0120  1.6571  0.7771
 2037SOL     OW17569   2.953   0.862  15.756  0.1732  0.8878 -0.4722
 2037SOL    HW117570   3.030   0.815  15.788 -0.5054  0.4434  0.5160
 2037SOL    HW217571   2.877   0.836  15.808  1.0064  0.6681  0.6524
 2038SOL     OW17572   1.486   0.746  10.169  0.0209 -0.2097 -0.2273
 2038SOL    HW117573   1.393   0.759  10.150  0.1246 -1.2306 -1.4290
 2038SOL    HW217574   1.472   0.732  10.263  0.7071  1.9620  0.1962
 2039SOL     OW17575   0.705   0.747   3.465 -0.2699  0.2367 -0.1904
 2039SOL    HW117576   0.612   0.725   3.459 -0.1130 -1.2407  2.6886
 2039SOL    HW217577   0.695   0.842   3.474 -1.0403 -0.0078  1.5695
 2040SOL     OW17578   3.503   4.550   5.652 -0.3819 -0.4798 -0.0708
 2040SOL    HW117579   3.411   4.571   5.641 -0.9291 -1.6245  2.2506
 2040SOL    HW217580   3.498   4.455   5.640 -2.5825 -0.3271 -0.2753
 2041SOL     OW17581   0.977   0.717   7.339  0.1643 -0.2944 -0.0263
 2041SOL    HW117582   0.934   0.669   7.268  1.0208 -1.7597  0.4311
 2041SOL    HW217583   0.993   0.641   7.395  1.6057 -0.8711 -1.2044
 2042SOL     OW17584   3.161   3.631   5.903  0.2593  0.1885  0.1963
 2042SOL    HW117585   3.108   3.571   5.956 -0.7529  0.6184 -0.3388
 2042SOL    HW217586   3.241   3.649   5.951 -0.2625  0.4504  0.9667
 2043SOL     OW17587   4.084   4.560  11.375 -0.6735  0.0693  0.0008
 2043SOL    HW117588   4.006   4.504  11.371 -0.2504 -0.5060 -0.1415
 2043SOL    HW217589   4.096   4.581  11.283  0.8382  1.4530  0.5061
 2044SOL     OW17590   2.463   0.236   6.550 -0.1647  0.2499  0.6459
 2044SOL    HW117591   2.483   0.273   6.464 -2.1982  0.7273  0.3729
 2044SOL    HW217592   2.538   0.256   6.606 -0.7491  0.4745  1.3490
 2045SOL     OW17593   3.366   3.053   3.317  0.5500 -0.1080 -0.3099
 2045SOL    HW117594   3.343   3.076   3.227  0.1843 -2.6022 -0.8692
 2045SOL    HW217595   3.311   3.122   3.353  0.0473 -0.6157 -0.0959
 2046SOL     OW17596   0.083   0.637   6.635  0.6162  0.6089  0.2432
 2046SOL    HW117597   0.169   0.635   6.676  0.3054  1.9472  0.9878
 2046SOL    HW217598   0.081   0.542   6.622  1.5555  0.7207 -0.6687
 2047SOL     OW17599   2.039   2.585  15.930  0.2002 -0.3959  0.7025
 2047SOL    HW117600   2.068   2.606  15.841  1.6044 -0.9504  1.0275
 2047SOL    HW217601   2.106   2.518  15.949 -1.1647 -1.7748  0.6279
 2048SOL     OW17602   4.618   1.894   2.946  0.1331 -0.0944 -0.2048
 2048SOL    HW117603   4.611   1.944   3.027  0.1691 -1.6024  0.7418
 2048SOL    HW217604   4.712   1.874   2.949  0.5871  2.0391 -0.2395
 2049SOL     OW17605   0.342   3.204   8.490 -0.3575  0.2527  0.1268
 2049SOL    HW117606   0.398   3.204   8.413 -0.0583  0.9303  0.3402
 2049SOL    HW217607   0.322   3.111   8.499  1.1219 -0.1106 -0.2669
 2050SOL     OW17608   1.510   4.371   6.597  0.1953 -0.0344 -0.2794
 2050SOL    HW117609   1.592   4.341   6.560  1.4208  1.0011  1.5846
 2050SOL    HW217610   1.537   4.438   6.661 -1.4547 -1.0943  1.5431
 2051SOL     OW17611   2.777   2.827   6.601  0.1759  0.4944 -0.3258
 2051SOL    HW117612   2.770   2.797   6.691 -1.5887 -0.6048 -0.8279
 2051SOL    HW217613   2.693   2.798   6.564  0.4675 -0.3449 -0.3327
 2052SOL     OW17614   4.262   4.072   2.116  0.1618  0.5517  0.4054
 2052SOL    HW117615   4.244   4.080   2.210 -2.3395  1.3378 -0.1321
 2052SOL    HW217616   4.268   3.978   2.104  0.4251  0.5343  0.6725
 2053SOL     OW17617   0.740   3.315   9.323  0.0617 -0.4025  0.2177
 2053SOL    HW117618   0.803   3.353   9.385 -1.4281  2.0379  0.2275
 2053SOL    HW217619   0.709   3.396   9.283 -1.5959 -1.6176 -0.9527
 2054SOL     OW17620   1.667   1.981  15.720 -0.2725  1.1596 -1.0007
 2054SOL    HW117621   1.746   1.979  15.666  1.0177 -0.4720  0.9219
 2054SOL    HW217622   1.650   2.074  15.737 -2.6162  0.1785  1.9756
 2055SOL     OW17623   4.126   0.237   7.026 -0.3124 -0.8982 -0.4971
 2055SOL    HW117624   4.192   0.254   7.092  0.4983 -1.6927 -1.0986
 2055SOL    HW217625   4.152   0.150   6.997 -0.3102 -1.5701  1.5227
 2056SOL     OW17626   4.058   2.028   1.325  0.3018  0.1087  0.1361
 2056SOL    HW117627   4.093   2.046   1.238 -0.0926  2.9249  0.5776
 2056SOL    HW217628   3.971   2.067   1.328  0.6702  0.8875  0.8014
 2057SOL     OW17629   1.450   3.295   5.585 -0.0944  0.3898 -0.2348
 2057SOL    HW117630   1.457   3.308   5.679  1.7677 -0.4921 -0.2464
 2057SOL    HW217631   1.357   3.309   5.571 -0.2471 -0.1124  0.3231
 2058SOL     OW17632   0.780   2.692   0.013  0.3831 -0.1431  0.7644
 2058SOL    HW117633   0.775   2.596   0.016 -1.8171 -0.1277 -1.9748
 2058SOL    HW217634   0.872   2.698   0.038  0.4195 -1.9359  1.0529
 2059SOL     OW17635   2.091   3.952   2.302 -0.5985 -0.0459 -0.1269
 2059SOL    HW117636   2.070   3.899   2.226 -0.3870 -0.0087 -0.2141
 2059SOL    HW217637   2.186   3.968   2.295 -0.4280 -1.0664 -0.0993
 2060SOL     OW17638   4.485   2.080   9.238 -0.9130  0.7454 -0.2151
 2060SOL    HW117639   4.405   2.031   9.259 -0.9109  0.6506 -0.4244
 2060SOL    HW217640   4.507   2.103   9.328  2.4292  0.5916 -0.9941
 2061SOL     OW17641   2.780   4.314  13.634 -0.5734  0.2622  0.2673
 2061SOL    HW117642   2.787   4.260  13.713  0.9536 -0.0440 -0.0758
 2061SOL    HW217643   2.854   4.278  13.585 -0.4607  0.8120  0.0307
 2062SOL     OW17644   2.240   3.638   5.508 -0.0070 -0.1070 -0.2594
 2062SOL    HW117645   2.244   3.661   5.601  0.7978  4.6859 -1.4483
 2062SOL    HW217646   2.176   3.567   5.515  0.7550 -0.7830 -0.2030
 2063SOL     OW17647   1.954   1.518   7.431  0.0427  0.1482  0.1534
 2063SOL    HW117648   2.005   1.573   7.490 -1.9091  1.9503  0.1573
 2063SOL    HW217649   1.866   1.532   7.466  1.1186  1.2149  2.4385
 2064SOL     OW17650   2.749   2.754   2.853  0.7169  0.0356 -0.1503
 2064SOL    HW117651   2.713   2.679   2.805  1.6579 -0.0112 -0.7893
 2064SOL    HW217652   2.804   2.797   2.787  0.4722  1.8661  0.8526
 2065SOL     OW17653   3.787   0.117   5.350  0.4022 -0.4442 -0.0875
 2065SOL    HW117654   3.747   0.203   5.366 -0.0861 -0.8530  0.9555
 2065SOL    HW217655   3.774   0.078   5.437  1.4609  2.7205  1.5079
 2066SOL     OW17656   1.625   0.547   8.943 -0.1817 -0.0441  0.2219
 2066SOL    HW117657   1.575   0.466   8.940 -1.6227  0.8313  1.0302
 2066SOL    HW217658   1.580   0.594   8.873 -0.8596 -1.3005 -0.1725
 2067SOL     OW17659   2.717   1.746   6.658  0.2962  0.5523 -0.1235
 2067SOL    HW117660   2.721   1.653   6.680 -1.6209  0.1893 -1.3433
 2067SOL    HW217661   2.809   1.770   6.667  0.3484  0.7613 -1.1460
 2068SOL     OW17662   2.275   2.737   4.226 -0.7360  0.2345 -0.8268
 2068SOL    HW117663   2.323   2.801   4.174 -1.8460  2.7634  1.2513
 2068SOL    HW217664   2.201   2.789   4.256 -0.0280  1.1689 -0.7266
 2069SOL     OW17665   1.138   2.255   6.698 -0.7487 -0.4203  0.1232
 2069SOL    HW117666   1.086   2.303   6.763 -1.9501 -0.7513 -0.5981
 2069SOL    HW217667   1.176   2.324   6.643  0.2617  1.2148  2.8778
 2070SOL     OW17668   1.571   2.506   8.674  0.1188 -0.3521  0.4079
 2070SOL    HW117669   1.530   2.475   8.755 -0.7099  3.0385  1.3120
 2070SOL    HW217670   1.538   2.596   8.673 -0.2938 -0.5116 -0.7866
 2071SOL     OW17671   0.349   2.035   4.441  0.2215 -0.0904  0.0510
 2071SOL    HW117672   0.358   1.984   4.521  2.1577  1.2670  0.6872
 2071SOL    HW217673   0.254   2.047   4.431  0.3713  2.1627  1.2201
 2072SOL     OW17674   0.481   2.768   6.501  0.6959  0.6088  0.2691
 2072SOL    HW117675   0.540   2.693   6.506 -1.3954 -1.0174  0.8609
 2072SOL    HW217676   0.529   2.827   6.559 -0.5570  1.9909 -0.0928
 2073SOL     OW17677   2.677   2.945   7.208  0.1934 -0.3182  0.1750
 2073SOL    HW117678   2.610   2.896   7.160  0.2263 -0.8228  0.6470
 2073SOL    HW217679   2.731   2.981   7.137 -0.9094  1.3378  0.1999
 2074SOL     OW17680   2.880   4.662   6.903  0.1096  0.3293 -0.2064
 2074SOL    HW117681   2.800   4.646   6.853  1.5228 -0.1405 -2.3572
 2074SOL    HW217682   2.845   4.711   6.977  3.4538 -1.9527  2.9050
 2075SOL     OW17683   2.348   1.426   7.408  0.2284 -0.1615 -0.2205
 2075SOL    HW117684   2.300   1.497   7.365  0.9299  1.6856  2.0501
 2075SOL    HW217685   2.404   1.491   7.450  0.8509 -1.1243  0.4186
 2076SOL     OW17686   2.628   0.132   5.480  0.1556 -0.0819 -0.6943
 2076SOL    HW117687   2.718   0.164   5.474 -0.0917  0.3232 -2.1826
 2076SOL    HW217688   2.638   0.063   5.415  1.5886  1.4905 -2.1622
 2077SOL     OW17689   4.007   2.340   4.172 -0.0944  0.2901  0.0522
 2077SOL    HW117690   4.026   2.414   4.114 -0.7296  0.4430  0.0356
 2077SOL    HW217691   4.091   2.294   4.174 -0.4296 -0.3652 -0.6786
 2078SOL     OW17692   2.646   2.601   2.674 -0.2000  0.7519 -0.5699
 2078SOL    HW117693   2.563   2.559   2.695 -0.3318  1.7784  0.9658
 2078SOL    HW217694   2.659   2.556   2.590 -1.4936  0.8757 -0.8364
 2079SOL     OW17695   2.900   3.595   8.893 -0.3654 -0.0006  0.1087
 2079SOL    HW117696   2.960   3.535   8.937 -1.8271 -0.6518  1.2151
 2079SOL    HW217697   2.964   3.631   8.832 -0.6094 -0.6477 -0.5242
 2080SOL     OW17698   4.250   3.383   7.944  0.6196  0.2334  0.2015
 2080SOL    HW117699   4.194   3.313   7.909  2.4828 -1.3860  0.4806
 2080SOL    HW217700   4.321   3.378   7.880 -0.6417  2.2892 -1.3727
 2081SOL     OW17701   3.151   2.561   9.600  0.1911  0.3176 -0.3675
 2081SOL    HW117702   3.181   2.471   9.613  1.7486  0.8266 -0.4797
 2081SOL    HW217703   3.228   2.608   9.631 -0.1303 -1.7054  3.4243
 2082SOL     OW17704   1.379   3.584  11.167 -0.0672  0.1130 -0.4814
 2082SOL    HW117705   1.472   3.586  11.146  0.1181 -0.3050  0.3152
 2082SOL    HW217706   1.363   3.490  11.170 -0.6770  0.2658  1.2308
 2083SOL     OW17707   2.519   2.585   3.688 -0.6035 -0.1603 -0.3808
 2083SOL    HW117708   2.582   2.531   3.736  1.2735  3.1457  0.8105
 2083SOL    HW217709   2.461   2.609   3.760 -0.7738 -1.2597 -0.1509
 2084SOL     OW17710   4.613   4.381  11.489 -0.7661  0.1842 -0.2307
 2084SOL    HW117711   4.545   4.317  11.510 -0.0118  0.1461  2.1036
 2084SOL    HW217712   4.594   4.398  11.397  0.2037 -0.3997 -0.5422
 2085SOL     OW17713   1.252   1.669   8.143 -0.0926  0.0243  0.1525
 2085SOL    HW117714   1.205   1.620   8.210  0.8920 -0.5386  0.4274
 2085SOL    HW217715   1.343   1.643   8.153 -0.2769  0.2832  2.6106
 2086SOL     OW17716   3.170   0.524   0.363 -0.6394 -0.1455  0.5751
 2086SOL    HW117717   3.154   0.503   0.455 -1.6006 -0.1887  0.3915
 2086SOL    HW217718   3.089   0.499   0.319 -0.6169 -0.7773  0.8793
 2087SOL     OW17719   4.370   3.840   7.541 -0.7344 -0.2056  0.3705
 2087SOL    HW117720   4.317   3.880   7.473 -0.0277  3.3962  1.9385
 2087SOL    HW217721   4.445   3.806   7.493  0.5351  3.1319 -0.0351
 2088SOL     OW17722   2.960   0.027   7.398  0.0277 -0.4989 -0.3880
 2088SOL    HW117723   2.948   0.119   7.376  0.0988  0.3082  2.8619
 2088SOL    HW217724   3.052   0.028   7.425  0.4891  0.0526 -1.9759
 2089SOL     OW17725   4.326   3.651   7.733 -0.3636 -0.4066  0.2465
 2089SOL    HW117726   4.340   3.710   7.659 -0.4935 -3.0018 -1.8326
 2089SOL    HW217727   4.233   3.663   7.751 -0.7789 -0.2491 -2.0536
 2090SOL     OW17728   4.005   1.594   8.189  0.3105 -0.7956  0.2403
 2090SOL    HW117729   4.040   1.528   8.248 -1.5199 -2.6935 -0.8196
 2090SOL    HW217730   3.917   1.556   8.190  0.1795 -0.4967  0.2763
 2091SOL     OW17731   1.909   2.452   2.328 -0.6343  0.1414  0.3179
 2091SOL    HW117732   1.886   2.545   2.324  2.1008  0.8603  1.6331
 2091SOL    HW217733   1.876   2.427   2.241 -1.1955 -0.4771  0.7084
 2092SOL     OW17734   0.733   1.302   5.111  0.1313  0.2098 -0.1320
 2092SOL    HW117735   0.652   1.285   5.062  0.3612  2.0457 -1.1336
 2092SOL    HW217736   0.700   1.291   5.201  0.5779 -0.5443 -0.0669
 2093SOL     OW17737   4.268   2.112   9.756  0.2646  0.4479 -0.2064
 2093SOL    HW117738   4.334   2.046   9.734 -0.8954 -0.5199 -0.7730
 2093SOL    HW217739   4.272   2.178   9.687  0.0604 -0.8114 -1.4265
 2094SOL     OW17740   0.593   2.386   2.842  0.3263  0.3997  0.4374
 2094SOL    HW117741   0.558   2.391   2.931  0.5728 -0.5808  0.5893
 2094SOL    HW217742   0.548   2.311   2.805 -2.0381  1.1335  1.8201
 2095SOL     OW17743   4.163   3.907   8.095  0.3958  0.3663 -0.5086
 2095SOL    HW117744   4.092   3.857   8.055 -0.0028  0.4335  0.1079
 2095SOL    HW217745   4.139   3.998   8.082 -0.1955  0.0356 -1.7442
 2096SOL     OW17746   0.353   2.350   7.237 -0.1413 -0.4636 -0.3111
 2096SOL    HW117747   0.351   2.443   7.260  2.4477 -0.1346 -1.4950
 2096SOL    HW217748   0.410   2.319   7.308 -1.3465 -0.7387  0.5528
 2097SOL     OW17749   0.853   0.102   6.271  0.1605 -0.3190 -0.1056
 2097SOL    HW117750   0.879   0.049   6.196  0.8671  0.4182 -0.3813
 2097SOL    HW217751   0.786   0.156   6.229 -1.5734 -2.1210  0.3354
 2098SOL     OW17752   0.478   0.266  12.077 -0.0195  0.2661  0.0523
 2098SOL    HW117753   0.400   0.253  12.023 -0.2920  2.0099  0.0065
 2098SOL    HW217754   0.449   0.341  12.129 -0.2654  0.2294 -0.0312
 2099SOL     OW17755   2.365   4.424  10.533 -0.6216 -0.3588  0.1601
 2099SOL    HW117756   2.387   4.335  10.506  3.2575  1.1299 -1.6565
 2099SOL    HW217757   2.429   4.443  10.601 -0.3513  0.9188 -0.4389
 2100SOL     OW17758   4.090   4.029   2.370 -0.3274 -0.0720  0.3890
 2100SOL    HW117759   4.012   4.033   2.315 -0.4120  1.0394  0.5843
 2100SOL    HW217760   4.090   3.934   2.384 -0.7466  0.0737  1.3728
 2101SOL     OW17761   2.069   4.303   3.611 -0.2720  0.1517 -0.2324
 2101SOL    HW117762   2.063   4.211   3.635 -1.9511  0.2155 -0.3972
 2101SOL    HW217763   2.104   4.338   3.693  0.5657  2.0555 -1.4087
 2102SOL     OW17764   0.594   0.918   4.149  0.2556  0.0645  0.3291
 2102SOL    HW117765   0.595   0.933   4.243  0.5005 -1.8724  0.6339
 2102SOL    HW217766   0.614   0.825   4.154  0.8201  0.1423 -0.4753
 2103SOL     OW17767   3.306   1.942   7.800 -0.1677 -0.1838 -0.4374
 2103SOL    HW117768   3.210   1.941   7.808 -0.0091 -3.7408  0.6869
 2103SOL    HW217769   3.319   1.871   7.738  0.1913  0.1847 -0.7858
 2104SOL     OW17770   0.613   3.182  10.885  0.2945 -0.2406 -0.0461
 2104SOL    HW117771   0.604   3.091  10.856 -0.0988 -0.0183 -0.6136
 2104SOL    HW217772   0.697   3.200  10.841 -1.5269  1.6006 -2.7350
 2105SOL     OW17773   3.324   1.994   0.203  0.6311 -0.0764 -0.1258
 2105SOL    HW117774   3.289   2.071   0.248 -1.7825 -1.3735  0.2484
 2105SOL    HW217775   3.352   1.961   0.289  1.1483 -2.9346 -1.4052
 2106SOL     OW17776   4.226   4.111   9.344  0.2323  0.4871 -0.4537
 2106SOL    HW117777   4.153   4.172   9.340 -0.7300 -0.6272  0.2423
 2106SOL    HW217778   4.296   4.144   9.288 -0.4483 -1.7014 -2.5793
 2107SOL     OW17779   1.477   0.996   8.944  0.2702 -0.2814 -0.3994
 2107SOL    HW117780   1.567   0.965   8.936  1.3932  3.2785 -1.5816
 2107SOL    HW217781   1.458   1.014   9.036 -1.9099 -1.1561 -0.6740
 2108SOL     OW17782   4.685   4.397   3.004 -0.1620  0.0374  0.1193
 2108SOL    HW117783   4.639   4.350   3.074  0.3850 -0.5012  0.1159
 2108SOL    HW217784   4.657   4.346   2.928 -0.7064 -0.7909  0.8651
 2109SOL     OW17785   2.242   1.678  15.822 -0.0369  0.5376  0.0018
 2109SOL    HW117786   2.212   1.708  15.907 -0.4935 -1.0824  0.4197
 2109SOL    HW217787   2.312   1.620  15.851 -0.9255 -0.5748 -0.0670
 2110SOL     OW17788   0.210   0.272   2.088  0.0169 -0.1098  0.0995
 2110SOL    HW117789   0.121   0.303   2.106  1.1596  2.7286  0.9953
 2110SOL    HW217790   0.209   0.273   1.993  0.7082 -3.0356  0.0571
 2111SOL     OW17791   2.250   4.338   7.508 -0.2089 -0.7196 -0.0006
 2111SOL    HW117792   2.229   4.381   7.591 -1.6548 -0.5748 -0.4360
 2111SOL    HW217793   2.197   4.259   7.508  0.5098 -1.2008 -0.7483
 2112SOL     OW17794   3.313   3.976  11.810 -0.0584  0.3008 -0.4384
 2112SOL    HW117795   3.311   4.072  11.817 -0.7015  0.2318  0.1832
 2112SOL    HW217796   3.244   3.953  11.871 -0.4020  0.6937 -0.6774
 2113SOL     OW17797   0.925   0.719   1.093  0.2398  0.0853 -0.8429
 2113SOL    HW117798   0.835   0.684   1.092  0.1338  0.3058  1.4307
 2113SOL    HW217799   0.965   0.642   1.052 -0.0184  0.1965 -1.3056
 2114SOL     OW17800   1.976   3.789   9.562  0.0166  0.4108 -0.3355
 2114SOL    HW117801   1.914   3.801   9.490 -0.7344  0.5919  0.3448
 2114SOL    HW217802   1.951   3.857   9.623  1.5198  0.1039  0.6349
 2115SOL     OW17803   2.153   1.247   8.007 -0.0937 -0.2376 -0.8489
 2115SOL    HW117804   2.119   1.243   7.918 -1.3228 -0.3842 -0.3769
 2115SOL    HW217805   2.127   1.338   8.022  0.0306 -0.2983 -0.2470
 2116SOL     OW17806   2.710   1.398   5.702 -1.1102  0.0097  0.0201
 2116SOL    HW117807   2.670   1.403   5.615 -1.1454 -1.9621 -0.0701
 2116SOL    HW217808   2.804   1.402   5.686 -1.4905 -0.7590 -2.3260
 2117SOL     OW17809   1.378   2.357   4.822 -0.0639 -0.5626  0.1461
 2117SOL    HW117810   1.351   2.273   4.859 -0.3397 -0.9145 -0.8654
 2117SOL    HW217811   1.453   2.318   4.777 -0.2385  0.8938 -1.3998
 2118SOL     OW17812   3.175   0.941  10.195  0.1899  0.4787  1.0267
 2118SOL    HW117813   3.117   0.974  10.264  0.4157  0.5252  1.1909
 2118SOL    HW217814   3.147   0.983  10.113 -1.8892  1.5231  2.2738
 2119SOL     OW17815   3.215   3.417   0.780 -0.2086 -0.1530 -0.7815
 2119SOL    HW117816   3.160   3.340   0.794 -1.2662  0.8657  0.6403
 2119SOL    HW217817   3.159   3.463   0.718 -0.9296  0.4683  0.3275
 2120SOL     OW17818   3.459   2.044   2.832  0.8350 -0.2897  0.2772
 2120SOL    HW117819   3.479   1.951   2.835  2.0823 -0.0358 -0.1932
 2120SOL    HW217820   3.541   2.084   2.860  0.0352  2.2672 -1.0077
 2121SOL     OW17821   3.174   4.017   5.029 -0.1782  0.0467  0.0962
 2121SOL    HW117822   3.175   4.023   4.933  2.4059  2.6628  0.2913
 2121SOL    HW217823   3.162   4.110   5.047 -0.3603 -0.7548  3.9380
 2122SOL     OW17824   1.374   1.064   8.524 -0.1662 -0.2763 -0.3806
 2122SOL    HW117825   1.403   1.146   8.566  0.4741 -0.3563 -0.6625
 2122SOL    HW217826   1.377   0.997   8.592  3.3451 -1.2502 -1.5122
 2123SOL     OW17827   4.197   0.300  11.920 -0.2863  0.8020 -0.3977
 2123SOL    HW117828   4.212   0.353  11.999 -0.6033 -2.1417  1.6542
 2123SOL    HW217829   4.257   0.226  11.929  1.2294  1.8264 -2.1721
 2124SOL     OW17830   2.109   1.948   4.237 -0.0137  0.4299 -0.2891
 2124SOL    HW117831   2.107   1.993   4.322 -1.6607  2.5409 -1.4354
 2124SOL    HW217832   2.123   2.022   4.179 -0.2069  0.1428 -0.7011
 2125SOL     OW17833   3.581   2.360   5.167 -0.2774 -0.3112  0.3264
 2125SOL    HW117834   3.657   2.417   5.152 -0.7603 -0.1264 -1.4207
 2125SOL    HW217835   3.524   2.384   5.094 -0.5081 -0.5162  0.4391
 2126SOL     OW17836   0.470   2.199   2.664 -0.2025 -0.3015 -0.7259
 2126SOL    HW117837   0.510   2.112   2.673  2.3370  1.0622  0.9657
 2126SOL    HW217838   0.444   2.187   2.572 -1.5953  0.3275 -0.4049
 2127SOL     OW17839   0.504   1.787  15.008  0.0246  0.5802 -0.0773
 2127SOL    HW117840   0.514   1.877  14.976  1.1510  0.9461  1.2879
 2127SOL    HW217841   0.474   1.741  14.930  1.3399 -2.2834  1.1224
 2128SOL     OW17842   3.929   2.747  10.708  0.0491 -0.5972 -0.0268
 2128SOL    HW117843   3.924   2.828  10.759  0.6297  0.5007 -1.7417
 2128SOL    HW217844   3.876   2.762  10.630 -0.0210 -2.4022 -0.3323
 2129SOL     OW17845   1.144   1.863   0.492 -0.5157 -0.3366  0.1000
 2129SOL    HW117846   1.053   1.883   0.514 -0.4832  0.5329 -0.5625
 2129SOL    HW217847   1.174   1.823   0.573  1.2941  1.1099  0.1342
 2130SOL     OW17848   2.806   1.231   2.960 -0.2657  0.2489  0.5662
 2130SOL    HW117849   2.769   1.152   2.919  2.9993 -2.0869  2.1050
 2130SOL    HW217850   2.889   1.244   2.913  0.1309  0.6777  1.3863
 2131SOL     OW17851   0.019   4.377   4.642 -0.4094  0.0034  0.2604
 2131SOL    HW117852   0.003   4.436   4.569  1.7490 -1.4431 -1.3718
 2131SOL    HW217853   4.687   4.414   4.710 -2.3307 -0.6684 -0.9998
 2132SOL     OW17854   2.796   1.309   6.180 -0.0198 -0.0141  0.6289
 2132SOL    HW117855   2.769   1.381   6.237 -0.4515  0.6367 -0.4059
 2132SOL    HW217856   2.740   1.316   6.103  0.9981 -1.4450 -0.2568
 2133SOL     OW17857   3.643   1.784  10.844  0.2783 -0.3410 -0.5593
 2133SOL    HW117858   3.664   1.822  10.930  0.3790 -0.5757 -0.4823
 2133SOL    HW217859   3.676   1.854  10.786  0.5361  0.0201  0.0197
 2134SOL     OW17860   0.316   0.004   7.545  0.0897  0.1959  0.7437
 2134SOL    HW117861   0.407   0.014   7.575  0.5024  3.2776 -1.5517
 2134SOL    HW217862   0.267   4.717   7.626  0.3110  1.3325  1.0649
 2135SOL     OW17863   2.391   3.294   0.398 -0.2133  0.1726  0.4524
 2135SOL    HW117864   2.352   3.379   0.376 -1.2407 -0.5330 -0.5067
 2135SOL    HW217865   2.475   3.314   0.439 -0.7398  0.6028  1.3124
 2136SOL     OW17866   1.027   4.307  13.284  0.1259 -0.4138 -0.0474
 2136SOL    HW117867   0.972   4.238  13.246  1.2003 -0.9033 -0.6903
 2136SOL    HW217868   1.105   4.265  13.318  0.3200 -0.5174 -0.6330
 2137SOL     OW17869   3.882   1.661  17.186  0.1475  0.1181 -0.1533
 2137SOL    HW117870   3.807   1.699  17.231  0.0823 -1.0090  0.6831
 2137SOL    HW217871   3.950   1.699  17.242  0.8526 -0.4923 -0.5884
 2138SOL     OW17872   3.409   0.334  13.106  0.3220  0.5381 -0.3649
 2138SOL    HW117873   3.343   0.346  13.038  1.7454  1.3393 -1.6164
 2138SOL    HW217874   3.466   0.263  13.077  0.6594  0.4794  0.4569
 2139SOL     OW17875   1.438   2.008   3.960  0.4061 -0.1271 -0.2217
 2139SOL    HW117876   1.454   1.997   4.054  0.1674 -2.8720 -0.4968
 2139SOL    HW217877   1.346   2.031   3.953  1.2752  2.7972 -2.1501
 2140SOL     OW17878   3.326   3.995  10.346 -0.1801 -0.0183  0.2791
 2140SOL    HW117879   3.309   4.001  10.440  0.0520 -2.9997  0.5129
 2140SOL    HW217880   3.306   3.903  10.329  0.4166 -0.3089  1.1564
 2141SOL     OW17881   1.390   4.172  11.751 -0.7118  0.3892  0.3565
 2141SOL    HW117882   1.385   4.225  11.830  0.1698  0.0080  0.6715
 2141SOL    HW217883   1.386   4.234  11.679 -2.8833  3.0994  2.8022
 2142SOL     OW17884   1.197   0.492   4.222 -0.3111  0.2850  0.8457
 2142SOL    HW117885   1.287   0.498   4.191 -1.1918 -5.2445 -3.0193
 2142SOL    HW217886   1.189   0.408   4.268 -3.0457  0.0417 -0.0414
 2143SOL     OW17887   1.539   3.506   4.817  0.1188 -0.3733  0.6165
 2143SOL    HW117888   1.480   3.468   4.752  0.0898 -0.8438  0.9180
 2143SOL    HW217889   1.490   3.524   4.897 -0.7859 -0.0362 -0.0195
 2144SOL     OW17890   4.312   2.067   6.188 -0.3506 -0.2349  0.0094
 2144SOL    HW117891   4.298   2.109   6.103 -1.2349 -0.3779  0.0843
 2144SOL    HW217892   4.337   2.139   6.245 -2.4038  0.5135 -0.0503
 2145SOL     OW17893   3.842   3.288  14.945 -0.6624 -0.1477 -0.2469
 2145SOL    HW117894   3.873   3.336  15.022 -0.8613  3.5857 -2.4964
 2145SOL    HW217895   3.816   3.361  14.888 -1.9572  1.3443  2.2600
 2146SOL     OW17896   2.205   1.509   2.823  0.1422 -0.6485  0.3255
 2146SOL    HW117897   2.236   1.534   2.910 -1.7169  0.0539  0.7846
 2146SOL    HW217898   2.207   1.595   2.780  1.0986 -0.5127  0.6331
 2147SOL     OW17899   3.915   2.318   2.372  0.2205  0.2773  0.2115
 2147SOL    HW117900   3.997   2.271   2.382 -0.7986 -0.9382  2.8867
 2147SOL    HW217901   3.943   2.409   2.367  2.7921 -0.5808 -1.0856
 2148SOL     OW17902   1.641   3.619   7.131 -0.6067  0.1550 -0.2992
 2148SOL    HW117903   1.731   3.612   7.101 -0.4253 -0.3606  0.3648
 2148SOL    HW217904   1.604   3.532   7.114  0.0447  0.2078 -2.0075
 2149SOL     OW17905   3.931   1.182   4.360 -0.3378  0.2509  0.3142
 2149SOL    HW117906   3.941   1.186   4.265  0.4024 -0.0016  0.3826
 2149SOL    HW217907   3.930   1.090   4.384  0.0664  0.8007  2.4759
 2150SOL     OW17908   2.788   3.853  14.314  0.3774  0.0238 -0.4235
 2150SOL    HW117909   2.851   3.871  14.383 -0.5627 -2.2741  1.0520
 2150SOL    HW217910   2.819   3.899  14.236  0.2861 -0.1463 -0.5620
 2151SOL     OW17911   1.767   1.620   6.071 -0.1831  0.1765  0.0985
 2151SOL    HW117912   1.687   1.672   6.064  0.3250  1.1260  1.4446
 2151SOL    HW217913   1.812   1.656   5.994  0.0977 -0.5688 -0.0887
 2152SOL     OW17914   0.641   2.441   3.901  0.4854  0.3011 -0.5724
 2152SOL    HW117915   0.615   2.361   3.856 -3.8811  1.0895  0.5624
 2152SOL    HW217916   0.650   2.502   3.828  2.0333  0.3954 -0.3032
 2153SOL     OW17917   0.934   0.572   8.962  0.2878 -0.7523 -0.3017
 2153SOL    HW117918   0.971   0.539   8.880 -0.0518  1.5901 -1.3849
 2153SOL    HW217919   0.965   0.508   9.026  1.3167  1.2645  1.1909
 2154SOL     OW17920   3.260   4.633   0.466  0.1281 -0.0029 -0.0545
 2154SOL    HW117921   3.297   4.684   0.394  0.7600 -1.3000 -0.6539
 2154SOL    HW217922   3.333   4.628   0.528 -1.2821 -1.3835  1.4941
 2155SOL     OW17923   1.110   3.063   2.186 -0.1638 -0.0703  0.0502
 2155SOL    HW117924   1.023   3.088   2.154  0.1829  1.0053 -0.0552
 2155SOL    HW217925   1.142   3.141   2.232  0.0807 -0.0207 -0.2009
 2156SOL     OW17926   2.451   1.202   6.437  0.1268  0.0556  0.5671
 2156SOL    HW117927   2.514   1.262   6.477 -0.9965  0.2675  1.9806
 2156SOL    HW217928   2.429   1.144   6.509 -1.5964 -0.0514 -0.0469
 2157SOL     OW17929   3.591   0.197  11.456 -0.2743  0.3429  0.2215
 2157SOL    HW117930   3.625   0.284  11.437 -1.2911  0.4940 -0.8747
 2157SOL    HW217931   3.633   0.153  11.382 -1.4573 -0.1032 -0.1709
 2158SOL     OW17932   2.891   1.141   5.490  1.0998  0.1765 -0.4235
 2158SOL    HW117933   2.897   1.091   5.572  0.0021  0.2299 -0.3065
 2158SOL    HW217934   2.895   1.233   5.515 -2.7982 -0.0652  1.0016
 2159SOL     OW17935   3.939   1.379   9.163  0.4965  0.3897  0.2245
 2159SOL    HW117936   3.854   1.358   9.203 -0.2506  0.9383 -1.0858
 2159SOL    HW217937   3.997   1.363   9.238  1.0368  0.4598 -0.1781
 2160SOL     OW17938   2.537   4.468  17.312  0.4518 -0.1037  0.0799
 2160SOL    HW117939   2.472   4.438  17.376  0.5363 -0.4933 -0.0120
 2160SOL    HW217940   2.522   4.401  17.245 -2.4438  0.3238  0.3040
 2161SOL     OW17941   3.846   3.984   5.705  0.2140  0.3872  0.2168
 2161SOL    HW117942   3.876   3.896   5.681  0.0529 -0.0007  1.4430
 2161SOL    HW217943   3.802   4.017   5.626  1.1447  0.3618 -0.3108
 2162SOL     OW17944   4.363   1.516   3.665 -0.0625 -0.2749 -0.3823
 2162SOL    HW117945   4.396   1.426   3.656 -1.7582 -0.7905 -1.5377
 2162SOL    HW217946   4.396   1.555   3.584  1.3899  0.8329  0.7507
 2163SOL     OW17947   3.704   4.513   2.678  0.1374  0.2726 -0.1467
 2163SOL    HW117948   3.653   4.501   2.599  0.5726  2.8467 -0.8212
 2163SOL    HW217949   3.673   4.598   2.710  0.9188  0.5413 -0.0798
 2164SOL     OW17950   1.805   1.187   8.976  0.6861  0.5286  0.1640
 2164SOL    HW117951   1.715   1.202   9.006  0.7185  0.6614  0.1928
 2164SOL    HW217952   1.801   1.092   8.963 -0.0073  0.5042  0.5053
 2165SOL     OW17953   2.665   4.382   6.577  0.2955  0.1922  0.2582
 2165SOL    HW117954   2.614   4.414   6.502  1.1440 -0.5119 -0.6269
 2165SOL    HW217955   2.615   4.314   6.622 -3.2521  2.0281 -0.9142
 2166SOL     OW17956   2.157   1.849  10.230  0.1487  0.1885  0.3958
 2166SOL    HW117957   2.105   1.889  10.160 -1.9063 -0.9062  1.3150
 2166SOL    HW217958   2.140   1.893  10.313  0.5256  2.1670 -0.5645
 2167SOL     OW17959   2.634   0.819  11.742  0.1784  0.1148  0.1124
 2167SOL    HW117960   2.720   0.780  11.756  0.4343  0.3516 -0.8282
 2167SOL    HW217961   2.595   0.752  11.686  1.0937 -3.3876  3.6398
 2168SOL     OW17962   2.992   3.403  17.271  0.2054 -0.7385 -0.3959
 2168SOL    HW117963   2.913   3.351  17.260  0.0889 -1.0946  2.2730
 2168SOL    HW217964   2.994   3.385  17.365 -0.9093 -2.3299 -0.6910
 2169SOL     OW17965   3.417   4.124   3.444 -0.3596 -0.0273 -0.4012
 2169SOL    HW117966   3.363   4.072   3.504  1.0822 -0.5919  0.4107
 2169SOL    HW217967   3.451   4.207   3.477 -2.1596  0.6524 -0.2616
 2170SOL     OW17968   0.820   2.336  13.480  0.1105 -0.3946  0.0842
 2170SOL    HW117969   0.774   2.342  13.563 -1.8105 -1.3069 -0.9187
 2170SOL    HW217970   0.889   2.401  13.492 -0.7113  0.4904  0.0489
 2171SOL     OW17971   3.882   2.197   9.061 -0.7028 -0.3586  0.4487
 2171SOL    HW117972   3.951   2.145   9.101 -0.4825 -1.0289 -0.7885
 2171SOL    HW217973   3.920   2.215   8.975 -1.2729 -0.4461  0.1796
 2172SOL     OW17974   2.671   3.973   0.587  0.0434  0.7721  0.0486
 2172SOL    HW117975   2.588   4.004   0.551  0.4581  0.5512 -1.1227
 2172SOL    HW217976   2.649   3.989   0.678 -0.1646  1.1322 -0.0644
 2173SOL     OW17977   0.896   0.827   3.132 -0.2727  0.0417 -0.5008
 2173SOL    HW117978   0.981   0.787   3.149  1.0788  3.0969 -0.0731
 2173SOL    HW217979   0.866   0.842   3.222  0.9251 -2.5028  0.3271
 2174SOL     OW17980   3.802   3.572   0.422  0.2733 -0.2093 -0.6999
 2174SOL    HW117981   3.897   3.573   0.413  0.5219  0.8354  2.2155
 2174SOL    HW217982   3.789   3.534   0.509 -1.1375 -0.8304 -1.1864
 2175SOL     OW17983   2.458   4.536  16.409  0.3048  0.0563 -0.2399
 2175SOL    HW117984   2.394   4.465  16.404 -0.0493  0.2725  1.2213
 2175SOL    HW217985   2.464   4.542  16.504  1.3649  0.6632 -0.3402
 2176SOL     OW17986   0.141   4.665   4.756 -0.3356  0.0929  0.0620
 2176SOL    HW117987   0.191   4.701   4.683 -2.1234 -0.2963 -1.3674
 2176SOL    HW217988   0.115   0.019   4.803 -0.0602  1.9277 -2.8984
 2177SOL     OW17989   0.820   0.958  12.029  0.1614  0.1783  0.3679
 2177SOL    HW117990   0.808   0.964  11.934  1.2503  0.0823  0.2251
 2177SOL    HW217991   0.819   0.863  12.040  1.5784 -0.0269 -1.1210
 2178SOL     OW17992   1.357   3.735  10.937  0.1464  0.5714  0.1058
 2178SOL    HW117993   1.334   3.647  10.909 -0.9905  0.2181  2.1852
 2178SOL    HW217994   1.364   3.715  11.030  0.7349 -2.0877 -0.5074
 2179SOL     OW17995   2.485   0.607   4.692  0.4988 -0.5902  0.4522
 2179SOL    HW117996   2.426   0.683   4.699  0.1614 -0.7898 -0.2492
 2179SOL    HW217997   2.513   0.628   4.602 -2.1043 -1.4431 -0.5434
 2180SOL     OW17998   3.498   1.053   8.739 -0.0643 -0.3407  0.4423
 2180SOL    HW117999   3.561   1.097   8.796 -0.4217  1.2855 -0.3911
 2180SOL    HW218000   3.483   1.126   8.678 -2.5242 -1.0448  0.1913
 2181SOL     OW18001   1.440   3.470   8.016 -0.0321 -0.2172 -0.2531
 2181SOL    HW118002   1.425   3.449   8.108  1.5030  0.3077  0.1013
 2181SOL    HW218003   1.420   3.382   7.983 -0.9444 -0.2342  0.3453
 2182SOL     OW18004   4.540   2.343   3.933 -0.3924 -0.1521  1.0973
 2182SOL    HW118005   4.494   2.427   3.928  0.6798  0.4137  0.8627
 2182SOL    HW218006   4.468   2.281   3.922  1.6733 -2.2630 -0.3326
 2183SOL     OW18007   0.567   3.999   5.395 -0.5742  0.2605  0.3231
 2183SOL    HW118008   0.560   3.988   5.300 -1.0642 -1.5711  0.5821
 2183SOL    HW218009   0.585   4.093   5.395  0.1148  0.1257  1.4089
 2184SOL     OW18010   4.161   4.112   8.644  0.3899 -0.4006 -0.5196
 2184SOL    HW118011   4.141   4.032   8.693  0.0771  0.3050  0.4956
 2184SOL    HW218012   4.144   4.094   8.552 -2.5199  1.2247 -0.2806
 2185SOL     OW18013   2.040   0.442   6.079  0.0939  0.2567  0.5525
 2185SOL    HW118014   2.079   0.504   6.018  0.2858 -0.1882  0.2235
 2185SOL    HW218015   1.946   0.458   6.080  0.2703  1.1800  1.6595
 2186SOL     OW18016   4.450   2.847   5.128 -0.1949  0.9433  0.2007
 2186SOL    HW118017   4.443   2.779   5.060  1.5773  0.3223  0.6405
 2186SOL    HW218018   4.358   2.861   5.149 -0.8013 -0.8562 -1.1968
 2187SOL     OW18019   0.749   0.331  12.157 -0.0750  0.2753 -0.2402
 2187SOL    HW118020   0.725   0.424  12.153  0.4580  0.3439 -1.9988
 2187SOL    HW218021   0.667   0.289  12.131 -0.3803  1.7502 -1.6761
 2188SOL     OW18022   2.299   3.212   7.546  0.0093  0.3351 -0.4636
 2188SOL    HW118023   2.311   3.135   7.602  0.8554 -0.6659 -2.0106
 2188SOL    HW218024   2.324   3.285   7.603 -1.2268  0.0727  0.3984
 2189SOL     OW18025   3.217   1.352   8.602  0.1454 -0.0345  0.4618
 2189SOL    HW118026   3.140   1.299   8.622 -0.3915  0.1985 -0.9787
 2189SOL    HW218027   3.239   1.382   8.690  3.1514 -0.3608 -0.1626
 2190SOL     OW18028   3.694   3.143   4.633  0.2737  0.4911 -0.4350
 2190SOL    HW118029   3.732   3.094   4.706 -0.7645 -0.1312 -0.3293
 2190SOL    HW218030   3.778   3.181   4.604  0.2092 -0.2001 -1.5378
 2191SOL     OW18031   2.246   4.147  10.483  0.2542 -0.0478 -0.3297
 2191SOL    HW118032   2.229   4.081  10.415  0.9135  0.0873 -0.6256
 2191SOL    HW218033   2.337   4.128  10.504  0.1858  1.5227  1.2823
 2192SOL     OW18034   0.330   0.436  15.114 -0.0278  0.0187  0.0785
 2192SOL    HW118035   0.272   0.449  15.188 -1.3758 -0.1792 -0.9405
 2192SOL    HW218036   0.394   0.371  15.144  0.0215  0.7213  1.5020
 2193SOL     OW18037   4.713   0.759  17.297 -0.0136  0.0327  0.2872
 2193SOL    HW118038   0.068   0.713  17.271  1.3607  1.4619  2.0453
 2193SOL    HW218039   4.654   0.686  17.279  0.4823 -0.5015  0.8643
 2194SOL     OW18040   4.590   4.193   3.175 -0.2728 -0.2694  0.1329
 2194SOL    HW118041   4.684   4.177   3.176 -0.3204 -0.6714 -1.3847
 2194SOL    HW218042   4.570   4.166   3.265  0.4451 -0.3918  0.2553
 2195SOL     OW18043   3.899   4.249   0.156  0.3824 -0.1453 -0.4039
 2195SOL    HW118044   3.971   4.213   0.208 -0.0254 -1.2727 -0.6129
 2195SOL    HW218045   3.854   4.166   0.139 -0.1390 -0.0062  0.2835
 2196SOL     OW18046   1.185   4.023   1.070  0.2814  0.0927  0.0617
 2196SOL    HW118047   1.178   4.082   0.995 -1.4066 -2.7877 -2.0529
 2196SOL    HW218048   1.114   3.959   1.057  0.7582 -0.6590  1.2143
 2197SOL     OW18049   2.739   1.304   4.058  0.5360 -0.1154 -0.3605
 2197SOL    HW118050   2.710   1.378   4.004  1.8708 -0.6358 -1.7911
 2197SOL    HW218051   2.827   1.291   4.024  0.3792  0.5119 -1.0070
 2198SOL     OW18052   3.618   0.195   0.598  0.1478  0.0195  0.0984
 2198SOL    HW118053   3.580   0.262   0.541 -1.9579 -0.6505  0.6936
 2198SOL    HW218054   3.634   0.121   0.540  2.6537  1.0629 -0.5200
 2199SOL     OW18055   1.975   2.344   7.710 -0.0847 -0.8560 -0.2031
 2199SOL    HW118056   2.056   2.359   7.760 -0.2470  0.3790 -0.3105
 2199SOL    HW218057   1.907   2.353   7.776  0.7111  2.8736  0.1247
 2200SOL     OW18058   4.174   2.379  14.947  0.0447  0.7778  0.1350
 2200SOL    HW118059   4.238   2.435  14.990  1.1299  0.2919 -0.8449
 2200SOL    HW218060   4.237   2.329  14.896  2.9855  2.9402  1.6927
 2201SOL     OW18061   2.398   1.143   7.426  0.1636 -0.0364  0.0381
 2201SOL    HW118062   2.385   1.236   7.408 -0.3686 -0.0269  0.4818
 2201SOL    HW218063   2.470   1.147   7.490 -1.0553  0.6617  1.3489
 2202SOL     OW18064   4.428   1.206  10.671 -0.4259 -0.7106 -0.3194
 2202SOL    HW118065   4.391   1.234  10.754 -1.9578 -0.2596 -1.1401
 2202SOL    HW218066   4.404   1.275  10.608 -2.1318 -0.9754  0.0613
 2203SOL     OW18067   2.547   1.465  12.672  0.5710  0.2285  0.1363
 2203SOL    HW118068   2.594   1.398  12.622  0.6126  0.8368 -0.6423
 2203SOL    HW218069   2.536   1.428  12.760 -0.4036 -2.7178 -1.2117
 2204SOL     OW18070   0.584   4.134  16.446  0.6000  0.0995  0.7439
 2204SOL    HW118071   0.561   4.103  16.358 -0.2229  0.6334  0.7721
 2204SOL    HW218072   0.664   4.181  16.423  0.0740  0.6950  0.1032
 2205SOL     OW18073   0.504   0.561  14.735  0.1955 -0.5639 -0.0480
 2205SOL    HW118074   0.581   0.615  14.755 -0.4373  0.4647 -0.3764
 2205SOL    HW218075   0.554   0.494  14.688 -1.2027 -1.5484 -0.1025
 2206SOL     OW18076   2.616   4.492   9.715 -0.0951 -0.1267 -0.2919
 2206SOL    HW118077   2.662   4.466   9.635 -0.3570 -2.2024  0.2434
 2206SOL    HW218078   2.661   4.576   9.721  1.4003 -0.8109 -1.7714
 2207SOL     OW18079   0.779   0.386   5.446 -0.2796  0.0038  0.8652
 2207SOL    HW118080   0.758   0.472   5.410  1.4589 -0.9774 -2.4360
 2207SOL    HW218081   0.803   0.408   5.536  0.2538  0.7005  0.5535
 2208SOL     OW18082   3.482   4.128   4.348 -0.1660  0.5786  0.4000
 2208SOL    HW118083   3.393   4.118   4.383  0.8988 -1.8859  2.3980
 2208SOL    HW218084   3.532   4.119   4.429  1.2052 -0.8184 -0.5917
 2209SOL     OW18085   3.242   2.500   6.181 -0.3085 -0.0963  0.0215
 2209SOL    HW118086   3.208   2.588   6.167  3.2400  1.3783  0.6503
 2209SOL    HW218087   3.240   2.512   6.276  0.4709  1.2001 -0.1137
 2210SOL     OW18088   3.155   2.269  14.555  0.2192 -0.0091  0.6826
 2210SOL    HW118089   3.166   2.222  14.637  2.5758  1.9719  1.5269
 2210SOL    HW218090   3.067   2.304  14.573 -1.0652 -1.9844 -1.7886
 2211SOL     OW18091   3.318   3.848   4.057  1.1350  0.8315  0.3085
 2211SOL    HW118092   3.240   3.876   4.008 -0.2423 -2.2260  0.7448
 2211SOL    HW218093   3.329   3.757   4.030  1.6285  1.2397 -0.8606
 2212SOL     OW18094   0.117   1.087   8.261 -0.5587 -0.4775  0.4530
 2212SOL    HW118095   0.050   1.138   8.307  0.3340  0.3092  0.8763
 2212SOL    HW218096   0.080   0.999   8.265 -1.8138  0.0360  0.0140
 2213SOL     OW18097   1.952   4.265  11.888 -0.1148  0.3973 -0.1772
 2213SOL    HW118098   1.883   4.243  11.825 -0.7447 -2.2239  1.4611
 2213SOL    HW218099   1.985   4.344  11.843 -2.3897  0.9797 -0.8129
 2214SOL     OW18100   3.409   0.411   1.626  0.1371  0.4480  0.0029
 2214SOL    HW118101   3.424   0.335   1.683 -1.7328 -0.4386 -0.6969
 2214SOL    HW218102   3.367   0.365   1.553  1.5492 -0.1405 -0.4489
 2215SOL     OW18103   1.911   2.886  14.202  0.2273  0.4316 -0.1093
 2215SOL    HW118104   1.845   2.950  14.227  0.4389  0.3627  0.6248
 2215SOL    HW218105   1.895   2.808  14.256  0.3315 -0.7998 -1.8394
 2216SOL     OW18106   2.315   2.655   3.913  0.5595  0.6629  0.4653
 2216SOL    HW118107   2.326   2.736   3.962 -0.7820  0.7066  0.7031
 2216SOL    HW218108   2.220   2.650   3.917  0.4456  0.2802 -2.9121
 2217SOL     OW18109   2.712   3.117  13.969  0.0458  0.2042 -0.8033
 2217SOL    HW118110   2.619   3.129  13.953 -0.0737  1.6380  0.9413
 2217SOL    HW218111   2.742   3.182  13.905 -3.0837  1.4466 -0.9846
 2218SOL     OW18112   1.815   1.919   2.591  0.1762 -0.1834 -0.3700
 2218SOL    HW118113   1.735   1.929   2.540 -0.1477  0.4560  0.2637
 2218SOL    HW218114   1.882   1.916   2.523 -0.5981 -0.2215 -1.1295
 2219SOL     OW18115   4.708   1.693   2.538  0.6126 -0.0138  0.8984
 2219SOL    HW118116   4.641   1.625   2.541 -0.9110  1.4158 -0.3341
 2219SOL    HW218117   0.017   1.674   2.625  3.5863 -0.5008 -0.3711
 2220SOL     OW18118   2.177   0.921   4.456 -0.2403  0.0466  0.1216
 2220SOL    HW118119   2.250   0.923   4.518  2.0294  2.1575 -2.6123
 2220SOL    HW218120   2.104   0.903   4.514 -1.4086 -1.0986 -1.6998
 2221SOL     OW18121   0.245   2.205   6.308  0.2604 -0.1132 -0.4050
 2221SOL    HW118122   0.214   2.171   6.391 -1.5372  0.9910 -0.6299
 2221SOL    HW218123   0.285   2.289   6.333 -2.8202  0.9276  0.9985
 2222SOL     OW18124   3.427   4.143   7.489  0.2987 -0.6236  0.6285
 2222SOL    HW118125   3.365   4.095   7.434  2.6559 -0.8469 -1.7764
 2222SOL    HW218126   3.388   4.130   7.576  2.3984  1.7863  1.9321
 2223SOL     OW18127   1.213   2.626  11.997  0.4743  0.0940 -0.2683
 2223SOL    HW118128   1.276   2.622  12.069  0.4116 -2.5140 -0.3465
 2223SOL    HW218129   1.234   2.540  11.961 -3.3337 -1.8371  2.1986
 2224SOL     OW18130   3.523   1.463   9.623  0.1327 -0.0748 -0.0839
 2224SOL    HW118131   3.479   1.383   9.653 -0.0302 -0.4698 -1.3729
 2224SOL    HW218132   3.450   1.525   9.620  0.5391  0.5375  2.3611
 2225SOL     OW18133   1.943   1.563   8.428 -0.4433 -0.1914  0.0113
 2225SOL    HW118134   1.865   1.598   8.471 -0.6913  1.6258 -1.9494
 2225SOL    HW218135   2.002   1.637   8.439 -3.3609  1.9534  0.8997
 2226SOL     OW18136   3.725   2.001   6.159  0.2805 -0.0427 -0.4070
 2226SOL    HW118137   3.820   1.996   6.159  0.1707 -2.2046 -1.0915
 2226SOL    HW218138   3.706   2.016   6.252 -1.0985  0.0498 -0.7006
 2227SOL     OW18139   1.561   0.665   5.409  0.2403  0.1423  0.3410
 2227SOL    HW118140   1.618   0.607   5.460 -0.0545  1.7355  2.4769
 2227SOL    HW218141   1.581   0.751   5.447 -2.5753  1.0407 -0.2435
 2228SOL     OW18142   2.689   0.870  16.119  0.6252  0.0275  0.5677
 2228SOL    HW118143   2.643   0.916  16.048 -0.6375 -1.0156  0.7186
 2228SOL    HW218144   2.620   0.854  16.183 -1.1624  0.0170 -1.3572
 2229SOL     OW18145   1.844   0.353  14.557 -0.3881 -0.3913  0.5511
 2229SOL    HW118146   1.825   0.446  14.564 -0.5034 -0.1118 -3.3957
 2229SOL    HW218147   1.802   0.318  14.635 -0.5419  2.1556  1.6080
 2230SOL     OW18148   0.980   0.580  14.786  0.1932 -0.2543 -0.5049
 2230SOL    HW118149   1.005   0.506  14.732  0.5607 -1.7997  1.8162
 2230SOL    HW218150   1.056   0.636  14.767  0.5228 -0.9170 -1.1347
 2231SOL     OW18151   1.577   1.379   5.234  0.0080  0.0701 -0.5219
 2231SOL    HW118152   1.525   1.332   5.300  2.0932 -0.2413  0.8758
 2231SOL    HW218153   1.666   1.362   5.266 -0.9124 -0.9974  1.5014
 2232SOL     OW18154   0.061   3.484   5.031 -0.6222 -0.7292 -0.3644
 2232SOL    HW118155   0.008   3.427   4.976  0.0696 -1.7729  0.0611
 2232SOL    HW218156   0.028   3.453   5.115  0.6652 -0.9161  0.0750
 2233SOL     OW18157   0.069   1.791  13.438  0.0740  0.1115  0.6663
 2233SOL    HW118158   4.724   1.730  13.416 -0.8926  1.9766 -1.2754
 2233SOL    HW218159   0.129   1.761  13.370 -0.0564  2.7827 -0.5875
 2234SOL     OW18160   1.230   0.693   0.775 -0.0222 -0.3819  0.0029
 2234SOL    HW118161   1.142   0.684   0.739  0.7122 -0.5902 -1.7373
 2234SOL    HW218162   1.261   0.603   0.763  1.0966  0.0167 -0.0927
 2235SOL     OW18163   3.286   3.516   5.022  0.0596  0.5947  0.0317
 2235SOL    HW118164   3.262   3.608   5.027 -1.7296  0.0842  0.8900
 2235SOL    HW218165   3.379   3.529   5.004  0.9039 -2.4344  2.2595
 2236SOL     OW18166   2.384   1.867   0.395 -0.7056 -0.2527 -0.1460
 2236SOL    HW118167   2.292   1.872   0.368 -0.9531 -1.3229  0.5130
 2236SOL    HW218168   2.382   1.802   0.465  0.5986 -0.0390  0.0924
 2237SOL     OW18169   3.171   0.655   9.607  0.5039 -0.5872  0.1244
 2237SOL    HW118170   3.130   0.569   9.593  1.3002 -0.6190 -2.1116
 2237SOL    HW218171   3.175   0.689   9.517  0.0969  2.6939  1.3642
 2238SOL     OW18172   2.694   1.092   9.197 -0.3446 -0.0323 -0.4690
 2238SOL    HW118173   2.639   1.156   9.151 -0.6770 -1.3694 -1.9345
 2238SOL    HW218174   2.681   1.125   9.286 -1.9550  0.8953 -1.0443
 2239SOL     OW18175   2.887   0.170   5.445  0.1410 -0.7028 -0.3026
 2239SOL    HW118176   2.977   0.138   5.438  0.1591 -0.9069  0.8998
 2239SOL    HW218177   2.885   0.212   5.359  1.8449 -2.5969 -1.2472
 2240SOL     OW18178   3.278   0.296   5.843 -0.6021 -0.1302 -0.4160
 2240SOL    HW118179   3.228   0.231   5.893  0.9481 -0.7775  0.3001
 2240SOL    HW218180   3.277   0.372   5.902 -0.6398 -1.1418  0.9041
 2241SOL     OW18181   2.623   1.152   7.610  0.5839 -0.4550  0.2851
 2241SOL    HW118182   2.643   1.060   7.589 -0.9030 -0.8429  0.5017
 2241SOL    HW218183   2.700   1.200   7.582  1.5313 -2.2969 -0.3099
 2242SOL     OW18184   1.064   0.749   8.312  0.4218 -0.3058 -0.1141
 2242SOL    HW118185   1.061   0.659   8.280  0.5511  0.3711 -2.0211
 2242SOL    HW218186   1.153   0.747   8.347  0.4795 -0.2839 -0.2614
 2243SOL     OW18187   1.250   4.520  12.146  0.0730 -0.4641 -0.3592
 2243SOL    HW118188   1.215   4.519  12.235 -0.2732 -1.2557 -0.5015
 2243SOL    HW218189   1.324   4.460  12.159  0.3653 -0.1775 -0.7018
 2244SOL     OW18190   2.197   2.411   7.813 -0.1076 -0.1348 -0.0419
 2244SOL    HW118191   2.238   2.379   7.893  0.7120 -1.9871 -1.2094
 2244SOL    HW218192   2.277   2.441   7.770  1.6908 -1.9571  2.0718
 2245SOL     OW18193   2.602   2.050  14.810 -0.4534 -0.4418 -0.4099
 2245SOL    HW118194   2.533   2.116  14.817 -0.0721 -0.0044 -0.7663
 2245SOL    HW218195   2.550   1.974  14.782 -1.1417  0.3914 -1.3722
 2246SOL     OW18196   2.905   3.206  15.457  0.6393 -0.7887  0.2626
 2246SOL    HW118197   2.896   3.147  15.382  2.5152 -1.2386  0.3888
 2246SOL    HW218198   2.917   3.292  15.417  2.4655 -0.3246  1.7995
 2247SOL     OW18199   3.315   0.281   0.211  0.8089 -0.4930  0.2155
 2247SOL    HW118200   3.244   0.283   0.274  0.9152  2.0519  0.2537
 2247SOL    HW218201   3.386   0.321   0.261 -0.6887 -0.9821  2.7209
 2248SOL     OW18202   1.145   3.666   2.031 -0.5426 -0.2588  0.0018
 2248SOL    HW118203   1.167   3.756   2.008  0.5715 -0.3633  0.6555
 2248SOL    HW218204   1.172   3.663   2.123 -2.1458  1.1101  0.4963
 2249SOL     OW18205   0.369   2.176   2.423 -0.8839 -0.0977  0.4553
 2249SOL    HW118206   0.312   2.249   2.400  1.0005  1.2655  0.0922
 2249SOL    HW218207   0.304   2.114   2.458 -1.8547 -0.0808 -1.3198
 2250SOL     OW18208   1.715   3.082   0.137  0.2350  0.1167  0.0241
 2250SOL    HW118209   1.635   3.065   0.188 -1.5978 -0.7651 -3.1221
 2250SOL    HW218210   1.726   2.995   0.099 -1.1347 -0.3416  0.6677
 2251SOL     OW18211   2.407   0.529   8.410  0.4627 -0.6374 -0.7589
 2251SOL    HW118212   2.335   0.590   8.429  1.0360  0.1076 -0.9545
 2251SOL    HW218213   2.477   0.591   8.390 -0.0866  0.7772  1.6088
 2252SOL     OW18214   3.141   1.211   6.907  0.0840  0.3932 -0.0625
 2252SOL    HW118215   3.202   1.285   6.900  2.0428 -1.3267 -1.2134
 2252SOL    HW218216   3.188   1.143   6.858 -2.5959  0.0160 -2.0825
 2253SOL     OW18217   1.678   4.375   4.571 -0.1060 -0.4580  0.0776
 2253SOL    HW118218   1.586   4.356   4.555 -0.5601  0.6592  1.3527
 2253SOL    HW218219   1.677   4.463   4.609  1.2573  0.7516 -2.6680
 2254SOL     OW18220   1.632   4.722   1.890  0.3460  0.6086 -0.5808
 2254SOL    HW118221   1.539   4.705   1.906  0.8156 -0.7366  0.8056
 2254SOL    HW218222   1.658   4.642   1.844  0.9924  0.5700 -0.1513
 2255SOL     OW18223   3.291   1.372   7.405 -0.4171  0.1960  0.1339
 2255SOL    HW118224   3.285   1.466   7.419 -1.2338  0.2662 -0.6901
 2255SOL    HW218225   3.277   1.338   7.493  0.9681  1.9562  1.0360
 2256SOL     OW18226   2.559   0.068   5.786 -0.0977  0.1097  0.2413
 2256SOL    HW118227   2.580   0.084   5.694  0.1783  1.3878  0.5235
 2256SOL    HW218228   2.477   0.113   5.806  0.7501  0.4983  2.8387
 2257SOL     OW18229   3.557   1.836  13.395  0.0260 -0.0557 -0.1828
 2257SOL    HW118230   3.531   1.914  13.346  0.0909 -0.9601 -1.6828
 2257SOL    HW218231   3.637   1.863  13.439  0.1366 -1.6144  0.5743
 2258SOL     OW18232   2.723   4.409   4.121  0.4469 -0.0157 -0.7717
 2258SOL    HW118233   2.802   4.405   4.068  0.6357 -2.7933 -0.2605
 2258SOL    HW218234   2.676   4.472   4.066 -0.2748 -1.5206 -1.8746
 2259SOL     OW18235   2.462   3.393   3.132  0.3518  0.0569  0.2820
 2259SOL    HW118236   2.451   3.345   3.214  2.1408  0.2329  0.6228
 2259SOL    HW218237   2.476   3.326   3.065 -0.0551 -2.3334  2.5991
 2260SOL     OW18238   1.827   2.848  17.480  0.3779 -0.0287  0.8498
 2260SOL    HW118239   1.809   2.935  17.515  0.9130  0.6104 -0.4721
 2260SOL    HW218240   1.869   2.866  17.396 -1.7234  1.1214  0.0380
 2261SOL     OW18241   3.571   0.518   1.339  0.6198  0.2405  0.2257
 2261SOL    HW118242   3.619   0.438   1.361  1.1926 -0.0751 -2.1581
 2261SOL    HW218243   3.495   0.509   1.396  1.6858  0.2590  1.6689
 2262SOL     OW18244   1.744   0.930   8.953  0.3913  0.4492 -0.2051
 2262SOL    HW118245   1.775   0.860   9.011 -1.4376 -0.4935 -0.3606
 2262SOL    HW218246   1.763   0.887   8.869 -0.8170  0.1999 -0.3546
 2263SOL     OW18247   0.713   0.190   3.560 -0.5050  0.1133 -0.1952
 2263SOL    HW118248   0.749   0.205   3.472 -1.2749 -0.8252 -0.6709
 2263SOL    HW218249   0.693   0.278   3.591  2.7916  0.5719  0.6436
 2264SOL     OW18250   0.378   0.228  17.221 -0.7425  0.7730  0.3764
 2264SOL    HW118251   0.425   0.311  17.231  2.1126 -0.7203 -0.4245
 2264SOL    HW218252   0.372   0.231  17.125  3.1629 -1.3921  0.0694
 2265SOL     OW18253   2.076   1.230  16.023 -0.0617 -0.2504  0.3636
 2265SOL    HW118254   2.141   1.164  16.001 -0.0152  0.1563 -0.7077
 2265SOL    HW218255   2.000   1.176  16.046 -1.1212  0.1139 -2.3007
 2266SOL     OW18256   3.458   4.442   5.036 -0.6423  0.2094 -0.2458
 2266SOL    HW118257   3.391   4.506   5.011 -1.5338 -0.2507  0.9852
 2266SOL    HW218258   3.449   4.433   5.130 -0.9958 -0.4465 -0.3460
 2267SOL     OW18259   1.030   1.271  10.139 -0.8411  0.1950  0.0758
 2267SOL    HW118260   0.981   1.306  10.214 -0.6044  1.4306 -0.3367
 2267SOL    HW218261   1.080   1.201  10.182 -0.8072  0.4701  0.4934
 2268SOL     OW18262   1.190   1.122   7.310 -0.2594  0.1145 -0.3804
 2268SOL    HW118263   1.176   1.044   7.257 -0.7956  0.4341 -0.7108
 2268SOL    HW218264   1.159   1.191   7.252  0.2514 -0.3249 -1.1753
 2269SOL     OW18265   1.814   0.500   5.090  0.4206  0.1235 -0.1718
 2269SOL    HW118266   1.812   0.588   5.052  1.2575 -0.1069 -0.7418
 2269SOL    HW218267   1.868   0.521   5.166 -1.4741 -0.4799  1.3584
 2270SOL     OW18268   2.814   1.748   5.744 -0.0407 -0.3841 -0.3076
 2270SOL    HW118269   2.824   1.756   5.649  0.7448  2.2473 -0.0038
 2270SOL    HW218270   2.732   1.701   5.754 -0.0728  0.1490  1.7860
 2271SOL     OW18271   1.548   1.736   1.767 -0.0366  0.0874 -0.0115
 2271SOL    HW118272   1.499   1.755   1.687  0.5195 -0.2227 -0.4240
 2271SOL    HW218273   1.637   1.759   1.740 -0.2272  0.3688 -0.3944
 2272SOL     OW18274   4.367   2.941   8.547 -0.3827  0.1549 -0.5236
 2272SOL    HW118275   4.452   2.902   8.566 -0.0402  1.3727  0.4489
 2272SOL    HW218276   4.356   2.936   8.452  1.1735  0.2278 -0.7009
 2273SOL     OW18277   0.842   2.498  10.137 -0.4719 -0.4988  0.3438
 2273SOL    HW118278   0.918   2.467  10.187 -0.3089 -1.5950 -0.5766
 2273SOL    HW218279   0.863   2.461  10.051 -1.0850  0.2945 -0.1383
 2274SOL     OW18280   2.892   1.224   6.420 -1.0688 -0.0022 -0.0957
 2274SOL    HW118281   2.835   1.239   6.345  0.3176 -0.3005 -1.1977
 2274SOL    HW218282   2.874   1.131   6.430 -2.0083  0.1260 -0.6534
 2275SOL     OW18283   3.037   2.548   3.826 -0.5718 -0.9840  0.0665
 2275SOL    HW118284   3.120   2.595   3.828 -0.7000 -0.8619  1.7983
 2275SOL    HW218285   3.006   2.580   3.741  1.7710  0.1421 -0.3474
 2276SOL     OW18286   4.401   3.374   3.747 -0.1498 -0.4311 -0.0269
 2276SOL    HW118287   4.417   3.467   3.732  2.4040 -0.6078  1.5545
 2276SOL    HW218288   4.475   3.348   3.802  0.6169  2.6243  0.3973
 2277SOL     OW18289   3.985   2.616   6.673 -0.1500 -0.1324 -0.2164
 2277SOL    HW118290   4.032   2.544   6.715 -1.2692 -1.1047 -0.6283
 2277SOL    HW218291   3.903   2.614   6.724 -1.3493  1.9498 -2.0327
 2278SOL     OW18292   3.585   1.258   3.094  0.2381  0.4174  0.7039
 2278SOL    HW118293   3.588   1.304   3.010  3.0682  3.9150  2.6997
 2278SOL    HW218294   3.572   1.342   3.139 -1.4352  0.0569  0.8781
 2279SOL     OW18295   1.079   3.865   4.890  0.1982 -0.0938  0.2336
 2279SOL    HW118296   1.077   3.791   4.950  1.0007 -0.3800 -0.0877
 2279SOL    HW218297   1.146   3.830   4.832 -0.3150  0.5733 -0.7537
 2280SOL     OW18298   4.233   4.369   2.715  0.1919 -1.1958  0.4828
 2280SOL    HW118299   4.230   4.408   2.627  1.7670 -2.5547 -0.1511
 2280SOL    HW218300   4.264   4.282   2.691  0.9491 -0.4272 -1.3503
 2281SOL     OW18301   0.084   2.019   4.504  0.4714 -0.1311 -0.3856
 2281SOL    HW118302   0.047   1.977   4.581  1.2128  0.1120  0.1079
 2281SOL    HW218303   0.005   2.049   4.459  0.6028 -0.5466 -0.8992
 2282SOL     OW18304   0.312   2.249   6.009  0.5561  0.7230  0.2409
 2282SOL    HW118305   0.336   2.178   6.069 -3.5295 -1.1185 -0.2958
 2282SOL    HW218306   0.339   2.202   5.930  0.5022  0.1522  0.5565
 2283SOL     OW18307   1.854   2.062   3.955  0.0639 -0.4408 -0.1290
 2283SOL    HW118308   1.781   2.078   4.014 -0.4105  0.3254 -0.9352
 2283SOL    HW218309   1.933   2.067   4.008 -0.5606 -2.2412  0.9762
 2284SOL     OW18310   1.999   0.043   6.598  0.5695  0.3978  0.3309
 2284SOL    HW118311   2.087   0.021   6.629 -0.3333 -0.4043  2.3333
 2284SOL    HW218312   1.996   0.132   6.632 -1.8847 -0.0949  1.4445
 2285SOL     OW18313   2.728   3.861  15.378  0.1669 -0.2018 -0.3484
 2285SOL    HW118314   2.739   3.766  15.386  0.9990 -0.3130 -2.7877
 2285SOL    HW218315   2.821   3.881  15.374  0.3665 -1.3285 -1.2539
 2286SOL     OW18316   1.014   2.094  14.725  0.0387 -0.0004 -0.5152
 2286SOL    HW118317   1.022   2.182  14.761 -0.3296 -0.5445  0.8980
 2286SOL    HW218318   0.950   2.057  14.786 -0.0023 -0.3493 -0.7696
 2287SOL     OW18319   0.145   1.719  12.443  0.0043  0.2026 -0.0319
 2287SOL    HW118320   0.192   1.642  12.411 -0.9376 -0.1953 -0.4665
 2287SOL    HW218321   0.128   1.763  12.359 -0.5689  3.2385  1.6616
 2288SOL     OW18322   3.014   1.870  12.977  0.7429  0.0924 -0.4371
 2288SOL    HW118323   2.996   1.913  12.893 -0.6604 -2.6028 -1.5427
 2288SOL    HW218324   3.026   1.783  12.937 -0.3435 -1.5740  2.9082
 2289SOL     OW18325   2.095   1.593   5.032  0.2381  0.0718  0.1952
 2289SOL    HW118326   2.173   1.618   4.983  1.0174 -1.6549  0.5365
 2289SOL    HW218327   2.132   1.621   5.116  0.3447  1.1189 -0.2035
 2290SOL     OW18328   4.586   0.439   4.664  0.1342  0.0482 -1.0059
 2290SOL    HW118329   4.573   0.494   4.741  1.1016 -2.1529  0.7113
 2290SOL    HW218330   4.496   0.417   4.641 -0.6594  0.8891  1.3268
 2291SOL     OW18331   3.775   2.685   4.396 -0.2926  0.0887 -0.4841
 2291SOL    HW118332   3.768   2.749   4.324  0.5269  0.2094 -0.4638
 2291SOL    HW218333   3.708   2.621   4.375  0.5179 -0.8149 -0.2890
 2292SOL     OW18334   1.043   1.665  17.493  0.3222 -0.8100 -0.8770
 2292SOL    HW118335   1.132   1.696  17.503  1.7471 -4.9088 -0.9661
 2292SOL    HW218336   1.045   1.572  17.515  0.8460 -0.9770 -1.6445
 2293SOL     OW18337   4.346   2.256   4.455 -0.0094  0.6040 -0.2811
 2293SOL    HW118338   4.365   2.349   4.448  1.3658  0.3613  0.2293
 2293SOL    HW218339   4.264   2.252   4.503  0.5316 -2.0704  0.4491
 2294SOL     OW18340   0.617   3.693   2.286  0.1767 -0.0881  0.3223
 2294SOL    HW118341   0.549   3.627   2.294 -1.1826  1.2673 -0.1161
 2294SOL    HW218342   0.566   3.769   2.314 -0.4605 -0.2908 -0.3080
 2295SOL     OW18343   0.476   3.141   2.808 -0.6962 -0.0898 -0.1925
 2295SOL    HW118344   0.562   3.099   2.806 -0.2198  0.8924 -0.1684
 2295SOL    HW218345   0.466   3.193   2.887 -1.3054  0.9693 -0.9581
 2296SOL     OW18346   0.738   0.699  14.752 -0.4605  0.5212  0.1481
 2296SOL    HW118347   0.780   0.784  14.741 -1.6469  1.1740  0.7207
 2296SOL    HW218348   0.816   0.647  14.773 -1.4510 -1.1821 -0.3689
 2297SOL     OW18349   1.225   1.044   6.505  0.9184 -0.0580  0.6199
 2297SOL    HW118350   1.143   1.013   6.545  0.7555 -0.9771 -0.4150
 2297SOL    HW218351   1.237   0.993   6.425 -2.1325 -0.7453  0.5824
 2298SOL     OW18352   1.610   0.436   7.536  0.8954 -0.6084 -0.0598
 2298SOL    HW118353   1.663   0.406   7.610 -1.8908 -0.6419  1.8974
 2298SOL    HW218354   1.614   0.530   7.549 -2.9341 -0.6343  1.3355
 2299SOL     OW18355   0.734   1.959   5.054 -0.1281  0.1139  0.3875
 2299SOL    HW118356   0.779   1.886   5.012 -1.5052 -0.8574  0.6104
 2299SOL    HW218357   0.645   1.925   5.050 -0.3336  0.4175  2.0887
 2300SOL     OW18358   0.018   1.533  16.739  0.3294  0.0835 -0.2930
 2300SOL    HW118359   4.720   1.621  16.709  1.8912  0.6720  0.1903
 2300SOL    HW218360   4.658   1.492  16.754  0.6951 -0.3898  0.4881
 2301SOL     OW18361   2.376   1.830   8.362  0.0708 -0.1927 -0.2172
 2301SOL    HW118362   2.309   1.787   8.415  0.8557  1.2948  1.9624
 2301SOL    HW218363   2.451   1.822   8.420  0.5979  2.3338 -0.5390
 2302SOL     OW18364   1.773   3.504   3.381  0.1897  0.0789 -0.2725
 2302SOL    HW118365   1.843   3.449   3.344 -0.1647  1.5237 -3.0808
 2302SOL    HW218366   1.706   3.517   3.314  0.8551 -1.5918 -1.2710
 2303SOL     OW18367   3.931   3.054   7.360  0.3868  0.5233  0.0019
 2303SOL    HW118368   3.988   2.984   7.393 -1.3501 -0.9343 -0.1336
 2303SOL    HW218369   3.978   3.082   7.281  1.2321  0.1767  0.3814
 2304SOL     OW18370   3.226   2.980   1.100 -0.0478  0.1543 -1.0092
 2304SOL    HW118371   3.204   3.024   1.182  1.2827  0.2159 -0.6746
 2304SOL    HW218372   3.257   3.048   1.040  0.8606  1.6595  1.1691
 2305SOL     OW18373   0.515   4.492  11.083  0.2212  0.3976 -0.0331
 2305SOL    HW118374   0.564   4.419  11.045  0.3949  1.4113 -1.7950
 2305SOL    HW218375   0.594   4.530  11.124 -0.8542  0.7882  1.6674
 2306SOL     OW18376   1.710   2.984   2.797 -0.3135  0.0001  0.1260
 2306SOL    HW118377   1.790   2.957   2.842 -0.8490  0.9216  1.6330
 2306SOL    HW218378   1.728   3.070   2.758  1.3774 -0.1982  0.4768
 2307SOL     OW18379   3.827   2.100  16.371  0.1738  0.1091  0.0400
 2307SOL    HW118380   3.868   2.185  16.360  1.1680 -0.4051 -0.1594
 2307SOL    HW218381   3.738   2.130  16.391 -0.3024 -1.4219  0.1853
 2308SOL     OW18382   1.068   3.671  12.484 -0.0066 -0.1658  0.2238
 2308SOL    HW118383   1.142   3.649  12.428  0.8058  1.7156  0.5952
 2308SOL    HW218384   1.105   3.643  12.568  1.4464  0.3919 -0.2348
 2309SOL     OW18385   0.326   4.375  10.821 -0.4941  0.0773 -0.0151
 2309SOL    HW118386   0.363   4.314  10.884  0.3844  1.9522  1.3057
 2309SOL    HW218387   0.319   4.457  10.870 -1.2920  0.3007 -0.4927
 2310SOL     OW18388   2.134   3.554  11.586 -0.0790  0.2717 -0.0387
 2310SOL    HW118389   2.147   3.463  11.559 -0.3231  0.2380 -0.0417
 2310SOL    HW218390   2.213   3.571  11.638 -0.0583 -1.4913  0.5062
 2311SOL     OW18391   3.883   4.008   3.320 -0.4467  0.2670  0.2550
 2311SOL    HW118392   3.968   4.043   3.347 -0.5322  0.1888  0.6186
 2311SOL    HW218393   3.824   4.083   3.315 -2.5439 -1.3213  1.0525
 2312SOL     OW18394   1.419   0.320  13.263 -0.2157  0.0341 -0.2321
 2312SOL    HW118395   1.417   0.416  13.260  3.4862  0.2459  3.4123
 2312SOL    HW218396   1.327   0.306  13.286 -0.1576  1.3779  0.8326
 2313SOL     OW18397   3.682   3.402   3.409  0.7499  0.4419 -0.3022
 2313SOL    HW118398   3.672   3.414   3.504 -0.3984  1.0992 -0.5053
 2313SOL    HW218399   3.642   3.316   3.395 -0.9294  1.3564 -1.0953
 2314SOL     OW18400   4.322   0.355   4.025  0.5255  0.4200  0.2451
 2314SOL    HW118401   4.368   0.410   4.089  2.1637 -1.0123  0.3223
 2314SOL    HW218402   4.390   0.333   3.961  0.9432 -0.3507  0.9515
 2315SOL     OW18403   4.073   3.889   8.809  0.0095 -0.2265  0.1065
 2315SOL    HW118404   3.997   3.922   8.762 -1.3121 -0.8656  1.7937
 2315SOL    HW218405   4.040   3.800   8.801  0.0460 -0.0057 -2.3802
 2316SOL     OW18406   1.307   1.908   9.478  0.3904  0.5697 -0.4380
 2316SOL    HW118407   1.337   1.852   9.549 -0.0423  1.4297  0.4382
 2316SOL    HW218408   1.364   1.871   9.411 -1.4457  0.8773 -2.1909
 2317SOL     OW18409   1.191   3.186   5.905 -0.1176  0.2711  0.5413
 2317SOL    HW118410   1.144   3.122   5.851 -1.9666  1.2911  0.9261
 2317SOL    HW218411   1.119   3.240   5.937  0.4475  0.1665  1.9763
 2318SOL     OW18412   0.329   2.168   3.772 -0.2587 -0.0102 -0.1469
 2318SOL    HW118413   0.302   2.125   3.691  2.8240 -0.4008 -0.9939
 2318SOL    HW218414   0.254   2.224   3.788  0.4184  1.4307 -1.9917
 2319SOL     OW18415   1.975   1.695   1.474 -0.3373  0.6466  0.1146
 2319SOL    HW118416   1.974   1.760   1.403  0.2328 -0.6696 -1.1086
 2319SOL    HW218417   1.902   1.637   1.450  1.5131 -1.8539  0.4782
 2320SOL     OW18418   3.049   1.712  14.733 -0.0060 -0.0603 -0.8376
 2320SOL    HW118419   3.000   1.651  14.678 -2.0330  1.3438 -0.5587
 2320SOL    HW218420   3.049   1.790  14.678 -0.2050 -0.4005 -1.3286
 2321SOL     OW18421   2.269   2.871   7.553 -0.0189  0.4260 -0.5489
 2321SOL    HW118422   2.260   2.853   7.459  2.0157  0.3503 -0.7337
 2321SOL    HW218423   2.364   2.870   7.548  0.0129  0.0962  0.2417
 2322SOL     OW18424   0.582   4.452   9.752 -0.2371 -0.0353  0.4492
 2322SOL    HW118425   0.514   4.400   9.709  0.6987  1.1124 -2.4385
 2322SOL    HW218426   0.647   4.450   9.682 -2.2216  2.3363 -1.4571
 2323SOL     OW18427   2.267   0.191  10.461 -0.0512  0.4767 -0.3846
 2323SOL    HW118428   2.261   0.096  10.466 -1.2776  0.5135 -1.0048
 2323SOL    HW218429   2.352   0.207  10.420 -0.7034  1.0036 -1.5621
 2324SOL     OW18430   0.812   0.961   6.010 -0.3600  0.0077  0.8025
 2324SOL    HW118431   0.775   0.873   6.007 -0.2061 -0.1410  4.0242
 2324SOL    HW218432   0.784   0.991   6.096 -2.3665 -2.7361  1.0986
 2325SOL     OW18433   0.367   4.567  12.619 -0.4982  0.2269  0.0741
 2325SOL    HW118434   0.446   4.559  12.673 -0.7024 -1.5195  0.1316
 2325SOL    HW218435   0.297   4.559  12.684 -0.0421 -0.2838  0.5043
 2326SOL     OW18436   2.191   2.662  11.009 -0.7302  0.4593  0.5238
 2326SOL    HW118437   2.283   2.655  11.032 -1.0635 -0.1524  1.7075
 2326SOL    HW218438   2.204   2.723  10.937 -0.1361  0.4617  0.6318
 2327SOL     OW18439   2.187   1.624   5.311  0.1534  0.7261  0.2538
 2327SOL    HW118440   2.272   1.662   5.287 -0.3058 -0.1350 -2.6955
 2327SOL    HW218441   2.201   1.535   5.344 -1.6716  1.0337  1.8050
 2328SOL     OW18442   2.064   0.570   3.556 -0.2420 -0.1578  0.2132
 2328SOL    HW118443   2.030   0.658   3.572 -1.6739 -0.4978 -0.9546
 2328SOL    HW218444   2.094   0.588   3.467 -2.8732 -0.5763 -0.7702
 2329SOL     OW18445   3.450   1.231   5.835  0.6751  0.2573  0.8283
 2329SOL    HW118446   3.524   1.231   5.775  2.0093  2.8247  2.4541
 2329SOL    HW218447   3.434   1.324   5.851  1.3794  0.8064 -1.6793
 2330SOL     OW18448   0.163   3.227   3.931 -0.1553 -0.2340 -0.1610
 2330SOL    HW118449   0.150   3.230   4.026  0.3261  1.2532 -0.1476
 2330SOL    HW218450   0.234   3.291   3.926  0.3213 -0.5817  2.1563
 2331SOL     OW18451   0.086   3.720  16.441  0.2275 -0.3176 -0.3579
 2331SOL    HW118452   0.089   3.708  16.346 -0.5282 -2.2395 -0.1394
 2331SOL    HW218453   0.160   3.666  16.466  0.7997 -0.0277 -1.4232
 2332SOL     OW18454   3.864   4.270   0.502 -0.6422 -0.2209 -0.7054
 2332SOL    HW118455   3.813   4.198   0.540 -0.3720 -0.0175  0.0400
 2332SOL    HW218456   3.940   4.233   0.458 -0.5524 -0.2241 -0.5493
 2333SOL     OW18457   3.120   2.978  14.339  0.3351 -0.0723 -0.1512
 2333SOL    HW118458   3.168   2.901  14.308  0.9110  0.1005  0.2970
 2333SOL    HW218459   3.031   2.949  14.319  0.2749  0.5842 -0.8282
 2334SOL     OW18460   4.011   3.496   6.705 -0.1304  0.2072  0.2262
 2334SOL    HW118461   4.084   3.498   6.767  0.7767  3.7342 -0.9464
 2334SOL    HW218462   3.948   3.551   6.753 -0.1765  1.4277 -1.2340
 2335SOL     OW18463   3.748   3.852   2.461 -0.1994 -0.3784 -0.1789
 2335SOL    HW118464   3.773   3.870   2.552 -2.2078  0.0522  0.2806
 2335SOL    HW218465   3.806   3.776   2.452  1.9604  1.4785 -1.8433
 2336SOL     OW18466   2.578   3.672   0.422 -0.0847  0.2519 -0.4417
 2336SOL    HW118467   2.509   3.611   0.398  1.5455 -1.9001  0.3812
 2336SOL    HW218468   2.545   3.697   0.508  0.9084  0.6217 -0.1620
 2337SOL     OW18469   1.498   1.656   4.050  0.4424 -0.1914  0.1853
 2337SOL    HW118470   1.411   1.649   4.090  0.4454 -1.9382 -0.1116
 2337SOL    HW218471   1.545   1.699   4.121  1.1585  1.4245 -1.2923
 2338SOL     OW18472   0.608   3.455   1.160 -0.4788  0.3112 -0.3478
 2338SOL    HW118473   0.582   3.364   1.175  1.2686 -0.2755 -0.8487
 2338SOL    HW218474   0.550   3.506   1.216 -0.7879 -0.2130 -0.1896
 2339SOL     OW18475   0.096   0.573   9.076 -0.7737 -0.0727  0.3888
 2339SOL    HW118476   0.162   0.517   9.035 -0.1817  0.9836 -0.0783
 2339SOL    HW218477   0.149   0.599   9.152  1.9657  2.2623 -2.3000
 2340SOL     OW18478   2.775   3.336   6.396 -0.0193  0.1537  0.1301
 2340SOL    HW118479   2.864   3.329   6.432 -0.2844 -0.2869  0.7029
 2340SOL    HW218480   2.782   3.289   6.313 -1.1436  0.8338 -0.3486
 2341SOL     OW18481   3.442   0.907  11.869 -0.9401 -0.3332  0.1845
 2341SOL    HW118482   3.413   0.959  11.944 -0.3847  2.1161 -1.2875
 2341SOL    HW218483   3.527   0.870  11.894  0.5251  1.2010 -2.5964
 2342SOL     OW18484   3.162   0.599   8.677  0.3504 -0.2395  0.5341
 2342SOL    HW118485   3.210   0.682   8.689  0.1915  0.2255 -2.0633
 2342SOL    HW218486   3.197   0.554   8.753 -0.4617 -1.6897  0.0371
 2343SOL     OW18487   4.260   2.521   4.649 -0.5603  0.1632 -0.3817
 2343SOL    HW118488   4.247   2.431   4.679 -0.8943  0.5022  0.4731
 2343SOL    HW218489   4.333   2.561   4.695 -0.9240 -1.1965  1.3964
 2344SOL     OW18490   3.916   2.783   7.017 -0.1891  0.1773  0.1703
 2344SOL    HW118491   3.997   2.782   6.968 -0.9871 -0.8980 -1.1186
 2344SOL    HW218492   3.942   2.735   7.096  1.3876  2.8771  1.2997
 2345SOL     OW18493   0.890   0.961   1.224 -0.1360  0.2628 -0.5689
 2345SOL    HW118494   0.913   0.869   1.210 -0.9369  0.0189 -0.2433
 2345SOL    HW218495   0.900   0.988   1.133  0.7113  2.1283  0.0760
 2346SOL     OW18496   3.995   1.263  15.746  0.5041 -0.4491  0.3254
 2346SOL    HW118497   4.087   1.285  15.764  0.2152  0.2640  0.9204
 2346SOL    HW218498   3.981   1.292  15.656 -1.1874  1.0691  1.0746
 2347SOL     OW18499   4.570   0.930   8.974 -0.8102  0.4361  0.4792
 2347SOL    HW118500   4.562   0.991   8.901 -0.6256  1.3756  1.2496
 2347SOL    HW218501   4.664   0.937   8.990 -0.5362  1.1148 -1.3916
 2348SOL     OW18502   3.063   1.871   2.605  0.3955 -0.0139 -0.1974
 2348SOL    HW118503   3.029   1.782   2.610  0.4029  0.0926  2.1273
 2348SOL    HW218504   3.061   1.883   2.700  2.6815 -0.3957 -0.1072
 2349SOL     OW18505   4.596   1.769  16.691 -0.1505 -0.0979  0.4956
 2349SOL    HW118506   4.526   1.793  16.631  0.1312 -0.9432 -0.1576
 2349SOL    HW218507   4.550   1.828  16.752 -1.6145 -1.7135  0.9617
 2350SOL     OW18508   0.078   0.672  14.437 -0.0216  0.1200 -0.0803
 2350SOL    HW118509   0.128   0.611  14.492 -0.7901 -0.1540  0.3134
 2350SOL    HW218510   0.133   0.749  14.448 -0.4293  0.5997 -1.4530
 2351SOL     OW18511   1.878   2.382   8.421 -0.1118 -0.4223  0.3809
 2351SOL    HW118512   1.810   2.420   8.365 -1.0906 -3.3054 -0.3478
 2351SOL    HW218513   1.849   2.417   8.505 -0.1335  1.2684 -0.3217
 2352SOL     OW18514   0.426   2.835   5.489  0.6180  0.5688 -0.1292
 2352SOL    HW118515   0.393   2.779   5.419 -0.9652  0.0253  1.0827
 2352SOL    HW218516   0.382   2.784   5.557  1.0862 -0.7062 -0.7995
 2353SOL     OW18517   3.128   3.647  15.276 -0.4408 -0.4692 -0.1179
 2353SOL    HW118518   3.172   3.653  15.361  0.2153 -0.7514 -0.4352
 2353SOL    HW218519   3.100   3.556  15.277  0.5971 -0.7832  0.2636
 2354SOL     OW18520   1.014   3.931  14.803 -0.3663 -0.0405 -0.1245
 2354SOL    HW118521   0.997   3.919  14.897 -2.5538 -0.7188 -0.6204
 2354SOL    HW218522   0.960   3.861  14.766  0.2263 -0.3065 -0.4957
 2355SOL     OW18523   3.507   1.900   7.171  0.1228 -0.9301 -0.2362
 2355SOL    HW118524   3.484   1.960   7.242  2.5798  0.2563 -0.4489
 2355SOL    HW218525   3.463   1.936   7.094 -0.0625 -1.3508 -0.3233
 2356SOL     OW18526   3.514   2.800   3.014  0.2134 -0.0240 -0.1495
 2356SOL    HW118527   3.544   2.817   3.103  0.5551 -1.7372  0.0542
 2356SOL    HW218528   3.558   2.873   2.969  0.4687 -2.4511 -3.8426
 2357SOL     OW18529   4.531   3.250   8.229  0.0587  0.5066 -0.0331
 2357SOL    HW118530   4.602   3.257   8.165  1.2025 -1.6468  0.9954
 2357SOL    HW218531   4.567   3.183   8.288 -1.5073  0.2914  0.6678
 2358SOL     OW18532   3.554   2.961   4.960 -0.1841  0.2177 -0.5683
 2358SOL    HW118533   3.469   2.917   4.958 -1.0221  1.7973  0.6044
 2358SOL    HW218534   3.535   3.045   4.918  1.2504  0.6681 -0.2907
 2359SOL     OW18535   3.283   2.505   6.475  0.0616 -0.1034 -0.4570
 2359SOL    HW118536   3.280   2.410   6.487 -0.4229  0.1437  1.5044
 2359SOL    HW218537   3.370   2.532   6.504 -0.0645  0.9755 -1.0674
 2360SOL     OW18538   3.243   2.011   6.666  0.5967  0.1076 -0.1557
 2360SOL    HW118539   3.203   1.934   6.625 -0.4739  1.2749 -1.3000
 2360SOL    HW218540   3.264   1.981   6.754  1.3525 -2.4429 -1.2018
 2361SOL     OW18541   4.011   4.718   4.037  0.4135  0.3540 -0.6789
 2361SOL    HW118542   3.998   0.024   4.127  1.0170 -0.5108 -0.2949
 2361SOL    HW218543   4.102   4.691   4.032 -0.7794 -3.7566  0.2129
 2362SOL     OW18544   2.088   1.796   5.712  0.0585  0.6766  0.5781
 2362SOL    HW118545   2.090   1.784   5.617  0.8298  0.0048  0.6766
 2362SOL    HW218546   2.104   1.889   5.723 -0.1443  0.7061  0.6159
 2363SOL     OW18547   4.166   4.165   4.871  0.5210 -0.7795  0.1763
 2363SOL    HW118548   4.186   4.094   4.932  2.1736 -0.8495 -0.4529
 2363SOL    HW218549   4.196   4.132   4.786  1.2670 -2.0095  0.9192
 2364SOL     OW18550   0.102   1.934   3.702  0.1596  0.0001 -0.1674
 2364SOL    HW118551   0.140   1.897   3.782  0.3350 -1.4532 -0.9223
 2364SOL    HW218552   0.169   1.989   3.661  0.2487  0.6753  0.8747
 2365SOL     OW18553   0.994   1.544  13.435  0.3395  0.1905 -0.2061
 2365SOL    HW118554   0.961   1.456  13.415 -1.7525  0.7858  0.6120
 2365SOL    HW218555   0.915   1.586  13.471 -1.5983 -2.1807 -1.7357
 2366SOL     OW18556   1.726   3.675   4.674 -0.3649 -0.4487  0.0973
 2366SOL    HW118557   1.762   3.674   4.763 -0.8810  0.6186  0.3206
 2366SOL    HW218558   1.659   3.608   4.686  0.9481 -1.3598  2.3241
 2367SOL     OW18559   3.190   4.605   8.548  0.0558  0.2658  0.2226
 2367SOL    HW118560   3.282   4.602   8.574  0.2383 -1.4599 -0.5982
 2367SOL    HW218561   3.171   4.688   8.592  1.5027  1.5850 -1.6596
 2368SOL     OW18562   4.182   1.976  14.642 -0.3026 -0.0175 -0.2135
 2368SOL    HW118563   4.276   1.970  14.628 -0.2113  1.0613 -0.0383
 2368SOL    HW218564   4.172   2.043  14.574  0.4819 -1.1472 -1.4430
 2369SOL     OW18565   3.403   2.375   2.817  0.1402  0.1984  0.0655
 2369SOL    HW118566   3.356   2.352   2.898  0.1375 -2.7106 -0.7349
 2369SOL    HW218567   3.489   2.399   2.853 -0.6411  2.0357  0.6891
 2370SOL     OW18568   4.574   2.065   5.466  0.0173 -0.2008 -0.2488
 2370SOL    HW118569   4.669   2.075   5.478 -0.0272  0.4249 -0.4475
 2370SOL    HW218570   4.556   2.157   5.450  1.2122 -0.0289 -0.6224
 2371SOL     OW18571   2.253   0.130  16.968  0.2836 -0.4683 -0.1750
 2371SOL    HW118572   2.339   0.088  16.962 -1.0875 -3.1426 -1.0018
 2371SOL    HW218573   2.263   0.190  17.042  1.8447 -0.6046 -0.2618
 2372SOL     OW18574   0.709   4.450   3.767  0.5622 -0.5523 -0.3495
 2372SOL    HW118575   0.678   4.538   3.749 -1.5767 -1.2430 -0.0011
 2372SOL    HW218576   0.694   4.415   3.679  0.5242  1.5843 -1.1979
 2373SOL     OW18577   0.051   0.392  13.909  0.5186 -0.7468 -0.3443
 2373SOL    HW118578   0.095   0.391  13.824 -0.4956 -0.2873 -0.8700
 2373SOL    HW218579   0.120   0.419  13.970  0.3876  1.3604 -1.1496
 2374SOL     OW18580   3.484   3.349   4.594 -0.0625 -0.5282 -0.0792
 2374SOL    HW118581   3.548   3.292   4.637  1.1927  0.9920  0.0421
 2374SOL    HW218582   3.441   3.391   4.669  1.8306  0.6360  0.3387
 2375SOL     OW18583   3.435   2.344   3.626  0.4987  0.6048 -0.1458
 2375SOL    HW118584   3.372   2.309   3.563  0.5961 -0.3981  0.3150
 2375SOL    HW218585   3.427   2.279   3.696 -0.1116  1.1205  0.2595
 2376SOL     OW18586   2.971   2.175  10.028  0.0625 -0.2569 -0.5886
 2376SOL    HW118587   2.885   2.215  10.044  1.4301  1.9191  1.3127
 2376SOL    HW218588   3.018   2.251   9.995 -0.2983  0.8065  1.3770
 2377SOL     OW18589   3.360   1.264  13.548  0.2625  0.5602  0.0026
 2377SOL    HW118590   3.326   1.208  13.478  0.9213  1.6366 -1.1927
 2377SOL    HW218591   3.290   1.273  13.612  0.7054  0.3277  0.5222
 2378SOL     OW18592   1.731   1.194   4.007  0.2504 -0.7170 -0.2214
 2378SOL    HW118593   1.779   1.202   4.090 -0.5665 -0.1542  0.1932
 2378SOL    HW218594   1.800   1.167   3.947  0.2985  0.8469 -0.8615
 2379SOL     OW18595   3.859   3.908   3.880  0.1536  0.4893  0.1535
 2379SOL    HW118596   3.771   3.870   3.879  0.0941  0.5958  2.1673
 2379SOL    HW218597   3.908   3.860   3.947 -2.3631 -3.0852 -0.5466
 2380SOL     OW18598   2.292   2.546   6.306 -0.1326  0.5345  0.6755
 2380SOL    HW118599   2.239   2.600   6.364  0.8752 -1.5161  3.4729
 2380SOL    HW218600   2.349   2.616   6.274  0.1516 -0.5807 -1.2668
 2381SOL     OW18601   1.403   1.576   8.535 -0.0111  0.2767 -0.3400
 2381SOL    HW118602   1.394   1.575   8.440 -0.3758 -0.4108 -0.2953
 2381SOL    HW218603   1.455   1.655   8.551 -0.1706  0.1531  0.8262
 2382SOL     OW18604   0.652   0.525   8.841 -0.3472  0.0381  0.0062
 2382SOL    HW118605   0.716   0.589   8.872  0.6568 -0.8715 -0.2079
 2382SOL    HW218606   0.691   0.460   8.783 -0.9574 -0.4069  0.0947
 2383SOL     OW18607   0.112   3.760   4.636 -0.2056 -0.1670 -0.0366
 2383SOL    HW118608   0.122   3.704   4.559  0.6885  1.3400 -1.0198
 2383SOL    HW218609   0.202   3.790   4.646 -0.0404 -0.1324 -1.5951
 2384SOL     OW18610   2.165   3.611   2.444 -0.3400 -0.0533  0.8557
 2384SOL    HW118611   2.170   3.517   2.430 -0.4445  0.1703 -0.7253
 2384SOL    HW218612   2.136   3.631   2.355  1.2378  1.1388  0.6096
 2385SOL     OW18613   3.960   3.393   3.934  0.2861  0.1499  0.5794
 2385SOL    HW118614   4.012   3.327   3.887  0.1458  0.4773 -0.0414
 2385SOL    HW218615   3.975   3.479   3.895 -1.2351  1.1335  2.1235
 2386SOL     OW18616   4.327   0.968   5.426  0.3722  0.5897  0.0283
 2386SOL    HW118617   4.297   1.059   5.436 -1.3466  0.2111 -1.6827
 2386SOL    HW218618   4.352   0.959   5.334  1.5854 -0.6668  0.4922
 2387SOL     OW18619   3.315   0.198   8.997 -0.1413 -0.2768 -0.8110
 2387SOL    HW118620   3.313   0.153   9.081 -0.8400  1.9829  0.3909
 2387SOL    HW218621   3.384   0.150   8.951 -0.5863 -1.7347  0.0617
 2388SOL     OW18622   4.576   0.153   8.093  0.1991  0.5136  0.4290
 2388SOL    HW118623   4.637   0.089   8.058 -1.2261 -0.3441 -0.4942
 2388SOL    HW218624   4.496   0.134   8.044  2.0827 -0.9156 -2.0865
 2389SOL     OW18625   4.243   2.179   4.213  0.3189  0.2681 -0.1739
 2389SOL    HW118626   4.307   2.225   4.268  0.1274  0.7716 -0.3715
 2389SOL    HW218627   4.255   2.088   4.240 -0.4971  0.6833  1.5611
 2390SOL     OW18628   0.951   4.055   3.721  0.4177 -0.3943 -0.2289
 2390SOL    HW118629   0.988   4.127   3.771 -1.8421  0.3493  0.3684
 2390SOL    HW218630   0.962   3.979   3.779  0.4898 -0.2585 -0.0666
 2391SOL     OW18631   1.809   4.546  10.000 -0.0809  0.2009  0.2629
 2391SOL    HW118632   1.892   4.509   9.971 -1.8946 -2.6341 -1.2887
 2391SOL    HW218633   1.834   4.627  10.044 -0.5023  0.8661 -0.7258
 2392SOL     OW18634   0.539   1.233   6.881 -0.2312  0.6865 -0.3932
 2392SOL    HW118635   0.452   1.263   6.855 -1.3564 -0.8983  1.6092
 2392SOL    HW218636   0.600   1.276   6.820  0.2628  2.1540  1.1087
 2393SOL     OW18637   1.877   4.433   3.816  0.2295  0.2327 -0.3005
 2393SOL    HW118638   1.871   4.490   3.892  0.3340  2.0407 -1.6461
 2393SOL    HW218639   1.886   4.498   3.746 -0.3725  1.0472  0.3778
 2394SOL     OW18640   1.016   0.042   9.074  0.2249  0.7858  0.1722
 2394SOL    HW118641   0.974   0.030   9.159 -0.4530  0.5194 -0.2011
 2394SOL    HW218642   1.032   0.136   9.077 -1.2565  1.0241  0.8502
 2395SOL     OW18643   2.208   2.840   7.808 -0.1042  0.4741  0.8615
 2395SOL    HW118644   2.134   2.780   7.820  0.7158 -0.3835  1.6228
 2395SOL    HW218645   2.218   2.856   7.714  0.5465 -0.7884  0.7204
 2396SOL     OW18646   3.115   0.113   0.663 -0.3997  0.2713  0.3286
 2396SOL    HW118647   3.130   0.019   0.653 -1.3192  0.0819  0.7135
 2396SOL    HW218648   3.201   0.149   0.686  0.3410 -0.9715 -0.4684
 2397SOL     OW18649   3.354   1.499  14.517  0.0334 -0.4746  0.1156
 2397SOL    HW118650   3.365   1.589  14.486 -1.5178 -0.5088 -0.5697
 2397SOL    HW218651   3.388   1.460  14.437  1.3156  0.1081  0.3805
 2398SOL     OW18652   4.574   2.060   8.731 -0.1996 -0.4986 -0.6457
 2398SOL    HW118653   4.551   1.993   8.796 -1.8351  1.3130  0.6369
 2398SOL    HW218654   4.666   2.075   8.752  0.1060 -1.0407 -1.5897
 2399SOL     OW18655   3.877   2.040  12.351  0.6734 -0.0071  0.1930
 2399SOL    HW118656   3.795   2.070  12.391  1.0240 -0.1216  0.9951
 2399SOL    HW218657   3.923   2.123  12.359 -1.5114  1.4104 -2.1594
 2400SOL     OW18658   1.531   2.621   8.088  0.3551 -0.1780 -0.2667
 2400SOL    HW118659   1.546   2.700   8.036 -1.4068 -0.6192 -1.4590
 2400SOL    HW218660   1.435   2.624   8.090  0.3662  1.1047 -2.1201
 2401SOL     OW18661   2.393   3.478   5.120  0.4349  0.1035  0.1759
 2401SOL    HW118662   2.433   3.392   5.129  0.3558  0.1255  0.7196
 2401SOL    HW218663   2.305   3.456   5.089 -0.1554  1.1518  1.1009
 2402SOL     OW18664   0.467   1.265   7.908  0.2119 -0.1643 -0.1673
 2402SOL    HW118665   0.400   1.264   7.976  0.9274  1.5458  0.5551
 2402SOL    HW218666   0.496   1.174   7.909 -0.3332 -0.3543 -1.7961
 2403SOL     OW18667   4.314   1.570   5.610  0.4257 -0.0478  0.4763
 2403SOL    HW118668   4.350   1.652   5.577  0.8621  0.0872  1.2738
 2403SOL    HW218669   4.257   1.552   5.536 -0.6059 -0.1530  1.2904
 2404SOL     OW18670   1.769   4.128   0.436 -0.1890  0.0889  0.3808
 2404SOL    HW118671   1.777   4.076   0.356  0.4478  2.7057 -1.2882
 2404SOL    HW218672   1.832   4.199   0.420 -2.2590  1.9294  0.3929
 2405SOL     OW18673   4.195   4.077   6.404 -0.1530  0.1759  0.7015
 2405SOL    HW118674   4.274   4.129   6.422 -0.1275 -0.3330  2.0886
 2405SOL    HW218675   4.123   4.135   6.430 -0.6479 -0.8472  1.6342
 2406SOL     OW18676   4.553   2.903   6.967  0.4622 -0.4060  0.6844
 2406SOL    HW118677   4.581   2.870   6.882 -2.7051  0.0717 -0.5495
 2406SOL    HW218678   4.596   2.989   6.964 -2.2752  0.9355  0.0712
 2407SOL     OW18679   0.673   0.765  15.381  0.4715  0.1779  0.0765
 2407SOL    HW118680   0.716   0.754  15.296  2.0749  2.9138  0.5296
 2407SOL    HW218681   0.717   0.840  15.422  1.4450 -0.7864  0.8015
 2408SOL     OW18682   0.982   0.262   4.578 -0.2354 -0.2956  0.0638
 2408SOL    HW118683   1.024   0.347   4.596  2.0658 -1.9316  2.3447
 2408SOL    HW218684   0.921   0.292   4.510  0.3247 -1.1736 -0.8234
 2409SOL     OW18685   2.310   1.844   4.691  0.6024 -0.0569 -0.2123
 2409SOL    HW118686   2.363   1.795   4.628  0.5457 -1.0085  0.4749
 2409SOL    HW218687   2.360   1.848   4.773 -0.1628 -0.0419  0.2503
 2410SOL     OW18688   2.196   1.834  12.509 -0.1950 -0.2215 -0.1226
 2410SOL    HW118689   2.208   1.912  12.562 -1.6564 -1.3251  1.8381
 2410SOL    HW218690   2.274   1.784  12.531 -0.8619  0.3907  3.5295
 2411SOL     OW18691   2.443   0.479  10.728  0.0859 -0.7583  0.3913
 2411SOL    HW118692   2.354   0.491  10.761  0.1625 -2.0664  1.0808
 2411SOL    HW218693   2.491   0.422  10.789  1.2896  1.4867  1.5546
 2412SOL     OW18694   0.972   4.674  12.533 -0.0541 -0.2492 -0.5438
 2412SOL    HW118695   0.966   4.653  12.626  0.8710  0.3622 -0.3587
 2412SOL    HW218696   1.030   0.024  12.529  1.0187 -1.0036  1.1350
 2413SOL     OW18697   2.093   0.861   1.611  0.0428  0.1142 -0.4574
 2413SOL    HW118698   2.092   0.811   1.693  0.3543  2.1403  0.7868
 2413SOL    HW218699   2.001   0.876   1.592 -0.6190 -1.2487  1.7467
 2414SOL     OW18700   1.229   1.717  14.885  0.6054  0.4574  0.5319
 2414SOL    HW118701   1.169   1.648  14.856 -1.1895  2.0104  0.5437
 2414SOL    HW218702   1.226   1.770  14.805 -0.4316 -0.0677  0.2240
 2415SOL     OW18703   1.273   3.638  13.789 -0.2564  0.0666 -0.2924
 2415SOL    HW118704   1.296   3.648  13.881  0.3711 -1.3959 -0.2924
 2415SOL    HW218705   1.320   3.557  13.767 -0.9764 -0.0063 -1.6068
 2416SOL     OW18706   1.077   3.275   8.362  0.1236 -0.0942  0.1652
 2416SOL    HW118707   0.982   3.291   8.360 -0.0143 -0.4839  3.2773
 2416SOL    HW218708   1.090   3.306   8.451 -0.7090 -0.2647  0.3510
 2417SOL     OW18709   4.253   1.822  15.548 -0.6646 -0.0774  0.0659
 2417SOL    HW118710   4.178   1.882  15.541 -2.3760 -2.0644  1.3938
 2417SOL    HW218711   4.321   1.881  15.517  0.6433 -0.0162  3.0905
 2418SOL     OW18712   4.246   2.209  15.453  0.0492  0.2200  0.5065
 2418SOL    HW118713   4.216   2.251  15.534 -1.9681 -2.8215  1.3541
 2418SOL    HW218714   4.192   2.130  15.462  0.2902  0.1125  0.9951
 2419SOL     OW18715   2.675   0.571  15.348  0.1447  0.5466  0.7742
 2419SOL    HW118716   2.766   0.588  15.373  0.3865 -0.5352  0.6378
 2419SOL    HW218717   2.631   0.569  15.433  0.5741  2.0128  1.0218
 2420SOL     OW18718   4.388   3.191   2.922 -0.3465  0.3793  0.0383
 2420SOL    HW118719   4.359   3.123   2.861  1.5948  1.2416 -1.8107
 2420SOL    HW218720   4.306   3.217   2.964  0.3827 -0.1377  1.7989
 2421SOL     OW18721   0.992   1.661   2.285  0.7607 -0.2397 -0.6062
 2421SOL    HW118722   1.053   1.588   2.296  1.2322  0.2607  0.1454
 2421SOL    HW218723   1.014   1.710   2.365 -0.0978 -1.0340  0.1016
 2422SOL     OW18724   1.175   3.581   8.524  0.1085  0.1922 -0.1241
 2422SOL    HW118725   1.264   3.562   8.555  0.7634  2.4342 -0.6279
 2422SOL    HW218726   1.144   3.499   8.564  2.5812 -0.9464 -0.5556
 2423SOL     OW18727   3.467   2.577   7.084 -0.3987  0.0123  0.2112
 2423SOL    HW118728   3.398   2.619   7.134  1.7202 -0.8634  3.8527
 2423SOL    HW218729   3.539   2.640   7.096  0.9076 -1.8811  2.1281
 2424SOL     OW18730   4.579   0.340   0.565 -0.8331 -0.2807 -0.6201
 2424SOL    HW118731   4.593   0.266   0.625  1.0229  1.9485  1.6913
 2424SOL    HW218732   4.560   0.298   0.481 -0.5664  0.6331 -1.1326
 2425SOL     OW18733   0.016   4.301  15.883 -0.0542 -0.5540 -0.0140
 2425SOL    HW118734   4.698   4.278  15.801 -2.5502  2.2437  0.4903
 2425SOL    HW218735   0.110   4.294  15.867 -0.3241 -1.7323 -1.0011
 2426SOL     OW18736   4.405   4.259   7.610  0.2145  0.0727  0.6799
 2426SOL    HW118737   4.401   4.187   7.673 -0.2706 -1.7666 -1.4993
 2426SOL    HW218738   4.326   4.305   7.639 -1.6204 -0.1359 -4.0064
 2427SOL     OW18739   0.194   1.421   9.009  0.2590 -0.1868  0.3644
 2427SOL    HW118740   0.270   1.378   9.048  1.0525  0.1165 -0.8277
 2427SOL    HW218741   0.185   1.367   8.930  0.9305  0.8655 -0.4233
 2428SOL     OW18742   1.548   3.817   2.050  0.0143  0.1480  0.0410
 2428SOL    HW118743   1.545   3.912   2.040 -1.1529 -0.0094 -1.1373
 2428SOL    HW218744   1.640   3.801   2.068 -0.2721 -2.6477 -0.9535
 2429SOL     OW18745   3.777   0.665  17.626  0.4140  0.2245 -0.1497
 2429SOL    HW118746   3.754   0.757  17.634  0.5362  0.1998  0.5231
 2429SOL    HW218747   3.797   0.657  17.533  0.6426 -0.3723 -0.0522
 2430SOL     OW18748   4.636   3.165   6.986 -0.3579  0.1577 -0.2226
 2430SOL    HW118749   4.623   3.248   6.941 -2.2681  0.4851  0.9429
 2430SOL    HW218750   4.648   3.189   7.077  2.7400 -0.4352 -0.4807
 2431SOL     OW18751   3.608   3.152  17.685  0.1987 -0.0892 -0.3007
 2431SOL    HW118752   3.560   3.234  17.685 -0.7025 -0.6157  0.5074
 2431SOL    HW218753   3.528   3.105   0.004 -0.4528  0.5036 -1.4357
 2432SOL     OW18754   3.152   0.201   9.499  0.0718  0.9892 -0.0701
 2432SOL    HW118755   3.119   0.130   9.444  0.9384 -1.7447  2.9036
 2432SOL    HW218756   3.206   0.145   9.555  0.1279  1.5195  0.4124
 2433SOL     OW18757   2.275   0.026   1.564  0.4994 -0.4061 -0.1304
 2433SOL    HW118758   2.286   0.115   1.597  0.4426 -0.6302  0.5045
 2433SOL    HW218759   2.348   0.018   1.503  2.4354  0.4232  2.0947
 2434SOL     OW18760   2.432   0.531   5.168 -0.4370  0.1707 -0.0269
 2434SOL    HW118761   2.419   0.453   5.114  1.1788 -0.4184  0.4457
 2434SOL    HW218762   2.399   0.509   5.255 -1.1001 -0.5320 -0.4623
 2435SOL     OW18763   0.103   4.671  11.697 -0.6655  0.0688 -0.2879
 2435SOL    HW118764   0.053   4.719  11.762 -2.5906  1.9018 -3.1048
 2435SOL    HW218765   0.176   4.640  11.750 -0.0318 -0.4157 -1.4256
 2436SOL     OW18766   3.013   0.042   6.690 -0.3476  0.2510 -0.2515
 2436SOL    HW118767   2.973   0.019   6.774 -1.6613  2.4394 -0.2795
 2436SOL    HW218768   2.945   0.019   6.626 -1.4845 -0.5076  1.2390
 2437SOL     OW18769   2.035   0.236  13.028 -0.5844  0.0426  0.2002
 2437SOL    HW118770   2.047   0.223  12.934 -1.9616 -1.1965  0.2096
 2437SOL    HW218771   2.046   0.331  13.040  0.9672  0.1489 -1.9474
 2438SOL     OW18772   0.993   0.972   8.503  0.0779  0.3644 -0.1100
 2438SOL    HW118773   1.004   0.948   8.595  2.6638 -1.1760 -0.8229
 2438SOL    HW218774   1.006   0.890   8.456 -0.3777 -0.0270  0.4476
 2439SOL     OW18775   3.815   1.061   5.165 -0.9998  0.3588  0.6018
 2439SOL    HW118776   3.846   0.998   5.230 -1.4879 -0.4699  0.0298
 2439SOL    HW218777   3.777   1.127   5.224 -0.2351  1.4329 -0.1251
 2440SOL     OW18778   2.652   1.468   9.031 -0.4376  0.0969 -0.0042
 2440SOL    HW118779   2.743   1.496   9.021 -0.3737  0.4309  1.4162
 2440SOL    HW218780   2.644   1.447   9.124 -3.1829 -1.1646 -0.5283
 2441SOL     OW18781   1.384   2.165   7.931 -0.2171  0.0750  0.0754
 2441SOL    HW118782   1.380   2.091   7.991 -0.5520 -0.9559 -1.2263
 2441SOL    HW218783   1.322   2.147   7.861  0.9401  0.6397 -1.0889
 2442SOL     OW18784   0.420   3.023   5.774  0.4642 -0.2658  0.0364
 2442SOL    HW118785   0.479   2.978   5.713  0.2112 -0.0378 -0.3783
 2442SOL    HW218786   0.466   3.012   5.857 -2.7989  1.6463  2.0590
 2443SOL     OW18787   0.208   4.153   4.181 -0.3213 -0.6317 -0.1752
 2443SOL    HW118788   0.289   4.103   4.173  0.9395  1.3713 -0.1307
 2443SOL    HW218789   0.233   4.245   4.169 -0.5809 -0.5654 -0.2241
 2444SOL     OW18790   2.906   1.462   8.037  0.2248  0.2667  0.1655
 2444SOL    HW118791   2.869   1.425   7.957  0.7705  1.2219 -0.5236
 2444SOL    HW218792   2.999   1.463   8.012 -0.0613  2.1741 -0.7974
 2445SOL     OW18793   1.816   3.366   7.434  0.2412 -0.5903 -0.2025
 2445SOL    HW118794   1.725   3.336   7.436 -1.1555  3.7783  1.8342
 2445SOL    HW218795   1.808   3.459   7.457 -0.3821 -0.9607  1.1269
 2446SOL     OW18796   3.307   2.181  16.294 -0.6410 -0.1602  0.7770
 2446SOL    HW118797   3.257   2.100  16.298  2.3708 -2.0004  0.8935
 2446SOL    HW218798   3.393   2.152  16.265 -0.6126  1.1498 -0.4668
 2447SOL     OW18799   3.945   0.454   7.420  0.0828 -0.1455  0.1312
 2447SOL    HW118800   3.863   0.502   7.426 -0.8994 -1.8627  0.4925
 2447SOL    HW218801   3.986   0.501   7.347 -1.2980  1.3614  0.3305
 2448SOL     OW18802   2.496   3.870   3.501 -0.1644  0.2991 -0.0855
 2448SOL    HW118803   2.430   3.898   3.438  2.6357  0.9696 -2.7280
 2448SOL    HW218804   2.497   3.942   3.564 -0.6543 -0.0834  0.3599
 2449SOL     OW18805   0.987   2.771   7.170 -0.2751 -0.2486  0.6816
 2449SOL    HW118806   1.067   2.745   7.125 -0.0086  2.7408 -0.5670
 2449SOL    HW218807   0.950   2.842   7.117 -0.3691 -0.1926  0.8231
 2450SOL     OW18808   1.059   1.876   3.964 -0.8692 -0.2018 -0.0906
 2450SOL    HW118809   1.076   1.969   3.950  0.2152  0.0161  2.6208
 2450SOL    HW218810   1.034   1.880   4.056 -1.9145  1.3773 -0.4520
 2451SOL     OW18811   4.059   0.505   8.116  0.1155 -0.4549  0.1970
 2451SOL    HW118812   4.095   0.556   8.043 -1.0113  0.5801  0.3460
 2451SOL    HW218813   4.041   0.568   8.186 -0.9419  1.2771 -1.6378
 2452SOL     OW18814   3.771   2.989   5.510 -1.0781  0.1980  0.2040
 2452SOL    HW118815   3.716   2.919   5.546 -0.4778  1.1796  3.0778
 2452SOL    HW218816   3.828   3.000   5.586  0.5539 -0.1514 -0.9801
 2453SOL     OW18817   2.804   3.707   5.928  0.2879  0.0700  0.7169
 2453SOL    HW118818   2.715   3.688   5.957 -0.0545  0.2461 -0.1990
 2453SOL    HW218819   2.858   3.633   5.954 -0.5291 -1.9540 -3.3160
 2454SOL     OW18820   0.373   3.902   9.841 -0.5585  0.5385  0.0646
 2454SOL    HW118821   0.344   3.881   9.930  0.8604 -0.2761  0.3414
 2454SOL    HW218822   0.411   3.984   9.872 -0.0092  0.0749  0.6219
 2455SOL     OW18823   0.376   0.052   8.352 -0.1853 -0.2584  0.0767
 2455SOL    HW118824   0.281   0.040   8.351 -0.0390 -1.4892  1.6698
 2455SOL    HW218825   0.402   4.689   8.378  2.4201  0.3228 -0.4940
 2456SOL     OW18826   1.819   3.159   5.326 -0.6510 -0.3839  0.2351
 2456SOL    HW118827   1.753   3.213   5.370  0.4710  2.5352 -1.6642
 2456SOL    HW218828   1.880   3.152   5.400 -1.1450  0.4916  0.7332
 2457SOL     OW18829   1.141   2.802   3.376 -0.9595 -0.3817 -0.1309
 2457SOL    HW118830   1.187   2.726   3.340  0.0905 -0.0299  0.4699
 2457SOL    HW218831   1.188   2.874   3.333 -1.9203  0.6691  0.5804
 2458SOL     OW18832   3.829   1.663   4.294 -1.0262 -0.9597  0.0064
 2458SOL    HW118833   3.900   1.600   4.299  0.1044  0.1355 -2.4267
 2458SOL    HW218834   3.803   1.651   4.202  0.1530  0.0740 -0.4510
 2459SOL     OW18835   2.802   4.556   3.712  0.2836  0.1968  0.7685
 2459SOL    HW118836   2.789   4.641   3.671  2.4941  0.7494  1.1898
 2459SOL    HW218837   2.709   4.535   3.718 -0.2101  2.4455  0.9689
 2460SOL     OW18838   4.222   1.403   4.783 -0.2032  0.4797 -0.2783
 2460SOL    HW118839   4.209   1.357   4.700 -0.5681  0.3477 -0.1455
 2460SOL    HW218840   4.205   1.494   4.762  1.8053  1.1774  1.1125
 2461SOL     OW18841   2.319   0.442   5.758  0.2148 -0.0910 -0.5517
 2461SOL    HW118842   2.357   0.421   5.673 -0.5783  0.7308 -1.1060
 2461SOL    HW218843   2.329   0.353   5.793  0.3326  0.5874  1.1888
 2462SOL     OW18844   1.623   2.544  15.263 -0.3286  0.3923 -0.3770
 2462SOL    HW118845   1.685   2.616  15.249 -1.4006  1.2633 -0.6893
 2462SOL    HW218846   1.572   2.554  15.183 -0.7827 -1.4394 -0.3053
 2463SOL     OW18847   1.448   4.325   6.024  0.1109 -0.3214  0.2348
 2463SOL    HW118848   1.418   4.371   6.103 -1.0190 -0.3571 -0.1731
 2463SOL    HW218849   1.518   4.283   6.074 -0.9513 -0.4385  1.6197
 2464SOL     OW18850   0.837   2.495  17.320 -0.0890 -0.2569  0.1136
 2464SOL    HW118851   0.788   2.571  17.351 -1.0455 -0.2862 -1.3244
 2464SOL    HW218852   0.760   2.440  17.307 -0.5087  0.0811  1.1823
 2465SOL     OW18853   3.057   0.917  11.670  0.0926 -0.0106 -0.4910
 2465SOL    HW118854   3.138   0.968  11.679  0.0823  0.2808 -2.0330
 2465SOL    HW218855   3.037   0.894  11.760 -1.2407 -1.1797 -1.0786
 2466SOL     OW18856   0.915   2.062  13.447  0.0089  0.6549  0.1021
 2466SOL    HW118857   0.878   2.143  13.482  0.3242  0.2857  1.2944
 2466SOL    HW218858   1.006   2.090  13.450  0.4723 -0.5854 -2.6508
 2467SOL     OW18859   0.603   3.614   0.456  0.3259 -0.1082 -0.6220
 2467SOL    HW118860   0.556   3.666   0.521  0.1535  0.3349 -1.1077
 2467SOL    HW218861   0.588   3.652   0.370  0.8887  0.5848 -0.4119
 2468SOL     OW18862   1.944   1.175   2.708  0.4689  0.1964 -0.1612
 2468SOL    HW118863   1.912   1.229   2.635  4.0278 -1.1467 -2.7430
 2468SOL    HW218864   1.933   1.086   2.676 -0.5488  0.8868 -1.8176
 2469SOL     OW18865   1.209   1.809   6.946  0.9736  0.1053 -0.2732
 2469SOL    HW118866   1.278   1.864   6.908 -0.0073  2.0114  0.6943
 2469SOL    HW218867   1.152   1.805   6.869  1.4564 -1.4406 -0.5443
 2470SOL     OW18868   1.165   1.490  12.769  0.2350  0.0020  0.2163
 2470SOL    HW118869   1.108   1.451  12.703  0.8262 -2.5071  1.1624
 2470SOL    HW218870   1.231   1.530  12.713 -0.8372 -0.7532 -1.6018
 2471SOL     OW18871   2.499   0.053   1.400 -0.5700  0.4894  0.6424
 2471SOL    HW118872   2.571   0.052   1.463  1.7870 -0.1856 -2.0778
 2471SOL    HW218873   2.549   0.085   1.325 -0.6730  1.0146  0.7965
 2472SOL     OW18874   0.002   3.768   8.417  0.0928 -0.2491  0.1936
 2472SOL    HW118875   0.012   3.706   8.489  0.4026 -0.5290 -0.0880
 2472SOL    HW218876   4.711   3.712   8.341 -1.4739 -2.4238  2.1238
 2473SOL     OW18877   1.702   1.356   6.076  0.1066  0.5745 -0.4642
 2473SOL    HW118878   1.726   1.449   6.081 -2.4530  1.1921  0.3176
 2473SOL    HW218879   1.624   1.355   6.021 -0.1789 -1.3057 -0.0143
 2474SOL     OW18880   1.922   0.122   4.795 -0.5025 -0.2001  0.5710
 2474SOL    HW118881   1.934   0.149   4.885  1.3710  0.7097  0.0370
 2474SOL    HW218882   1.869   0.197   4.770  1.6346 -0.3513 -4.5073
 2475SOL     OW18883   0.407   4.228   5.663  0.0903  0.6704 -0.2928
 2475SOL    HW118884   0.502   4.239   5.665  0.4311 -2.3861  0.3784
 2475SOL    HW218885   0.383   4.229   5.571 -1.2547  0.5183  0.0576
 2476SOL     OW18886   4.116   4.698   3.011 -0.1349 -0.5087  0.3032
 2476SOL    HW118887   4.144   0.062   3.030 -0.8278 -0.7215  2.3186
 2476SOL    HW218888   4.023   4.703   2.987 -0.0617 -2.3339 -0.3458
 2477SOL     OW18889   0.303   4.264   6.429  0.4904 -0.8522 -0.6261
 2477SOL    HW118890   0.385   4.278   6.477  0.1161  0.7101 -0.4675
 2477SOL    HW218891   0.238   4.255   6.498  2.5045 -2.1074  1.1302
 2478SOL     OW18892   1.062   4.440  13.018  0.6316  0.7623 -0.6636
 2478SOL    HW118893   1.077   4.349  12.994  1.0955  0.3839  1.0291
 2478SOL    HW218894   1.027   4.429  13.106  0.8173 -2.7932 -1.0349
 2479SOL     OW18895   1.651   1.257  11.655 -0.4234  0.3920 -0.1737
 2479SOL    HW118896   1.713   1.291  11.591  1.7170 -0.1166  1.6141
 2479SOL    HW218897   1.645   1.328  11.720 -0.6427 -1.3771  1.7455
 2480SOL     OW18898   1.098   0.667   3.199 -0.4771 -0.2619 -0.4552
 2480SOL    HW118899   1.131   0.579   3.179 -1.2975 -0.4237 -1.0754
 2480SOL    HW218900   1.143   0.682   3.283  0.4865 -4.1916 -0.2384
 2481SOL     OW18901   2.603   3.953   0.068 -0.7095  0.1768  0.5070
 2481SOL    HW118902   2.554   3.986  17.696 -0.9897 -2.2160 -0.3558
 2481SOL    HW218903   2.640   4.035   0.099  0.3265 -0.0873 -0.0416
 2482SOL     OW18904   3.563   2.827   3.334 -0.1589 -0.0275  0.0140
 2482SOL    HW118905   3.497   2.760   3.316 -0.9611  0.1021  2.4135
 2482SOL    HW218906   3.495   2.894   3.336  0.0144  0.1605 -0.4989
 2483SOL     OW18907   4.529   0.865   0.295  0.5767 -0.2389  0.2541
 2483SOL    HW118908   4.613   0.908   0.312  1.5799 -2.2342  0.2751
 2483SOL    HW218909   4.555   0.776   0.318  0.5109 -0.5312 -0.8001
 2484SOL     OW18910   1.196   2.530   2.523 -0.9124 -0.0521  0.2973
 2484SOL    HW118911   1.159   2.451   2.483 -0.8925  0.0376  0.0980
 2484SOL    HW218912   1.286   2.512   2.494 -0.9613 -0.4037  0.3622
 2485SOL     OW18913   3.552   1.921   3.167  0.2839 -0.5562 -0.5333
 2485SOL    HW118914   3.605   1.941   3.090  0.2666  0.3158 -0.3194
 2485SOL    HW218915   3.503   2.003   3.177  0.0669 -0.4449 -2.6085
 2486SOL     OW18916   4.448   4.415  11.248 -0.0991  0.3062  0.2185
 2486SOL    HW118917   4.465   4.350  11.180 -0.5288  0.7321 -0.2953
 2486SOL    HW218918   4.479   4.493  11.202  1.4120 -1.2058 -1.3309
 2487SOL     OW18919   4.008   2.708   2.994 -0.2458  0.7153  0.3137
 2487SOL    HW118920   4.102   2.705   2.975 -0.4917 -0.1781 -0.6817
 2487SOL    HW218921   3.981   2.726   2.904 -0.0235 -0.0461  0.0990
 2488SOL     OW18922   2.326   2.641   4.693 -0.4487 -0.2913  0.5781
 2488SOL    HW118923   2.338   2.647   4.787 -1.6070  0.0181  0.7040
 2488SOL    HW218924   2.368   2.716   4.651 -2.5819  0.1318 -0.8270
 2489SOL     OW18925   1.517   1.098   8.293 -0.1601 -0.0991  0.0191
 2489SOL    HW118926   1.544   1.091   8.384 -0.9522 -0.4607  0.2257
 2489SOL    HW218927   1.567   1.025   8.259  0.5667 -1.2747  3.6169
 2490SOL     OW18928   3.230   4.604   4.107 -0.7289  0.2018 -0.3630
 2490SOL    HW118929   3.166   4.565   4.167 -1.3011  0.3163 -0.9065
 2490SOL    HW218930   3.264   4.536   4.049 -0.0542 -1.4532  1.9521
 2491SOL     OW18931   4.434   1.314  13.919 -0.4697  0.0091 -0.1041
 2491SOL    HW118932   4.435   1.302  13.824  2.0438  0.2247 -0.0898
 2491SOL    HW218933   4.474   1.229  13.938  0.7416  0.5709 -0.1766
 2492SOL     OW18934   2.640   4.414   5.299  0.3193  0.1618  0.1245
 2492SOL    HW118935   2.704   4.374   5.359 -3.5161 -1.3239  3.2075
 2492SOL    HW218936   2.563   4.413   5.356  0.9134  1.1237  0.9571
 2493SOL     OW18937   1.728   0.118  14.912  0.4678  0.2523 -0.3801
 2493SOL    HW118938   1.803   0.171  14.885  0.5866  1.5011  2.4430
 2493SOL    HW218939   1.659   0.154  14.856  1.2950  1.5008 -0.6016
 2494SOL     OW18940   3.330   4.571   6.282 -0.6742  0.0452  0.4953
 2494SOL    HW118941   3.268   4.614   6.340 -0.3197  1.3175 -0.0800
 2494SOL    HW218942   3.418   4.592   6.311 -0.2385  0.3172 -0.9946
 2495SOL     OW18943   2.210   3.014   7.261 -0.4746 -0.0147 -0.3813
 2495SOL    HW118944   2.136   2.989   7.316  0.4652 -1.4335  0.2330
 2495SOL    HW218945   2.271   2.991   7.331  0.3493  0.0056 -1.0982
 2496SOL     OW18946   1.171   4.714   3.722  0.1290  0.2333  0.7854
 2496SOL    HW118947   1.081   4.683   3.735  0.2105 -0.7524 -1.0184
 2496SOL    HW218948   1.186   0.038   3.803 -2.6501 -0.7125  1.9037
 2497SOL     OW18949   1.576   4.632   5.379  0.1271 -0.2291 -0.5097
 2497SOL    HW118950   1.494   4.669   5.410 -0.2215 -1.8456  0.5326
 2497SOL    HW218951   1.545   4.542   5.387  1.4764 -0.8230 -1.9606
 2498SOL     OW18952   4.637   4.240   6.161  0.0980  0.1909  0.0716
 2498SOL    HW118953   4.589   4.242   6.079 -1.3992 -1.0024  0.9140
 2498SOL    HW218954   0.002   4.250   6.131 -0.5674 -0.1697 -1.9923
 2499SOL     OW18955   4.698   1.698   5.626  0.0502 -0.2928  0.4072
 2499SOL    HW118956   4.722   1.655   5.708  0.2730 -2.7163 -0.9147
 2499SOL    HW218957   4.602   1.700   5.632  0.2112 -1.6875  3.5771
 2500SOL     OW18958   0.006   0.917   4.696 -0.3531  0.0375  0.0611
 2500SOL    HW118959   0.008   0.971   4.617  2.3959 -0.5936 -0.2784
 2500SOL    HW218960   0.081   0.859   4.683  0.5119  1.2236 -0.2669
 2501SOL     OW18961   2.049   4.622   7.846 -0.7952  0.5970 -0.1234
 2501SOL    HW118962   2.072   4.715   7.844 -0.5388  0.5447  0.6785
 2501SOL    HW218963   2.114   4.586   7.785 -1.1168  0.1725 -0.2154
 2502SOL     OW18964   0.774   2.676   5.400  0.0196 -0.2345  0.0681
 2502SOL    HW118965   0.730   2.641   5.479 -2.1768 -0.1512 -1.1061
 2502SOL    HW218966   0.788   2.769   5.418  0.9180 -0.5828  1.1647
 2503SOL     OW18967   2.219   2.680   2.877 -0.6988 -0.5937 -0.2993
 2503SOL    HW118968   2.291   2.723   2.923 -2.1887 -0.6470  2.0731
 2503SOL    HW218969   2.162   2.756   2.866 -2.7004 -2.2716 -1.3501
 2504SOL     OW18970   1.798   0.183   1.844  0.1835  0.2518  0.8063
 2504SOL    HW118971   1.738   0.110   1.863 -0.8217  1.0555  0.7191
 2504SOL    HW218972   1.768   0.245   1.911  1.7368 -0.9770  2.6278
 2505SOL     OW18973   1.831   2.005  11.404 -0.9131 -0.4020 -0.2784
 2505SOL    HW118974   1.864   1.929  11.452  1.1516  0.8771  0.3573
 2505SOL    HW218975   1.869   2.004  11.317  1.3437 -0.1110  0.7121
 2506SOL     OW18976   0.212   2.103   1.798  0.2778 -0.0907  0.3608
 2506SOL    HW118977   0.170   2.100   1.884  1.4526 -3.9006  0.8404
 2506SOL    HW218978   0.298   2.138   1.819  0.0430  2.4855 -2.9508
 2507SOL     OW18979   2.275   2.919   2.571  0.0324 -0.1830 -0.0201
 2507SOL    HW118980   2.196   2.888   2.615  1.2444 -0.2476  2.1204
 2507SOL    HW218981   2.312   2.839   2.534 -1.1698 -0.5134 -0.5044
 2508SOL     OW18982   0.506   4.635  13.069  0.5835  1.2133  0.8429
 2508SOL    HW118983   0.592   4.618  13.029 -1.2014 -3.6487 -0.9288
 2508SOL    HW218984   0.479   4.720  13.036 -1.3832  0.0764 -0.4652
 2509SOL     OW18985   1.354   2.648  16.484  0.0948 -0.3176  0.1510
 2509SOL    HW118986   1.350   2.734  16.442  3.7902  0.2652  1.0389
 2509SOL    HW218987   1.272   2.610  16.452  0.2819 -1.0374  0.5281
 2510SOL     OW18988   3.998   3.038   9.036  0.1076 -0.5866  0.3447
 2510SOL    HW118989   3.988   3.098   9.110 -1.7330  1.0201 -1.2147
 2510SOL    HW218990   3.926   2.977   9.052 -0.8656  1.0298  2.0976
 2511SOL     OW18991   3.906   0.368   4.173 -0.4766  0.1644 -0.1443
 2511SOL    HW118992   3.847   0.308   4.219 -0.9546 -0.6336 -1.8156
 2511SOL    HW218993   3.896   0.340   4.082  1.9554  0.1890 -0.4023
 2512SOL     OW18994   2.340   3.988   0.598 -0.3260  0.4095 -0.2910
 2512SOL    HW118995   2.378   3.949   0.519  0.9093 -0.1794  0.5829
 2512SOL    HW218996   2.259   3.939   0.595 -0.4250  0.3871  2.3321
 2513SOL     OW18997   3.457   3.221   2.495  0.4192 -0.0169  0.0768
 2513SOL    HW118998   3.477   3.304   2.539 -1.0766 -0.1481  0.9851
 2513SOL    HW218999   3.381   3.247   2.443  1.1995 -0.2199 -1.1857
 2514SOL     OW19000   3.786   3.222   7.556 -0.4279 -0.1756  0.3831
 2514SOL    HW119001   3.780   3.148   7.617  0.1422 -0.1592  0.4627
 2514SOL    HW219002   3.865   3.200   7.507 -0.6491  1.2476 -0.6264
 2515SOL     OW19003   2.089   4.506   5.565 -0.3230 -0.1743  0.4302
 2515SOL    HW119004   2.045   4.427   5.597  0.9737 -2.2150 -2.8723
 2515SOL    HW219005   2.182   4.495   5.588 -0.0324  1.4534  0.0244
 2516SOL     OW19006   1.052   3.123   4.010  0.3697 -0.1858 -0.2138
 2516SOL    HW119007   0.980   3.107   3.949 -0.1392  1.8951 -0.1662
 2516SOL    HW219008   1.128   3.115   3.953  0.5698 -1.3622  0.2099
 2517SOL     OW19009   4.644   4.541   4.884  0.1212 -0.1030  0.3833
 2517SOL    HW119010   4.715   4.597   4.853  0.6869 -1.5837 -1.0049
 2517SOL    HW219011   4.685   4.501   4.960  0.4078 -0.8344 -0.1642
 2518SOL     OW19012   1.224   4.337   1.825 -0.1546 -0.1879 -0.4287
 2518SOL    HW119013   1.199   4.324   1.916  2.1154  1.1190  0.3982
 2518SOL    HW219014   1.159   4.287   1.777 -0.7109  2.1091 -2.0889
 2519SOL     OW19015   3.163   4.300   4.168  0.3896 -0.1209  0.6121
 2519SOL    HW119016   3.214   4.345   4.101 -0.9512 -1.1250 -1.1070
 2519SOL    HW219017   3.232   4.257   4.218 -1.1812 -2.6715  0.6320
 2520SOL     OW19018   2.659   3.789  14.585 -0.1922 -0.2357  0.5310
 2520SOL    HW119019   2.578   3.820  14.545 -0.8204 -0.1998  1.8166
 2520SOL    HW219020   2.640   3.810  14.677  0.4539  0.4627  0.5003
 2521SOL     OW19021   0.672   3.661   5.097 -0.3081 -0.5565  0.7052
 2521SOL    HW119022   0.730   3.599   5.053  1.6862  1.4261  0.5311
 2521SOL    HW219023   0.734   3.725   5.133  0.0527 -0.5090 -0.0036
 2522SOL     OW19024   3.446   2.773   4.043 -0.1014  0.2181 -0.4388
 2522SOL    HW119025   3.441   2.774   4.139 -1.7123  1.2835 -0.5363
 2522SOL    HW219026   3.525   2.727   4.014 -0.1919 -0.1429 -0.1170
 2523SOL     OW19027   2.238   2.424   8.430 -0.2743 -0.2197 -0.0590
 2523SOL    HW119028   2.178   2.437   8.357  0.0945 -3.2983 -0.9339
 2523SOL    HW219029   2.326   2.415   8.393  0.4688  0.2018  1.6112
 2524SOL     OW19030   2.341   2.585   8.104  0.2835  0.2657  0.4430
 2524SOL    HW119031   2.369   2.495   8.087 -0.7691  0.0586 -0.1820
 2524SOL    HW219032   2.250   2.562   8.124  0.4095  2.0529  2.9783
 2525SOL     OW19033   0.301   0.811  10.375 -0.0410  0.1765 -0.2369
 2525SOL    HW119034   0.286   0.804  10.280 -1.6116 -0.2161  0.0364
 2525SOL    HW219035   0.221   0.770  10.408 -0.3936 -0.5400 -1.9655
 2526SOL     OW19036   2.813   3.982   5.507 -0.2679 -0.2560  0.2326
 2526SOL    HW119037   2.774   4.011   5.425 -1.3286 -0.4653  0.6654
 2526SOL    HW219038   2.737   3.976   5.564 -0.7788  0.9744 -0.3309
 2527SOL     OW19039   2.833   2.102   3.345  0.0262 -0.0555 -0.2754
 2527SOL    HW119040   2.901   2.065   3.288  2.1346  0.0107  2.1798
 2527SOL    HW219041   2.768   2.107   3.276  1.4276 -0.7888 -1.6534
 2528SOL     OW19042   1.979   3.328   5.857 -0.2891  0.8782 -0.0989
 2528SOL    HW119043   2.028   3.262   5.906  1.7344  1.2863 -1.6019
 2528SOL    HW219044   1.894   3.332   5.901 -0.6093 -1.2487 -0.5011
 2529SOL     OW19045   0.894   4.437   4.614 -0.0255  0.5336 -0.6611
 2529SOL    HW119046   0.823   4.383   4.649  0.1694 -0.0789 -1.2171
 2529SOL    HW219047   0.902   4.500   4.686 -0.0544 -0.2781  0.0661
 2530SOL     OW19048   0.685   3.442   3.267  0.9727  0.0514  0.1353
 2530SOL    HW119049   0.699   3.350   3.291 -0.3812  0.1271  1.2084
 2530SOL    HW219050   0.722   3.447   3.179 -1.7031 -0.6808 -1.0478
 2531SOL     OW19051   0.068   0.463   4.365  0.5701 -0.1849  0.2487
 2531SOL    HW119052   0.090   0.440   4.455  1.4080 -0.2770  0.0195
 2531SOL    HW219053   4.710   0.510   4.374  0.2873 -0.4930 -0.8234
 2532SOL     OW19054   3.478   3.815   6.276  0.0618 -0.1105  0.6375
 2532SOL    HW119055   3.514   3.904   6.275  1.6059 -0.7529  0.0239
 2532SOL    HW219056   3.447   3.803   6.366  1.0174 -1.4431  0.7839
 2533SOL     OW19057   1.517   4.343  12.563  0.5763 -0.1879  0.3659
 2533SOL    HW119058   1.573   4.410  12.601 -0.4868  1.1803 -0.4612
 2533SOL    HW219059   1.578   4.270  12.572 -1.5266 -1.7084  2.3862
 2534SOL     OW19060   4.003   0.543  14.355 -0.1349 -0.3757 -0.8564
 2534SOL    HW119061   4.066   0.476  14.383 -0.5717 -1.0064 -1.3704
 2534SOL    HW219062   3.975   0.510  14.269 -1.4557 -2.4225  0.3639
 2535SOL     OW19063   2.830   0.256   6.304  0.2204  0.0940  0.7823
 2535SOL    HW119064   2.806   0.231   6.215 -1.4263 -0.2378  1.3047
 2535SOL    HW219065   2.781   0.335   6.325  2.8830  1.8370  0.3437
 2536SOL     OW19066   0.224   4.610   6.453  0.7364  0.0807  0.2479
 2536SOL    HW119067   0.262   4.623   6.366  0.2982 -3.4635 -0.4754
 2536SOL    HW219068   0.292   4.552   6.488 -1.6532 -0.3989  4.0925
 2537SOL     OW19069   3.625   2.862  17.651 -0.2546  0.3144 -0.3306
 2537SOL    HW119070   3.595   2.869  17.560  0.7056 -1.6345 -0.7893
 2537SOL    HW219071   3.704   2.811  17.636  0.3365  1.2805 -0.5497
 2538SOL     OW19072   0.354   1.925  13.875  0.7558 -0.3548 -0.2784
 2538SOL    HW119073   0.408   1.864  13.924 -1.4515 -0.3971  2.0849
 2538SOL    HW219074   0.377   2.008  13.914 -2.5720  0.3660  0.2026
 2539SOL     OW19075   0.543   3.220  12.869 -0.0173 -0.3869 -0.6507
 2539SOL    HW119076   0.584   3.273  12.800 -0.8726  1.0774 -0.0303
 2539SOL    HW219077   0.452   3.244  12.849 -0.0539  0.0096 -0.0017
 2540SOL     OW19078   1.858   0.079   7.560  0.0087  0.2718  0.3230
 2540SOL    HW119079   1.812   0.026   7.625  1.5934  1.5643  2.4601
 2540SOL    HW219080   1.786   0.082   7.496  0.2408 -1.3478 -0.0225
 2541SOL     OW19081   2.776   0.075  10.404  0.4283 -0.2576 -0.4198
 2541SOL    HW119082   2.854   0.027  10.376  1.0608  1.5043 -1.6764
 2541SOL    HW219083   2.750   0.054  10.493  2.0675  1.4060  0.4606
 2542SOL     OW19084   3.625   3.040   2.862 -0.3639  0.0657  0.0057
 2542SOL    HW119085   3.547   3.087   2.833 -1.7511 -2.4575 -0.3437
 2542SOL    HW219086   3.642   2.979   2.791  2.1369 -0.9308  1.4755
 2543SOL     OW19087   2.046   2.759   2.621  0.1412 -0.6153 -0.4868
 2543SOL    HW119088   1.962   2.717   2.600 -0.5038  1.6581 -2.4356
 2543SOL    HW219089   2.044   2.774   2.715 -1.3570 -1.9960 -0.2904
 2544SOL     OW19090   0.966   3.056   1.238 -0.5710  0.2744  0.7649
 2544SOL    HW119091   0.972   3.117   1.164  1.6563 -0.9550 -0.0577
 2544SOL    HW219092   1.016   2.977   1.221  0.7248  1.1851  0.3093
 2545SOL     OW19093   2.934   2.337   3.091  0.3760  0.2288  0.2784
 2545SOL    HW119094   2.875   2.407   3.060  2.1511  1.5585 -0.1207
 2545SOL    HW219095   2.879   2.264   3.119 -2.2825  2.1596  0.1703
 2546SOL     OW19096   2.998   0.703   3.957  0.0324  0.2190 -0.1516
 2546SOL    HW119097   2.932   0.743   3.899  0.0315  1.4262  0.6751
 2546SOL    HW219098   2.955   0.621   3.983 -0.7843  0.0915 -1.8671
 2547SOL     OW19099   3.913   3.835   9.121  0.0956 -0.0797 -0.2619
 2547SOL    HW119100   3.925   3.927   9.146 -1.4719  0.1370 -0.3277
 2547SOL    HW219101   3.839   3.846   9.061  0.8028 -0.8225 -1.2531
 2548SOL     OW19102   1.078   4.112   7.315  0.4722 -0.1197 -0.1881
 2548SOL    HW119103   1.087   4.135   7.223  1.0786 -1.5394 -0.4837
 2548SOL    HW219104   1.171   4.101   7.335  0.3116  1.7473  1.6410
 2549SOL     OW19105   1.074   1.477   2.661  0.3760  0.1607  0.0581
 2549SOL    HW119106   0.992   1.484   2.613  0.4455 -0.1304 -0.1026
 2549SOL    HW219107   1.066   1.397   2.712 -2.3194  0.8724  0.7099
 2550SOL     OW19108   1.683   3.490   2.562 -0.1182 -0.0111 -0.5244
 2550SOL    HW119109   1.690   3.523   2.473 -0.1030  0.9849 -0.1460
 2550SOL    HW219110   1.588   3.498   2.570 -0.0297 -1.3017  2.0796
 2551SOL     OW19111   2.751   0.238   4.582 -0.3625 -0.4879  0.7164
 2551SOL    HW119112   2.778   0.155   4.622 -1.7117 -1.1102  0.3328
 2551SOL    HW219113   2.658   0.228   4.600 -0.3341  2.1785  2.3259
 2552SOL     OW19114   0.973   1.460   4.691 -0.1478  0.4919 -0.1349
 2552SOL    HW119115   0.945   1.430   4.777  1.2306 -1.6383 -0.4164
 2552SOL    HW219116   0.966   1.379   4.640  0.2704  0.6863 -0.5105
 2553SOL     OW19117   0.677   4.156  13.101 -0.1849 -0.5387 -0.2968
 2553SOL    HW119118   0.619   4.228  13.127 -1.3486 -0.7995 -2.2122
 2553SOL    HW219119   0.621   4.110  13.039  0.3286 -3.9498  1.7243
 2554SOL     OW19120   0.250   4.711  12.831 -0.3095  0.3749  0.2351
 2554SOL    HW119121   0.191   4.683  12.900 -1.5762 -0.9251 -1.3645
 2554SOL    HW219122   0.326   0.014  12.882 -0.2797  2.8545 -1.1828
 2555SOL     OW19123   2.888   0.354   0.343 -0.1362  0.4110 -0.2865
 2555SOL    HW119124   2.862   0.362   0.435  0.4019 -0.3402 -0.0601
 2555SOL    HW219125   2.881   0.446   0.319 -1.0819  0.9574  2.1399
 2556SOL     OW19126   3.863   0.381   4.583  0.0025  0.1357  0.0525
 2556SOL    HW119127   3.895   0.327   4.655  1.4936  2.3428  1.0742
 2556SOL    HW219128   3.824   0.456   4.629  0.8053  1.6376 -1.7058
 2557SOL     OW19129   2.949   3.457   2.277  0.2544 -0.6133 -1.1083
 2557SOL    HW119130   2.918   3.371   2.250  1.7246 -1.2109 -0.9249
 2557SOL    HW219131   2.869   3.490   2.318  0.2716 -1.5073 -0.3665
 2558SOL     OW19132   4.215   1.482  12.817 -0.4058  0.0983 -0.5949
 2558SOL    HW119133   4.144   1.435  12.774 -0.2520 -1.4678  0.8354
 2558SOL    HW219134   4.275   1.502  12.745  0.6639  0.0543  0.2769
 2559SOL     OW19135   4.115   0.893   0.674  0.3290  0.6784  0.0644
 2559SOL    HW119136   4.205   0.859   0.670  0.5162  0.7444  3.3104
 2559SOL    HW219137   4.071   0.837   0.738 -0.3350  0.7728 -0.3153
 2560SOL     OW19138   2.305   2.749  10.359 -0.5379 -0.4084 -0.2725
 2560SOL    HW119139   2.319   2.800  10.280 -0.2494  1.1802  0.8039
 2560SOL    HW219140   2.324   2.657  10.338 -1.4404 -0.5816 -0.3156
 2561SOL     OW19141   0.346   1.833   6.429  0.0077 -0.1380 -0.2960
 2561SOL    HW119142   0.280   1.863   6.491 -0.9507 -1.0923 -0.8611
 2561SOL    HW219143   0.395   1.910   6.398  0.7621 -0.2367  0.6565
 2562SOL     OW19144   3.503   2.421  12.834 -0.3804  0.4284 -0.3344
 2562SOL    HW119145   3.412   2.417  12.864  0.0123  1.1467  0.9483
 2562SOL    HW219146   3.508   2.352  12.768  0.3549  0.5447 -0.4023
 2563SOL     OW19147   0.733   4.252   4.744 -0.2722 -0.2766 -0.2593
 2563SOL    HW119148   0.683   4.202   4.679  2.9195 -1.5548 -1.7264
 2563SOL    HW219149   0.797   4.183   4.758 -0.2950 -0.2264  0.0791
 2564SOL     OW19150   1.694   2.440   8.228 -0.7074 -0.3324 -0.9680
 2564SOL    HW119151   1.607   2.400   8.232 -0.5644 -0.5256  0.5061
 2564SOL    HW219152   1.667   2.525   8.195 -0.6679  0.8595  2.0559
 2565SOL     OW19153   2.997   1.509   4.051 -0.3146  0.3704 -0.1898
 2565SOL    HW119154   3.076   1.473   4.092 -1.0219  0.3129  1.1442
 2565SOL    HW219155   2.948   1.524   4.132  1.9430 -0.0421  1.2662
 2566SOL     OW19156   0.607   0.037   3.307 -0.5552 -0.3061 -0.2799
 2566SOL    HW119157   0.582   0.019   3.216 -2.0610 -1.3843  0.3361
 2566SOL    HW219158   0.626   0.130   3.305 -0.6999 -0.2462  1.1573
 2567SOL     OW19159   3.018   2.954   5.609 -0.9088  0.3549 -0.0094
 2567SOL    HW119160   2.971   2.878   5.574 -2.2073  1.0370  0.2400
 2567SOL    HW219161   3.012   2.925   5.700  0.6166 -0.9135 -0.3175
 2568SOL     OW19162   0.995   2.543  10.913 -0.3609 -0.0076  0.1459
 2568SOL    HW119163   0.992   2.599  10.991 -0.6684  1.2263 -0.7685
 2568SOL    HW219164   0.926   2.582  10.860  0.5490  1.0357 -0.2544
 2569SOL     OW19165   2.365   1.371   0.415  0.7245 -0.3546  0.2928
 2569SOL    HW119166   2.390   1.417   0.335  2.1310 -1.1922  0.2484
 2569SOL    HW219167   2.445   1.320   0.429  0.1542 -0.8787  1.6820
 2570SOL     OW19168   1.321   2.327  10.848 -0.0877  0.8639  0.1734
 2570SOL    HW119169   1.344   2.283  10.930  1.2194 -0.4204 -0.8928
 2570SOL    HW219170   1.394   2.301  10.792  0.2835  1.1433  0.5277
 2571SOL     OW19171   0.597   3.195   6.467  0.3257  0.2700  0.0567
 2571SOL    HW119172   0.537   3.188   6.542 -0.9594 -1.6469 -1.1395
 2571SOL    HW219173   0.579   3.288   6.453  1.3436  0.6619  1.3363
 2572SOL     OW19174   2.377   3.270  17.072 -0.4548  0.1964  0.2733
 2572SOL    HW119175   2.287   3.301  17.086 -0.3598  0.0862  1.0963
 2572SOL    HW219176   2.361   3.178  17.094 -0.3481  0.2388  0.5255
 2573SOL     OW19177   3.298   4.051  16.281 -0.3965 -0.4155  0.0085
 2573SOL    HW119178   3.253   4.015  16.205  1.7246 -1.5774 -0.7136
 2573SOL    HW219179   3.320   3.967  16.323  1.0299 -1.3392 -2.5863
 2574SOL     OW19180   0.859   0.392  17.180  0.4564 -0.6542 -0.6119
 2574SOL    HW119181   0.914   0.438  17.116  2.5641  0.0582  1.7148
 2574SOL    HW219182   0.786   0.454  17.182 -0.3540 -1.6984  1.3313
 2575SOL     OW19183   2.792   4.475   2.062  0.1894 -0.2577  0.6923
 2575SOL    HW119184   2.820   4.412   2.128 -3.1062 -1.1840  1.2351
 2575SOL    HW219185   2.775   4.422   1.984 -0.4911 -2.2786  2.2167
 2576SOL     OW19186   1.791   4.442   0.385  0.0696  0.1402 -0.2763
 2576SOL    HW119187   1.751   4.463   0.469 -1.0712  0.8172 -0.9980
 2576SOL    HW219188   1.880   4.471   0.403 -0.4343  1.4745  0.0530
 2577SOL     OW19189   3.420   4.660   0.909  0.5249 -0.2234 -0.5654
 2577SOL    HW119190   3.339   4.609   0.899  0.8780 -0.9679  0.3765
 2577SOL    HW219191   3.466   4.623   0.834  1.3729 -1.6158  0.6330
 2578SOL     OW19192   1.574   2.625  10.983 -0.2175 -0.5316 -0.3445
 2578SOL    HW119193   1.650   2.682  10.998  0.2774 -0.9795 -1.1327
 2578SOL    HW219194   1.623   2.543  10.979 -0.2538 -0.5906  0.4014
 2579SOL     OW19195   1.186   2.360   1.904 -0.0206 -0.0201  0.3475
 2579SOL    HW119196   1.187   2.435   1.963  0.8951  0.2645 -0.0347
 2579SOL    HW219197   1.280   2.346   1.891 -0.4279 -3.1231  0.7587
 2580SOL     OW19198   0.572   3.969   5.124  0.5321  0.2696 -0.3052
 2580SOL    HW119199   0.579   4.030   5.050 -0.4278  1.9908  1.0343
 2580SOL    HW219200   0.638   3.901   5.111  0.0427  0.1073 -1.9951
 2581SOL     OW19201   2.301   0.570   7.833  0.1309 -0.4754 -0.1320
 2581SOL    HW119202   2.333   0.587   7.921  0.9341 -0.7364 -0.3678
 2581SOL    HW219203   2.372   0.543   7.774  1.3981  1.1591  0.6452
 2582SOL     OW19204   3.858   1.320  16.905 -0.1394  0.3229 -0.3954
 2582SOL    HW119205   3.795   1.370  16.958 -0.4119 -2.4973  1.9365
 2582SOL    HW219206   3.916   1.391  16.877 -0.0075  0.6766  0.7512
 2583SOL     OW19207   2.333   2.838   1.484 -0.3467 -0.7668  0.3983
 2583SOL    HW119208   2.373   2.910   1.534 -0.5180 -2.4202  2.9138
 2583SOL    HW219209   2.243   2.842   1.518  0.0347  1.7707  1.1405
 2584SOL     OW19210   0.807   4.404   8.561  1.1260 -0.6477 -0.3524
 2584SOL    HW119211   0.845   4.469   8.501  2.7227  0.1244  1.4812
 2584SOL    HW219212   0.867   4.332   8.544  0.6454 -1.1806  0.2067
 2585SOL     OW19213   2.953   0.613   2.987  0.3309  0.3874  0.2009
 2585SOL    HW119214   2.914   0.579   2.907 -1.1861  2.4434  0.0450
 2585SOL    HW219215   2.891   0.580   3.052 -0.1955 -0.7288 -0.8732
 2586SOL     OW19216   1.467   3.339   3.552 -0.6831  0.2680 -0.1038
 2586SOL    HW119217   1.513   3.292   3.483 -1.8324  0.4242 -0.9831
 2586SOL    HW219218   1.435   3.410   3.496 -1.8888 -0.9260 -0.9046
 2587SOL     OW19219   3.270   4.620   4.583 -0.4847 -0.2371  0.3413
 2587SOL    HW119220   3.222   4.677   4.643 -2.1759  0.7445 -1.9581
 2587SOL    HW219221   3.195   4.600   4.526  0.9188  1.1978 -1.9732
 2588SOL     OW19222   1.036   4.448  14.724  0.4174  0.2134 -0.4329
 2588SOL    HW119223   0.991   4.477  14.645 -2.0902  0.4606  1.0497
 2588SOL    HW219224   0.964   4.410  14.775  1.5780 -0.8352  0.4401
 2589SOL     OW19225   2.902   3.670   7.044  0.3969 -0.2369 -0.2011
 2589SOL    HW119226   2.900   3.647   6.951  0.8961 -2.2057  0.2704
 2589SOL    HW219227   2.994   3.699   7.044  0.3017  0.0640 -0.5775
 2590SOL     OW19228   3.351   0.319   5.341 -0.1066 -0.0995  0.6957
 2590SOL    HW119229   3.348   0.414   5.355 -1.2838  0.0114 -0.2501
 2590SOL    HW219230   3.441   0.300   5.365 -0.2294 -0.8130  0.5856
 2591SOL     OW19231   0.348   2.070   5.799 -0.0017  0.6296  0.4541
 2591SOL    HW119232   0.308   1.987   5.773 -1.2468  1.3268  0.1205
 2591SOL    HW219233   0.430   2.061   5.750  1.0449  1.1316  2.0974
 2592SOL     OW19234   4.232   0.839   8.302  0.5954 -0.8546 -0.1430
 2592SOL    HW119235   4.152   0.796   8.331 -0.4311 -0.0237 -1.7565
 2592SOL    HW219236   4.291   0.764   8.311  2.1503  0.2036 -1.4315
 2593SOL     OW19237   4.692   0.189   3.740 -0.3417 -0.3016 -0.2522
 2593SOL    HW119238   0.051   0.178   3.696  0.8102 -0.7519  2.0324
 2593SOL    HW219239   4.634   0.167   3.667  0.2388  0.1429 -0.8540
 2594SOL     OW19240   1.806   1.774   4.867  0.7833 -0.4795  0.0665
 2594SOL    HW119241   1.851   1.855   4.889 -1.4156  0.0505  2.6716
 2594SOL    HW219242   1.869   1.740   4.804 -0.0194  1.0186 -1.5524
 2595SOL     OW19243   0.041   0.205   6.347  0.2638 -0.0226 -0.0634
 2595SOL    HW119244   0.060   0.139   6.281 -0.8877 -1.5004  1.0684
 2595SOL    HW219245   4.672   0.191   6.360  0.3509 -0.4982  0.0619
 2596SOL     OW19246   4.121   1.222  14.842 -0.2002  0.0837  0.6951
 2596SOL    HW119247   4.141   1.266  14.925  0.3206 -1.1524  1.2229
 2596SOL    HW219248   4.031   1.190  14.849  0.3876 -1.5352  0.8287
 2597SOL     OW19249   1.650   3.881   5.332 -0.2386 -0.4504  0.2050
 2597SOL    HW119250   1.696   3.849   5.254 -0.3650  2.1774 -0.9652
 2597SOL    HW219251   1.562   3.843   5.322 -1.0296  0.6102  2.9673
 2598SOL     OW19252   2.837   0.482   4.575  0.6111 -0.1088 -0.0586
 2598SOL    HW119253   2.870   0.470   4.664  0.9953  1.2067 -0.0274
 2598SOL    HW219254   2.801   0.394   4.572 -0.9311  0.5046  0.6067
 2599SOL     OW19255   1.980   0.097   8.446  0.1727  0.2254 -0.3529
 2599SOL    HW119256   1.988   0.052   8.530 -0.1571 -0.3799 -0.6479
 2599SOL    HW219257   1.957   0.026   8.386 -0.2072  0.2259 -0.2069
 2600SOL     OW19258   2.865   3.010   3.480  0.1330  0.7809 -0.0078
 2600SOL    HW119259   2.857   2.920   3.449 -1.9554  0.7399  0.7038
 2600SOL    HW219260   2.953   3.027   3.446  1.6447 -3.6384  1.7558
 2601SOL     OW19261   2.089   1.804  15.394  0.6211  0.2094 -0.5713
 2601SOL    HW119262   2.030   1.877  15.372  0.2376 -0.1120 -0.5999
 2601SOL    HW219263   2.100   1.808  15.489 -0.4207 -1.8113 -0.3704
 2602SOL     OW19264   4.623   4.172   7.944  0.4047 -0.4730 -0.2757
 2602SOL    HW119265   4.663   4.087   7.963 -1.3156 -0.3745  3.8026
 2602SOL    HW219266   4.531   4.150   7.930 -0.1748  1.4253  0.5647
 2603SOL     OW19267   3.265   1.638   2.699 -0.1510  0.1699  0.0656
 2603SOL    HW119268   3.334   1.659   2.637  1.7227 -1.2668  1.6750
 2603SOL    HW219269   3.244   1.547   2.676 -0.6640  0.7729 -1.8039
 2604SOL     OW19270   3.531   1.223   6.160 -0.3356  0.4245 -0.8437
 2604SOL    HW119271   3.585   1.302   6.161  0.3928 -0.0868  0.1132
 2604SOL    HW219272   3.445   1.255   6.189  0.5466  0.4834  1.7313
 2605SOL     OW19273   0.193   4.071   8.723 -0.3647  0.6842 -0.4266
 2605SOL    HW119274   0.268   4.090   8.667  0.9803 -0.5136  0.9546
 2605SOL    HW219275   0.207   3.978   8.742  0.7442  2.0724  5.4692
 2606SOL     OW19276   1.383   3.064   3.658 -0.0550 -0.3351  0.3028
 2606SOL    HW119277   1.383   3.153   3.623  0.2960 -0.0750  0.9813
 2606SOL    HW219278   1.464   3.033   3.617 -1.0514 -0.0010 -1.9049
 2607SOL     OW19279   2.881   3.462  13.839 -0.1932 -0.2823 -0.1118
 2607SOL    HW119280   2.884   3.530  13.906  1.9714  0.2655 -0.7523
 2607SOL    HW219281   2.946   3.496  13.776 -1.1251  2.5919  0.4568
 2608SOL     OW19282   1.308   4.217  13.336 -0.1448 -0.4739 -0.0426
 2608SOL    HW119283   1.371   4.191  13.269  0.5932  0.4142  0.2980
 2608SOL    HW219284   1.350   4.175  13.411  1.1524 -0.8476 -0.9771
 2609SOL     OW19285   2.423   2.067   5.175 -0.5997 -0.3424 -0.2890
 2609SOL    HW119286   2.365   2.088   5.248  0.8405 -0.1973  0.8124
 2609SOL    HW219287   2.456   2.157   5.173  1.3656 -1.0123  1.7653
 2610SOL     OW19288   1.174   0.834   1.056  0.7449  0.1089 -0.3855
 2610SOL    HW119289   1.087   0.797   1.071  0.1950  2.7536  2.7898
 2610SOL    HW219290   1.195   0.800   0.968 -2.0396  1.8655 -1.7251
 2611SOL     OW19291   3.195   4.529  16.447 -0.3066 -0.4133  0.2589
 2611SOL    HW119292   3.262   4.548  16.513 -0.9872  2.1082  0.2426
 2611SOL    HW219293   3.225   4.444  16.415  2.3705  1.6590 -2.8402
 2612SOL     OW19294   4.077   2.797   2.123 -0.1959 -0.0379 -0.0612
 2612SOL    HW119295   4.120   2.773   2.041 -1.3813  0.3652 -0.8035
 2612SOL    HW219296   4.025   2.870   2.091  2.6606  1.9228 -0.2784
 2613SOL     OW19297   3.789   1.216   2.032 -0.7991  0.0078  0.0978
 2613SOL    HW119298   3.805   1.122   2.023 -1.2067  0.1926 -2.6522
 2613SOL    HW219299   3.714   1.220   1.972 -2.4618  0.4690  2.2092
 2614SOL     OW19300   0.349   0.124   6.195 -0.0322 -0.1756 -0.0810
 2614SOL    HW119301   0.393   0.112   6.111 -0.1652  2.0801 -0.4702
 2614SOL    HW219302   0.265   0.093   6.162  1.7812 -1.3458 -3.5005
 2615SOL     OW19303   2.832   0.036  11.113 -0.6362 -0.2133  0.5717
 2615SOL    HW119304   2.877   0.049  11.030 -0.5429  0.6353  0.7496
 2615SOL    HW219305   2.739   0.047  11.092 -0.7036 -0.4927  0.7253
 2616SOL     OW19306   0.659   0.072   8.949  0.2153  0.3092  0.0384
 2616SOL    HW119307   0.724   0.002   8.948  0.2896  0.3363  1.7066
 2616SOL    HW219308   0.719   0.146   8.944  0.8525 -0.0450  2.4586
 2617SOL     OW19309   3.039   3.193   7.449 -0.3017 -1.1430  0.1634
 2617SOL    HW119310   3.096   3.234   7.384 -1.0063  0.0317  0.2785
 2617SOL    HW219311   2.963   3.190   7.391  0.6819  3.0666 -1.3466
 2618SOL     OW19312   3.764   3.360   8.143  0.6420  0.2650  0.2750
 2618SOL    HW119313   3.831   3.293   8.130  0.5996  0.6107 -1.8261
 2618SOL    HW219314   3.786   3.377   8.235 -0.4883  0.8645  0.4328
 2619SOL     OW19315   1.909   2.021   5.056 -0.5166 -0.0285  0.1306
 2619SOL    HW119316   1.906   1.979   5.142 -0.0448 -3.2923 -1.4494
 2619SOL    HW219317   1.943   2.110   5.069 -0.6191  0.0504 -0.1291
 2620SOL     OW19318   0.836   0.945   9.438  0.1128 -0.5329 -0.0696
 2620SOL    HW119319   0.828   1.040   9.435 -0.9303 -0.6461 -0.7931
 2620SOL    HW219320   0.790   0.925   9.520  0.6681  1.1802  0.6661
 2621SOL     OW19321   3.162   0.092   0.954 -0.5351  0.3320  0.4410
 2621SOL    HW119322   3.179   0.010   0.907 -0.6688 -0.0609  1.0827
 2621SOL    HW219323   3.215   0.161   0.913 -2.1127  1.4145  0.2463
 2622SOL     OW19324   1.827   1.887   4.484 -0.6613  0.4572 -0.0151
 2622SOL    HW119325   1.896   1.916   4.542  0.4904 -0.3345 -0.9772
 2622SOL    HW219326   1.756   1.950   4.495 -1.8436 -1.4037  3.0430
 2623SOL     OW19327   2.761   1.579  14.947  0.1458 -0.3325  0.6996
 2623SOL    HW119328   2.836   1.531  14.913 -0.6004 -0.4731 -0.7319
 2623SOL    HW219329   2.765   1.550  15.038 -0.0697  4.1772  2.1900
 2624SOL     OW19330   4.394   0.760  10.531 -0.1428  0.5222  0.6388
 2624SOL    HW119331   4.342   0.840  10.534  1.9605  1.8692  1.0637
 2624SOL    HW219332   4.445   0.775  10.451 -1.5728 -0.8620 -0.5262
 2625SOL     OW19333   2.641   0.239   1.978  0.2750  0.3439 -0.2581
 2625SOL    HW119334   2.549   0.239   1.952 -0.1761  0.0457  1.3286
 2625SOL    HW219335   2.672   0.162   1.930  0.3846  0.2843 -0.0906
 2626SOL     OW19336   1.605   3.703   3.927 -0.1082  0.0656 -0.8412
 2626SOL    HW119337   1.513   3.706   3.953 -0.1746 -2.1274 -0.8323
 2626SOL    HW219338   1.605   3.648   3.849 -0.2433  0.0570 -0.8351
 2627SOL     OW19339   0.060   2.500   4.224  0.3919  0.6363  0.3145
 2627SOL    HW119340   0.096   2.412   4.241 -0.7743  0.3567  1.2883
 2627SOL    HW219341   0.092   2.510   4.134 -2.0090  1.1213 -0.4859
 2628SOL     OW19342   1.237   3.897   8.302 -0.0337  0.1705  0.2024
 2628SOL    HW119343   1.191   3.981   8.301 -0.9622 -0.3458 -0.6357
 2628SOL    HW219344   1.281   3.900   8.386 -1.5339 -0.7877  1.0246
 2629SOL     OW19345   3.310   0.043   2.059  0.1220 -0.0385 -0.6217
 2629SOL    HW119346   3.224   0.063   2.021 -1.4382 -4.1272  0.6970
 2629SOL    HW219347   3.367   0.057   1.983 -0.1056  0.9558 -0.6046
 2630SOL     OW19348   4.700   2.943  12.906 -0.0823  0.0574  0.4423
 2630SOL    HW119349   4.696   2.932  13.001 -0.2154  0.7882  0.5212
 2630SOL    HW219350   0.069   2.944  12.886 -0.2941  1.5137 -0.5284
 2631SOL     OW19351   3.041   3.409   4.293  0.6490 -0.1909 -0.0218
 2631SOL    HW119352   2.987   3.441   4.366  0.2032  2.7294 -1.6399
 2631SOL    HW219353   3.031   3.488   4.241  0.2203 -0.2958 -0.0981
 2632SOL     OW19354   1.142   1.627   3.840 -0.5875 -0.1070 -0.5448
 2632SOL    HW119355   1.110   1.716   3.854 -1.7760 -0.8085  1.1827
 2632SOL    HW219356   1.117   1.609   3.750 -2.5730 -0.0735 -0.0026
 2633SOL     OW19357   3.859   4.120   4.808 -0.2213 -0.6624  0.1540
 2633SOL    HW119358   3.914   4.149   4.880 -0.2280 -2.0869  0.7131
 2633SOL    HW219359   3.771   4.115   4.845  0.0595  0.4257  0.9569
 2634SOL     OW19360   0.040   3.436   2.338 -0.1851  0.2266 -0.8059
 2634SOL    HW119361   0.037   3.493   2.415 -0.9263  0.2713 -0.8715
 2634SOL    HW219362   4.674   3.442   2.311 -0.5018 -1.0256  0.0043
 2635SOL     OW19363   2.591   1.292   6.690 -0.3008 -0.1920 -0.2041
 2635SOL    HW119364   2.622   1.342   6.765  1.0875 -2.9664  1.0612
 2635SOL    HW219365   2.654   1.221   6.695 -2.1124 -1.7117  0.7368
 2636SOL     OW19366   3.769   1.286   8.552 -0.2228  0.5697  0.6842
 2636SOL    HW119367   3.675   1.305   8.552 -0.5967 -1.2761 -0.4024
 2636SOL    HW219368   3.809   1.373   8.549  1.2208 -0.0849  0.9356
 2637SOL     OW19369   1.577   0.194  13.087 -0.4534  0.4422 -0.3903
 2637SOL    HW119370   1.523   0.206  13.166  0.7388 -0.0801  0.5037
 2637SOL    HW219371   1.535   0.261  13.033 -0.0795 -0.4950 -1.8373
 2638SOL     OW19372   0.151   4.261   8.904 -0.2663  1.1298  0.4650
 2638SOL    HW119373   0.181   4.335   8.852 -0.9194  0.7238 -0.4968
 2638SOL    HW219374   0.193   4.185   8.864 -2.7920 -0.8361  1.5628
 2639SOL     OW19375   2.517   0.817   5.453 -0.4311 -0.0974  0.6024
 2639SOL    HW119376   2.547   0.908   5.451 -0.0387 -0.2384  0.2432
 2639SOL    HW219377   2.494   0.805   5.545  0.2694  1.0372  0.9200
 2640SOL     OW19378   4.404   2.917   7.441 -0.2268 -0.1993  0.1599
 2640SOL    HW119379   4.419   3.010   7.456 -0.2346  0.2881 -2.9069
 2640SOL    HW219380   4.468   2.900   7.372  0.1397 -2.5854  1.0730
 2641SOL     OW19381   0.897   2.237   6.410 -0.4960 -0.2236  0.7045
 2641SOL    HW119382   0.915   2.157   6.459  1.0619  0.4703  1.2680
 2641SOL    HW219383   0.903   2.309   6.472 -0.5146  0.6330 -0.2860
 2642SOL     OW19384   0.166   0.502   7.069  0.3186 -0.1436 -0.0077
 2642SOL    HW119385   0.108   0.435   7.032 -0.2254  0.4319 -0.2117
 2642SOL    HW219386   0.127   0.580   7.029 -0.9274 -0.1588  1.1548
 2643SOL     OW19387   1.172   4.282   3.448  0.2451 -0.7407  0.0347
 2643SOL    HW119388   1.240   4.308   3.386  0.6244 -1.7425  0.0174
 2643SOL    HW219389   1.223   4.257   3.525  1.0822  0.6589 -0.0706
 2644SOL     OW19390   3.427   3.386   0.025 -0.4964 -0.2404 -0.3750
 2644SOL    HW119391   3.374   3.339   0.089  0.3581  1.3731  1.4986
 2644SOL    HW219392   3.474   3.449   0.078 -2.1768  0.4267  0.3178
 2645SOL     OW19393   3.770   4.703   1.356  0.2087 -0.5277  0.0933
 2645SOL    HW119394   3.792   4.710   1.263  1.2107 -0.4768  0.3345
 2645SOL    HW219395   3.843   4.663   1.402  1.2637 -0.1374 -1.2484
 2646SOL     OW19396   0.472   3.227   5.429 -0.1656  0.2588 -0.0944
 2646SOL    HW119397   0.390   3.186   5.455 -0.4147  0.9764  0.2556
 2646SOL    HW219398   0.455   3.241   5.336 -0.5846  0.0912 -0.0413
 2647SOL     OW19399   2.973   4.253   2.733  0.8053  0.4292  0.2329
 2647SOL    HW119400   3.030   4.183   2.702 -1.1904 -0.3780 -1.6705
 2647SOL    HW219401   3.039   4.319   2.755  1.4711 -0.1649  0.0107
 2648SOL     OW19402   3.145   1.019   5.986 -0.1302 -0.2677 -0.3954
 2648SOL    HW119403   3.163   0.928   5.964  2.1007  0.1850 -0.4132
 2648SOL    HW219404   3.050   1.015   6.000  0.1101 -3.0808  0.3283
 2649SOL     OW19405   0.044   1.709   3.537 -0.1253 -0.2147 -0.1979
 2649SOL    HW119406   0.045   1.730   3.444 -0.7032  1.7144  0.2145
 2649SOL    HW219407   0.017   1.795   3.570 -2.5125 -0.0999 -2.4980
 2650SOL     OW19408   1.592   0.678   6.360 -0.1231 -0.1764  0.7569
 2650SOL    HW119409   1.554   0.766   6.365 -0.7907 -0.4829  1.0977
 2650SOL    HW219410   1.553   0.650   6.277  2.3693 -2.7161  0.4658
 2651SOL     OW19411   1.598   0.144   7.452 -0.1225 -0.2008 -0.4919
 2651SOL    HW119412   1.621   0.142   7.359  2.9133 -2.6238  0.3059
 2651SOL    HW219413   1.608   0.238   7.466  2.6412 -0.9247  2.2747
 2652SOL     OW19414   1.105   0.560   5.383 -0.7725  0.0055  0.0193
 2652SOL    HW119415   1.107   0.470   5.416 -1.5711 -0.0481 -0.0724
 2652SOL    HW219416   1.100   0.611   5.463  3.1167 -1.0393  0.9603
 2653SOL     OW19417   2.206   2.388   9.667  0.7158 -0.3196 -0.2609
 2653SOL    HW119418   2.129   2.390   9.724  0.0284  1.3502 -1.2543
 2653SOL    HW219419   2.192   2.298   9.637 -1.4778  0.2716 -1.0239
 2654SOL     OW19420   3.330   4.089   3.184 -0.1552  0.2276 -0.5573
 2654SOL    HW119421   3.365   4.093   3.273  0.3397 -2.1434 -0.6364
 2654SOL    HW219422   3.283   4.006   3.182  0.5952 -0.1739 -1.4955
 2655SOL     OW19423   2.602   3.219   5.715  0.5207  0.1174 -0.1181
 2655SOL    HW119424   2.613   3.131   5.751  1.2032 -0.0725 -0.7999
 2655SOL    HW219425   2.513   3.206   5.683 -0.8339  2.4050  2.7140
 2656SOL     OW19426   4.007   2.176   3.449 -0.0232 -0.1703  0.0702
 2656SOL    HW119427   4.057   2.234   3.507  2.0307 -0.6879 -1.1764
 2656SOL    HW219428   4.011   2.096   3.502  1.3134  1.9145  3.1495
 2657SOL     OW19429   4.316   0.137   2.714  0.5823 -0.1110  0.0242
 2657SOL    HW119430   4.412   0.133   2.712  0.7917  4.0938  2.0268
 2657SOL    HW219431   4.298   0.229   2.728 -1.5573 -0.4852 -0.3260
 2658SOL     OW19432   1.044   2.540   0.374  0.0862 -0.4127 -0.0408
 2658SOL    HW119433   1.097   2.548   0.294  1.4780 -0.2369  0.9004
 2658SOL    HW219434   0.953   2.560   0.352 -0.2848 -1.3032  0.7157
 2659SOL     OW19435   4.704   0.121   5.721 -0.0639  0.1176  0.0419
 2659SOL    HW119436   4.669   0.053   5.663 -0.2115  0.1987  0.0372
 2659SOL    HW219437   4.661   0.092   5.801 -0.6925  0.9398 -0.0011
 2660SOL     OW19438   2.022   1.502   3.767 -0.4306 -0.2568 -0.2164
 2660SOL    HW119439   1.945   1.478   3.818 -0.3583  0.2539  0.1276
 2660SOL    HW219440   1.996   1.577   3.714  0.6260 -1.0596 -1.9183
 2661SOL     OW19441   1.643   4.527  12.735  0.4611 -0.4259  0.1156
 2661SOL    HW119442   1.728   4.546  12.775  0.4098  0.8671 -0.3958
 2661SOL    HW219443   1.580   4.564  12.797  0.1098 -0.8719  0.0224
 2662SOL     OW19444   2.644   0.106  11.873  0.7514 -0.1269  0.5616
 2662SOL    HW119445   2.731   0.068  11.882  1.6820  2.4563  2.3329
 2662SOL    HW219446   2.604   0.083  11.957  1.2804 -2.6750  0.1232
 2663SOL     OW19447   3.552   3.475  15.636 -0.4860 -0.4227 -0.5376
 2663SOL    HW119448   3.597   3.555  15.663 -2.5070  0.3487  0.5628
 2663SOL    HW219449   3.608   3.399  15.654  2.8461  2.0446 -0.4721
 2664SOL     OW19450   0.077   3.393  11.559  0.0787 -0.2602  0.6042
 2664SOL    HW119451   0.136   3.454  11.603 -0.5256  0.4872  0.3830
 2664SOL    HW219452   0.151   3.345  11.522  0.2817  0.8768 -0.4950
 2665SOL     OW19453   0.501   2.783  15.697 -0.5248 -0.4059 -0.4546
 2665SOL    HW119454   0.596   2.790  15.708 -0.8532  1.6279  1.1928
 2665SOL    HW219455   0.508   2.732  15.617 -0.1767  0.6976 -1.1329
 2666SOL     OW19456   2.638   4.430   9.040 -0.3693  0.0232 -0.0887
 2666SOL    HW119457   2.631   4.509   9.093  1.7806  0.3876 -0.3469
 2666SOL    HW219458   2.656   4.464   8.952 -0.6641 -1.5345 -0.7500
 2667SOL     OW19459   3.935   0.394   0.555  0.2337  0.5664  0.2955
 2667SOL    HW119460   3.999   0.326   0.573 -0.2287 -0.3871 -1.7431
 2667SOL    HW219461   3.982   0.448   0.492 -1.9690  2.1782 -0.0037
 2668SOL     OW19462   2.960   0.187  11.722 -0.3150  0.3730  0.2373
 2668SOL    HW119463   2.966   0.139  11.804 -1.2316 -1.0784 -0.5400
 2668SOL    HW219464   2.928   0.119  11.662  1.2397  0.8420 -1.1381
 2669SOL     OW19465   0.413   2.919  16.272  0.0251 -0.0094  0.1789
 2669SOL    HW119466   0.425   2.976  16.196 -0.1115 -0.9144 -0.5170
 2669SOL    HW219467   0.320   2.939  16.285 -0.1899 -1.1512  0.3585
 2670SOL     OW19468   1.495   1.802   8.667 -0.6182  0.1209 -0.1297
 2670SOL    HW119469   1.450   1.809   8.751 -1.7293 -2.1506 -0.5306
 2670SOL    HW219470   1.493   1.893   8.637 -0.9233  0.3584  0.6227
 2671SOL     OW19471   3.637   4.008  13.046 -0.1083 -0.0105 -0.2674
 2671SOL    HW119472   3.724   4.047  13.040  0.3095 -0.7388  1.0532
 2671SOL    HW219473   3.624   4.004  13.141  1.3494  0.5950 -0.0370
 2672SOL     OW19474   2.422   4.622   4.763  0.1444 -0.0335  0.1330
 2672SOL    HW119475   2.338   4.587   4.793 -0.8802 -1.3780 -4.4525
 2672SOL    HW219476   2.406   4.623   4.669 -1.9918  0.4215  0.5006
 2673SOL     OW19477   0.873   4.474   4.339 -0.0240 -0.1100  0.1024
 2673SOL    HW119478   0.902   4.436   4.422 -0.1719  0.7420  0.5379
 2673SOL    HW219479   0.815   4.543   4.369 -0.9117  0.4299 -2.8503
 2674SOL     OW19480   3.188   4.302  13.237 -0.2964 -0.6356 -0.1947
 2674SOL    HW119481   3.097   4.288  13.212 -0.0371 -1.4368 -0.6974
 2674SOL    HW219482   3.191   4.381  13.290 -0.2901 -1.0152  0.3741
 2675SOL     OW19483   1.361   3.910   8.033 -0.0920  0.3955 -0.8827
 2675SOL    HW119484   1.282   3.877   8.076  0.4519  1.8619  1.2212
 2675SOL    HW219485   1.370   3.848   7.961  4.0409  0.5409 -0.4511
 2676SOL     OW19486   3.130   2.422   1.672  0.3292  0.5087 -0.3152
 2676SOL    HW119487   3.085   2.355   1.621 -1.9250  1.4016  0.5355
 2676SOL    HW219488   3.206   2.450   1.620  0.3506 -0.7085 -0.9483
 2677SOL     OW19489   1.967   0.904  12.012  0.4108 -0.4601 -0.0623
 2677SOL    HW119490   2.026   0.856  11.954 -2.3895 -1.1095 -2.3549
 2677SOL    HW219491   2.012   0.883  12.094  0.6092 -1.3229 -0.3920
 2678SOL     OW19492   1.125   3.062   7.739  0.2730 -0.1287 -0.5346
 2678SOL    HW119493   1.082   3.134   7.785 -0.9760 -1.6329  0.6441
 2678SOL    HW219494   1.134   3.097   7.650  0.6147 -0.4919 -0.6381
 2679SOL     OW19495   1.318   0.897   6.977  0.1150  0.3940 -0.2582
 2679SOL    HW119496   1.385   0.863   7.036 -0.2844 -2.4003 -1.4235
 2679SOL    HW219497   1.318   0.831   6.909  1.6249  0.3323 -0.1887
 2680SOL     OW19498   0.691   4.277   5.650  0.5993  0.3728  1.1630
 2680SOL    HW119499   0.736   4.199   5.617 -0.9345 -0.9962  2.2861
 2680SOL    HW219500   0.727   4.341   5.589 -1.3720  1.1532  0.7914
 2681SOL     OW19501   4.540   2.456   1.569  0.3197 -0.3186  0.2052
 2681SOL    HW119502   4.591   2.384   1.604  0.9217 -0.7158 -1.4812
 2681SOL    HW219503   4.611   2.519   1.558 -0.4893  0.3347 -1.3386
 2682SOL     OW19504   3.462   3.848   3.648  0.5522  0.3697 -0.0436
 2682SOL    HW119505   3.543   3.886   3.614  1.0921 -0.3038  0.4732
 2682SOL    HW219506   3.452   3.780   3.582  1.0880  0.3731 -0.1302
 2683SOL     OW19507   1.898   3.601   5.278  0.2349  0.0241  0.0398
 2683SOL    HW119508   1.918   3.523   5.227 -3.2106  0.2769 -1.6639
 2683SOL    HW219509   1.956   3.666   5.238  1.1107 -0.0065  1.2302
 2684SOL     OW19510   4.532   2.326   7.950  0.4211 -0.0037 -0.2760
 2684SOL    HW119511   4.450   2.319   7.999  0.2734 -2.5776 -0.9251
 2684SOL    HW219512   4.592   2.255   7.973  0.3589 -0.3695 -1.2437
 2685SOL     OW19513   0.625   4.048   7.119  0.0016  0.1732  0.6679
 2685SOL    HW119514   0.627   3.964   7.072 -0.4339  1.8678 -2.4055
 2685SOL    HW219515   0.702   4.090   7.082  0.0355  0.9669  1.6532
 2686SOL     OW19516   4.641   0.079   0.634 -0.0162 -0.1582  0.1080
 2686SOL    HW119517   4.657   0.024   0.557  1.5797  0.7717 -0.2194
 2686SOL    HW219518   4.616   0.009   0.693 -0.0012  1.1425  1.6491
 2687SOL     OW19519   0.248   1.361   8.742  0.1395  0.0527  0.6729
 2687SOL    HW119520   0.246   1.265   8.740  0.9039  0.0418  0.5021
 2687SOL    HW219521   0.208   1.388   8.659  2.9190  0.5869 -0.4844
 2688SOL     OW19522   2.497   1.340  14.800 -0.2528 -0.0240 -0.1506
 2688SOL    HW119523   2.570   1.343  14.738 -0.2578  0.8339 -0.1140
 2688SOL    HW219524   2.424   1.301  14.751 -0.2784 -0.0665 -0.0778
 2689SOL     OW19525   0.577   0.213   9.902  0.0739 -0.0887  0.2627
 2689SOL    HW119526   0.579   0.120   9.878 -0.0147 -0.3773  1.3419
 2689SOL    HW219527   0.538   0.205   9.989  0.5452 -0.1276  0.4730
 2690SOL     OW19528   4.415   2.296   3.015 -0.3787 -0.6029 -0.3638
 2690SOL    HW119529   4.415   2.357   2.942  1.0768 -0.2767 -0.0827
 2690SOL    HW219530   4.374   2.216   2.981  0.1085 -1.0511  0.1023
 2691SOL     OW19531   3.636   4.615   8.313 -0.3440 -0.7232 -0.4348
 2691SOL    HW119532   3.617   4.566   8.233 -0.9936  1.5731 -1.6528
 2691SOL    HW219533   3.564   4.590   8.372 -1.1037  0.2424 -0.9567
 2692SOL     OW19534   3.028   2.857   5.866  0.7797  0.0958  0.7712
 2692SOL    HW119535   3.025   2.789   5.933 -0.2722 -1.2536 -0.6658
 2692SOL    HW219536   3.094   2.918   5.899  0.2825  1.0142  0.0688
 2693SOL     OW19537   3.701   2.122   7.313  0.0368  0.7986 -0.0322
 2693SOL    HW119538   3.736   2.146   7.398 -1.8204  0.8601  0.7310
 2693SOL    HW219539   3.747   2.039   7.300  1.5075  1.7227 -0.7184
 2694SOL     OW19540   4.446   0.911   3.894 -0.3731 -0.0990  0.3824
 2694SOL    HW119541   4.470   0.839   3.953  0.7991  2.4655  3.0735
 2694SOL    HW219542   4.470   0.868   3.812 -1.6531  1.4709 -0.7955
 2695SOL     OW19543   4.545   2.405  16.376 -0.3718 -0.3549 -0.1806
 2695SOL    HW119544   4.564   2.374  16.465  1.2948 -1.0488 -0.7832
 2695SOL    HW219545   4.624   2.384  16.326  1.3470  0.2130  2.3111
 2696SOL     OW19546   3.198   1.146   6.223  0.0532  0.2799 -0.3956
 2696SOL    HW119547   3.202   1.099   6.140 -0.0053 -0.5862  0.0822
 2696SOL    HW219548   3.197   1.235   6.188  0.1670 -0.5212 -2.4254
 2697SOL     OW19549   4.391   1.317   3.904 -0.1019  0.2113 -0.1523
 2697SOL    HW119550   4.316   1.283   3.855 -0.0108 -0.9295  0.4888
 2697SOL    HW219551   4.343   1.366   3.970 -1.5240  2.5617 -2.9590
 2698SOL     OW19552   0.545   3.515   6.984 -0.2848  0.2834  0.3000
 2698SOL    HW119553   0.491   3.437   6.999  0.9035 -0.6712 -0.4422
 2698SOL    HW219554   0.501   3.558   6.911 -1.6705 -0.4595  0.6826
 2699SOL     OW19555   3.612   2.603   2.849 -0.1477  0.0853 -0.3270
 2699SOL    HW119556   3.571   2.676   2.895  1.9930  0.8087  0.4357
 2699SOL    HW219557   3.698   2.601   2.890 -1.6454  0.2571  2.8003
 2700SOL     OW19558   0.956   4.590   4.816  0.5116  0.4309 -0.0342
 2700SOL    HW119559   0.966   4.683   4.838 -2.6016  0.8530 -0.4425
 2700SOL    HW219560   0.898   4.563   4.887  0.0236 -2.2733 -1.4645
 2701SOL     OW19561   4.545   4.422   3.701 -0.8921 -0.3750 -0.1342
 2701SOL    HW119562   4.527   4.329   3.711  0.6295 -0.6096  0.5830
 2701SOL    HW219563   4.636   4.429   3.732 -1.5101 -0.8845  1.8135
 2702SOL     OW19564   2.128   3.528   3.147  0.4503 -0.0217 -0.1316
 2702SOL    HW119565   2.068   3.579   3.094 -0.2775 -0.6745  0.0673
 2702SOL    HW219566   2.092   3.442   3.126  1.7843 -0.4990 -0.4584
 2703SOL     OW19567   1.564   2.591  12.038  0.2851  0.8435 -0.2918
 2703SOL    HW119568   1.499   2.623  12.101  0.2656  0.5262 -0.1544
 2703SOL    HW219569   1.614   2.672  12.028  1.9135 -0.0113  1.0185
 2704SOL     OW19570   1.514   3.753  12.339 -0.3067 -0.3330  0.2784
 2704SOL    HW119571   1.605   3.761  12.310 -0.9917  1.5731 -1.3348
 2704SOL    HW219572   1.483   3.828  12.288 -0.0160  0.4530  1.2789
 2705SOL     OW19573   2.383   3.090  13.104 -0.2546 -0.4373 -0.5387
 2705SOL    HW119574   2.455   3.153  13.099 -0.3386 -0.0661  3.1218
 2705SOL    HW219575   2.424   3.021  13.155 -0.0171 -1.5775 -2.2675
 2706SOL     OW19576   1.874   0.443   8.850 -0.0119  0.4277 -0.5496
 2706SOL    HW119577   1.929   0.480   8.920 -1.9619  1.6950  0.3164
 2706SOL    HW219578   1.788   0.468   8.885  0.3903  2.5570 -1.0659
 2707SOL     OW19579   1.718   3.095   4.369 -0.1281  0.5231 -0.3791
 2707SOL    HW119580   1.759   3.092   4.455 -0.5097  1.9890 -0.1472
 2707SOL    HW219581   1.645   3.034   4.380  1.6903 -1.8512 -1.5244
 2708SOL     OW19582   4.200   3.079   1.671 -0.1042 -0.5509  0.7569
 2708SOL    HW119583   4.278   3.096   1.724 -0.0532 -1.2625  0.9109
 2708SOL    HW219584   4.175   3.171   1.666 -0.2313 -0.6718 -0.7668
 2709SOL     OW19585   1.944   0.883   7.405 -0.0138 -0.4561 -0.2200
 2709SOL    HW119586   2.018   0.935   7.439  1.1482 -1.2800 -1.4950
 2709SOL    HW219587   1.980   0.801   7.439 -0.1824 -1.1625 -1.7763
 2710SOL     OW19588   2.329   0.922   7.986  0.0545  0.1470  0.4023
 2710SOL    HW119589   2.314   0.961   8.072 -0.5862 -0.1067  0.4080
 2710SOL    HW219590   2.264   0.852   7.987 -0.5391  0.6939 -0.3151
 2711SOL     OW19591   3.075   2.171  13.301 -0.3982  0.2815  0.1669
 2711SOL    HW119592   3.150   2.195  13.247  0.9223 -2.6112  0.6683
 2711SOL    HW219593   3.010   2.131  13.243  0.1347  1.0632 -0.9647
 2712SOL     OW19594   0.112   1.402   3.178 -0.5962 -0.0777 -0.0407
 2712SOL    HW119595   0.159   1.481   3.152 -0.0778 -0.2746  0.3145
 2712SOL    HW219596   0.146   1.382   3.265  2.7102  0.4107 -1.2284
 2713SOL     OW19597   0.366   2.146  12.011  0.3445  0.0077  0.6610
 2713SOL    HW119598   0.277   2.114  11.997  1.4092 -2.1788 -1.1696
 2713SOL    HW219599   0.357   2.231  11.967  2.6096  0.0512  0.2312
 2714SOL     OW19600   3.702   1.028   7.346 -0.5545 -0.0332  0.7583
 2714SOL    HW119601   3.661   0.962   7.401  0.1894 -1.2896 -0.2098
 2714SOL    HW219602   3.629   1.084   7.321  1.1128  0.7241 -2.4639
 2715SOL     OW19603   0.648   0.645   4.176  0.1704 -0.7662  0.3416
 2715SOL    HW119604   0.721   0.637   4.237  3.1285  1.9772 -2.8166
 2715SOL    HW219605   0.587   0.588   4.223  0.7399 -0.8916  0.9229
 2716SOL     OW19606   0.995   2.504  17.549 -0.1793 -0.0747  0.4204
 2716SOL    HW119607   0.995   2.592  17.587  1.3886  0.7739 -1.4974
 2716SOL    HW219608   0.946   2.514  17.467  0.7824  0.8250 -0.0513
 2717SOL     OW19609   3.865   0.511   6.455 -0.1865  0.5177  0.3387
 2717SOL    HW119610   3.916   0.588   6.481  0.2970  0.6927 -1.1380
 2717SOL    HW219611   3.888   0.497   6.363  1.3912  0.8769  0.6855
 2718SOL     OW19612   1.159   4.189   1.474 -0.1346  0.5201  0.0128
 2718SOL    HW119613   1.116   4.196   1.559 -0.9770 -1.0429 -0.2894
 2718SOL    HW219614   1.208   4.108   1.489  0.8274  1.1782  0.4588
 2719SOL     OW19615   2.865   2.022   5.700  0.1202 -0.3516  0.5059
 2719SOL    HW119616   2.877   1.928   5.716  3.0624  0.2017  1.4610
 2719SOL    HW219617   2.931   2.041   5.634 -0.5138  3.4007  0.9466
 2720SOL     OW19618   3.937   1.853   7.699 -0.3647 -0.5019  0.2085
 2720SOL    HW119619   3.891   1.931   7.729 -0.5839 -0.0558 -1.3258
 2720SOL    HW219620   4.013   1.891   7.655 -0.3676 -1.0509 -0.2677
 2721SOL     OW19621   1.681   2.204   0.348 -0.0265 -0.2255 -0.2105
 2721SOL    HW119622   1.676   2.262   0.272  1.5952 -1.7188 -1.4434
 2721SOL    HW219623   1.771   2.222   0.375 -1.1462  2.0964  1.9761
 2722SOL     OW19624   3.713   1.445  11.257 -0.4203 -0.6813 -0.0768
 2722SOL    HW119625   3.756   1.518  11.300  0.2807 -1.6989  0.9454
 2722SOL    HW219626   3.785   1.383  11.258  0.2147  0.0919  2.1279
 2723SOL     OW19627   1.406   4.615   2.323 -0.1483  0.2669 -0.0137
 2723SOL    HW119628   1.382   4.665   2.245 -1.9073  0.5379  0.7157
 2723SOL    HW219629   1.333   4.554   2.314  0.1104  0.1562 -1.3751
 2724SOL     OW19630   2.639   3.721   1.134 -0.1951 -0.6732  0.6006
 2724SOL    HW119631   2.563   3.700   1.079 -0.1690 -1.5462  0.8876
 2724SOL    HW219632   2.679   3.634   1.127  1.9675  0.3520  0.4952
 2725SOL     OW19633   0.268   1.645   7.043 -0.3332  0.2050 -0.3594
 2725SOL    HW119634   0.223   1.701   7.106  1.9326  1.1203  0.4464
 2725SOL    HW219635   0.289   1.576   7.106 -0.9473  0.9654  0.6880
 2726SOL     OW19636   2.183   3.271   0.193 -0.5741  0.2035  1.1211
 2726SOL    HW119637   2.108   3.301   0.244 -0.9266 -0.0774  0.7738
 2726SOL    HW219638   2.234   3.247   0.270 -0.8401 -1.7106  0.6907
 2727SOL     OW19639   2.012   0.180   6.147 -0.4739 -0.4573  0.0268
 2727SOL    HW119640   1.986   0.233   6.071 -1.2897  1.2887  1.5119
 2727SOL    HW219641   1.998   0.248   6.213  1.5782  0.6733 -0.7081
 2728SOL     OW19642   4.654   3.722   4.889  0.1534 -0.0802  0.2898
 2728SOL    HW119643   4.719   3.652   4.900 -1.1420 -1.2429  0.5346
 2728SOL    HW219644   4.660   3.740   4.795 -0.3994  0.2759  0.3223
 2729SOL     OW19645   1.185   2.156   3.934  0.0183 -0.3551  0.2049
 2729SOL    HW119646   1.219   2.199   3.855  1.0811  0.2451  0.9969
 2729SOL    HW219647   1.128   2.220   3.977  0.8112  1.0711 -0.8817
 2730SOL     OW19648   3.988   4.004  13.344 -0.6190 -0.4185  0.0143
 2730SOL    HW119649   3.965   3.930  13.400 -1.8354 -0.3086 -0.3500
 2730SOL    HW219650   4.062   3.963  13.300 -1.3706  0.5949 -2.2261
 2731SOL     OW19651   3.202   2.292  16.069  0.5786  0.0745 -0.0996
 2731SOL    HW119652   3.253   2.238  16.009  1.1912  0.1611  0.3443
 2731SOL    HW219653   3.236   2.268  16.155 -3.8407 -2.2204  1.0050
 2732SOL     OW19654   4.578   1.430   5.551  0.2597 -0.0753 -0.1024
 2732SOL    HW119655   4.632   1.468   5.621 -2.9328  1.3626  1.5898
 2732SOL    HW219656   4.489   1.446   5.583  0.4858 -2.5333  1.8028
 2733SOL     OW19657   2.069   3.588   7.545  0.0877  0.2492 -0.4365
 2733SOL    HW119658   2.121   3.638   7.607 -0.2114  1.2748 -1.0130
 2733SOL    HW219659   1.993   3.560   7.596  1.4395 -2.0279  0.3369
 2734SOL     OW19660   3.320   4.724  16.267  0.4011 -0.2837  0.2552
 2734SOL    HW119661   3.287   4.713  16.357 -0.6395  1.6668  0.1233
 2734SOL    HW219662   3.355   0.088  16.268 -0.6184  0.1145  1.6503
 2735SOL     OW19663   0.434   1.533   8.855 -0.8110 -0.4141  0.8117
 2735SOL    HW119664   0.378   1.462   8.823 -0.9641  0.0216  0.1026
 2735SOL    HW219665   0.505   1.526   8.791 -0.7414  4.0898  0.3998
 2736SOL     OW19666   1.681   0.335   6.528 -0.5480  0.0988  0.2705
 2736SOL    HW119667   1.742   0.365   6.595  0.6383  0.5589 -1.0208
 2736SOL    HW219668   1.730   0.258   6.499 -0.2382  0.7630 -0.9315
 2737SOL     OW19669   1.241   0.992   8.267  0.2785  0.0649 -0.3097
 2737SOL    HW119670   1.321   1.010   8.315 -0.0622 -5.4626  2.3472
 2737SOL    HW219671   1.206   0.913   8.307 -0.7079  1.2711  1.1896
 2738SOL     OW19672   1.644   1.444   8.882  0.0146 -0.7052 -0.3671
 2738SOL    HW119673   1.696   1.367   8.905 -0.0781 -1.5879 -3.1357
 2738SOL    HW219674   1.703   1.493   8.826  0.6694 -1.7094 -0.5470
 2739SOL     OW19675   3.098   2.899   1.523 -0.0268 -0.5248 -0.0731
 2739SOL    HW119676   3.089   2.818   1.472  1.0448  0.1773 -1.3701
 2739SOL    HW219677   3.149   2.867   1.598 -2.1745 -1.6250  0.9075
 2740SOL     OW19678   3.220   1.072  12.207 -0.1247  0.0623 -0.7853
 2740SOL    HW119679   3.276   1.093  12.131  1.4123  0.5378  0.4733
 2740SOL    HW219680   3.240   0.980  12.222  0.1768  0.1014 -0.9360
 2741SOL     OW19681   1.808   2.203   6.008  0.1259 -0.1149  0.6206
 2741SOL    HW119682   1.721   2.196   5.968 -0.2269  0.0927  1.3486
 2741SOL    HW219683   1.821   2.295   6.032  0.3454  0.1611 -0.5544
 2742SOL     OW19684   1.185   3.202  13.180  0.3355  0.8710 -0.2941
 2742SOL    HW119685   1.266   3.216  13.229 -0.5467 -0.6989  1.6133
 2742SOL    HW219686   1.121   3.254  13.229  0.8872 -1.0127  2.4556
 2743SOL     OW19687   0.884   1.605   9.265 -0.3189  0.6516 -0.5649
 2743SOL    HW119688   0.900   1.527   9.317  2.3989  2.5596  1.4858
 2743SOL    HW219689   0.973   1.638   9.254  0.6784 -1.8863 -0.0744
 2744SOL     OW19690   3.995   2.157  10.325 -0.2582 -0.1334 -0.3708
 2744SOL    HW119691   4.049   2.160  10.404  1.1696  3.6268 -1.4657
 2744SOL    HW219692   3.988   2.068  10.291  1.9855  0.0096 -1.2368
 2745SOL     OW19693   1.775   1.181  10.181  0.9880 -0.8921  0.1750
 2745SOL    HW119694   1.727   1.260  10.157  1.5299 -0.0417  1.8886
 2745SOL    HW219695   1.753   1.187  10.274 -1.0683 -1.7498 -0.2543
 2746SOL     OW19696   0.394   2.632  12.542 -0.1479 -0.0797 -0.2072
 2746SOL    HW119697   0.423   2.715  12.582  2.1340 -1.3671  0.7977
 2746SOL    HW219698   0.310   2.632  12.588  0.1957 -0.2090  0.4259
 2747SOL     OW19699   3.421   3.636   3.447  0.8167  0.1309 -0.2953
 2747SOL    HW119700   3.346   3.593   3.404  1.1941 -0.2347 -0.5848
 2747SOL    HW219701   3.443   3.558   3.497  1.2601  1.1905  1.1475
 2748SOL     OW19702   1.005   3.252   0.766 -0.4018 -0.0236  0.5571
 2748SOL    HW119703   0.957   3.224   0.688  0.7576  0.2942 -0.2732
 2748SOL    HW219704   0.998   3.345   0.746 -1.3283  0.0589  1.2745
 2749SOL     OW19705   0.802   0.562   1.552  0.3398  0.1426  0.0360
 2749SOL    HW119706   0.854   0.521   1.483 -1.2816 -0.4590 -0.8218
 2749SOL    HW219707   0.837   0.651   1.553  1.3085 -0.2385 -0.5543
 2750SOL     OW19708   1.951   1.055   0.759  0.0943 -0.5292 -0.0434
 2750SOL    HW119709   1.890   1.110   0.709 -0.3186  0.4406  1.5260
 2750SOL    HW219710   1.903   0.974   0.773  0.2036 -0.8957 -1.7775
 2751SOL     OW19711   1.499   3.977   5.629 -0.0074 -0.5796 -0.1815
 2751SOL    HW119712   1.526   3.916   5.697  0.6293  0.2397  0.2950
 2751SOL    HW219713   1.408   3.949   5.623  0.0018 -0.5336 -0.5756
 2752SOL     OW19714   0.016   3.405   4.185  0.7072  0.2057 -0.1850
 2752SOL    HW119715   4.662   3.453   4.162  1.5888  1.4661 -0.6400
 2752SOL    HW219716   0.042   3.449   4.266  0.0925 -0.4778  0.3809
 2753SOL     OW19717   2.906   0.089   8.174  0.0022 -0.5032  0.2569
 2753SOL    HW119718   2.855   0.164   8.143 -0.0571 -0.0002  1.5555
 2753SOL    HW219719   2.855   0.071   8.254  0.8716  2.3891  1.4536
 2754SOL     OW19720   0.972   0.824   9.059  0.2755 -0.4916  0.1526
 2754SOL    HW119721   1.049   0.777   9.090 -0.5910 -1.5242  0.7507
 2754SOL    HW219722   0.936   0.757   9.000  2.4883  0.4961 -2.3082
 2755SOL     OW19723   3.770   2.658   3.556  0.5837  0.0211 -0.1304
 2755SOL    HW119724   3.761   2.574   3.510  0.3439  0.8462 -1.5982
 2755SOL    HW219725   3.697   2.652   3.617  1.9561 -3.5151  1.1630
 2756SOL     OW19726   1.641   3.565  11.057  0.1871  0.1420 -0.2555
 2756SOL    HW119727   1.637   3.507  10.981 -2.0487  0.1807 -0.1679
 2756SOL    HW219728   1.727   3.538  11.089 -0.4575  0.7214  1.9656
 2757SOL     OW19729   3.484   2.379   6.076  0.0286  0.0407  0.2277
 2757SOL    HW119730   3.403   2.425   6.098  0.1295  0.3478 -0.0400
 2757SOL    HW219731   3.481   2.386   5.981  0.9344  0.2518  0.2116
 2758SOL     OW19732   1.966   1.951   0.130  0.5787  0.1158  0.4941
 2758SOL    HW119733   1.899   1.886   0.153 -0.4581  1.1781  0.5055
 2758SOL    HW219734   1.909   2.015   0.089  2.0376  1.3662  0.4357
 2759SOL     OW19735   3.541   1.541   6.456  0.2479  0.0533 -0.0071
 2759SOL    HW119736   3.607   1.601   6.421 -1.1296  1.6785  0.2256
 2759SOL    HW219737   3.459   1.578   6.424 -0.0512 -0.3322  0.3035
 2760SOL     OW19738   4.078   4.174  17.023  0.1492  0.0497 -0.2621
 2760SOL    HW119739   4.097   4.268  17.021 -2.2049  0.5439  0.5008
 2760SOL    HW219740   4.018   4.168  16.949 -0.7675  1.4425  0.3543
 2761SOL     OW19741   1.368   2.945   5.001  0.4555 -0.3219 -0.0818
 2761SOL    HW119742   1.277   2.935   5.030  0.4743 -0.4706 -0.0696
 2761SOL    HW219743   1.406   2.911   5.082  0.4521  2.4039  1.0513
 2762SOL     OW19744   2.554   0.376   6.314 -0.0715 -0.5711 -0.2168
 2762SOL    HW119745   2.543   0.466   6.346  4.0418 -0.7324  1.6716
 2762SOL    HW219746   2.562   0.400   6.222  1.1164  0.3099  0.1184
 2763SOL     OW19747   4.460   3.218   5.520  0.2751  0.4310  0.0414
 2763SOL    HW119748   4.515   3.190   5.446  0.7501 -4.9768  2.4279
 2763SOL    HW219749   4.455   3.313   5.513  2.5389  0.7478  2.3134
 2764SOL     OW19750   3.836   0.492   6.829  0.1730 -0.1393  0.0651
 2764SOL    HW119751   3.930   0.502   6.821  0.1948  1.3952  2.3234
 2764SOL    HW219752   3.825   0.415   6.885 -0.8217  1.2613  1.7688
 2765SOL     OW19753   1.473   0.425   2.562  0.6771 -0.3067  0.3592
 2765SOL    HW119754   1.455   0.331   2.559 -0.4934 -0.0000 -1.8070
 2765SOL    HW219755   1.389   0.466   2.543  1.5397  0.9039 -0.8015
 2766SOL     OW19756   3.856   0.539   3.714  0.0547  0.2219  0.0438
 2766SOL    HW119757   3.793   0.474   3.746 -0.4875  0.3683 -0.7283
 2766SOL    HW219758   3.840   0.535   3.619 -1.1713  0.6259  0.2386
 2767SOL     OW19759   3.085   2.932   7.542 -0.0947 -0.3178 -0.5400
 2767SOL    HW119760   3.007   2.895   7.501 -0.5917 -0.7096  0.7472
 2767SOL    HW219761   3.071   3.024   7.520  0.0316  0.7457  3.7839
 2768SOL     OW19762   3.295   2.754   5.664  0.2876  0.2205  0.1424
 2768SOL    HW119763   3.314   2.844   5.689 -1.1103  0.5445  0.0503
 2768SOL    HW219764   3.303   2.711   5.749 -1.2759  0.9172  0.6302
 2769SOL     OW19765   4.690   0.828   5.215  0.3112 -0.0327 -0.1708
 2769SOL    HW119766   4.642   0.749   5.191  0.1729  0.6107 -2.0001
 2769SOL    HW219767   0.027   0.841   5.144  0.5234 -3.3538 -0.5803
 2770SOL     OW19768   1.338   3.442   3.145  0.2363  0.4522  0.1328
 2770SOL    HW119769   1.283   3.467   3.071  0.3971  1.0861  0.2201
 2770SOL    HW219770   1.340   3.347   3.137 -0.4049  0.2391  2.4556
 2771SOL     OW19771   4.067   0.523  12.404  0.6769  0.0869 -0.1824
 2771SOL    HW119772   4.147   0.490  12.444  0.3614 -0.1084  0.2887
 2771SOL    HW219773   4.039   0.586  12.471  0.7065 -0.3041  0.1951
 2772SOL     OW19774   3.947   4.643   8.737 -0.0597 -0.2224 -0.1577
 2772SOL    HW119775   3.885   4.597   8.681 -0.9431 -0.1347  0.7561
 2772SOL    HW219776   4.025   4.653   8.681 -0.5308 -2.0226 -1.1583
 2773SOL     OW19777   2.470   2.894   6.688  0.2920 -0.4999 -0.1091
 2773SOL    HW119778   2.422   2.930   6.763  2.3112 -0.8433  1.3485
 2773SOL    HW219779   2.425   2.811   6.670  0.6140 -1.0550  1.6261
 2774SOL     OW19780   3.916   0.656   8.627  0.2460  0.3631  0.1315
 2774SOL    HW119781   3.907   0.562   8.641 -1.6506  0.3126 -1.4028
 2774SOL    HW219782   3.920   0.679   8.720 -1.8320 -0.7544  0.4878
 2775SOL     OW19783   4.629   2.356   4.782  0.1082  0.6225  0.2085
 2775SOL    HW119784   4.680   2.278   4.803 -0.8962 -0.5268 -1.5896
 2775SOL    HW219785   4.695   2.415   4.818 -0.7255  2.1588 -0.7630
 2776SOL     OW19786   1.885   1.794   7.888  0.6483  0.2147  0.0045
 2776SOL    HW119787   1.844   1.757   7.810  1.2678  0.1504 -0.2923
 2776SOL    HW219788   1.841   1.750   7.961  0.1397 -2.0994 -1.7054
 2777SOL     OW19789   2.453   4.664  10.052  0.3281 -0.2195 -0.5099
 2777SOL    HW119790   2.420   4.705   9.972 -0.6237  0.7941  0.4130
 2777SOL    HW219791   2.397   4.708  10.116 -0.4222 -0.8280 -0.7495
 2778SOL     OW19792   0.519   1.348   4.115  0.3854 -0.0898 -0.0888
 2778SOL    HW119793   0.459   1.406   4.162 -0.7118 -0.4111 -1.1020
 2778SOL    HW219794   0.543   1.412   4.047  0.1809 -0.9864 -1.0044
 2779SOL     OW19795   3.020   0.786   7.794 -0.1976 -0.0056 -0.3890
 2779SOL    HW119796   2.997   0.871   7.759  2.4357  0.8262 -0.1004
 2779SOL    HW219797   3.017   0.809   7.887 -2.5644  0.3307 -0.5414
 2780SOL     OW19798   3.007   4.672  10.322  0.5023  0.8637 -0.3657
 2780SOL    HW119799   3.023   4.586  10.283  2.5976  0.3841  1.5200
 2780SOL    HW219800   3.095   4.697  10.350  0.6864 -0.5620  0.3388
 2781SOL     OW19801   0.862   2.507   3.458 -0.0750 -0.2027 -0.1749
 2781SOL    HW119802   0.951   2.483   3.430  0.0063 -1.0267  0.7553
 2781SOL    HW219803   0.818   2.465   3.384 -1.7516 -2.1874  1.9316
 2782SOL     OW19804   2.474   1.194  15.048 -0.2441 -0.7545 -0.1335
 2782SOL    HW119805   2.492   1.214  14.956 -2.6840  1.0974 -0.1947
 2782SOL    HW219806   2.442   1.280  15.077 -2.2392 -1.0253 -1.5270
 2783SOL     OW19807   0.090   1.322   0.974  0.1047 -0.1797 -0.3271
 2783SOL    HW119808   0.155   1.261   1.008  0.6262  0.5015 -0.0966
 2783SOL    HW219809   0.064   1.370   1.053 -0.9886  1.6136 -1.7494
 2784SOL     OW19810   3.356   0.436  11.739 -0.2413  0.5126 -0.0823
 2784SOL    HW119811   3.313   0.520  11.753 -1.0650  0.2544 -1.1305
 2784SOL    HW219812   3.441   0.468  11.771  0.0632 -0.1653 -0.2137
 2785SOL     OW19813   2.789   4.247  17.524  0.1693 -0.2463 -0.1841
 2785SOL    HW119814   2.815   4.334  17.493  1.0784  0.0787  1.4812
 2785SOL    HW219815   2.715   4.221  17.469 -0.1609  0.1737  0.0569
 2786SOL     OW19816   3.331   2.659  13.551  0.4326 -1.0868 -0.0564
 2786SOL    HW119817   3.258   2.677  13.611 -0.1451 -2.4675 -0.3404
 2786SOL    HW219818   3.352   2.743  13.511  0.5583  0.3125  2.8800
 2787SOL     OW19819   3.903   1.673   8.897  0.5169  0.0920  0.0212
 2787SOL    HW119820   3.968   1.733   8.862  0.3031 -0.8363 -1.9282
 2787SOL    HW219821   3.822   1.711   8.864  1.9361  4.5935  1.7908
 2788SOL     OW19822   3.223   0.696   5.305  0.0411  0.2965 -0.2164
 2788SOL    HW119823   3.146   0.750   5.291  0.7868  1.4300  0.0450
 2788SOL    HW219824   3.213   0.619   5.249 -2.1474 -0.0272  0.6103
 2789SOL     OW19825   1.311   3.140   6.596 -0.2675 -0.3226  0.2051
 2789SOL    HW119826   1.374   3.069   6.607  0.0689 -0.1881 -0.8620
 2789SOL    HW219827   1.346   3.214   6.646  1.1256 -0.9260  0.1175
 2790SOL     OW19828   0.811   2.720  15.090 -0.6462  0.0399  0.4174
 2790SOL    HW119829   0.885   2.663  15.107 -0.4280 -0.1027 -0.9665
 2790SOL    HW219830   0.798   2.756  15.178  3.0823  1.4621  0.3761
 2791SOL     OW19831   3.424   4.119   5.213  0.1337  0.3807  0.0261
 2791SOL    HW119832   3.339   4.078   5.202  0.7366 -0.1698 -2.6334
 2791SOL    HW219833   3.464   4.053   5.269 -1.3573 -0.1075  0.4923
 2792SOL     OW19834   3.765   2.815   5.947 -0.2676 -0.1576  0.3477
 2792SOL    HW119835   3.860   2.819   5.935 -0.1903 -0.6010  0.8215
 2792SOL    HW219836   3.748   2.737   5.999  1.2520 -0.8321 -0.1880
 2793SOL     OW19837   1.118   0.033   8.308 -0.0917  0.5657 -0.3004
 2793SOL    HW119838   1.205   4.719   8.298 -0.8902 -0.4399 -3.1301
 2793SOL    HW219839   1.103   0.061   8.218 -0.5885  1.7844  0.1582
 2794SOL     OW19840   4.287   2.966   7.028  0.1437  0.0610 -0.6156
 2794SOL    HW119841   4.382   2.958   7.019  0.0363 -1.0630 -0.7725
 2794SOL    HW219842   4.276   2.999   7.117 -1.4188  0.1518 -0.8475
 2795SOL     OW19843   4.113   3.473   7.576  0.5416 -0.3845 -0.2379
 2795SOL    HW119844   4.170   3.498   7.648 -2.0118  1.0513  1.3051
 2795SOL    HW219845   4.120   3.378   7.578 -0.5289 -0.4466  0.7607
 2796SOL     OW19846   2.297   4.349   6.246 -0.0327  0.5754  0.2484
 2796SOL    HW119847   2.336   4.352   6.158 -0.3718 -1.5010  0.0058
 2796SOL    HW219848   2.209   4.379   6.225  0.8990  2.3274 -1.1749
 2797SOL     OW19849   3.629   3.028   0.543 -0.5131 -0.0408 -0.0257
 2797SOL    HW119850   3.722   3.028   0.522 -0.6140  1.3037 -0.4488
 2797SOL    HW219851   3.585   3.016   0.459  2.7921 -0.5171 -1.6792
 2798SOL     OW19852   1.341   2.617   4.139 -0.0556 -0.3555 -0.3564
 2798SOL    HW119853   1.256   2.649   4.171  1.1843  1.4403  1.1505
 2798SOL    HW219854   1.400   2.636   4.212 -2.3216 -0.0551  1.4157
 2799SOL     OW19855   2.781   1.298  10.200  0.1408 -0.4795 -0.4340
 2799SOL    HW119856   2.820   1.350  10.270  1.6595 -2.1492 -0.0505
 2799SOL    HW219857   2.836   1.221  10.210  1.2028  0.0852 -1.9783
 2800SOL     OW19858   2.811   3.605  15.382 -0.1706  0.1555 -0.1510
 2800SOL    HW119859   2.869   3.572  15.312  0.3898  0.8555 -0.0134
 2800SOL    HW219860   2.795   3.532  15.442  2.5451  0.7199  1.2366
 2801SOL     OW19861   2.100   0.330   3.787  0.0723 -0.1367 -0.1725
 2801SOL    HW119862   2.159   0.359   3.718  0.8428  0.8773  0.9148
 2801SOL    HW219863   2.133   0.382   3.860 -0.7437 -1.3646  1.0633
 2802SOL     OW19864   2.906   3.061   2.006  0.0210 -0.0150 -0.1655
 2802SOL    HW119865   2.907   2.970   2.037 -1.8344  0.2786  0.7692
 2802SOL    HW219866   2.828   3.062   1.950 -0.5915  1.0655  0.6988
 2803SOL     OW19867   0.184   0.045   2.260  0.0502 -0.2162  0.2562
 2803SOL    HW119868   0.115   0.109   2.276  0.1287 -0.3639  1.1797
 2803SOL    HW219869   0.252   0.098   2.219 -1.4411 -0.9026 -3.1596
 2804SOL     OW19870   3.339   0.365   7.448  0.1664 -0.3758 -0.4074
 2804SOL    HW119871   3.429   0.355   7.415 -0.2222  0.3842 -1.6659
 2804SOL    HW219872   3.300   0.409   7.373 -0.0079 -0.3199 -0.2836
 2805SOL     OW19873   2.915   1.575  11.403  0.1847  1.0850 -0.1716
 2805SOL    HW119874   2.947   1.492  11.367 -2.2764  0.1079 -0.1364
 2805SOL    HW219875   2.967   1.574  11.483  0.0465 -0.4427 -0.0982
 2806SOL     OW19876   1.021   0.370   7.924  0.2060  0.0020  0.0985
 2806SOL    HW119877   0.998   0.449   7.875 -1.3903 -0.4808  0.0544
 2806SOL    HW219878   1.115   0.377   7.938  0.3694 -1.3131 -0.3114
 2807SOL     OW19879   1.162   2.605   9.082 -0.2613  0.5000 -0.3340
 2807SOL    HW119880   1.106   2.540   9.125  0.5871 -0.3361 -0.4979
 2807SOL    HW219881   1.224   2.554   9.030  1.0534  1.9052 -0.1456
 2808SOL     OW19882   4.365   4.615   5.929 -0.0139  0.0996 -0.6219
 2808SOL    HW119883   4.415   4.556   5.986 -1.9730 -1.9983 -1.0749
 2808SOL    HW219884   4.421   4.610   5.852 -1.5574 -0.5763 -1.6921
 2809SOL     OW19885   2.680   3.810   5.176  0.4944 -0.4805  0.2447
 2809SOL    HW119886   2.751   3.749   5.197 -0.0185 -0.4689  1.9749
 2809SOL    HW219887   2.613   3.789   5.241  1.2775 -3.6706  0.0127
 2810SOL     OW19888   2.626   4.517  13.518  0.7049 -0.0598  0.1718
 2810SOL    HW119889   2.682   4.440  13.531 -0.1453 -0.5766  0.7691
 2810SOL    HW219890   2.574   4.524  13.598  1.0634 -1.1187  0.4991
 2811SOL     OW19891   1.919   2.679  14.363  0.5482 -0.3585  0.0613
 2811SOL    HW119892   1.951   2.611  14.422 -0.2394  0.9222  1.9834
 2811SOL    HW219893   2.000   2.731  14.360  0.7478 -0.7455 -1.1911
 2812SOL     OW19894   2.350   1.088   3.076 -1.0341  0.0725 -0.1028
 2812SOL    HW119895   2.315   1.101   2.987  0.6732 -2.9308 -1.2186
 2812SOL    HW219896   2.292   1.016   3.098  0.2509 -1.5582 -2.0728
 2813SOL     OW19897   3.295   2.209   8.020 -0.4235  0.1531  0.5443
 2813SOL    HW119898   3.265   2.290   7.981 -1.4795  0.7041  2.5213
 2813SOL    HW219899   3.223   2.194   8.082 -1.1517  2.6100  0.2688
 2814SOL     OW19900   0.362   1.537   4.865 -0.0376  0.4487 -0.1588
 2814SOL    HW119901   0.368   1.602   4.795  0.9597  0.8306  0.2893
 2814SOL    HW219902   0.439   1.550   4.920  0.3128  0.6360 -0.6942
 2815SOL     OW19903   2.723   3.538   7.885 -0.0929  0.1827  0.3326
 2815SOL    HW119904   2.809   3.550   7.926 -0.0928  1.5852 -0.0954
 2815SOL    HW219905   2.718   3.614   7.828 -2.5727 -0.9602 -0.9788
 2816SOL     OW19906   3.789   0.076   8.155 -0.1279 -0.2065 -0.0835
 2816SOL    HW119907   3.703   0.116   8.163 -0.6995 -1.2681 -0.9187
 2816SOL    HW219908   3.786   0.008   8.223  1.6459 -1.5668 -1.3711
 2817SOL     OW19909   0.336   4.703   1.128 -0.2904  0.0990 -0.0721
 2817SOL    HW119910   0.295   4.672   1.209  0.9405 -0.7835  0.2170
 2817SOL    HW219911   0.286   4.650   1.066  1.2200 -0.5028 -0.7651
 2818SOL     OW19912   4.217   4.191   1.870  0.0604  0.2488 -0.5942
 2818SOL    HW119913   4.242   4.151   1.953  1.7275  1.8529 -0.3250
 2818SOL    HW219914   4.235   4.282   1.893 -0.8272 -0.0281  1.1821
 2819SOL     OW19915   1.776   0.420   7.753 -0.3991  0.2469  0.3489
 2819SOL    HW119916   1.806   0.338   7.793  1.1258  0.0407 -1.2348
 2819SOL    HW219917   1.854   0.468   7.777  0.2923 -0.1297 -1.1217
 2820SOL     OW19918   3.994   2.086  12.651 -0.3828 -0.4607  0.6742
 2820SOL    HW119919   4.074   2.094  12.703 -0.9130 -2.7930  1.8740
 2820SOL    HW219920   3.935   2.114  12.722 -1.7894  2.7875 -1.7741
 2821SOL     OW19921   0.536   0.377   6.579  0.1222 -0.3767 -0.2085
 2821SOL    HW119922   0.448   0.375   6.617  0.2508  1.6498  0.1706
 2821SOL    HW219923   0.591   0.327   6.638 -1.4953  1.0216  2.4644
 2822SOL     OW19924   3.117   4.501   7.602  0.3290 -0.0589  0.4053
 2822SOL    HW119925   3.168   4.515   7.522  0.1397 -2.1589 -0.0815
 2822SOL    HW219926   3.182   4.472   7.665 -0.6850  1.3184  2.0818
 2823SOL     OW19927   1.419   4.022   6.557  0.3455  0.7843  0.2222
 2823SOL    HW119928   1.386   4.111   6.570  0.8124  1.1179 -0.8615
 2823SOL    HW219929   1.337   3.976   6.576  1.0593 -0.7607 -0.4095
 2824SOL     OW19930   1.652   0.250   2.941  0.1231 -0.0521 -0.2995
 2824SOL    HW119931   1.604   0.171   2.918 -0.3681 -0.6125  2.6629
 2824SOL    HW219932   1.709   0.261   2.865  0.5566  1.0548  0.1774
 2825SOL     OW19933   4.533   3.969   0.516  0.4961 -0.2320 -0.1247
 2825SOL    HW119934   4.570   3.921   0.443  0.0457 -2.9414  1.4244
 2825SOL    HW219935   4.519   3.896   0.576 -0.2390  0.1467  0.1711
 2826SOL     OW19936   2.168   1.604   0.045  0.4516  0.0939  0.0827
 2826SOL    HW119937   2.106   1.532   0.053 -0.8604  1.2412  0.3209
 2826SOL    HW219938   2.159   1.654   0.126 -1.4396  2.9049 -1.8910
 2827SOL     OW19939   1.319   3.313   6.820  0.7787  0.3579 -0.6807
 2827SOL    HW119940   1.396   3.347   6.865 -2.4764  2.6876  3.0856
 2827SOL    HW219941   1.289   3.247   6.882  3.1485  0.9983  1.1590
 2828SOL     OW19942   0.315   0.420   4.799 -0.3893 -0.3327 -0.8267
 2828SOL    HW119943   0.292   0.432   4.707  0.1500 -1.1980 -1.0815
 2828SOL    HW219944   0.239   0.468   4.830  0.4798  0.3353  0.2612
 2829SOL     OW19945   3.132   3.297   3.904 -0.5502  0.3811 -0.6461
 2829SOL    HW119946   3.108   3.369   3.846 -0.1789  1.2704  0.3006
 2829SOL    HW219947   3.043   3.261   3.908 -0.4621  0.4539  2.5007
 2830SOL     OW19948   1.351   2.999  16.984  0.1876 -0.5557 -0.2602
 2830SOL    HW119949   1.383   2.948  16.910  0.1761  0.2884 -0.8475
 2830SOL    HW219950   1.256   3.000  16.970  0.2669 -0.6052 -0.8029
 2831SOL     OW19951   2.891   4.303  12.342  0.6190  0.0364 -0.2304
 2831SOL    HW119952   2.964   4.277  12.286  0.8231 -1.2593  0.6432
 2831SOL    HW219953   2.939   4.363  12.398 -1.4980  0.7783  0.7831
 2832SOL     OW19954   2.298   0.470  13.362 -0.3826 -0.3455 -0.3128
 2832SOL    HW119955   2.237   0.483  13.435 -0.9839 -0.1522 -0.8494
 2832SOL    HW219956   2.302   0.375  13.357 -0.7815 -0.3512 -0.5072
 2833SOL     OW19957   4.471   3.024   3.996 -0.0146  0.2968 -0.3819
 2833SOL    HW119958   4.518   2.944   3.975 -0.6333 -0.4120  0.9880
 2833SOL    HW219959   4.487   3.084   3.922 -2.5954  1.0544 -0.3359
 2834SOL     OW19960   1.114   2.702   7.677 -0.0617  0.1991  0.0855
 2834SOL    HW119961   1.102   2.612   7.646  1.5785 -0.0037  0.0370
 2834SOL    HW219962   1.024   2.718   7.706 -0.6750 -1.3423 -0.9475
 2835SOL     OW19963   3.452   3.963   8.156  0.1931  0.8152  0.1751
 2835SOL    HW119964   3.431   3.939   8.247  0.9579  1.3299  0.4864
 2835SOL    HW219965   3.513   3.895   8.127  0.2295  0.1858  1.7186
 2836SOL     OW19966   2.114   2.489   0.452  0.4992  0.8084 -0.3584
 2836SOL    HW119967   2.150   2.572   0.421 -0.4182  1.9245  1.5465
 2836SOL    HW219968   2.114   2.512   0.545 -0.3467  1.5820 -0.5533
 2837SOL     OW19969   3.852   4.311   2.301 -0.2276 -0.3643  0.4133
 2837SOL    HW119970   3.816   4.241   2.246  1.6905 -1.6745  0.8120
 2837SOL    HW219971   3.850   4.270   2.388 -0.2610 -1.3431 -0.0428
 2838SOL     OW19972   0.309   1.446   4.252  0.2236 -0.0914 -0.0963
 2838SOL    HW119973   0.359   1.510   4.303  0.0095 -0.2521  0.3070
 2838SOL    HW219974   0.228   1.497   4.252 -0.9716 -2.0060  1.4611
 2839SOL     OW19975   3.057   0.704  11.018  0.3032 -0.2742 -0.2835
 2839SOL    HW119976   2.980   0.755  10.993  0.7214 -0.8272 -2.7317
 2839SOL    HW219977   3.014   0.655  11.088 -0.4349 -1.4525 -1.5497
 2840SOL     OW19978   0.008   0.972  10.182 -0.0038 -0.4289 -0.4767
 2840SOL    HW119979   4.725   0.882  10.151  1.3204  0.0982 -2.3910
 2840SOL    HW219980   0.100   0.989  10.164 -0.0364  0.8168  0.5363
 2841SOL     OW19981   1.582   0.306   8.143  0.2646  0.2832  0.5065
 2841SOL    HW119982   1.633   0.232   8.112  0.2561 -0.3440  2.0176
 2841SOL    HW219983   1.645   0.377   8.152  1.6872 -1.0428  0.9379
 2842SOL     OW19984   3.993   0.937   5.878  0.7362  0.1296  0.2558
 2842SOL    HW119985   4.009   0.998   5.805  1.7575  1.6696  1.7759
 2842SOL    HW219986   3.987   0.992   5.955 -0.9278  1.6877 -0.9952
 2843SOL     OW19987   2.822   3.586   7.574 -0.2100  0.1877 -0.4699
 2843SOL    HW119988   2.819   3.648   7.501 -0.4096 -0.2414 -0.8218
 2843SOL    HW219989   2.777   3.508   7.544  0.2111 -1.5999  3.5262
 2844SOL     OW19990   1.780   2.160   6.561  0.0876  0.8519  0.4506
 2844SOL    HW119991   1.742   2.135   6.477  0.7059 -0.7149  0.6380
 2844SOL    HW219992   1.712   2.122   6.616 -0.0608  1.3824  0.6347
 2845SOL     OW19993   4.051   1.261  14.441 -0.6538  0.2870 -0.2262
 2845SOL    HW119994   4.105   1.222  14.509 -3.0467 -1.9393  0.4276
 2845SOL    HW219995   3.981   1.294  14.499 -0.2989  1.1362 -0.2810
 2846SOL     OW19996   4.670   4.339   4.128  0.1114 -0.4233 -0.1699
 2846SOL    HW119997   4.719   4.406   4.174 -0.8291  0.5045 -0.5204
 2846SOL    HW219998   0.017   4.278   4.118  1.1550  1.0206 -1.3392
 2847SOL     OW19999   1.192   4.433   2.925 -0.3616 -0.1788 -0.0553
 2847SOL    HW120000   1.148   4.515   2.945 -1.7200 -0.9785  0.2411
 2847SOL    HW220001   1.173   4.423   2.832 -0.5536  1.2406 -0.1667
 2848SOL     OW20002   1.032   1.676  12.339 -0.1852 -0.3311  0.0951
 2848SOL    HW120003   1.108   1.715  12.382 -1.1029  0.3233  1.1109
 2848SOL    HW220004   0.997   1.743  12.281  0.6671 -0.1227 -0.1817
 2849SOL     OW20005   3.546   4.177   3.856  0.0186 -0.2081 -0.3287
 2849SOL    HW120006   3.566   4.118   3.929  0.4717  0.6076  0.2053
 2849SOL    HW220007   3.554   4.265   3.894  3.4691  0.2831 -2.1560
 2850SOL     OW20008   0.801   3.392  10.739 -0.1315  0.1991 -0.2920
 2850SOL    HW120009   0.754   3.453  10.795  1.9508 -0.3449  2.0296
 2850SOL    HW220010   0.877   3.446  10.716  0.5240  0.1782  1.8132
 2851SOL     OW20011   1.421   4.413   2.054 -0.3438 -0.2904 -0.0227
 2851SOL    HW120012   1.408   4.503   2.022  2.2847 -0.0619 -0.4349
 2851SOL    HW220013   1.331   4.394   2.081 -0.1494  0.6113  1.2438
 2852SOL     OW20014   1.934   1.572   5.475 -0.5709  0.3844  0.2996
 2852SOL    HW120015   1.994   1.629   5.426  1.4325 -0.5777  1.6720
 2852SOL    HW220016   1.850   1.619   5.471 -1.3852 -1.0091  0.9934
 2853SOL     OW20017   2.308   3.949   5.007  0.0438 -0.6794  0.0334
 2853SOL    HW120018   2.366   3.879   4.977  1.2755  0.0694  0.6583
 2853SOL    HW220019   2.311   4.003   4.927 -0.3368 -0.1580  0.3708
 2854SOL     OW20020   3.391   3.863   4.589  0.6174  0.1990 -0.0129
 2854SOL    HW120021   3.381   3.835   4.498  1.8923 -1.4386  0.3515
 2854SOL    HW220022   3.485   3.851   4.603  0.2714 -2.1280  0.2915
 2855SOL     OW20023   1.578   3.021   9.123 -1.0267 -0.1151  0.0441
 2855SOL    HW120024   1.489   3.045   9.099 -1.3475  0.0033  1.3524
 2855SOL    HW220025   1.578   3.070   9.205  0.8497 -0.6013  0.3414
 2856SOL     OW20026   0.668   2.345   4.537  0.1118  0.2494  0.4765
 2856SOL    HW120027   0.683   2.369   4.446 -2.5513  0.5176  0.1119
 2856SOL    HW220028   0.707   2.422   4.577  2.0731 -1.0482  1.0367
 2857SOL     OW20029   2.287   3.012   6.850 -0.2413  0.0602 -0.3904
 2857SOL    HW120030   2.269   2.920   6.869 -3.0955  0.4360 -1.3414
 2857SOL    HW220031   2.225   3.066   6.901  0.5539  0.5182  0.1029
 2858SOL     OW20032   2.359   3.361   7.301  0.4248 -0.2789 -0.1499
 2858SOL    HW120033   2.341   3.308   7.379  0.4085 -2.6459 -1.7751
 2858SOL    HW220034   2.359   3.290   7.237  0.1148 -0.3620 -0.0612
 2859SOL     OW20035   4.379   3.727   0.620  0.5442 -0.3897 -0.5040
 2859SOL    HW120036   4.358   3.636   0.641  2.6894 -0.7345  0.1137
 2859SOL    HW220037   4.441   3.711   0.549 -0.9650 -0.0966 -1.9023
 2860SOL     OW20038   2.340   4.602   6.809  0.3871  0.0154 -0.0783
 2860SOL    HW120039   2.279   4.611   6.881 -1.1666 -0.0130 -1.3857
 2860SOL    HW220040   2.312   4.672   6.751  2.9074  0.4814 -0.7494
 2861SOL     OW20041   1.512   2.632   1.452  0.2262  0.3235 -0.2940
 2861SOL    HW120042   1.449   2.699   1.426 -0.8217 -0.5470 -0.0151
 2861SOL    HW220043   1.459   2.552   1.454  1.0418 -0.2732 -3.0408
 2862SOL     OW20044   0.514   4.583   5.408 -0.9055  0.2885 -1.0822
 2862SOL    HW120045   0.598   4.628   5.416 -1.7978  0.8837  4.7221
 2862SOL    HW220046   0.531   4.508   5.351 -1.2750 -2.1748  2.0531
 2863SOL     OW20047   1.505   1.469   6.705  0.3304 -0.0690  0.3127
 2863SOL    HW120048   1.537   1.429   6.624 -0.3788  0.5499 -0.2632
 2863SOL    HW220049   1.419   1.497   6.675  0.3768  0.7995  0.9669
 2864SOL     OW20050   3.804   0.160  10.295  0.2685  0.3464  0.5221
 2864SOL    HW120051   3.742   0.205  10.238  1.2337  0.5188 -0.3876
 2864SOL    HW220052   3.891   0.183  10.262  0.2860  1.2430  1.1748
 2865SOL     OW20053   4.079   1.297   2.112  1.1644 -0.4033  0.1663
 2865SOL    HW120054   4.014   1.291   2.042 -0.2183 -0.3853  1.4706
 2865SOL    HW220055   4.045   1.258   2.192 -1.5865  0.6185 -0.5073
 2866SOL     OW20056   3.659   1.494  17.426 -0.2046 -0.5912  0.2400
 2866SOL    HW120057   3.667   1.473  17.519 -3.2325 -0.5398  0.4955
 2866SOL    HW220058   3.670   1.589  17.417 -0.6467 -0.5919 -0.3283
 2867SOL     OW20059   1.962   3.169   1.992 -0.3539  0.3632  0.4228
 2867SOL    HW120060   1.919   3.180   1.907  0.6247  1.6356  0.1036
 2867SOL    HW220061   1.892   3.127   2.042  1.8602 -1.4419  2.0009
 2868SOL     OW20062   1.856   1.618   5.793 -0.3834  0.0420 -0.5940
 2868SOL    HW120063   1.934   1.674   5.795 -0.6489  0.4006 -0.5051
 2868SOL    HW220064   1.803   1.643   5.718 -1.1541 -0.9951 -0.4021
 2869SOL     OW20065   1.531   0.384   3.130  0.1731 -0.0265 -0.5885
 2869SOL    HW120066   1.585   0.335   3.068  1.5344 -1.0888  1.4310
 2869SOL    HW220067   1.453   0.329   3.134 -0.0493  0.3675  0.4779
 2870SOL     OW20068   3.874   1.993   1.055  0.8111 -0.0614 -0.2354
 2870SOL    HW120069   3.963   2.027   1.061  0.9953 -0.3861 -1.2256
 2870SOL    HW220070   3.831   2.045   1.123 -1.4593 -1.1144 -0.8647
 2871SOL     OW20071   4.523   1.801   2.349  0.6404  0.3257  0.5386
 2871SOL    HW120072   4.493   1.710   2.338  0.3715  0.4165  0.5252
 2871SOL    HW220073   4.572   1.773   2.427  1.5548  1.2084  0.2734
 2872SOL     OW20074   0.064   4.538  11.163 -0.1051 -0.2473 -0.3573
 2872SOL    HW120075   0.023   4.593  11.230  1.7120 -1.1229  1.4976
 2872SOL    HW220076   0.146   4.517  11.207  0.0900  0.4181 -0.4055
 2873SOL     OW20077   4.586   0.088   2.731  0.1959  0.3270 -0.0237
 2873SOL    HW120078   4.621   0.123   2.649  0.3771 -2.0263 -0.9547
 2873SOL    HW220079   4.654   0.109   2.794  0.3406 -0.8701  0.2096
 2874SOL     OW20080   2.851   2.206   6.234 -0.1310  0.2054  0.1857
 2874SOL    HW120081   2.944   2.186   6.251  0.3430  1.5448 -0.8497
 2874SOL    HW220082   2.832   2.253   6.315  0.7302  0.3172  0.3254
 2875SOL     OW20083   3.317   1.935  13.044 -0.5108  0.2915 -0.0883
 2875SOL    HW120084   3.331   1.870  13.113 -0.0291 -1.1582 -1.5361
 2875SOL    HW220085   3.231   1.905  13.013 -0.4666  1.9213 -1.8065
 2876SOL     OW20086   4.683   3.049   3.205 -0.3750 -0.7406 -0.3181
 2876SOL    HW120087   4.716   3.101   3.278 -1.2221 -1.6686  0.7098
 2876SOL    HW220088   0.042   3.034   3.163  0.7589  1.0054  1.3845
 2877SOL     OW20089   4.456   1.981   1.774 -0.3448 -0.6583  0.0878
 2877SOL    HW120090   4.487   1.893   1.753 -1.5174 -1.1837  0.5685
 2877SOL    HW220091   4.410   2.018   1.699 -0.1296 -0.5633  0.0011
 2878SOL     OW20092   2.533   1.391  12.922  0.4201 -0.2873 -0.1027
 2878SOL    HW120093   2.600   1.429  12.979 -1.2210  2.0559  0.2611
 2878SOL    HW220094   2.449   1.430  12.944  0.0384 -1.3587  0.3452
 2879SOL     OW20095   2.392   3.996   3.121 -0.1918 -0.1350 -0.4539
 2879SOL    HW120096   2.486   4.003   3.099 -0.2286  2.1010  0.1085
 2879SOL    HW220097   2.377   3.903   3.102  0.5577 -0.6176  1.3145
 2880SOL     OW20098   3.915   1.044   3.871  0.1501 -0.1260  0.4067
 2880SOL    HW120099   3.890   1.016   3.783 -0.3737 -3.3680  1.5652
 2880SOL    HW220100   3.925   0.961   3.917  2.0304 -0.4171 -0.5267
 2881SOL     OW20101   3.983   1.062   0.487  1.1512 -0.4325 -0.0740
 2881SOL    HW120102   4.066   1.106   0.470 -0.1999  3.0989  2.1910
 2881SOL    HW220103   4.005   0.997   0.553 -0.5632 -0.9213  0.0352
 2882SOL     OW20104   4.255   3.863   3.050  0.1132 -0.3267 -0.2318
 2882SOL    HW120105   4.176   3.905   3.082  0.1152 -0.4014 -0.1265
 2882SOL    HW220106   4.291   3.822   3.129 -1.3380  0.1149  0.6525
 2883SOL     OW20107   4.541   4.392  10.410  0.7185  0.1158 -0.0814
 2883SOL    HW120108   4.618   4.425  10.364  2.1042 -1.4139  1.0983
 2883SOL    HW220109   4.554   4.430  10.497 -1.0300  1.8000 -0.5640
 2884SOL     OW20110   4.101   0.781   3.814  0.0906  0.3022 -0.1203
 2884SOL    HW120111   4.009   0.756   3.822  0.9020 -2.2834  1.2921
 2884SOL    HW220112   4.143   0.726   3.880 -0.5377  0.2048  0.2011
 2885SOL     OW20113   0.013   4.401   5.093  0.0989 -0.3683 -0.5885
 2885SOL    HW120114   0.045   4.362   5.012 -3.3860 -2.5899 -0.8665
 2885SOL    HW220115   0.094   4.420   5.139 -0.9941 -0.7291  1.4828
 2886SOL     OW20116   3.336   3.158   2.164 -0.5833 -0.2162  0.2028
 2886SOL    HW120117   3.410   3.130   2.110  0.6747  0.2572  1.6868
 2886SOL    HW220118   3.270   3.089   2.153  0.0764 -0.4367 -2.5288
 2887SOL     OW20119   4.462   0.219   4.937 -0.2668 -0.4195 -0.4873
 2887SOL    HW120120   4.433   0.177   4.856  0.1873 -1.1313 -0.2783
 2887SOL    HW220121   4.420   0.172   5.008  0.9442 -0.2824  0.3210
 2888SOL     OW20122   0.879   0.939   4.586  0.0061 -0.0607  0.1078
 2888SOL    HW120123   0.966   0.974   4.566 -0.6842  2.1191  0.8833
 2888SOL    HW220124   0.887   0.922   4.679  2.2718 -1.1795 -0.2932
 2889SOL     OW20125   2.498   3.631  16.275 -0.0686  0.0500  0.0615
 2889SOL    HW120126   2.513   3.664  16.363  1.0191 -0.0660 -0.0902
 2889SOL    HW220127   2.575   3.576  16.269  0.5780  0.8330  1.3948
 2890SOL     OW20128   2.451   0.022   2.975  0.2097  0.0183 -0.0020
 2890SOL    HW120129   2.454   4.709   3.063  1.7969  4.2485  1.8087
 2890SOL    HW220130   2.406   4.677   2.928 -1.1260  0.3454  0.8113
 2891SOL     OW20131   1.932   4.272   7.760  0.4923  0.4749 -0.1594
 2891SOL    HW120132   1.921   4.177   7.760 -0.9590  0.6505  0.1128
 2891SOL    HW220133   1.913   4.298   7.850  1.1913 -0.8937  0.3971
 2892SOL     OW20134   1.133   3.142   4.687  0.3063  0.2002 -0.2232
 2892SOL    HW120135   1.081   3.122   4.609 -0.5735  0.8337  0.1934
 2892SOL    HW220136   1.204   3.079   4.674  1.6062  1.2678  1.7804
 2893SOL     OW20137   3.930   0.599  12.632 -0.2877  0.2162  0.1219
 2893SOL    HW120138   3.859   0.637  12.684 -0.3551 -2.5989  2.1294
 2893SOL    HW220139   3.987   0.584  12.707 -1.7752  0.5302  1.3086
 2894SOL     OW20140   0.399   4.523  10.599 -0.4817 -0.7396  0.3599
 2894SOL    HW120141   0.384   4.455  10.665  1.0353 -0.4156  1.0347
 2894SOL    HW220142   0.491   4.544  10.613 -0.6544 -1.4562  2.5531
 2895SOL     OW20143   0.052   3.057   4.535 -0.2034 -0.0191  0.8092
 2895SOL    HW120144   4.718   3.112   4.587  0.0036  1.8579 -0.9567
 2895SOL    HW220145   0.010   3.042   4.450 -0.3038 -1.1204  1.0486
 2896SOL     OW20146   1.331   0.407   4.549  0.4159  0.0452  0.3755
 2896SOL    HW120147   1.402   0.380   4.490 -0.0832  1.6578 -0.9750
 2896SOL    HW220148   1.307   0.322   4.585  1.0082 -0.1788  0.2454
 2897SOL     OW20149   2.087   0.199   1.775  0.1496  0.4240  0.0757
 2897SOL    HW120150   2.070   0.114   1.734  1.2867  0.6819 -0.9266
 2897SOL    HW220151   2.011   0.203   1.833 -1.9095 -1.7803 -2.4172
 2898SOL     OW20152   2.802   1.990   7.437 -0.6785 -0.1545 -0.4591
 2898SOL    HW120153   2.735   2.059   7.436  0.1450  0.6245 -1.7165
 2898SOL    HW220154   2.765   1.936   7.366 -2.1263  0.6081 -0.2931
 2899SOL     OW20155   0.757   2.854  15.719  0.3300 -0.3289  0.3691
 2899SOL    HW120156   0.810   2.918  15.672 -0.9167  0.6109  0.2448
 2899SOL    HW220157   0.817   2.779  15.719  0.3046 -0.3456 -0.6206
 2900SOL     OW20158   2.050   2.521   1.872  0.3822 -0.3713  0.9353
 2900SOL    HW120159   2.132   2.563   1.848 -0.0411 -0.3173 -0.3932
 2900SOL    HW220160   2.003   2.591   1.919  0.3398 -0.0198  0.3663
 2901SOL     OW20161   0.767   2.643  15.533 -0.3538  0.2663  0.0470
 2901SOL    HW120162   0.806   2.565  15.493  0.5149  0.1452  1.1401
 2901SOL    HW220163   0.674   2.620  15.528 -0.4861 -0.0705  4.0820
 2902SOL     OW20164   4.347   0.087   5.151 -0.3060  0.9869  0.4565
 2902SOL    HW120165   4.265   0.074   5.198  0.1828  2.1511  1.6364
 2902SOL    HW220166   4.411   0.079   5.223  0.4125 -1.9989 -0.5200
 2903SOL     OW20167   3.309   1.723  13.235  0.4648  0.5476  0.4620
 2903SOL    HW120168   3.389   1.671  13.240  0.2486  0.4118  2.3612
 2903SOL    HW220169   3.321   1.772  13.316 -1.1291  1.3120  0.2437
 2904SOL     OW20170   1.964   4.405   8.022 -0.0554 -0.3261 -0.7985
 2904SOL    HW120171   1.903   4.377   8.089  0.7266  1.2349  0.5755
 2904SOL    HW220172   1.950   4.499   8.010 -0.5346 -0.1490  1.1975
 2905SOL     OW20173   2.398   0.282   1.910  0.2851  0.2565 -0.5829
 2905SOL    HW120174   2.339   0.357   1.902 -1.5223 -1.0368  0.5071
 2905SOL    HW220175   2.330   0.214   1.906 -0.4651  0.9650  0.1177
 2906SOL     OW20176   0.185   0.255   3.248 -0.2055  0.2382 -0.4421
 2906SOL    HW120177   0.116   0.297   3.197  0.2101  0.5478 -0.7522
 2906SOL    HW220178   0.142   0.184   3.295  2.1423  0.5333  2.1800
 2907SOL     OW20179   3.285   1.429   6.240  0.4607 -0.6247  0.4015
 2907SOL    HW120180   3.202   1.409   6.283 -0.2782 -1.9940 -1.6902
 2907SOL    HW220181   3.312   1.500   6.299 -1.6552  1.5431 -1.2680
 2908SOL     OW20182   2.690   4.583   6.242 -0.0397  0.1151  0.5345
 2908SOL    HW120183   2.613   4.547   6.287 -0.9023  0.7437 -0.4425
 2908SOL    HW220184   2.651   4.660   6.202 -2.4758 -1.4442 -0.0911
 2909SOL     OW20185   0.025   0.158   4.841 -0.1954  0.0677 -0.2666
 2909SOL    HW120186   0.091   0.210   4.888 -0.7961 -0.9667  1.7206
 2909SOL    HW220187   4.672   0.203   4.871 -0.0572 -0.1091  0.3546
 2910SOL     OW20188   4.410   3.652   2.918 -0.7225 -0.3205  0.2658
 2910SOL    HW120189   4.367   3.725   2.962 -0.3304  1.0762 -1.6517
 2910SOL    HW220190   4.340   3.588   2.929 -0.3886 -0.6754  0.3234
 2911SOL     OW20191   0.668   3.936   6.006 -0.1812  0.1774 -0.2185
 2911SOL    HW120192   0.695   3.845   6.002 -0.5669  0.0446  0.2048
 2911SOL    HW220193   0.673   3.956   5.912  1.4605 -2.2287 -0.6315
 2912SOL     OW20194   3.708   4.562  11.553  0.1494 -0.0475  0.5413
 2912SOL    HW120195   3.764   4.485  11.557  0.3411  0.0572 -0.0756
 2912SOL    HW220196   3.708   4.556  11.457 -2.8745  0.6028  0.4727
 2913SOL     OW20197   1.824   0.497   8.156 -0.7966  0.1173 -0.1076
 2913SOL    HW120198   1.852   0.443   8.230  1.2962  3.2447  1.3824
 2913SOL    HW220199   1.879   0.466   8.084  2.0083  0.6268  1.8202
 2914SOL     OW20200   3.099   4.721   3.441 -0.1079 -0.2648  0.1625
 2914SOL    HW120201   3.051   4.657   3.388  1.0236 -0.8682 -0.1298
 2914SOL    HW220202   3.101   4.675   3.524  0.0927 -0.2253  0.1793
 2915SOL     OW20203   0.046   3.712  17.219 -0.0168  0.2503 -0.6455
 2915SOL    HW120204   0.136   3.686  17.200  0.1101 -0.2168  0.5985
 2915SOL    HW220205   0.004   3.626  17.226 -0.4703  0.6080  0.9556
 2916SOL     OW20206   1.738   1.198   2.910  0.0244  0.3118 -0.2997
 2916SOL    HW120207   1.673   1.161   2.850 -2.1757  0.5236  1.9524
 2916SOL    HW220208   1.810   1.217   2.851 -0.8331  1.2066 -1.0734
 2917SOL     OW20209   1.832   2.058  11.127 -0.1145  0.1263  0.6149
 2917SOL    HW120210   1.771   2.012  11.069  1.3608  1.5489 -2.0463
 2917SOL    HW220211   1.851   2.137  11.076 -1.0451 -0.6080 -0.8535
 2918SOL     OW20212   3.357   3.732   6.040  0.1166 -0.1420 -0.4344
 2918SOL    HW120213   3.441   3.738   6.087  1.2504  1.4497 -2.6678
 2918SOL    HW220214   3.303   3.775   6.106  0.4504  1.7479 -1.3724
 2919SOL     OW20215   0.361   2.178   5.369  0.6022 -0.6699  0.2927
 2919SOL    HW120216   0.368   2.153   5.277 -0.7347  1.3797 -0.3745
 2919SOL    HW220217   0.362   2.273   5.363 -0.9858 -0.7709 -1.7382
 2920SOL     OW20218   3.406   2.908   6.896  0.6451  0.3679 -0.5721
 2920SOL    HW120219   3.481   2.958   6.930 -0.1388  0.1092  1.5114
 2920SOL    HW220220   3.454   2.833   6.861 -1.5445 -2.1770  2.0126
 2921SOL     OW20221   0.594   0.430   4.659 -0.5423  0.0402 -0.1063
 2921SOL    HW120222   0.579   0.344   4.619 -0.2345  0.4626 -1.1238
 2921SOL    HW220223   0.682   0.428   4.697 -0.9889 -1.0452  0.8518
 2922SOL     OW20224   3.889   2.610  15.052  0.0485 -0.2039 -0.1181
 2922SOL    HW120225   3.811   2.618  14.998  0.2092 -0.2339 -0.3556
 2922SOL    HW220226   3.883   2.519  15.081  1.9480 -0.4911 -0.6317
 2923SOL     OW20227   3.475   2.873   1.573 -0.5956  0.7225 -0.5643
 2923SOL    HW120228   3.453   2.883   1.481 -0.4003  0.2102 -0.6645
 2923SOL    HW220229   3.429   2.949   1.610  0.0266  1.8107 -2.0249
 2924SOL     OW20230   0.525   2.326   3.464 -0.8423 -0.3273 -0.1619
 2924SOL    HW120231   0.610   2.287   3.447 -0.2781 -0.1099  2.0778
 2924SOL    HW220232   0.521   2.305   3.558 -1.0925 -0.5358 -0.2189
 2925SOL     OW20233   3.645   2.361   2.454 -0.3810  0.1095  0.1206
 2925SOL    HW120234   3.607   2.295   2.395 -0.6912 -0.4059  0.8977
 2925SOL    HW220235   3.739   2.362   2.432 -0.4565  3.0821 -0.0678
 2926SOL     OW20236   1.993   0.075   4.129  0.1295 -0.1288  0.8420
 2926SOL    HW120237   2.088   0.072   4.128  0.0892 -0.6141 -1.8746
 2926SOL    HW220238   1.983   0.095   4.222  1.3692  0.4816  0.8425
 2927SOL     OW20239   4.397   3.481   3.326  0.2497 -0.0409 -0.7942
 2927SOL    HW120240   4.336   3.423   3.370  1.1933 -1.0364 -0.8120
 2927SOL    HW220241   4.352   3.565   3.338  0.4474 -0.0376 -0.0381
 2928SOL     OW20242   0.534   3.923   8.067  1.0595  0.8688  0.2511
 2928SOL    HW120243   0.536   3.964   8.153 -0.0315 -0.3403  0.8620
 2928SOL    HW220244   0.454   3.870   8.071  0.8551  1.0761 -0.9268
 2929SOL     OW20245   3.229   4.126   4.404 -0.0831  0.4924  0.0224
 2929SOL    HW120246   3.152   4.169   4.441  0.1261 -0.8176  1.9914
 2929SOL    HW220247   3.195   4.046   4.365 -1.4698  0.7047  0.8055
 2930SOL     OW20248   2.852   2.850   4.394 -0.0150  0.2457 -0.0674
 2930SOL    HW120249   2.815   2.795   4.463 -1.0475 -0.0463 -0.8493
 2930SOL    HW220250   2.936   2.871   4.433  0.3606  2.3750 -2.0231
 2931SOL     OW20251   0.636   3.964  13.986 -0.6156  0.0579  0.2250
 2931SOL    HW120252   0.720   4.008  13.973 -1.3739  1.2880 -0.5254
 2931SOL    HW220253   0.576   4.037  13.968  0.7496  1.2872  0.5871
 2932SOL     OW20254   3.909   4.711   3.292  0.6258  0.4581  0.1004
 2932SOL    HW120255   3.881   4.705   3.383  0.8704  1.0859  0.2192
 2932SOL    HW220256   3.826   4.690   3.249  2.5129 -1.4735 -2.5858
 2933SOL     OW20257   2.837   1.329   3.231  0.1525  0.8689 -0.0031
 2933SOL    HW120258   2.840   1.385   3.153  0.9484  0.3627 -0.3413
 2933SOL    HW220259   2.753   1.357   3.267  0.7370 -0.5477  2.4409
 2934SOL     OW20260   0.650   1.429  11.037 -0.2497  0.0073  0.6444
 2934SOL    HW120261   0.593   1.355  11.055  0.2042 -0.3048  0.8171
 2934SOL    HW220262   0.589   1.502  11.027  1.1234  0.9103 -1.3555
 2935SOL     OW20263   0.379   2.697   0.249  0.2864 -0.3997  0.6453
 2935SOL    HW120264   0.428   2.672   0.170 -1.3153 -2.0877  0.1947
 2935SOL    HW220265   0.446   2.721   0.312  0.0202 -0.5820  0.9950
 2936SOL     OW20266   3.821   4.052  16.685  0.3178  0.1250 -0.1580
 2936SOL    HW120267   3.849   4.143  16.700 -0.4218 -0.1137  2.6584
 2936SOL    HW220268   3.898   4.000  16.708  0.0786 -0.6365 -1.0629
 2937SOL     OW20269   0.543   4.595   2.797  0.1137  0.0218 -0.4481
 2937SOL    HW120270   0.489   4.578   2.719  1.6018  0.0264 -1.4722
 2937SOL    HW220271   0.605   4.524   2.782  2.3732  2.5631 -3.0629
 2938SOL     OW20272   1.309   2.225   3.654  0.6615  0.0631 -0.1859
 2938SOL    HW120273   1.334   2.316   3.668 -1.1243  0.3178  1.2320
 2938SOL    HW220274   1.400   2.193   3.659  0.3224 -0.7167  1.0334
 2939SOL     OW20275   3.728   0.525   5.241 -0.4559 -0.0397  0.5238
 2939SOL    HW120276   3.669   0.473   5.295 -1.8646  1.5511  0.4813
 2939SOL    HW220277   3.687   0.539   5.156 -0.8580 -2.8068  0.2761
 2940SOL     OW20278   4.344   0.188   8.384 -0.6738 -0.2090 -0.4500
 2940SOL    HW120279   4.283   0.115   8.385 -2.9108  1.6666  0.4478
 2940SOL    HW220280   4.300   0.244   8.448  1.4578 -2.3558  2.8515
 2941SOL     OW20281   2.607   1.390   7.827 -1.3981 -0.1495 -0.3101
 2941SOL    HW120282   2.582   1.298   7.823 -0.6033 -0.3240 -1.1008
 2941SOL    HW220283   2.692   1.389   7.784 -1.0118 -1.8512  0.5005
 2942SOL     OW20284   4.428   3.526   4.420  0.3353  0.6158  0.5891
 2942SOL    HW120285   4.391   3.605   4.381 -0.9295 -0.2499  0.0285
 2942SOL    HW220286   4.479   3.491   4.347  0.9741  0.5742  1.0513
 2943SOL     OW20287   4.543   4.124   4.860  0.5270  0.4323  0.3876
 2943SOL    HW120288   4.555   4.152   4.951  1.7179  0.0466  0.3583
 2943SOL    HW220289   4.620   4.070   4.839 -0.1916 -0.6562  0.5928
 2944SOL     OW20290   1.588   0.803   4.853 -0.2322 -0.4165  0.2087
 2944SOL    HW120291   1.552   0.733   4.798  0.5151  0.8775 -1.8880
 2944SOL    HW220292   1.551   0.884   4.819  2.3511  0.4226 -0.5633
 2945SOL     OW20293   3.195   3.281   7.257  0.1590  0.0572  0.1948
 2945SOL    HW120294   3.220   3.359   7.208  0.5020 -2.1335 -3.0917
 2945SOL    HW220295   3.202   3.214   7.190  1.2534  2.0349 -1.6573
 2946SOL     OW20296   2.208   0.707  16.965 -0.2285  0.0613  0.1901
 2946SOL    HW120297   2.123   0.671  16.941  0.0417 -0.6809  0.3651
 2946SOL    HW220298   2.187   0.797  16.991  2.1632  1.2350 -1.9555
 2947SOL     OW20299   0.748   2.032   6.799 -0.2727 -0.5081 -0.2323
 2947SOL    HW120300   0.688   2.047   6.726  0.6402 -0.3078 -0.9444
 2947SOL    HW220301   0.825   2.019   6.744  0.2570  0.6073  0.2465
 2948SOL     OW20302   0.499   2.592  15.510  0.3388 -0.4051 -0.6672
 2948SOL    HW120303   0.450   2.510  15.512  0.9630 -0.8248 -1.9476
 2948SOL    HW220304   0.534   2.590  15.420 -0.4477 -0.6391 -0.9626
 2949SOL     OW20305   1.389   0.835   1.531 -0.2906 -0.4401  0.0514
 2949SOL    HW120306   1.327   0.853   1.460 -0.1749 -1.5477 -0.3244
 2949SOL    HW220307   1.337   0.813   1.609 -1.2291  2.6949  0.3380
 2950SOL     OW20308   1.264   4.605   5.954 -0.2286  0.3764  0.0015
 2950SOL    HW120309   1.277   4.699   5.948 -1.6631  0.4060 -2.7109
 2950SOL    HW220310   1.269   4.589   6.048 -2.8513  1.8149  0.3916
 2951SOL     OW20311   3.320   1.401   1.064  0.9818 -0.0430 -0.0077
 2951SOL    HW120312   3.277   1.371   1.144 -2.2886  3.6549 -0.3770
 2951SOL    HW220313   3.412   1.393   1.087  1.1264  1.2747 -0.1216
 2952SOL     OW20314   4.198   3.699  12.650  0.2354  0.3917  1.1206
 2952SOL    HW120315   4.222   3.787  12.620  1.7492  0.1103  1.4983
 2952SOL    HW220316   4.218   3.716  12.742  0.4398 -0.2830  1.1947
 2953SOL     OW20317   3.106   2.097  17.425 -0.0530 -0.0156 -0.7055
 2953SOL    HW120318   3.107   2.007  17.458 -2.3737 -0.3624 -1.5882
 2953SOL    HW220319   3.189   2.105  17.377  0.9384  0.8063  1.1622
 2954SOL     OW20320   4.620   0.375   5.644  0.3107 -0.1631  0.1523
 2954SOL    HW120321   4.663   0.297   5.679 -1.1686 -0.6187  0.9445
 2954SOL    HW220322   4.550   0.332   5.594  0.2077  0.8038 -0.5248
 2955SOL     OW20323   1.955   3.728   5.711 -0.3299  0.1108 -0.2085
 2955SOL    HW120324   2.047   3.714   5.735  0.3616  2.2064 -1.6050
 2955SOL    HW220325   1.929   3.800   5.769  1.6980  1.0367 -0.4356
 2956SOL     OW20326   0.287   1.453  12.284 -0.0955  0.2653  0.3014
 2956SOL    HW120327   0.362   1.507  12.261 -0.3893  0.6536  0.2731
 2956SOL    HW220328   0.336   1.378  12.319 -2.5084 -1.7710 -0.6604
 2957SOL     OW20329   2.361   3.184   8.888 -0.0431 -0.2313 -0.3451
 2957SOL    HW120330   2.451   3.211   8.871 -0.6656  2.0308 -0.0656
 2957SOL    HW220331   2.366   3.088   8.880 -0.2457 -0.1870 -0.9992
 2958SOL     OW20332   2.088   2.267   5.509 -0.6004 -0.6875 -0.2376
 2958SOL    HW120333   2.065   2.342   5.564 -1.7642 -0.1474 -1.4702
 2958SOL    HW220334   2.097   2.320   5.430  0.6518  0.1442  0.4668
 2959SOL     OW20335   4.296   3.918  12.266 -0.0804  0.1208  0.0817
 2959SOL    HW120336   4.206   3.931  12.239  1.0280  0.5837 -3.3503
 2959SOL    HW220337   4.288   3.938  12.359 -2.3524  1.1797 -0.3525
 2960SOL     OW20338   2.001   1.190   0.171 -0.4555 -0.2234  0.1723
 2960SOL    HW120339   1.978   1.280   0.148 -3.1374 -1.2228 -1.0274
 2960SOL    HW220340   2.057   1.197   0.248 -0.3838  0.1491  0.0864
 2961SOL     OW20341   4.347   2.171  16.694  0.0760  0.1535  0.5456
 2961SOL    HW120342   4.420   2.230  16.715  0.5778  1.1042 -3.9791
 2961SOL    HW220343   4.320   2.214  16.613  0.1430 -0.0040  0.4390
 2962SOL     OW20344   2.247   1.613  14.525  0.2721  0.1144  0.1981
 2962SOL    HW120345   2.251   1.705  14.498  2.2399  0.2272  0.8190
 2962SOL    HW220346   2.174   1.614  14.587 -1.5066 -2.2632 -1.8817
 2963SOL     OW20347   4.028   0.997   3.466 -0.6832  0.0456  0.7045
 2963SOL    HW120348   4.121   1.015   3.481 -0.1228 -2.2030 -0.0444
 2963SOL    HW220349   4.032   0.901   3.459  0.8561  0.0949  0.8464
 2964SOL     OW20350   3.847   2.194  12.027  0.1179 -0.0208 -0.4583
 2964SOL    HW120351   3.790   2.158  12.096 -0.8758  3.9726  0.7880
 2964SOL    HW220352   3.877   2.280  12.055  0.0579 -0.3987  0.7508
 2965SOL     OW20353   2.968   4.235   1.069 -0.5258  0.7291  0.2239
 2965SOL    HW120354   3.063   4.231   1.059 -0.3934 -0.4291  1.8725
 2965SOL    HW220355   2.937   4.150   1.038  1.0432 -0.4649  1.9568
 2966SOL     OW20356   1.882   4.521   6.551  0.5246 -0.6379 -0.0759
 2966SOL    HW120357   1.922   4.605   6.574  0.8967 -1.3965  1.9853
 2966SOL    HW220358   1.965   4.474   6.547  0.3433 -1.0000  0.4128
 2967SOL     OW20359   3.368   3.579  16.905 -0.0622  0.5507 -0.4214
 2967SOL    HW120360   3.315   3.626  16.840  0.6592  0.5245 -1.0214
 2967SOL    HW220361   3.308   3.588  16.979 -0.4533 -0.5687 -0.5896
 2968SOL     OW20362   2.455   3.090  14.788 -0.4786  0.1952 -0.5160
 2968SOL    HW120363   2.512   3.053  14.721  0.9156  0.0503  0.7600
 2968SOL    HW220364   2.515   3.137  14.845 -0.8334  0.1808 -0.1312
 2969SOL     OW20365   4.572   3.697   0.415 -0.8782 -0.3681 -0.7286
 2969SOL    HW120366   4.572   3.643   0.336 -1.6266  0.1135 -1.0530
 2969SOL    HW220367   4.661   3.683   0.448 -0.5722  2.2367 -0.4644
 2970SOL     OW20368   3.376   2.910  12.079 -0.0464 -0.2062  0.2688
 2970SOL    HW120369   3.358   2.957  11.998 -0.6322  1.5694  1.4100
 2970SOL    HW220370   3.460   2.945  12.108 -1.2170  2.2140  0.7553
 2971SOL     OW20371   0.734   2.625  10.789 -0.9990  0.4334 -0.7315
 2971SOL    HW120372   0.697   2.713  10.804 -3.0448 -0.2530 -1.7131
 2971SOL    HW220373   0.661   2.570  10.759 -1.2770 -0.5716  1.7919
 2972SOL     OW20374   3.819   0.771   3.864  0.5501 -0.2160 -0.5407
 2972SOL    HW120375   3.829   0.689   3.816  0.1230 -0.1170 -0.7949
 2972SOL    HW220376   3.775   0.743   3.945 -0.5855  0.4810 -0.9241
 2973SOL     OW20377   4.412   4.617   2.136  0.3517 -0.1742  0.2425
 2973SOL    HW120378   4.499   4.597   2.102  0.2640  3.0437 -1.8558
 2973SOL    HW220379   4.397   4.699   2.089  3.4986 -0.3053 -0.9559
 2974SOL     OW20380   4.384   2.259  14.704  0.0694 -0.0322 -0.0297
 2974SOL    HW120381   4.343   2.188  14.655  0.9924 -1.7791  1.7584
 2974SOL    HW220382   4.351   2.335  14.655 -2.0951 -0.0644  1.3567
 2975SOL     OW20383   4.199   1.525  10.482 -0.3626  0.0988 -0.0200
 2975SOL    HW120384   4.272   1.572  10.521  1.2732 -3.8027  1.6593
 2975SOL    HW220385   4.154   1.597  10.438  0.4793  0.4988 -0.2283
 2976SOL     OW20386   3.925   4.457   4.723 -0.4558  0.4725 -0.3361
 2976SOL    HW120387   3.875   4.514   4.665  0.9078  1.8265 -0.1960
 2976SOL    HW220388   3.851   4.412   4.764 -1.2655  2.4000  0.2979
 2977SOL     OW20389   1.295   2.163   9.500 -0.5373 -0.2806 -0.3178
 2977SOL    HW120390   1.299   2.069   9.484  3.8159 -0.1920  0.1872
 2977SOL    HW220391   1.236   2.180   9.573  0.5721  1.4646  0.1815
 2978SOL     OW20392   2.036   3.678   0.456 -0.5182  0.7993  0.3723
 2978SOL    HW120393   2.032   3.774   0.448 -1.6055  0.7490  0.3220
 2978SOL    HW220394   1.955   3.664   0.504  0.7678  0.0045  2.3098
 2979SOL     OW20395   4.032   2.160   9.876 -0.4788 -0.0254 -0.4840
 2979SOL    HW120396   4.001   2.070   9.889  2.6206 -1.1551 -0.8283
 2979SOL    HW220397   4.117   2.155   9.833 -0.4577  0.1974 -0.4675
 2980SOL     OW20398   1.465   3.063   0.231 -0.1594 -0.5197 -0.2842
 2980SOL    HW120399   1.479   3.052   0.325  0.7894  1.0701 -0.2403
 2980SOL    HW220400   1.422   3.149   0.224 -1.7346 -1.4571 -2.3185
 2981SOL     OW20401   0.442   3.428  11.524  0.1994  0.3048  0.6136
 2981SOL    HW120402   0.531   3.409  11.495 -0.5829  0.5665 -2.0193
 2981SOL    HW220403   0.453   3.438  11.618  0.3557 -2.9684  0.9335
 2982SOL     OW20404   0.374   0.124   8.617  0.1195 -0.5946  0.3475
 2982SOL    HW120405   0.381   0.117   8.522 -0.8906  1.1885  0.1542
 2982SOL    HW220406   0.454   0.078   8.643  0.0129  0.3376  2.3257
 2983SOL     OW20407   1.031   2.183   2.063 -0.3546  0.4136 -0.2551
 2983SOL    HW120408   1.045   2.092   2.039  2.4207  0.6438  0.5062
 2983SOL    HW220409   1.099   2.230   2.016 -3.2631  2.1632 -2.7185
 2984SOL     OW20410   3.930   4.303   6.167 -0.3680  0.0581  0.1103
 2984SOL    HW120411   3.867   4.370   6.194 -3.0979 -2.2684 -0.4764
 2984SOL    HW220412   3.884   4.225   6.196 -1.1617  0.9613  1.2766
 2985SOL     OW20413   2.697   2.896  11.521 -0.4579  0.3785 -0.3526
 2985SOL    HW120414   2.677   2.809  11.557 -0.8341  0.6872  0.1711
 2985SOL    HW220415   2.620   2.942  11.553 -0.8794 -1.3971  1.1910
 2986SOL     OW20416   0.868   2.519   0.648  0.4606  0.4305  0.1608
 2986SOL    HW120417   0.947   2.497   0.598 -0.1708 -2.1077  0.2637
 2986SOL    HW220418   0.815   2.549   0.574 -1.0086 -0.2864  0.9221
 2987SOL     OW20419   0.239   1.616   2.875  0.0071  0.1343 -0.5416
 2987SOL    HW120420   0.156   1.571   2.863  0.2086 -0.3031 -0.2937
 2987SOL    HW220421   0.282   1.590   2.794  0.8642 -0.3277  0.0572
 2988SOL     OW20422   0.914   2.870   7.815  0.3635  0.1769 -0.1093
 2988SOL    HW120423   0.975   2.928   7.769 -1.2586  0.8254 -1.4007
 2988SOL    HW220424   0.831   2.887   7.771 -0.0764 -2.0768 -0.1300
 2989SOL     OW20425   3.521   2.948   8.871 -0.5013  0.0571 -0.7017
 2989SOL    HW120426   3.488   3.036   8.852  1.1142  0.8051 -0.0215
 2989SOL    HW220427   3.520   2.907   8.784  0.2784 -3.4200  0.9598
 2990SOL     OW20428   3.116   1.787   7.162 -0.8898  0.7372 -0.2370
 2990SOL    HW120429   3.059   1.724   7.206 -1.5572  1.6884  0.2646
 2990SOL    HW220430   3.149   1.838   7.236 -1.3317 -0.2224  0.6171
 2991SOL     OW20431   1.183   4.466  10.947 -0.1763 -0.0133  0.2816
 2991SOL    HW120432   1.276   4.465  10.966 -0.2395  2.5494  0.7376
 2991SOL    HW220433   1.171   4.553  10.909 -0.5240 -0.0922  0.2084
 2992SOL     OW20434   1.172   0.971   3.217 -0.3648  0.2566 -0.1120
 2992SOL    HW120435   1.149   0.945   3.306 -0.3231  0.2705 -0.0977
 2992SOL    HW220436   1.264   0.996   3.221 -0.3358  0.3916 -1.5097
 2993SOL     OW20437   2.461   1.500   1.553 -0.5153  0.0902  0.2796
 2993SOL    HW120438   2.496   1.422   1.595  1.2395  0.8822  0.2748
 2993SOL    HW220439   2.525   1.571   1.561 -0.3508 -0.2016  1.5547
 2994SOL     OW20440   3.512   2.318   4.539  0.0193 -0.9081 -0.5153
 2994SOL    HW120441   3.565   2.263   4.597 -0.8083 -0.4314  0.7099
 2994SOL    HW220442   3.464   2.253   4.489  0.4358 -0.6446 -1.2569
 2995SOL     OW20443   4.535   3.340   6.490 -0.2307  0.1118  0.0962
 2995SOL    HW120444   4.560   3.371   6.578 -0.3468  1.3802 -0.3113
 2995SOL    HW220445   4.566   3.406   6.428 -0.2873  0.3848  0.3565
 2996SOL     OW20446   1.082   4.603   3.124  0.5787 -0.3251  0.2618
 2996SOL    HW120447   1.104   4.631   3.213 -0.7216  0.4247  0.3485
 2996SOL    HW220448   1.050   4.686   3.090 -1.3540 -0.9481  0.5309
 2997SOL     OW20449   1.874   0.010   3.127  0.1633 -0.1710 -0.3513
 2997SOL    HW120450   1.957   4.691   3.106 -1.3194 -2.9301 -0.3999
 2997SOL    HW220451   1.852   4.722   3.219 -0.2229 -1.3369 -0.6074
 2998SOL     OW20452   3.564   1.663   4.393 -0.0493  0.3382  0.7809
 2998SOL    HW120453   3.650   1.650   4.353  0.1674  2.4036  0.5809
 2998SOL    HW220454   3.579   1.735   4.453  0.4808 -0.0615  1.1265
 2999SOL     OW20455   1.028   2.752   8.425  0.3527  0.0923  0.3360
 2999SOL    HW120456   1.022   2.837   8.382 -3.5518 -0.9453 -1.1372
 2999SOL    HW220457   1.023   2.691   8.351 -0.6053 -0.3267  0.7470
 3000SOL     OW20458   3.049   1.372   3.698 -0.1051  0.4618  0.1813
 3000SOL    HW120459   3.033   1.356   3.605 -2.2225 -2.4268  1.0252
 3000SOL    HW220460   2.996   1.444   3.732 -1.7680 -0.5170 -0.3079
 3001SOL     OW20461   0.885   3.018  17.519  0.0051 -0.0884 -0.3737
 3001SOL    HW120462   0.946   3.090  17.502 -1.1670  1.2415  1.0031
 3001SOL    HW220463   0.807   3.042  17.468 -0.4239  2.1228  1.2897
 3002SOL     OW20464   0.625   2.702   8.719 -0.2193 -0.6818 -0.1459
 3002SOL    HW120465   0.692   2.710   8.788 -1.8232  0.4819  1.2728
 3002SOL    HW220466   0.598   2.791   8.697 -0.5987 -0.7073  0.2143
 3003SOL     OW20467   2.759   4.644  12.317  0.3594  0.5858  0.1407
 3003SOL    HW120468   2.802   4.567  12.280 -1.1935  0.4991 -1.4919
 3003SOL    HW220469   2.829   4.671  12.377  0.7910  2.3582 -1.1623
 3004SOL     OW20470   0.526   2.915   4.743 -0.5877 -0.3198  0.1260
 3004SOL    HW120471   0.442   2.950   4.714 -0.1359  0.2985 -0.4271
 3004SOL    HW220472   0.522   2.828   4.702 -1.2304 -0.9342  1.4987
 3005SOL     OW20473   4.063   0.155  11.324  0.7818  0.0578  0.2746
 3005SOL    HW120474   4.107   0.186  11.246 -2.8163  2.3410 -0.8599
 3005SOL    HW220475   4.135   0.130  11.381  1.0493  0.7125  0.2117
 3006SOL     OW20476   1.858   1.221   8.135 -0.7587 -0.3076  0.1012
 3006SOL    HW120477   1.951   1.245   8.138 -1.0004  0.8275 -1.3360
 3006SOL    HW220478   1.848   1.187   8.046 -0.0958  1.3367 -0.6045
 3007SOL     OW20479   0.076   3.437   3.341  0.3891 -0.2199 -0.4834
 3007SOL    HW120480   4.722   3.457   3.291 -0.1053  2.4553  1.3992
 3007SOL    HW220481   0.076   3.516   3.395  1.5798  0.6110 -1.6739
 3008SOL     OW20482   4.101   2.277   7.866  0.3512  0.2742  0.1320
 3008SOL    HW120483   4.140   2.201   7.909 -0.7202 -0.5601 -0.3774
 3008SOL    HW220484   4.052   2.217   7.810 -0.1123 -1.7631  2.7218
 3009SOL     OW20485   3.842   3.369   2.953  0.5141  0.2748  0.0541
 3009SOL    HW120486   3.773   3.394   3.015 -0.5553 -1.6534 -0.3504
 3009SOL    HW220487   3.847   3.455   2.912 -1.2354  0.8324  0.9766
 3010SOL     OW20488   3.092   1.317   3.369 -0.4426 -0.2929 -0.0661
 3010SOL    HW120489   3.112   1.411   3.373  0.8749 -0.6908  2.6264
 3010SOL    HW220490   3.022   1.326   3.305  1.2344 -2.8036 -2.2881
 3011SOL     OW20491   3.611   4.439  16.606 -0.0230  0.8348 -0.0897
 3011SOL    HW120492   3.695   4.422  16.649 -0.4383  1.0191  0.7985
 3011SOL    HW220493   3.563   4.367  16.646  0.4854  1.4491  1.6477
 3012SOL     OW20494   1.689   2.830   7.638 -0.1545  0.3171 -0.4347
 3012SOL    HW120495   1.668   2.803   7.549  1.8477 -0.4689 -0.6677
 3012SOL    HW220496   1.783   2.846   7.635  0.0413 -0.1036  3.0148
 3013SOL     OW20497   0.703   1.799   6.051 -0.1108 -0.9693 -0.4543
 3013SOL    HW120498   0.670   1.732   5.991 -3.1432 -0.3758  0.5541
 3013SOL    HW220499   0.623   1.836   6.088  0.1733 -0.1205 -0.6870
 3014SOL     OW20500   2.294   4.358   4.605  0.0610 -0.4587 -0.5345
 3014SOL    HW120501   2.372   4.400   4.567 -0.6424  2.7639  1.6037
 3014SOL    HW220502   2.241   4.368   4.526  0.8704 -1.9688 -1.2671
 3015SOL     OW20503   3.978   0.862   2.376  0.2018 -0.4494  0.3004
 3015SOL    HW120504   4.033   0.939   2.362 -0.1819 -0.4394 -1.1126
 3015SOL    HW220505   4.000   0.838   2.466 -0.1231  1.7817  0.9979
 3016SOL     OW20506   2.758   1.910   3.939  0.4205 -0.1430  0.1537
 3016SOL    HW120507   2.822   1.969   3.979 -0.1767  0.1456  0.6876
 3016SOL    HW220508   2.779   1.920   3.846 -2.6036  0.1184 -0.4764
 3017SOL     OW20509   2.641   4.577   8.383 -0.0457  0.2313 -0.3845
 3017SOL    HW120510   2.569   4.530   8.342 -0.2042  0.6695 -0.6088
 3017SOL    HW220511   2.715   4.516   8.378  1.3529  2.0896 -2.2918
 3018SOL     OW20512   4.086   2.773  17.239  0.0483  0.0478  0.5987
 3018SOL    HW120513   4.039   2.738  17.314 -0.8630 -0.8453 -0.3846
 3018SOL    HW220514   4.104   2.695  17.186 -1.1100 -0.5781  1.1154
 3019SOL     OW20515   2.724   3.776  15.109  0.2215 -0.4124  0.4377
 3019SOL    HW120516   2.765   3.813  15.188  0.3299 -0.7429  0.5397
 3019SOL    HW220517   2.641   3.750  15.148  1.5798 -1.3279  2.7882
 3020SOL     OW20518   3.714   2.035   8.645  0.3765  0.3350 -0.3765
 3020SOL    HW120519   3.699   2.052   8.738  0.4405 -2.7067  0.1679
 3020SOL    HW220520   3.664   1.954   8.636  0.3338  0.0824  2.2961
 3021SOL     OW20521   0.657   0.834   9.682 -0.1880  0.2544 -0.5228
 3021SOL    HW120522   0.693   0.902   9.739 -0.2057 -0.1079 -0.0822
 3021SOL    HW220523   0.574   0.820   9.728 -0.1414  0.1102 -0.4823
 3022SOL     OW20524   1.632   3.093   6.071 -0.1259  0.1127 -0.2945
 3022SOL    HW120525   1.549   3.133   6.044  0.3644  0.8363 -0.7206
 3022SOL    HW220526   1.638   3.010   6.023 -0.1458 -0.4940  0.7510
 3023SOL     OW20527   4.334   0.963   9.300  0.0436 -0.2703  0.0656
 3023SOL    HW120528   4.358   0.919   9.219  0.4185 -0.4926  0.2974
 3023SOL    HW220529   4.292   0.890   9.346 -0.8101 -2.2819 -3.9134
 3024SOL     OW20530   4.485   3.818   4.619  0.1544 -0.0128  0.5329
 3024SOL    HW120531   4.536   3.888   4.657 -0.9955  0.8837  0.4337
 3024SOL    HW220532   4.532   3.811   4.536 -0.5797  1.6985 -0.0327
 3025SOL     OW20533   0.298   2.560   1.929 -0.1057  0.0660 -0.4286
 3025SOL    HW120534   0.339   2.474   1.913  1.5127  0.6526  0.6411
 3025SOL    HW220535   0.249   2.546   2.010 -0.7043 -0.0283 -0.8003
 3026SOL     OW20536   3.412   2.955   5.796 -0.0792  0.5827 -0.1774
 3026SOL    HW120537   3.504   2.936   5.777 -0.4086 -0.9263 -0.2776
 3026SOL    HW220538   3.418   2.991   5.885  1.7114 -1.0045  0.3577
 3027SOL     OW20539   1.826   1.747   9.188  0.3626  0.2145  0.4846
 3027SOL    HW120540   1.825   1.813   9.119 -2.3333 -0.3489 -0.0199
 3027SOL    HW220541   1.796   1.799   9.263  1.4918 -0.3523  1.3194
 3028SOL     OW20542   2.458   0.297   2.529 -0.0868 -0.3437 -0.1757
 3028SOL    HW120543   2.496   0.277   2.443 -2.1390  0.9250 -1.3788
 3028SOL    HW220544   2.498   0.234   2.589 -0.3790  0.8857  1.2904
 3029SOL     OW20545   2.875   1.982   6.509 -0.1902 -0.5183 -0.3626
 3029SOL    HW120546   2.950   1.943   6.554 -2.1143 -1.0251  2.4141
 3029SOL    HW220547   2.841   2.045   6.572  1.5908  2.7393 -2.6583
 3030SOL     OW20548   1.415   4.619   6.723  0.7662  0.6110  0.5624
 3030SOL    HW120549   1.432   4.663   6.806 -1.1164  1.7293  0.3323
 3030SOL    HW220550   1.320   4.610   6.723  0.8704 -0.4461  1.1309
 3031SOL     OW20551   3.405   2.592   4.782 -0.0715 -0.3144  0.1622
 3031SOL    HW120552   3.470   2.627   4.721 -0.2011 -0.4706 -0.0640
 3031SOL    HW220553   3.377   2.672   4.827  0.9314  1.2363 -1.9927
 3032SOL     OW20554   1.833   4.165  10.119  0.2555  0.0541 -0.0578
 3032SOL    HW120555   1.893   4.091  10.107 -1.7156 -1.6456  0.6242
 3032SOL    HW220556   1.815   4.141  10.210  1.3161  2.5232  0.7925
 3033SOL     OW20557   1.577   1.318   4.320  0.2092 -0.1453 -0.2820
 3033SOL    HW120558   1.642   1.337   4.252  1.8065  0.6637  1.4986
 3033SOL    HW220559   1.494   1.346   4.281 -0.2454 -0.7807  0.2418
 3034SOL     OW20560   4.351   3.879  16.690 -0.2118 -0.7328  0.0062
 3034SOL    HW120561   4.407   3.823  16.636 -0.5985 -0.8767 -0.2447
 3034SOL    HW220562   4.419   3.917  16.745  0.3040  0.2160 -1.2846
 3035SOL     OW20563   1.033   2.738   8.892  0.1036  0.6162 -0.4117
 3035SOL    HW120564   1.085   2.696   8.959 -0.5413 -0.7307 -0.7608
 3035SOL    HW220565   0.991   2.810   8.939 -2.6774  0.4438 -2.5661
 3036SOL     OW20566   3.309   0.193  16.576  0.0942 -0.4701  0.7569
 3036SOL    HW120567   3.218   0.202  16.604 -0.1408  1.1898 -0.5659
 3036SOL    HW220568   3.328   0.100  16.587  1.9316 -0.3783 -1.5881
 3037SOL     OW20569   2.167   3.535   1.607  0.4097 -0.4812 -0.3357
 3037SOL    HW120570   2.218   3.614   1.589  0.1805  0.3835  2.7930
 3037SOL    HW220571   2.227   3.464   1.587  2.7434  2.1315 -2.6826
 3038SOL     OW20572   0.650   2.555   6.337 -0.0873  0.1846 -0.0282
 3038SOL    HW120573   0.683   2.640   6.308  0.7114  0.3891  1.4482
 3038SOL    HW220574   0.692   2.548   6.423 -1.1517 -0.6545  0.4178
 3039SOL     OW20575   4.323   4.093   5.450 -0.6281 -0.4860 -0.0513
 3039SOL    HW120576   4.314   4.117   5.358 -3.1141 -0.6606  0.1660
 3039SOL    HW220577   4.409   4.050   5.448 -0.9210 -0.8878 -4.0265
 3040SOL     OW20578   1.662   3.000   5.147  0.2428 -0.2363  0.1236
 3040SOL    HW120579   1.712   3.044   5.216 -0.3408  2.7357 -1.3953
 3040SOL    HW220580   1.602   3.063   5.107  1.1455 -0.1295 -1.0519
 3041SOL     OW20581   1.527   3.780   0.937  0.0983  0.2259 -0.4665
 3041SOL    HW120582   1.461   3.711   0.925  2.2277 -2.1046  1.0745
 3041SOL    HW220583   1.573   3.748   1.015 -0.4893  0.0035 -0.2076
 3042SOL     OW20584   3.282   4.046  10.941 -0.1202  0.3248 -0.3185
 3042SOL    HW120585   3.306   3.957  10.915  3.6248  1.7311 -1.6700
 3042SOL    HW220586   3.189   4.024  10.945 -0.1600  0.3478 -1.1574
 3043SOL     OW20587   2.862   1.450  16.173  0.0469  0.1311  0.2989
 3043SOL    HW120588   2.842   1.525  16.117  0.2874 -0.0736 -0.0629
 3043SOL    HW220589   2.952   1.471  16.197  0.8885 -2.9742 -0.0894
 3044SOL     OW20590   1.538   2.873   6.864 -0.2137  0.4929 -0.6615
 3044SOL    HW120591   1.552   2.868   6.770  1.6152 -1.2370 -0.3020
 3044SOL    HW220592   1.503   2.959   6.887 -0.6089  0.5413 -1.4763
 3045SOL     OW20593   2.914   2.286  14.862 -0.0173 -0.0051 -0.1758
 3045SOL    HW120594   2.997   2.241  14.847 -0.7622 -0.9598 -1.5431
 3045SOL    HW220595   2.943   2.360  14.915 -0.1883  0.1043 -0.2362
 3046SOL     OW20596   2.586   1.080   3.716  0.5855  0.6868 -0.7734
 3046SOL    HW120597   2.679   1.064   3.727  0.9571  2.5281 -1.3217
 3046SOL    HW220598   2.588   1.078   3.620  0.3408 -0.2760 -0.7562
 3047SOL     OW20599   1.192   3.625   0.369  0.1538 -0.1677  0.3344
 3047SOL    HW120600   1.134   3.549   0.361  1.2477 -0.9872  0.1733
 3047SOL    HW220601   1.194   3.638   0.464 -0.7143 -1.7589  0.5756
 3048SOL     OW20602   3.168   2.173   6.977  0.0225 -0.6604  0.0254
 3048SOL    HW120603   3.157   2.197   6.886 -0.1054  1.0390  0.4937
 3048SOL    HW220604   3.097   2.228   7.010 -0.0001 -1.2156  0.9229
 3049SOL     OW20605   2.196   1.158   0.394  0.6270 -0.7698 -1.1476
 3049SOL    HW120606   2.247   1.234   0.421 -1.1425 -0.0294  0.0892
 3049SOL    HW220607   2.257   1.090   0.424  0.1941 -0.1001  1.2400
 3050SOL     OW20608   2.982   0.440   3.397 -0.0918 -0.1119 -0.1518
 3050SOL    HW120609   2.952   0.384   3.469 -0.3402 -0.5486 -0.5962
 3050SOL    HW220610   3.075   0.425   3.410 -0.7759 -1.5558  3.0988
 3051SOL     OW20611   2.962   3.772   2.201  0.2844  0.0357  0.2581
 3051SOL    HW120612   2.979   3.852   2.250  1.5245  1.0978 -1.8850
 3051SOL    HW220613   2.900   3.801   2.134  1.0535 -3.3758 -1.9448
 3052SOL     OW20614   3.870   3.260   1.734 -0.4988  0.2436 -0.3313
 3052SOL    HW120615   3.813   3.208   1.790  0.3808  0.2071  0.5316
 3052SOL    HW220616   3.853   3.353   1.749  2.5130  0.9152 -0.9969
 3053SOL     OW20617   3.344   2.257   7.176  0.1362 -0.5483  0.3715
 3053SOL    HW120618   3.300   2.338   7.202  1.5350  0.3134  0.0475
 3053SOL    HW220619   3.303   2.252   7.089 -0.0592  1.1067  0.3763
 3054SOL     OW20620   2.523   2.947   2.701 -0.0364 -0.5138  0.6599
 3054SOL    HW120621   2.450   2.947   2.639 -1.6294  2.4529  2.5483
 3054SOL    HW220622   2.600   2.951   2.644 -0.1309 -0.2709  0.5486
 3055SOL     OW20623   2.658   3.872   4.682 -0.5148 -0.8197  0.1829
 3055SOL    HW120624   2.621   3.787   4.659  0.1262 -1.2722  0.8187
 3055SOL    HW220625   2.602   3.896   4.756 -0.5434  1.9301 -0.7470
 3056SOL     OW20626   2.923   1.109  10.308 -0.3094 -0.3163  0.2596
 3056SOL    HW120627   2.964   1.163  10.376  0.6739 -2.8383  1.6926
 3056SOL    HW220628   2.910   1.020  10.341 -0.4477 -0.4717 -0.2171
 3057SOL     OW20629   3.091   4.631   2.678 -0.5857 -0.1868  0.1013
 3057SOL    HW120630   3.003   4.668   2.669 -0.7776 -0.5787  0.3883
 3057SOL    HW220631   3.095   4.605   2.769 -0.0116 -1.4329 -0.2779
 3058SOL     OW20632   0.606   0.943   3.001  0.6114  0.0327 -0.3364
 3058SOL    HW120633   0.670   0.976   2.937  1.2315 -2.9901 -1.2573
 3058SOL    HW220634   0.666   0.928   3.073 -1.1843 -2.5428  0.6140
 3059SOL     OW20635   1.291   0.396   0.160 -0.4400 -0.1564 -0.0910
 3059SOL    HW120636   1.314   0.389   0.252  2.4049  1.3242 -0.6754
 3059SOL    HW220637   1.199   0.370   0.159 -0.1867 -1.0292 -0.5917
 3060SOL     OW20638   3.305   1.298   7.663 -0.6214 -0.5301  0.5259
 3060SOL    HW120639   3.382   1.253   7.697  0.0844 -0.1750 -0.5845
 3060SOL    HW220640   3.233   1.264   7.715 -0.8739 -2.4411 -1.0492
 3061SOL     OW20641   0.150   3.804  12.421  0.5683 -0.3271 -0.2152
 3061SOL    HW120642   0.098   3.724  12.420  1.3230 -0.8624  3.0266
 3061SOL    HW220643   0.216   3.783  12.355 -0.1894 -0.3348 -0.9773
 3062SOL     OW20644   0.867   3.370   5.700 -0.3240  0.0920 -0.1025
 3062SOL    HW120645   0.820   3.327   5.628  1.6127 -2.1041 -0.0573
 3062SOL    HW220646   0.839   3.462   5.703  2.0327  0.7765  0.5974
 3063SOL     OW20647   4.390   3.037   3.738 -0.2099 -0.1812  0.4180
 3063SOL    HW120648   4.384   2.949   3.775 -2.1612  0.8011  2.4089
 3063SOL    HW220649   4.332   3.033   3.662  3.5884 -2.9297 -2.3676
 3064SOL     OW20650   3.545   4.406   1.075  0.7624  0.1613  0.0834
 3064SOL    HW120651   3.542   4.474   1.143 -0.0923 -0.7629  0.9709
 3064SOL    HW220652   3.458   4.412   1.034  0.1149 -2.9081  1.0391
 3065SOL     OW20653   1.968   4.540   7.198 -0.4260 -0.1965  0.1637
 3065SOL    HW120654   2.024   4.494   7.262  0.3842 -1.5688 -1.5384
 3065SOL    HW220655   1.940   4.612   7.254  0.9651 -0.1176  0.7727
 3066SOL     OW20656   3.144   0.107   6.000 -0.6791  0.1434  0.6066
 3066SOL    HW120657   3.065   0.055   5.985 -0.9146  0.5474  0.4361
 3066SOL    HW220658   3.126   0.140   6.088 -1.3511 -0.1647  0.5823
 3067SOL     OW20659   1.839   1.368  16.143 -0.3616  0.3188 -0.1585
 3067SOL    HW120660   1.783   1.393  16.069  0.4601 -0.8190 -1.1616
 3067SOL    HW220661   1.843   1.273  16.134 -3.0648  0.2598 -0.8183
 3068SOL     OW20662   1.789   3.083  12.152 -0.0148 -0.5869 -0.4722
 3068SOL    HW120663   1.754   3.138  12.082  1.5482 -0.0600 -0.8293
 3068SOL    HW220664   1.863   3.138  12.178  1.6347 -1.5194 -3.2573
 3069SOL     OW20665   1.495   0.546   6.576 -0.3662  0.0861 -0.0544
 3069SOL    HW120666   1.544   0.602   6.516 -3.5040  1.3523 -1.4356
 3069SOL    HW220667   1.550   0.467   6.566 -0.5242 -0.0183 -0.0915
 3070SOL     OW20668   1.211   1.258   6.063  0.0956 -0.3327 -0.3314
 3070SOL    HW120669   1.182   1.178   6.019  1.0197 -0.5235 -0.5917
 3070SOL    HW220670   1.160   1.322   6.014 -1.2578 -2.1640 -1.3274
 3071SOL     OW20671   2.248   4.202  11.564  0.2777  0.1824 -0.1113
 3071SOL    HW120672   2.189   4.154  11.506 -0.2257  1.6097 -0.7819
 3071SOL    HW220673   2.190   4.245  11.627 -0.3026 -2.5534  1.2084
 3072SOL     OW20674   3.187   4.524   0.898  0.6582  0.1102  0.1272
 3072SOL    HW120675   3.181   4.480   0.983  0.5306  0.5175  0.3291
 3072SOL    HW220676   3.124   4.476   0.844  0.8736 -0.2562  0.2046
 3073SOL     OW20677   3.372   2.449   7.822 -0.5120  0.4253  0.0349
 3073SOL    HW120678   3.371   2.528   7.768 -1.6370 -0.5674 -1.3816
 3073SOL    HW220679   3.285   2.444   7.862  0.1663 -1.3950  1.3142
 3074SOL     OW20680   3.911   2.846   1.485  0.4424 -0.1132  0.6101
 3074SOL    HW120681   3.979   2.781   1.504  0.3253 -0.4383 -0.0793
 3074SOL    HW220682   3.964   2.906   1.433 -1.1702  0.2188 -0.6340
 3075SOL     OW20683   4.388   1.838   2.629 -0.5382 -0.6639  0.0542
 3075SOL    HW120684   4.331   1.762   2.642 -1.8280  0.1507 -0.9889
 3075SOL    HW220685   4.352   1.874   2.548  0.8782 -1.2977 -0.8623
 3076SOL     OW20686   1.879   1.075  16.156 -0.4000  0.0664 -0.0577
 3076SOL    HW120687   1.837   1.024  16.087 -0.9982  1.8708 -1.0317
 3076SOL    HW220688   1.923   1.019  16.220 -0.4935  0.8840  0.7265
 3077SOL     OW20689   4.444   0.485   0.215 -0.6271  0.3158  0.0308
 3077SOL    HW120690   4.500   0.549   0.259 -0.1809  0.1469 -0.2937
 3077SOL    HW220691   4.465   0.405   0.264 -0.9023  1.7781  2.5808
 3078SOL     OW20692   2.387   3.634   0.598 -0.0201 -0.3830 -0.2776
 3078SOL    HW120693   2.329   3.574   0.551  0.3618 -1.5551  0.7736
 3078SOL    HW220694   2.327   3.647   0.672 -0.9028 -0.0447 -1.0441
 3079SOL     OW20695   0.973   1.696   3.321 -0.1676 -0.0318 -0.8236
 3079SOL    HW120696   0.922   1.756   3.267  0.6436 -0.4123 -2.0415
 3079SOL    HW220697   1.044   1.672   3.260 -1.1238  1.0151 -2.3394
 3080SOL     OW20698   1.120   4.385   5.653  0.4137 -0.2259 -0.1249
 3080SOL    HW120699   1.209   4.383   5.690 -0.1239 -1.8088  1.0592
 3080SOL    HW220700   1.075   4.440   5.717 -2.0925 -0.3903 -1.7742
 3081SOL     OW20701   1.161   4.025  12.721 -0.7552 -0.7774 -0.1323
 3081SOL    HW120702   1.201   3.938  12.729 -0.9497 -0.8533 -0.0095
 3081SOL    HW220703   1.138   4.020  12.628 -2.1194  1.8157  0.0511
 3082SOL     OW20704   3.869   1.197   9.669  0.3553  0.2990 -0.2696
 3082SOL    HW120705   3.911   1.138   9.732  2.0950  1.0849 -0.6931
 3082SOL    HW220706   3.820   1.258   9.724  0.7920 -0.3361  0.8208
 3083SOL     OW20707   0.309   1.004   5.073 -0.3461 -0.9590 -0.1154
 3083SOL    HW120708   0.329   0.927   5.127  3.3578 -0.2079 -0.4584
 3083SOL    HW220709   0.229   0.975   5.028 -0.4060  1.3931 -1.4988
 3084SOL     OW20710   1.932   0.671  16.924  0.2028 -0.2773  0.0104
 3084SOL    HW120711   1.852   0.653  16.974  0.7358 -1.1524  0.5367
 3084SOL    HW220712   1.899   0.730  16.856  3.8380  0.4334 -1.1387
 3085SOL     OW20713   2.698   1.755   4.747 -0.3737  0.3532  0.0267
 3085SOL    HW120714   2.697   1.808   4.667 -0.3578  1.1966  0.5859
 3085SOL    HW220715   2.770   1.698   4.719 -0.6328 -0.4504  1.0207
 3086SOL     OW20716   3.777   0.767  13.594  0.5107  0.4862 -0.4533
 3086SOL    HW120717   3.834   0.690  13.604  0.5111  0.2572 -2.3524
 3086SOL    HW220718   3.814   0.820  13.665  0.3435  2.4885 -1.8962
 3087SOL     OW20719   1.588   3.752  10.294  0.0150 -0.1244 -0.2747
 3087SOL    HW120720   1.545   3.669  10.271 -3.0349  1.7430 -1.3705
 3087SOL    HW220721   1.537   3.768  10.374 -0.7016 -1.7673 -0.3995
 3088SOL     OW20722   1.909   2.760   3.331 -0.0044 -0.0821  0.9324
 3088SOL    HW120723   1.916   2.720   3.418  0.7305 -0.7102  0.5859
 3088SOL    HW220724   1.968   2.700   3.284 -0.1689  0.6805 -0.2451
 3089SOL     OW20725   3.108   4.198   1.830 -0.1844 -0.7892 -0.3441
 3089SOL    HW120726   3.087   4.175   1.921 -1.9461  0.2348 -0.4909
 3089SOL    HW220727   3.159   4.276   1.852 -2.1110  0.9467 -2.0358
 3090SOL     OW20728   0.727   0.690   4.835  0.2200  0.4180  0.1094
 3090SOL    HW120729   0.682   0.649   4.909  0.1656 -1.4229 -0.9376
 3090SOL    HW220730   0.656   0.741   4.795  1.1378  0.1234 -1.9040
 3091SOL     OW20731   0.530   0.500   9.898  0.2739  0.4634  0.0987
 3091SOL    HW120732   0.559   0.411   9.919 -2.0649 -0.4786 -0.6772
 3091SOL    HW220733   0.533   0.489   9.803  2.5952 -1.1867  0.3431
 3092SOL     OW20734   4.135   0.379   5.000  0.0571  0.0495  0.5765
 3092SOL    HW120735   4.082   0.315   5.048 -0.9132  0.4779  0.0857
 3092SOL    HW220736   4.208   0.388   5.061 -0.9137 -0.2863  1.7905
 3093SOL     OW20737   3.709   4.342  14.522 -0.1176  0.1481  0.3434
 3093SOL    HW120738   3.752   4.300  14.448 -0.6739 -1.0706  0.7160
 3093SOL    HW220739   3.671   4.269  14.572  2.2076  0.9116  3.2403
 3094SOL     OW20740   3.489   3.244  12.491  0.6091  0.1674 -0.3104
 3094SOL    HW120741   3.393   3.237  12.492  0.6700 -0.9748 -2.3604
 3094SOL    HW220742   3.503   3.265  12.583 -1.8036 -0.2630  0.1452
 3095SOL     OW20743   0.880   0.513   3.753  0.3394 -0.3675  0.4896
 3095SOL    HW120744   0.829   0.504   3.672  1.5825 -1.2339 -0.1966
 3095SOL    HW220745   0.818   0.570   3.798 -0.5026 -1.3603  0.5726
 3096SOL     OW20746   1.681   0.046   4.050 -0.2336  0.1085 -0.1926
 3096SOL    HW120747   1.739   4.698   4.030  0.1792  1.1770 -2.9230
 3096SOL    HW220748   1.648   0.070   3.964 -1.1698 -1.6950 -0.3314
 3097SOL     OW20749   1.104   2.301   7.172 -0.0912 -0.1918 -0.4150
 3097SOL    HW120750   1.011   2.283   7.188  0.2429 -1.2440  0.3293
 3097SOL    HW220751   1.122   2.348   7.254  0.9833 -1.0983 -0.1296
 3098SOL     OW20752   3.947   0.900  16.352  0.1470  0.2843  0.1846
 3098SOL    HW120753   3.870   0.889  16.408  0.2783  2.4964  0.7864
 3098SOL    HW220754   3.998   0.963  16.402  0.8091 -0.3765  0.3462
 3099SOL     OW20755   3.977   1.836   4.701 -0.1128  0.3487 -0.4148
 3099SOL    HW120756   4.026   1.915   4.725  0.2664  0.0007 -0.0512
 3099SOL    HW220757   3.970   1.849   4.607 -1.2166 -1.4751 -0.5918
 3100SOL     OW20758   3.678   3.605   6.274 -0.0450  0.8099 -0.1812
 3100SOL    HW120759   3.594   3.646   6.256 -0.2574 -0.1630 -1.4465
 3100SOL    HW220760   3.647   3.515   6.277  2.2140 -0.0286 -1.3976
 3101SOL     OW20761   1.742   0.849   6.964 -0.2631 -0.0393 -0.0444
 3101SOL    HW120762   1.766   0.859   7.056 -0.0366  1.5287 -0.2778
 3101SOL    HW220763   1.699   0.933   6.950  0.8029  0.2540 -1.5532
 3102SOL     OW20764   4.029   2.597  16.329  0.2707  0.2854  0.1319
 3102SOL    HW120765   4.048   2.637  16.244 -0.1451 -0.9407 -0.5251
 3102SOL    HW220766   4.014   2.679  16.377 -0.7360 -0.8545  1.7551
 3103SOL     OW20767   2.803   4.576   1.310 -0.7993  0.1976 -0.3471
 3103SOL    HW120768   2.831   4.553   1.398 -1.5336 -3.2394 -1.0418
 3103SOL    HW220769   2.852   4.655   1.285  1.0058 -0.8993 -0.2258
 3104SOL     OW20770   3.205   0.709   2.245 -0.4646  0.7047 -0.2453
 3104SOL    HW120771   3.257   0.725   2.324  0.7612  1.6804 -1.2622
 3104SOL    HW220772   3.125   0.660   2.267  0.2598 -0.7301 -0.7959
 3105SOL     OW20773   1.039   0.214   9.444  0.0849 -0.0131  0.1987
 3105SOL    HW120774   1.084   0.293   9.413 -2.1440  1.5490  0.8804
 3105SOL    HW220775   1.015   0.243   9.532  0.9056  0.3131  0.3183
 3106SOL     OW20776   1.365   1.909   8.103  0.3914  0.2257  0.1807
 3106SOL    HW120777   1.311   1.835   8.132  1.2884 -0.1489  0.8879
 3106SOL    HW220778   1.395   1.939   8.188  2.3605  1.6353 -1.0107
 3107SOL     OW20779   2.781   3.123   4.373 -0.2220  0.1154 -0.5798
 3107SOL    HW120780   2.784   3.031   4.402  1.8968  0.2237 -0.4918
 3107SOL    HW220781   2.870   3.149   4.394 -1.0504  1.4727  1.2251
 3108SOL     OW20782   1.833   3.287   6.138  0.3393  0.1250  0.9506
 3108SOL    HW120783   1.791   3.210   6.101 -1.0534  0.9342  0.8672
 3108SOL    HW220784   1.763   3.331   6.185 -0.2313 -0.5247  0.7071
 3109SOL     OW20785   4.091   4.447   1.735 -0.1790 -0.3391  0.2157
 3109SOL    HW120786   4.143   4.383   1.687  0.6560 -1.0700  2.0825
 3109SOL    HW220787   4.142   4.455   1.815  0.4711 -0.4796 -0.1898
 3110SOL     OW20788   0.683   1.645   7.791  0.1445 -0.2729  0.0239
 3110SOL    HW120789   0.699   1.728   7.835  0.8289 -0.8905  0.9526
 3110SOL    HW220790   0.595   1.655   7.756  0.3142  0.1565 -0.2773
 3111SOL     OW20791   2.443   3.149   1.094  0.8009 -0.0480 -0.4737
 3111SOL    HW120792   2.514   3.184   1.148  1.5449  1.4625 -2.4514
 3111SOL    HW220793   2.378   3.113   1.155  1.6349 -0.8699 -0.0656
 3112SOL     OW20794   3.271   0.518   9.043  0.3618 -0.1338  0.5331
 3112SOL    HW120795   3.285   0.428   9.073 -1.2651 -1.0000 -1.3283
 3112SOL    HW220796   3.352   0.528   8.992 -0.1774 -2.7330 -0.8229
 3113SOL     OW20797   3.022   4.316  17.206 -0.3678  0.3766  0.2508
 3113SOL    HW120798   3.067   4.400  17.216  1.8844 -0.8505  0.3736
 3113SOL    HW220799   2.934   4.345  17.231 -0.2355 -0.5253  1.7413
 3114SOL     OW20800   2.306   2.490  12.913 -0.1323 -0.0235 -0.3520
 3114SOL    HW120801   2.273   2.552  12.848  0.6814  1.4842  0.6698
 3114SOL    HW220802   2.389   2.532  12.937  0.1183  0.7449 -2.5315
 3115SOL     OW20803   3.827   2.769   9.662  0.0013 -0.7957  0.6578
 3115SOL    HW120804   3.789   2.777   9.749 -2.2723 -0.3561 -0.3497
 3115SOL    HW220805   3.864   2.681   9.666 -0.2270 -1.0328 -2.0251
 3116SOL     OW20806   1.750   4.077   8.215 -0.3684 -0.1714  0.0520
 3116SOL    HW120807   1.829   4.023   8.222 -1.6280 -1.7726  1.7531
 3116SOL    HW220808   1.741   4.068   8.120 -0.5423 -1.3786  0.1898
 3117SOL     OW20809   2.696   3.434  15.073 -0.1097 -0.2719  0.0351
 3117SOL    HW120810   2.713   3.459  14.983  2.2795  2.6010  1.2811
 3117SOL    HW220811   2.613   3.479  15.092  0.4475  0.5150  0.5948
 3118SOL     OW20812   0.895   1.281  12.974  0.2438 -1.0664  0.1681
 3118SOL    HW120813   0.864   1.346  13.037  3.4433  2.0483 -1.5195
 3118SOL    HW220814   0.969   1.242  13.021  0.2971 -2.0166 -0.7058
 3119SOL     OW20815   1.529   1.805   2.725 -0.3119  0.7374  0.1024
 3119SOL    HW120816   1.618   1.797   2.690  0.3280  2.6288  1.2764
 3119SOL    HW220817   1.523   1.723   2.773  0.6278  0.8138  0.3443
 3120SOL     OW20818   0.578   1.514  13.062  0.3293  0.3811 -0.0851
 3120SOL    HW120819   0.535   1.598  13.078 -3.0210 -1.3391  0.0346
 3120SOL    HW220820   0.671   1.536  13.063 -0.3157  3.2711 -1.0506
 3121SOL     OW20821   3.504   4.361   5.310  0.1455 -0.0512 -0.0034
 3121SOL    HW120822   3.467   4.381   5.396  0.0820  3.0244 -0.7308
 3121SOL    HW220823   3.464   4.279   5.281  0.1112  0.1468 -0.5139
 3122SOL     OW20824   2.797   4.253   8.596 -0.0515 -0.2685  0.5170
 3122SOL    HW120825   2.774   4.218   8.510  2.1971 -1.4253  0.3874
 3122SOL    HW220826   2.867   4.314   8.570 -1.0367  0.6914  0.0848
 3123SOL     OW20827   0.005   0.715  17.632 -0.3827 -0.2901 -0.0885
 3123SOL    HW120828   0.001   0.656  17.557 -0.0064  0.2981 -0.5706
 3123SOL    HW220829   0.061   0.668  17.694  0.0612  1.6129  0.9733
 3124SOL     OW20830   3.140   1.060   4.509 -0.6690 -0.0302 -0.5475
 3124SOL    HW120831   3.210   1.069   4.445 -0.2063 -0.1107 -0.0557
 3124SOL    HW220832   3.086   0.990   4.475 -2.1660  1.3616 -1.0395
 3125SOL     OW20833   2.894   1.493   3.494  0.4373  0.3794 -0.6568
 3125SOL    HW120834   2.841   1.442   3.433 -0.1022  1.4218 -1.0650
 3125SOL    HW220835   2.823   1.521   3.552  2.0928 -0.3533  1.7269
 3126SOL     OW20836   3.048   0.205   5.185 -0.4417  0.3978  0.8121
 3126SOL    HW120837   3.100   0.285   5.192 -0.5487  0.7234 -2.3261
 3126SOL    HW220838   3.095   0.166   5.112 -0.9831  1.3357 -0.0362
 3127SOL     OW20839   1.721   3.632   1.774  0.8699  0.7004 -0.1589
 3127SOL    HW120840   1.765   3.594   1.850  0.0734  1.5294  0.7234
 3127SOL    HW220841   1.632   3.600   1.788  0.7342  1.1545 -0.0113
 3128SOL     OW20842   0.536   0.824   5.851 -0.0267  0.3413 -0.2332
 3128SOL    HW120843   0.614   0.850   5.802 -1.5473  1.5572 -2.0176
 3128SOL    HW220844   0.471   0.893   5.836 -0.3887 -0.4034 -2.1752
 3129SOL     OW20845   0.118   2.731   7.889  0.0633  0.0277  0.7353
 3129SOL    HW120846   0.087   2.800   7.946 -0.7076 -0.1800  0.5651
 3129SOL    HW220847   0.071   2.657   7.927  0.3409  0.0614  1.1472
 3130SOL     OW20848   4.608   3.199   9.674  0.3065 -0.5853  0.4619
 3130SOL    HW120849   4.611   3.122   9.731  0.8606 -0.1733  0.9930
 3130SOL    HW220850   4.548   3.255   9.722  0.0169 -1.1299  0.7287
 3131SOL     OW20851   0.284   0.162   9.075  0.8032  0.0480  0.5302
 3131SOL    HW120852   0.272   0.117   8.991  0.5089  2.2674 -0.6061
 3131SOL    HW220853   0.211   0.135   9.132 -1.1166 -0.3301 -2.0865
 3132SOL     OW20854   2.060   0.119   2.844 -0.3456 -0.3135 -0.9849
 3132SOL    HW120855   2.016   0.203   2.847 -1.2192 -0.8110  0.2137
 3132SOL    HW220856   2.083   0.115   2.937 -0.8264 -1.2795 -0.9111
 3133SOL     OW20857   3.600   1.527   7.482  0.1943  0.2749 -0.4074
 3133SOL    HW120858   3.548   1.530   7.402  2.0161 -0.8507 -1.6559
 3133SOL    HW220859   3.679   1.579   7.469 -0.2241  0.3537 -2.6188
 3134SOL     OW20860   2.444   0.587  16.837 -0.5154  0.1082  0.4141
 3134SOL    HW120861   2.418   0.654  16.900 -4.1728 -0.4566 -0.5119
 3134SOL    HW220862   2.378   0.518  16.851  0.7219 -0.7419  2.0587
 3135SOL     OW20863   0.075   0.373   7.460  0.1805  0.0585  0.4758
 3135SOL    HW120864   4.720   0.392   7.509 -0.2303  0.7967 -0.4793
 3135SOL    HW220865   0.072   0.278   7.451  1.9364  0.0713 -0.3112
 3136SOL     OW20866   1.641   2.519   2.248  0.7242 -0.1358 -0.5640
 3136SOL    HW120867   1.681   2.506   2.162  0.0258  0.2568 -0.9463
 3136SOL    HW220868   1.671   2.608   2.267 -3.6367  0.8850  1.3309
 3137SOL     OW20869   2.507   2.697  14.655  0.0272  0.1093  0.1293
 3137SOL    HW120870   2.542   2.778  14.617 -2.5919  0.2826 -1.8814
 3137SOL    HW220871   2.495   2.643  14.578 -3.1196  1.7779 -0.5396
 3138SOL     OW20872   3.949   1.989   3.258  0.8452  0.2709 -0.4737
 3138SOL    HW120873   3.984   2.046   3.326  1.0434 -2.1601  1.4583
 3138SOL    HW220874   3.950   2.052   3.185 -2.8645  0.6802 -0.1933
 3139SOL     OW20875   2.202   2.796   1.059  1.0053  0.2458 -0.4535
 3139SOL    HW120876   2.131   2.740   1.028  0.1185  1.3212 -0.3812
 3139SOL    HW220877   2.280   2.742   1.045  1.6839  1.0517  0.1846
 3140SOL     OW20878   0.824   0.984  15.415 -0.3380  0.3069 -0.0642
 3140SOL    HW120879   0.849   1.039  15.489 -0.6962 -0.7351  0.8368
 3140SOL    HW220880   0.886   1.012  15.348 -2.7162  1.6257 -1.7412
 3141SOL     OW20881   0.079   0.903   6.267 -0.0469 -0.0099  0.3790
 3141SOL    HW120882   0.030   0.826   6.240 -1.3368  0.8781  0.1733
 3141SOL    HW220883   0.079   0.889   6.362 -2.9995  0.3820  0.4427
 3142SOL     OW20884   2.551   2.633   7.316  0.2889  0.5768  1.1307
 3142SOL    HW120885   2.561   2.614   7.409  3.9869 -1.4640  0.2828
 3142SOL    HW220886   2.463   2.670   7.310 -0.4455 -1.2093  0.8641
 3143SOL     OW20887   4.022   1.881   6.990  0.5987 -0.1258 -0.3707
 3143SOL    HW120888   4.031   1.798   7.036  0.2346 -0.0234 -0.1099
 3143SOL    HW220889   3.928   1.896   7.002  0.1620 -2.3480 -1.1516
 3144SOL     OW20890   3.114   4.265   3.377 -0.2174 -0.4045 -0.0189
 3144SOL    HW120891   3.111   4.190   3.436  1.5951 -1.3934 -1.1813
 3144SOL    HW220892   3.200   4.305   3.387  0.3385 -1.5309 -0.2593
 3145SOL     OW20893   1.114   4.683   2.461 -0.2716 -0.1726 -0.3031
 3145SOL    HW120894   1.060   0.022   2.417  0.1753  1.9876  2.3046
 3145SOL    HW220895   1.099   4.605   2.408  1.8612 -0.2633 -0.7860
 3146SOL     OW20896   2.083   4.395   6.094 -0.2558 -0.0066  0.4261
 3146SOL    HW120897   2.037   4.478   6.077  2.3590  1.1432 -0.9546
 3146SOL    HW220898   2.014   4.339   6.129  1.9207 -1.2001  2.7849
 3147SOL     OW20899   4.627   0.851   5.489  0.3839 -0.1314 -0.0120
 3147SOL    HW120900   4.537   0.837   5.518  0.3970  1.8362  1.0204
 3147SOL    HW220901   4.620   0.841   5.394  0.7602  0.9808 -0.1615
 3148SOL     OW20902   3.271   0.753   7.371  0.4449  0.6729 -0.0504
 3148SOL    HW120903   3.240   0.837   7.404 -2.4185 -0.9029  1.3023
 3148SOL    HW220904   3.253   0.690   7.441  2.8339 -1.9770 -1.8153
 3149SOL     OW20905   2.611   3.564   6.528  0.4743 -0.3738 -0.1680
 3149SOL    HW120906   2.528   3.530   6.562  0.0319  0.8616  0.0131
 3149SOL    HW220907   2.639   3.484   6.485  2.4539 -0.3559  1.0977
 3150SOL     OW20908   3.341   1.368  12.728  0.0146  0.4600  0.0592
 3150SOL    HW120909   3.254   1.353  12.689 -0.1381  0.8133  0.2734
 3150SOL    HW220910   3.329   1.409  12.814 -2.2458  1.7717 -0.8772
 3151SOL     OW20911   3.453   1.010  12.515 -0.0397 -0.7013 -0.1866
 3151SOL    HW120912   3.400   1.082  12.480 -0.5563 -0.7918  0.3984
 3151SOL    HW220913   3.482   1.048  12.598  0.2090 -1.7240  0.1959
 3152SOL     OW20914   3.210   1.700  14.932 -0.0692 -0.4824 -0.2225
 3152SOL    HW120915   3.139   1.691  14.869 -1.2189 -0.0676  1.0346
 3152SOL    HW220916   3.235   1.792  14.931 -2.1291  0.0905  2.0229
 3153SOL     OW20917   4.002   0.711   3.458  0.2968 -0.3887  0.2542
 3153SOL    HW120918   3.922   0.733   3.506 -0.0223  1.4963 -1.1676
 3153SOL    HW220919   3.997   0.616   3.459  0.5698 -0.4106 -0.8453
 3154SOL     OW20920   4.081   3.601  14.696  0.5617  0.4857  0.1227
 3154SOL    HW120921   4.055   3.638  14.611  3.1915  0.4112 -0.7221
 3154SOL    HW220922   4.006   3.547  14.717  1.1801 -0.5085 -0.2284
 3155SOL     OW20923   0.203   3.061   6.992 -0.2315 -0.6363  0.1052
 3155SOL    HW120924   0.195   2.992   7.058  0.3096  1.1199  1.9928
 3155SOL    HW220925   0.111   3.084   6.980 -0.0607 -0.1778 -0.3497
 3156SOL     OW20926   3.630   1.244   2.605 -0.3950  0.0040 -0.4713
 3156SOL    HW120927   3.618   1.288   2.520 -0.1996 -1.2801 -1.1666
 3156SOL    HW220928   3.708   1.191   2.591  0.7187  1.4562  0.2996
 3157SOL     OW20929   0.672   2.243   4.245  0.1644  0.2053  0.0922
 3157SOL    HW120930   0.709   2.327   4.218  0.9537 -0.0132  0.4879
 3157SOL    HW220931   0.607   2.230   4.176 -1.0879 -1.8557  1.6703
 3158SOL     OW20932   0.522   2.685   2.246  0.3071  0.2210 -0.4209
 3158SOL    HW120933   0.493   2.739   2.173 -0.6120  0.5643  0.1972
 3158SOL    HW220934   0.455   2.691   2.315  0.9292  1.5764  0.0666
 3159SOL     OW20935   2.853   1.170   8.338 -0.2780  0.1651 -0.0522
 3159SOL    HW120936   2.844   1.259   8.372 -0.7194  0.9147 -2.0924
 3159SOL    HW220937   2.948   1.167   8.321 -0.8433 -1.9412 -2.8773
 3160SOL     OW20938   4.693   3.848  10.792  0.1780 -0.5198 -0.4287
 3160SOL    HW120939   4.620   3.865  10.851 -1.1673 -1.3944 -1.8448
 3160SOL    HW220940   4.709   3.755  10.811  1.4394 -0.3978 -0.8761
 3161SOL     OW20941   1.338   3.082   8.919  0.1791  0.6027 -0.3189
 3161SOL    HW120942   1.263   3.070   8.977  0.5585 -2.6901 -0.5017
 3161SOL    HW220943   1.294   3.087   8.834  1.1351 -0.1176 -0.8617
 3162SOL     OW20944   4.668   4.668   0.381  0.1779  0.2051  0.2142
 3162SOL    HW120945   4.662   4.587   0.331  0.0297  0.4931 -0.2435
 3162SOL    HW220946   4.719   4.715   0.314 -0.2216 -0.4622 -0.5519
 3163SOL     OW20947   2.461   0.999   4.267  0.3201 -0.2248 -0.1567
 3163SOL    HW120948   2.504   1.031   4.187 -2.2536  0.2571 -1.3673
 3163SOL    HW220949   2.445   0.906   4.252 -2.3463  0.1723  0.1540
 3164SOL     OW20950   2.268   4.646  10.452  0.3738  0.2799  0.1909
 3164SOL    HW120951   2.254   4.635  10.358 -2.2044 -2.8603  0.9566
 3164SOL    HW220952   2.271   4.553  10.474  1.3086  0.2159 -0.1994
 3165SOL     OW20953   4.540   4.175  14.069 -0.5560  0.0205  0.2960
 3165SOL    HW120954   4.603   4.195  14.138 -1.6082 -2.2420  1.9165
 3165SOL    HW220955   4.558   4.253  14.016  0.4983 -0.9901 -0.8542
 3166SOL     OW20956   0.364   0.294   2.417 -0.5114 -0.5304 -0.3014
 3166SOL    HW120957   0.403   0.220   2.371 -0.6560 -1.4202  1.0256
 3166SOL    HW220958   0.381   0.364   2.353  0.4998 -0.1242  0.4017
 3167SOL     OW20959   0.682   0.636  17.184 -0.4388  0.3130 -0.0203
 3167SOL    HW120960   0.628   0.690  17.126  1.1276  0.2950 -1.4838
 3167SOL    HW220961   0.770   0.662  17.158  0.1796 -1.5158  0.2397
 3168SOL     OW20962   1.398   2.239   7.313  0.2808  0.4873  0.0959
 3168SOL    HW120963   1.447   2.193   7.380  0.3389  1.5059  0.7431
 3168SOL    HW220964   1.323   2.269   7.365  0.6049  0.0284  0.8235
 3169SOL     OW20965   3.961   3.258   5.021  0.0659  0.0617 -0.3741
 3169SOL    HW120966   4.041   3.304   5.044  0.0897 -0.2368  0.1375
 3169SOL    HW220967   3.912   3.252   5.103  2.3202  2.8088  1.1262
 3170SOL     OW20968   0.579   0.275   2.052 -0.2369  0.5983  0.3961
 3170SOL    HW120969   0.667   0.276   2.089  0.4962 -0.4226 -1.3059
 3170SOL    HW220970   0.574   0.360   2.008 -0.3251  0.1322 -0.5085
 3171SOL     OW20971   1.286   3.216   9.578  0.4035  0.1377 -0.1205
 3171SOL    HW120972   1.230   3.208   9.500 -0.3852  2.4361  0.2270
 3171SOL    HW220973   1.293   3.124   9.605  2.3673 -0.8062 -3.8166
 3172SOL     OW20974   1.529   0.243  13.656 -0.0693 -0.4575  0.2288
 3172SOL    HW120975   1.465   0.204  13.715  0.4893 -0.3934  0.8724
 3172SOL    HW220976   1.510   0.199  13.573  0.5827 -0.4918  0.0997
 3173SOL     OW20977   2.970   4.036  14.496  0.0217  0.2513 -0.1240
 3173SOL    HW120978   3.048   4.015  14.444 -0.8360 -1.0396 -0.8991
 3173SOL    HW220979   3.000   4.068  14.581  0.2555 -1.0836  0.3012
 3174SOL     OW20980   2.043   3.255   0.556 -0.6297 -0.4299 -0.1451
 3174SOL    HW120981   1.989   3.331   0.578  1.8040  1.6608 -1.2948
 3174SOL    HW220982   2.012   3.232   0.468 -1.7203  0.6945 -0.0545
 3175SOL     OW20983   0.636   0.948   4.415 -0.4393 -0.4148  0.5089
 3175SOL    HW120984   0.665   0.901   4.493 -0.7088  0.3496  1.0749
 3175SOL    HW220985   0.708   1.010   4.407 -0.0563 -0.7214  1.6042
 3176SOL     OW20986   1.029   2.563   3.696  0.1967 -0.2052 -0.3637
 3176SOL    HW120987   1.005   2.528   3.610  2.8116  0.2503 -1.2584
 3176SOL    HW220988   1.093   2.498   3.725  1.1832  1.1712  0.5354
 3177SOL     OW20989   1.503   1.172   5.434  0.5156 -0.3147 -0.3288
 3177SOL    HW120990   1.465   1.109   5.372 -1.6612 -0.3234  1.0196
 3177SOL    HW220991   1.427   1.194   5.488 -0.1417 -0.6667 -1.0976
 3178SOL     OW20992   1.667   3.595   4.286 -0.5514  0.0875  0.4268
 3178SOL    HW120993   1.581   3.625   4.257  0.8352  1.9204 -1.8534
 3178SOL    HW220994   1.717   3.676   4.298 -0.2644  0.3363 -2.3266
 3179SOL     OW20995   2.419   1.757   3.683  0.7408  0.1557 -0.6292
 3179SOL    HW120996   2.368   1.832   3.714  1.6479 -0.4167  2.2350
 3179SOL    HW220997   2.359   1.709   3.626  2.2682 -0.1487 -2.0044
 3180SOL     OW20998   3.290   0.417   9.397 -0.0300 -0.3086 -0.0133
 3180SOL    HW120999   3.332   0.412   9.483 -0.2464  2.1472  0.2248
 3180SOL    HW221000   3.243   0.333   9.393 -0.0176 -0.1863 -2.3562
 3181SOL     OW21001   4.527   1.551   1.499 -0.2402  0.2378 -0.0269
 3181SOL    HW121002   4.442   1.577   1.535 -0.4879  0.2687 -0.6437
 3181SOL    HW221003   4.507   1.460   1.476  1.0000  0.2850 -1.2669
 3182SOL     OW21004   1.733   3.245   8.356  0.3164  0.0469  0.2480
 3182SOL    HW121005   1.722   3.151   8.341 -2.7189  0.8787 -2.6837
 3182SOL    HW221006   1.697   3.259   8.444  0.2817 -0.9997  0.4033
 3183SOL     OW21007   3.244   2.016   3.317 -0.3463 -0.2567  0.1889
 3183SOL    HW121008   3.303   2.066   3.259  2.3840 -2.0613  1.4425
 3183SOL    HW221009   3.247   1.929   3.278 -0.5944  0.2161 -0.9212
 3184SOL     OW21010   1.404   4.374   4.841  0.2307  0.0347  0.1064
 3184SOL    HW121011   1.394   4.308   4.773 -1.9214 -0.5267  0.9698
 3184SOL    HW221012   1.408   4.324   4.922  0.6295  1.2929  0.8717
 3185SOL     OW21013   0.721   1.756   7.424 -0.0014 -0.5489  0.3149
 3185SOL    HW121014   0.749   1.721   7.340 -3.3372 -1.6402 -0.3239
 3185SOL    HW221015   0.688   1.673   7.459  0.2696 -1.3450 -1.3296
 3186SOL     OW21016   0.925   1.754   8.908  0.0983 -0.0842 -0.5866
 3186SOL    HW121017   0.961   1.813   8.975  0.8843  0.7088 -1.7014
 3186SOL    HW221018   0.992   1.686   8.902  0.1474 -0.1791  1.1485
 3187SOL     OW21019   2.665   0.949  15.689 -0.0285 -0.4561  0.0209
 3187SOL    HW121020   2.707   0.990  15.765 -1.1651  1.1467 -0.2161
 3187SOL    HW221021   2.682   1.012  15.619 -1.1137  0.6454  0.7526
 3188SOL     OW21022   2.518   0.261  14.046  0.1447 -0.6103  0.3432
 3188SOL    HW121023   2.574   0.292  13.974 -1.1036 -1.7303 -1.1209
 3188SOL    HW221024   2.445   0.323  14.045  0.7671  0.1159 -1.1770
 3189SOL     OW21025   1.894   0.567  13.152  0.4382  0.0004 -0.7647
 3189SOL    HW121026   1.812   0.550  13.198  0.6457  0.9956 -0.0164
 3189SOL    HW221027   1.951   0.497  13.184 -0.0549  0.5956  1.4206
 3190SOL     OW21028   2.886   3.962   7.690 -0.6475 -0.0987  0.1360
 3190SOL    HW121029   2.959   3.951   7.751 -1.4807  1.6165  1.4557
 3190SOL    HW221030   2.852   4.047   7.718 -0.8266 -0.3852  0.7897
 3191SOL     OW21031   2.589   2.571   4.901 -0.0048 -0.1627  0.0692
 3191SOL    HW121032   2.589   2.507   4.830 -1.7555 -0.0355 -0.0597
 3191SOL    HW221033   2.653   2.526   4.956 -0.0352  0.2499  0.4414
 3192SOL     OW21034   4.572   3.178   3.561  0.2239 -0.2203 -0.1213
 3192SOL    HW121035   4.535   3.121   3.629 -1.6642  0.6791 -0.3777
 3192SOL    HW221036   4.534   3.265   3.571  1.2210 -0.0241  1.7984
 3193SOL     OW21037   1.348   1.700   7.366  0.3314 -0.1337 -0.3064
 3193SOL    HW121038   1.362   1.711   7.460 -1.0058 -4.0451  0.3472
 3193SOL    HW221039   1.256   1.674   7.363 -0.0167  1.1104 -0.5273
 3194SOL     OW21040   4.283   2.858  16.434 -0.1564  0.5956 -0.4451
 3194SOL    HW121041   4.285   2.898  16.347  2.4600  0.2859 -0.5303
 3194SOL    HW221042   4.355   2.906  16.475  0.5993 -0.3269 -0.6737
 3195SOL     OW21043   1.284   3.680   0.947  0.5228 -0.0752 -0.4142
 3195SOL    HW121044   1.203   3.706   0.904  1.3310  2.0221 -0.6462
 3195SOL    HW221045   1.274   3.707   1.038  1.1146  0.8036 -0.6071
 3196SOL     OW21046   1.952   1.407   0.529  0.2407  0.0053  0.0380
 3196SOL    HW121047   1.933   1.501   0.521  0.0722  0.1961  2.8674
 3196SOL    HW221048   2.035   1.398   0.481  2.5057  1.6493  3.6716
 3197SOL     OW21049   2.492   3.635   4.682  0.0426 -0.1084  0.2450
 3197SOL    HW121050   2.414   3.581   4.682  0.4051 -0.6979 -4.0260
 3197SOL    HW221051   2.524   3.623   4.592 -1.5736  2.0785 -0.6182
 3198SOL     OW21052   0.966   1.642   6.519 -0.2361 -0.5616  0.1549
 3198SOL    HW121053   0.874   1.620   6.533 -0.5771  0.1627 -0.9338
 3198SOL    HW221054   0.965   1.654   6.424  0.0497  0.6404  0.3025
 3199SOL     OW21055   1.632   1.140   7.221 -0.0847  0.1175 -0.7050
 3199SOL    HW121056   1.571   1.194   7.172  1.2163  0.8466 -1.5183
 3199SOL    HW221057   1.677   1.206   7.274  0.8962 -1.8463  0.9264
 3200SOL     OW21058   3.165   2.166  14.854 -0.0353 -0.3323 -0.0302
 3200SOL    HW121059   3.256   2.193  14.853 -0.5875  1.5055 -0.9041
 3200SOL    HW221060   3.171   2.093  14.915 -0.6356 -0.9691 -0.7264
 3201SOL     OW21061   2.396   1.397   5.826 -0.0466  0.3336 -0.0591
 3201SOL    HW121062   2.348   1.479   5.816 -2.4980 -1.0352  0.4426
 3201SOL    HW221063   2.473   1.403   5.769  1.8276 -2.3963  2.1811
 3202SOL     OW21064   1.965   3.911   1.572  0.0084 -0.8558 -0.5829
 3202SOL    HW121065   1.910   3.957   1.508  0.0241  2.8808  2.1365
 3202SOL    HW221066   2.049   3.956   1.572  0.2584 -1.3130 -0.0273
 3203SOL     OW21067   4.156   2.078   7.268  0.4057  0.1320 -0.5221
 3203SOL    HW121068   4.139   2.084   7.174  0.6319 -0.6525 -0.6104
 3203SOL    HW221069   4.182   1.987   7.282 -1.3958 -0.1239  1.2042
 3204SOL     OW21070   0.715   4.510   6.829 -0.3717  0.1043 -0.0393
 3204SOL    HW121071   0.740   4.590   6.876  0.9771 -0.0897 -0.4363
 3204SOL    HW221072   0.628   4.492   6.865 -0.2698 -0.1938  0.0565
 3205SOL     OW21073   4.385   1.412   8.785 -0.6550  0.3241  0.8376
 3205SOL    HW121074   4.338   1.480   8.736 -2.0340 -1.2116  0.0421
 3205SOL    HW221075   4.313   1.350   8.793  0.3811 -1.1752 -1.4104
 3206SOL     OW21076   1.085   0.287  11.350  1.0081  0.3740 -0.3913
 3206SOL    HW121077   1.061   0.274  11.442  2.0158 -1.4871 -0.3917
 3206SOL    HW221078   1.173   0.320  11.367  0.7206  0.9470 -0.0125
 3207SOL     OW21079   2.494   1.921  16.036  0.2199  0.0047 -0.0411
 3207SOL    HW121080   2.569   1.954  15.986 -1.0148  0.2871 -1.7069
 3207SOL    HW221081   2.520   1.835  16.070  2.0660  0.1583 -1.0051
 3208SOL     OW21082   0.077   4.156  16.611 -0.4901  0.0980 -0.3130
 3208SOL    HW121083   0.143   4.088  16.600  0.1549  0.6904 -0.0839
 3208SOL    HW221084   0.121   4.203  16.682 -0.8572  0.0744 -0.0702
 3209SOL     OW21085   2.624   2.705   5.716  0.4666 -0.6923  0.3098
 3209SOL    HW121086   2.639   2.639   5.784 -1.4096 -2.9683 -1.5072
 3209SOL    HW221087   2.544   2.670   5.677  1.4807  1.5220 -3.7753
 3210SOL     OW21088   0.293   2.921   0.030 -0.1903 -0.0614  0.1693
 3210SOL    HW121089   0.366   2.881  17.685 -1.0477 -1.4435  0.0201
 3210SOL    HW221090   0.304   2.876   0.113  0.8903 -0.8345 -0.3888
 3211SOL     OW21091   4.226   4.285   1.569 -0.2890 -0.4481 -0.2567
 3211SOL    HW121092   4.203   4.194   1.590  0.5744 -0.2393  1.5691
 3211SOL    HW221093   4.239   4.284   1.475 -1.5987 -1.3830 -0.4366
 3212SOL     OW21094   1.292   4.479  14.794  0.4685 -0.2902 -0.1236
 3212SOL    HW121095   1.314   4.522  14.711 -1.3694  0.1921 -0.3545
 3212SOL    HW221096   1.198   4.463  14.790  0.3867  0.3406 -0.8076
 3213SOL     OW21097   3.125   2.802  10.146 -0.2650  0.1730 -0.6367
 3213SOL    HW121098   3.067   2.806  10.070  0.4563  0.2544 -1.1950
 3213SOL    HW221099   3.197   2.857  10.115  0.6364  0.2475  1.6426
 3214SOL     OW21100   1.467   2.142   2.858  0.1179  0.0127 -0.3592
 3214SOL    HW121101   1.480   2.128   2.764 -0.3390 -1.0970 -0.2533
 3214SOL    HW221102   1.377   2.174   2.864 -0.0883 -0.7295  0.4303
 3215SOL     OW21103   1.563   3.233   3.310 -0.2796  0.0593  0.0889
 3215SOL    HW121104   1.634   3.255   3.250  0.5816 -0.2102  0.9955
 3215SOL    HW221105   1.492   3.193   3.259  2.1250 -2.7314 -1.0270
 3216SOL     OW21106   2.955   2.236  17.265  0.8197 -0.6531  0.1372
 3216SOL    HW121107   2.876   2.202  17.308 -0.4650  1.6681 -0.3872
 3216SOL    HW221108   3.018   2.194  17.324  0.2851 -2.0912 -0.3308
 3217SOL     OW21109   4.325   3.445   8.198  0.1846  0.9432 -0.1025
 3217SOL    HW121110   4.406   3.394   8.201 -0.2702  0.2943  1.3464
 3217SOL    HW221111   4.289   3.435   8.110  2.1129  1.6160 -0.9618
 3218SOL     OW21112   0.785   1.927  14.808  0.3924 -0.0957 -0.5252
 3218SOL    HW121113   0.814   1.915  14.898 -0.7050  1.9061  0.0956
 3218SOL    HW221114   0.700   1.968  14.824  0.7814  1.1893 -1.7372
 3219SOL     OW21115   0.310   4.455   0.573  0.1153  0.0752  0.2660
 3219SOL    HW121116   0.367   4.458   0.650 -0.6708  0.4267  0.8379
 3219SOL    HW221117   0.373   4.493   0.511  2.4063 -0.4903  2.2515
 3220SOL     OW21118   2.206   0.003   6.273  0.4527  0.1124 -0.4474
 3220SOL    HW121119   2.152   0.081   6.283  1.8851  1.4679 -3.5277
 3220SOL    HW221120   2.210   4.722   6.178  0.8544  0.8484 -0.4765
 3221SOL     OW21121   4.478   2.111   0.468 -0.1190 -0.8029 -0.2400
 3221SOL    HW121122   4.542   2.180   0.487  1.3021 -2.3634  0.7293
 3221SOL    HW221123   4.512   2.026   0.497  0.2197 -0.9834 -1.1676
 3222SOL     OW21124   4.197   2.483  16.689  0.4290  0.1029  0.6049
 3222SOL    HW121125   4.130   2.536  16.733  0.4948  0.3256  0.4373
 3222SOL    HW221126   4.260   2.470  16.760 -0.5057  0.8210  1.5671
 3223SOL     OW21127   3.761   2.729   8.824 -0.2943  0.3025 -0.1255
 3223SOL    HW121128   3.741   2.721   8.917  1.8400  0.8710  0.3895
 3223SOL    HW221129   3.697   2.667   8.789 -0.0284 -1.0786  1.8556
 3224SOL     OW21130   1.268   1.273   6.691  0.0116 -0.0574  0.2299
 3224SOL    HW121131   1.231   1.254   6.777  0.3891 -4.6870 -0.6026
 3224SOL    HW221132   1.258   1.189   6.646 -2.0956 -1.4482  3.3222
 3225SOL     OW21133   3.655   3.038   2.422 -0.0151 -0.3256  0.4727
 3225SOL    HW121134   3.588   3.105   2.435  1.7732  1.4165  0.9042
 3225SOL    HW221135   3.720   3.077   2.481 -0.9130  0.9395  0.6238
 3226SOL     OW21136   1.055   1.125   1.439  0.3496  0.1078  0.2450
 3226SOL    HW121137   1.022   1.070   1.511  2.5482  0.8257  1.8343
 3226SOL    HW221138   1.147   1.106   1.459  0.9148  3.2278  0.6953
 3227SOL     OW21139   0.879   2.922   6.926 -0.0972  0.1022 -0.0206
 3227SOL    HW121140   0.892   2.918   6.831 -1.1897  0.5598 -0.2028
 3227SOL    HW221141   0.819   2.849   6.936 -0.2573  0.4388  1.5012
 3228SOL     OW21142   2.562   2.453   9.574  0.3052  1.1981 -0.2948
 3228SOL    HW121143   2.503   2.416   9.640 -0.8874  4.1570  0.3231
 3228SOL    HW221144   2.557   2.385   9.507  1.6717  0.5511  0.2589
 3229SOL     OW21145   4.218   3.960   7.014 -0.6184 -0.3765  0.6760
 3229SOL    HW121146   4.312   3.940   7.016 -0.6967 -0.9053 -0.5736
 3229SOL    HW221147   4.211   3.961   6.918  0.8047  0.7931  0.5838
 3230SOL     OW21148   0.462   0.486   4.276 -0.5145 -0.5374 -0.2390
 3230SOL    HW121149   0.401   0.536   4.222  1.5717  1.9767 -0.2816
 3230SOL    HW221150   0.473   0.409   4.221 -1.5571 -2.1887  1.8618
 3231SOL     OW21151   3.512   3.765  12.825  0.0144 -0.6627 -0.1340
 3231SOL    HW121152   3.497   3.678  12.789  2.3298 -0.0799 -2.5158
 3231SOL    HW221153   3.532   3.742  12.916 -2.0322  0.7510  0.6859
 3232SOL     OW21154   2.507   0.673  12.329 -0.2475  0.1459 -0.2012
 3232SOL    HW121155   2.506   0.743  12.264  1.8214 -0.4060 -0.8332
 3232SOL    HW221156   2.470   0.589  12.303 -1.8996  1.1076 -0.9563
 3233SOL     OW21157   2.299   3.348   0.728 -0.5945 -0.0059  0.1963
 3233SOL    HW121158   2.313   3.351   0.823  0.7417  0.2090 -0.0076
 3233SOL    HW221159   2.211   3.384   0.739 -1.1149 -1.2611  0.2581
 3234SOL     OW21160   2.894   2.436  13.322  0.1282 -0.1776 -0.1106
 3234SOL    HW121161   2.901   2.453  13.416 -0.3909 -1.0265  0.0819
 3234SOL    HW221162   2.925   2.345  13.328  1.7812  0.3126 -1.0446
 3235SOL     OW21163   3.599   4.310   7.927  0.5928  0.1068 -0.7164
 3235SOL    HW121164   3.685   4.351   7.919  1.4595 -1.7129 -0.8931
 3235SOL    HW221165   3.582   4.285   7.836  1.8479 -1.6990 -0.4663
 3236SOL     OW21166   0.370   3.773   2.653 -0.6967 -0.6797 -0.0114
 3236SOL    HW121167   0.344   3.824   2.730  1.1733 -1.3262  1.0543
 3236SOL    HW221168   0.336   3.689   2.684 -0.0366 -1.1666 -0.6194
 3237SOL     OW21169   3.155   4.552   5.546  0.2211 -0.0774 -0.1365
 3237SOL    HW121170   3.192   4.607   5.615 -0.4821  0.9018 -0.5344
 3237SOL    HW221171   3.154   4.462   5.579  1.7111 -0.2579 -0.5756
 3238SOL     OW21172   2.790   1.595   4.241  0.0353  0.1425 -0.2727
 3238SOL    HW121173   2.872   1.633   4.274  0.0417 -1.0623  1.0756
 3238SOL    HW221174   2.749   1.678   4.216 -1.5787 -0.0228  1.9143
 3239SOL     OW21175   4.042   1.799  16.569  0.3417 -0.1682 -0.4729
 3239SOL    HW121176   4.003   1.756  16.492 -0.3836 -0.7443  0.2075
 3239SOL    HW221177   4.068   1.884  16.533  0.8950 -0.7804 -1.5371
 3240SOL     OW21178   4.499   4.507   7.879  0.1454  0.3088 -0.3293
 3240SOL    HW121179   4.544   4.568   7.937  0.8161 -0.0449 -0.4771
 3240SOL    HW221180   4.492   4.567   7.805 -0.1129 -0.0987 -0.6385
 3241SOL     OW21181   0.118   3.327  11.815 -0.8973  0.0429  0.2385
 3241SOL    HW121182   0.196   3.277  11.790 -1.4915 -0.0193 -1.5195
 3241SOL    HW221183   0.063   3.305  11.740  0.0565 -0.2112 -0.3893
 3242SOL     OW21184   3.938   3.142   1.491 -0.2064 -0.2154  0.0948
 3242SOL    HW121185   3.964   3.055   1.521  2.3998  0.5918  0.2134
 3242SOL    HW221186   3.900   3.185   1.568  0.9141  1.2719 -0.1747
 3243SOL     OW21187   1.486   2.500  16.057 -0.5314  0.3196 -0.3836
 3243SOL    HW121188   1.481   2.493  15.961  0.7676  1.1620 -0.5144
 3243SOL    HW221189   1.579   2.522  16.056 -1.2430  3.4924  1.7698
 3244SOL     OW21190   1.549   3.484   6.074  0.1234  0.2198  0.1250
 3244SOL    HW121191   1.597   3.511   5.996  0.3703  3.1102  1.2634
 3244SOL    HW221192   1.538   3.571   6.111 -0.6691  0.0100  0.3963
 3245SOL     OW21193   2.504   4.600  11.026  0.2489  0.2439 -0.1001
 3245SOL    HW121194   2.575   4.545  11.059  0.9097  0.5395 -1.0238
 3245SOL    HW221195   2.472   4.626  11.112 -0.7368  1.4307 -0.8329
 3246SOL     OW21196   1.325   1.167  13.772 -0.1076 -0.1067  0.4545
 3246SOL    HW121197   1.231   1.163  13.785 -0.4440  3.9986 -0.7786
 3246SOL    HW221198   1.355   1.249  13.812  1.6512  0.3909 -1.8514
 3247SOL     OW21199   1.959   3.480   6.460  0.1371 -0.6213  0.2936
 3247SOL    HW121200   2.028   3.546   6.465  0.1674 -0.6909  0.8692
 3247SOL    HW221201   1.956   3.456   6.553 -0.0929  1.6501  0.8760
 3248SOL     OW21202   0.001   1.475   5.798 -0.0741  0.0557 -0.4257
 3248SOL    HW121203   4.676   1.467   5.879  1.3968 -0.3530  0.4479
 3248SOL    HW221204   0.073   1.422   5.833  0.6289  0.4856 -1.2136
 3249SOL     OW21205   2.299   3.427   2.905 -0.0286  0.6086  0.3838
 3249SOL    HW121206   2.295   3.436   3.000  0.0959  2.7890  0.1708
 3249SOL    HW221207   2.235   3.358   2.887  1.1476 -0.3804 -0.0064
 3250SOL     OW21208   2.568   1.688  13.359 -0.0605  0.7408 -0.0165
 3250SOL    HW121209   2.481   1.659  13.388  1.3160 -2.7557  0.5830
 3250SOL    HW221210   2.582   1.643  13.276  1.7144  0.7295  0.3007
 3251SOL     OW21211   2.656   0.543   5.641 -0.6166  0.1388 -0.1478
 3251SOL    HW121212   2.751   0.533   5.641 -0.6777 -0.5496 -1.1694
 3251SOL    HW221213   2.649   0.622   5.588 -1.1571 -0.3732 -0.8400
 3252SOL     OW21214   0.852   3.564  17.363  0.5387  0.4842  0.3736
 3252SOL    HW121215   0.899   3.615  17.297  0.7752 -0.1323  0.0616
 3252SOL    HW221216   0.803   3.639  17.395 -0.7643 -1.1382  2.1737
 3253SOL     OW21217   2.104   3.924   7.568 -0.2283 -0.1789  0.0013
 3253SOL    HW121218   2.190   3.965   7.556 -0.2610  0.4626  1.9254
 3253SOL    HW221219   2.128   3.864   7.639 -0.1469 -1.0270 -0.7396
 3254SOL     OW21220   3.116   3.473   3.476 -0.2423  0.1530  0.5841
 3254SOL    HW121221   3.163   3.452   3.396 -0.5307 -2.2857  1.0425
 3254SOL    HW221222   3.025   3.463   3.450 -0.2867  0.2859  0.6921
 3255SOL     OW21223   0.695   4.593   9.500 -0.1489 -0.0084  0.4456
 3255SOL    HW121224   0.720   4.631   9.584  0.2841 -1.3737  0.9358
 3255SOL    HW221225   0.774   4.608   9.448 -0.3260 -0.2648  0.0960
 3256SOL     OW21226   0.059   0.585   9.836 -0.3214 -0.0577 -0.3154
 3256SOL    HW121227   0.096   0.658   9.787 -0.0759  0.3700  0.5077
 3256SOL    HW221228   0.122   0.512   9.827  0.2477  0.7489 -2.8078
 3257SOL     OW21229   2.015   2.146   8.342  0.4102 -0.1151  0.1577
 3257SOL    HW121230   2.039   2.159   8.250 -1.5813  2.2931 -0.0080
 3257SOL    HW221231   2.003   2.238   8.367 -0.0058  0.6581 -2.8722
 3258SOL     OW21232   0.552   3.821   6.674 -0.3689 -0.7513 -0.0318
 3258SOL    HW121233   0.494   3.896   6.658 -0.3294 -0.6018  0.5264
 3258SOL    HW221234   0.514   3.749   6.625  0.2762 -2.0399  1.3600
 3259SOL     OW21235   0.912   2.500  15.256  0.6876 -0.7441  0.3778
 3259SOL    HW121236   0.980   2.484  15.190  0.4975 -1.2682  0.3078
 3259SOL    HW221237   0.958   2.492  15.340 -1.2010  0.7664  1.5444
 3260SOL     OW21238   1.059   2.165   4.678 -0.1061  0.1304  0.1143
 3260SOL    HW121239   1.004   2.156   4.600 -1.9560  1.7915  1.2018
 3260SOL    HW221240   1.094   2.250   4.652  1.0690 -0.2758  0.3779
 3261SOL     OW21241   0.237   3.624   3.676  0.4966 -0.4307 -0.6815
 3261SOL    HW121242   0.307   3.689   3.668 -1.5263  1.6600 -1.4298
 3261SOL    HW221243   0.190   3.648   3.596  0.5779  1.5546 -0.1399
 3262SOL     OW21244   4.012   2.842  10.180 -0.7647  0.4987 -0.5232
 3262SOL    HW121245   4.025   2.776  10.248  2.9747  0.0188 -1.6611
 3262SOL    HW221246   4.090   2.898  10.189 -0.6977  0.0887  1.6033
 3263SOL     OW21247   3.817   0.258   3.100  0.2819  0.3990 -0.0962
 3263SOL    HW121248   3.893   0.280   3.045  1.0563  1.0781  1.2364
 3263SOL    HW221249   3.747   0.258   3.035 -2.1749 -1.8632  2.5924
 3264SOL     OW21250   4.001   1.468   4.093 -0.0462  0.4932 -0.3987
 3264SOL    HW121251   3.979   1.376   4.107 -1.0893  0.1263 -4.5921
 3264SOL    HW221252   3.988   1.483   3.999  2.5060 -0.5733 -0.9093
 3265SOL     OW21253   4.362   4.158  17.016 -0.5691  0.8330  0.1705
 3265SOL    HW121254   4.334   4.087  17.073 -1.7005  0.5054 -0.7833
 3265SOL    HW221255   4.282   4.185  16.971 -1.6537 -0.2061  1.4782
 3266SOL     OW21256   1.865   3.315   4.226  0.5408 -0.1533  1.1665
 3266SOL    HW121257   1.796   3.251   4.241  0.2530  0.5858  3.0455
 3266SOL    HW221258   1.917   3.316   4.306  1.4311  4.5953  0.5276
 3267SOL     OW21259   4.437   3.869   2.664  0.0508 -0.2464  0.0869
 3267SOL    HW121260   4.532   3.868   2.675  0.2567 -0.4420 -1.7147
 3267SOL    HW221261   4.411   3.928   2.736 -0.5802  0.2939 -0.5910
 3268SOL     OW21262   3.436   0.290  16.286  0.2466  0.4962  0.1353
 3268SOL    HW121263   3.351   0.335  16.292 -0.3527 -0.5746 -0.3199
 3268SOL    HW221264   3.487   0.365  16.316 -0.1497  1.1653 -0.8556
 3269SOL     OW21265   3.639   1.240   2.331 -0.5125 -0.4334 -0.2396
 3269SOL    HW121266   3.606   1.172   2.272  0.0330 -2.6054  1.9698
 3269SOL    HW221267   3.733   1.228   2.344 -0.4366 -0.0672 -0.4573
 3270SOL     OW21268   4.629   4.521  16.865  0.4585 -0.0926  0.4960
 3270SOL    HW121269   4.666   4.439  16.833 -0.0355 -0.3275  0.5183
 3270SOL    HW221270   4.697   4.563  16.918  1.3359  1.5116 -1.9048
 3271SOL     OW21271   2.867   4.707  11.952 -0.4651  0.5607  0.4146
 3271SOL    HW121272   2.868   4.660  11.869 -0.7400  1.9875 -0.4025
 3271SOL    HW221273   2.924   4.653  12.007  0.0841  1.2475  0.5276
 3272SOL     OW21274   0.108   3.043  11.395 -0.1800 -0.6906  0.3254
 3272SOL    HW121275   0.161   3.121  11.378 -1.1545 -0.0565  0.1666
 3272SOL    HW221276   0.133   2.994  11.316  0.3439  0.6344 -0.3298
 3273SOL     OW21277   1.892   3.119  17.014 -0.1639 -0.2285  0.6331
 3273SOL    HW121278   1.929   3.131  17.101  0.1217 -1.9724  0.7530
 3273SOL    HW221279   1.880   3.025  17.003  2.6801 -0.6992  1.5725
 3274SOL     OW21280   1.421   0.987   6.705 -0.1660  0.4792  0.5868
 3274SOL    HW121281   1.340   0.995   6.654 -0.0826 -0.1353  0.3559
 3274SOL    HW221282   1.409   0.897   6.737  1.1600  0.4083  0.8827
 3275SOL     OW21283   4.210   2.893   5.224 -0.7375  0.9000  0.6552
 3275SOL    HW121284   4.198   2.864   5.314 -1.6339  0.9923  0.5667
 3275SOL    HW221285   4.136   2.846   5.185  0.7981 -1.3949  0.4924
 3276SOL     OW21286   0.383   1.556   9.475 -0.0478  0.4672  0.0522
 3276SOL    HW121287   0.353   1.569   9.385 -2.8047 -0.9788  0.7647
 3276SOL    HW221288   0.469   1.598   9.466  0.8824 -0.5752  4.0492
 3277SOL     OW21289   1.116   2.626   2.924 -0.2439 -0.2723  0.1666
 3277SOL    HW121290   1.125   2.623   3.020  1.1662 -0.0622  0.0473
 3277SOL    HW221291   1.024   2.600   2.923 -0.7097  1.3256  0.9650
 3278SOL     OW21292   4.444   1.888   4.530  0.1149  0.0883  0.0243
 3278SOL    HW121293   4.532   1.864   4.559 -0.1104 -1.7175 -0.8514
 3278SOL    HW221294   4.432   1.972   4.575  0.4083 -0.2139  0.6592
 3279SOL     OW21295   1.490   4.253   7.475  0.2032 -0.1120  0.2243
 3279SOL    HW121296   1.419   4.292   7.423  2.0296  1.7889 -0.8719
 3279SOL    HW221297   1.525   4.336   7.506 -3.4902  1.6463 -0.3372
 3280SOL     OW21298   4.653   3.503   9.781  0.3446  0.2453  0.5068
 3280SOL    HW121299   4.723   3.475   9.722 -0.6686 -0.7237 -0.2416
 3280SOL    HW221300   4.669   3.444   9.854  0.0462  0.8298  1.0426
 3281SOL     OW21301   0.536   0.279   5.720 -0.5460  0.7667 -0.9447
 3281SOL    HW121302   0.453   0.243   5.751 -0.4078 -1.9749 -3.7259
 3281SOL    HW221303   0.537   0.372   5.741 -0.8369  0.4577  0.4420
 3282SOL     OW21304   3.002   2.478   2.510 -0.3652 -0.3448 -0.2957
 3282SOL    HW121305   3.081   2.527   2.532  1.2589 -1.5030 -3.4320
 3282SOL    HW221306   3.040   2.393   2.531  0.6937  1.1336  3.6747
 3283SOL     OW21307   1.327   1.152   1.552  0.0157 -0.0201  0.5996
 3283SOL    HW121308   1.315   1.088   1.622 -0.5957 -2.2325 -1.5291
 3283SOL    HW221309   1.329   1.229   1.608  0.3422  0.7332 -0.4369
 3284SOL     OW21310   1.373   3.908   0.133  0.4840 -0.3860 -0.1797
 3284SOL    HW121311   1.436   3.851   0.088 -0.0389 -0.8127 -0.3743
 3284SOL    HW221312   1.426   3.987   0.143  0.6351 -0.5048 -0.0344
 3285SOL     OW21313   3.844   3.950   2.183  0.2854 -0.3920  0.5437
 3285SOL    HW121314   3.778   4.015   2.160  0.3937 -1.6309 -3.3499
 3285SOL    HW221315   3.808   3.905   2.258  0.7371  0.9131  1.5461
 3286SOL     OW21316   2.578   0.300   3.676  0.7650 -0.0713  0.1001
 3286SOL    HW121317   2.594   0.376   3.732  0.4722 -0.2537  0.4267
 3286SOL    HW221318   2.589   0.349   3.594  0.8038  0.8122  0.6393
 3287SOL     OW21319   3.088   1.804   4.767 -0.0261 -1.1921  0.1664
 3287SOL    HW121320   3.149   1.792   4.694 -0.6118 -2.4903 -0.0958
 3287SOL    HW221321   3.008   1.764   4.734  0.9238 -1.7938 -1.4219
 3288SOL     OW21322   3.780   1.860  16.152  0.7741  0.0050 -0.4542
 3288SOL    HW121323   3.718   1.888  16.085 -1.5812 -2.5327  0.6826
 3288SOL    HW221324   3.844   1.931  16.143 -0.6420  1.4125  0.5001
 3289SOL     OW21325   4.213   3.174   5.259  0.2053  0.1448 -0.1779
 3289SOL    HW121326   4.124   3.159   5.288  0.6986  0.8608  1.6719
 3289SOL    HW221327   4.249   3.086   5.265 -0.3921  0.1013  2.3918
 3290SOL     OW21328   2.489   3.204   5.120  0.2313  0.5151 -0.6545
 3290SOL    HW121329   2.572   3.190   5.166  0.1865  0.3491 -0.6233
 3290SOL    HW221330   2.496   3.134   5.055  0.0310 -0.7763  0.7045
 3291SOL     OW21331   1.155   0.217   8.748  0.1351  0.3174 -0.7874
 3291SOL    HW121332   1.206   0.138   8.765 -0.0266 -0.0217 -1.8847
 3291SOL    HW221333   1.136   0.203   8.655  0.2057 -0.2482 -0.7145
 3292SOL     OW21334   2.933   3.079  15.061 -0.0061 -0.3829 -0.7442
 3292SOL    HW121335   2.960   3.020  14.991 -0.4570 -1.4899  0.0356
 3292SOL    HW221336   2.991   3.153  15.042  0.2891 -0.3264  0.3939
 3293SOL     OW21337   3.028   4.005   2.322  0.1831 -0.0894  0.2010
 3293SOL    HW121338   3.033   4.098   2.342  2.1128  0.0920 -1.0662
 3293SOL    HW221339   3.061   3.958   2.399 -0.6380  2.3487  2.0063
 3294SOL     OW21340   2.982   3.549  14.155 -0.2039  0.5386 -0.4575
 3294SOL    HW121341   3.011   3.591  14.236  0.7169 -1.3487  0.1901
 3294SOL    HW221342   3.011   3.458  14.161 -1.7167  0.0545 -0.3504
 3295SOL     OW21343   1.410   0.337   3.537 -0.0161  0.5079 -0.6803
 3295SOL    HW121344   1.422   0.432   3.548  0.3721  0.2979  0.6799
 3295SOL    HW221345   1.382   0.337   3.445 -0.7013  0.9208 -0.4761
 3296SOL     OW21346   2.901   2.014  13.866 -0.2531  0.5801  0.1486
 3296SOL    HW121347   2.945   1.942  13.820  2.5133  1.1831  1.8336
 3296SOL    HW221348   2.810   1.996  13.841 -1.1266  0.5236  3.3267
 3297SOL     OW21349   0.873   0.718   8.672  0.4126  0.2487  0.2735
 3297SOL    HW121350   0.934   0.648   8.695 -1.4751 -1.6517 -0.4656
 3297SOL    HW221351   0.897   0.785   8.735  0.8499 -0.1230  0.4969
 3298SOL     OW21352   3.172   1.777   6.899  0.0236 -0.2183 -0.8190
 3298SOL    HW121353   3.247   1.831   6.926  0.9722 -1.5750 -0.7322
 3298SOL    HW221354   3.140   1.754   6.986  3.2513 -2.7201 -0.2684
 3299SOL     OW21355   3.253   0.143   3.068 -0.4758  0.1202  0.1228
 3299SOL    HW121356   3.198   0.209   3.027  3.5934  2.3574 -1.7418
 3299SOL    HW221357   3.281   0.197   3.142 -0.5288 -0.5990  0.6683
 3300SOL     OW21358   0.061   1.584   4.261  0.4376  0.0487 -0.1821
 3300SOL    HW121359   0.012   1.665   4.276 -3.0177 -1.6458 -2.3779
 3300SOL    HW221360   0.026   1.556   4.176 -1.1247  1.1425  0.1084
 3301SOL     OW21361   0.047   0.990   2.296 -0.3126 -0.4930  0.4743
 3301SOL    HW121362   4.719   0.936   2.355 -1.5222  1.0924  0.8324
 3301SOL    HW221363   4.711   1.044   2.247 -0.4136 -1.7030 -0.7338
 3302SOL     OW21364   3.997   0.444  11.534 -0.3160  0.2304  0.7143
 3302SOL    HW121365   4.001   0.508  11.462 -1.2373  0.2615  0.6895
 3302SOL    HW221366   4.068   0.383  11.517 -0.6560 -1.0402  3.9889
 3303SOL     OW21367   3.455   1.733   6.843 -0.4888 -0.1181 -0.2266
 3303SOL    HW121368   3.532   1.744   6.786 -0.7853  0.7356 -0.4599
 3303SOL    HW221369   3.437   1.819   6.879  0.6032  1.1930 -2.7873
 3304SOL     OW21370   4.017   2.433   9.400 -0.4589 -0.6262 -0.3556
 3304SOL    HW121371   3.999   2.489   9.325 -1.8738 -1.6313 -0.7681
 3304SOL    HW221372   4.082   2.490   9.441  1.9350 -3.1216 -0.7087
 3305SOL     OW21373   1.653   1.876   5.597  0.4083  0.8301 -0.3564
 3305SOL    HW121374   1.723   1.940   5.586  0.9441  0.0080 -1.7531
 3305SOL    HW221375   1.661   1.852   5.689  2.7819  2.8471 -0.0439
 3306SOL     OW21376   3.849   3.387   5.389  0.6256  0.3810 -0.2681
 3306SOL    HW121377   3.937   3.422   5.406  0.9995 -1.3677  1.2968
 3306SOL    HW221378   3.871   3.296   5.372 -0.4026  0.0612  0.1594
 3307SOL     OW21379   2.685   2.166   4.975  0.6792 -0.2263 -0.1397
 3307SOL    HW121380   2.672   2.137   4.884 -4.0280  0.2914  0.3489
 3307SOL    HW221381   2.705   2.257   4.954  1.4339 -0.5856 -0.9591
 3308SOL     OW21382   3.047   4.480  11.820 -0.5089  0.4782 -0.3687
 3308SOL    HW121383   3.086   4.547  11.874 -2.0295  0.9263  0.1873
 3308SOL    HW221384   3.003   4.537  11.758 -3.0268 -2.2729 -1.1453
 3309SOL     OW21385   2.184   1.663   6.630  0.6122 -0.1508  0.6475
 3309SOL    HW121386   2.237   1.603   6.577 -0.6423 -0.5513 -0.1605
 3309SOL    HW221387   2.218   1.746   6.597  0.6136 -0.8459 -1.0634
 3310SOL     OW21388   2.603   3.713   7.414 -0.0394  0.0726 -0.1312
 3310SOL    HW121389   2.524   3.661   7.398 -0.4319  0.5394  0.3042
 3310SOL    HW221390   2.595   3.788   7.356 -1.0284 -0.6976 -0.9942
 3311SOL     OW21391   3.320   2.828   9.063  0.0210 -0.0177 -0.1241
 3311SOL    HW121392   3.308   2.916   9.098  0.8172 -0.0905  0.3338
 3311SOL    HW221393   3.383   2.846   8.992 -0.7217 -1.8972 -1.2447
 3312SOL     OW21394   0.491   3.608  11.800  0.3138 -0.1437  0.0017
 3312SOL    HW121395   0.515   3.594  11.891 -1.0607 -0.2839  0.3348
 3312SOL    HW221396   0.572   3.598  11.750  0.5863  1.4101  0.1158
 3313SOL     OW21397   0.655   1.296   8.166 -0.2755 -0.3619 -0.0084
 3313SOL    HW121398   0.699   1.222   8.207  1.0828  1.0795  1.1207
 3313SOL    HW221399   0.706   1.323   8.089 -1.3226 -0.5931 -0.7815
 3314SOL     OW21400   4.365   3.450   0.735  0.3324 -0.2230  0.1248
 3314SOL    HW121401   4.329   3.477   0.820  2.2132  0.1270  0.8112
 3314SOL    HW221402   4.371   3.357   0.754 -1.3189 -0.7060 -1.6949
 3315SOL     OW21403   4.369   2.913  13.050 -0.5813 -0.3400 -0.5061
 3315SOL    HW121404   4.324   2.996  13.037 -1.3570 -0.6773  0.0007
 3315SOL    HW221405   4.309   2.841  13.031 -0.9492 -0.4880  1.1998
 3316SOL     OW21406   0.406   2.719  13.593  0.1697  0.3448  0.2993
 3316SOL    HW121407   0.467   2.665  13.643  0.1134  0.7644  0.8234
 3316SOL    HW221408   0.384   2.789  13.655  1.4791  0.7902  0.2591
 3317SOL     OW21409   1.362   0.599   2.947 -0.1782  0.0049 -0.1779
 3317SOL    HW121410   1.330   0.561   3.029 -0.8945 -1.7107 -1.2718
 3317SOL    HW221411   1.289   0.580   2.889 -1.0191 -1.2516  1.2872
 3318SOL     OW21412   2.420   4.366   6.015 -0.0197 -0.0166  0.0343
 3318SOL    HW121413   2.366   4.311   5.958  0.8256  0.8686 -1.6219
 3318SOL    HW221414   2.486   4.299   6.028  0.7589  0.9605  1.0467
 3319SOL     OW21415   1.144   3.327   7.429 -0.0170  0.1911 -0.7126
 3319SOL    HW121416   1.121   3.247   7.383  1.2657  0.2718 -1.5060
 3319SOL    HW221417   1.179   3.373   7.353  0.6320 -0.9661 -1.1151
 3320SOL     OW21418   2.808   2.657  11.382 -0.1718 -0.4239 -0.0200
 3320SOL    HW121419   2.878   2.592  11.374  1.3495  1.1578  0.3934
 3320SOL    HW221420   2.865   2.734  11.387  0.4527 -0.7475 -2.2546
 3321SOL     OW21421   2.973   1.745  15.896 -1.0548 -0.3892  0.5519
 3321SOL    HW121422   3.029   1.725  15.970 -0.4664  0.8752  0.4451
 3321SOL    HW221423   2.888   1.728  15.937 -2.2072 -0.6664 -1.8969
 3322SOL     OW21424   1.054   2.123   3.405  0.0884  0.1242 -0.3481
 3322SOL    HW121425   1.088   2.210   3.425  0.1332  0.3399 -1.3440
 3322SOL    HW221426   1.074   2.104   3.313 -1.3081 -1.9760 -0.2065
 3323SOL     OW21427   3.660   2.296   4.819 -0.4219  0.0389  0.4022
 3323SOL    HW121428   3.708   2.351   4.757 -0.9346  0.1685  0.1134
 3323SOL    HW221429   3.734   2.267   4.872  0.1070 -1.4782 -1.1505
 3324SOL     OW21430   3.556   1.999  12.805  0.4383 -0.1423 -0.1641
 3324SOL    HW121431   3.537   2.075  12.750 -1.5352 -0.5400 -0.0676
 3324SOL    HW221432   3.504   2.018  12.883  1.3903  0.7681  0.2469
 3325SOL     OW21433   3.222   2.699   2.852  0.1034 -0.0059  0.4975
 3325SOL    HW121434   3.296   2.747   2.889  0.5471 -0.1684 -0.1947
 3325SOL    HW221435   3.226   2.634   2.923 -2.6666 -0.2289  0.4668
 3326SOL     OW21436   0.164   1.557  17.665 -0.4703  0.3689  0.5879
 3326SOL    HW121437   0.096   1.592  17.609 -0.4696 -2.3245 -1.1126
 3326SOL    HW221438   0.179   1.634   0.017 -0.6057 -0.7265  2.1835
 3327SOL     OW21439   2.807   0.398   1.462  0.8760 -0.4295  0.5735
 3327SOL    HW121440   2.779   0.489   1.457  0.9287 -0.4070  0.6920
 3327SOL    HW221441   2.805   0.386   1.557  0.5941 -1.0771  0.4831
 3328SOL     OW21442   0.979   3.266  14.204 -0.0323 -0.3272  0.4007
 3328SOL    HW121443   0.949   3.184  14.243 -2.1394 -0.4174 -1.3673
 3328SOL    HW221444   0.909   3.329  14.221 -0.6690 -0.3320 -2.1172
 3329SOL     OW21445   2.307   2.699  17.685  0.2228 -0.6680  0.5398
 3329SOL    HW121446   2.230   2.687   0.037 -0.5837 -0.6217 -0.5902
 3329SOL    HW221447   2.372   2.668   0.045  0.9893 -1.9572 -0.8873
 3330SOL     OW21448   1.097   4.291   3.797 -0.8622  0.3346  0.3439
 3330SOL    HW121449   1.149   4.363   3.834  1.3866 -0.6526 -0.9168
 3330SOL    HW221450   1.158   4.257   3.732 -0.5990 -0.2199  0.8826
 3331SOL     OW21451   3.951   4.716   0.445  0.3706 -0.1678 -0.6026
 3331SOL    HW121452   4.012   4.644   0.426  0.3950 -0.7798  1.7956
 3331SOL    HW221453   3.897   4.720   0.366  0.3575  0.0793 -0.5811
 3332SOL     OW21454   2.894   4.271   1.433 -0.0792 -0.1305 -0.4925
 3332SOL    HW121455   2.900   4.240   1.343 -1.1518  3.0777 -1.6291
 3332SOL    HW221456   2.942   4.200   1.478  1.6671  0.4017 -1.5051
 3333SOL     OW21457   3.179   3.602   5.600  0.0628  0.5216  0.4443
 3333SOL    HW121458   3.113   3.562   5.656  0.5938 -1.3960 -0.3096
 3333SOL    HW221459   3.134   3.591   5.516 -2.6219  0.2209  1.9310
 3334SOL     OW21460   3.201   4.342   4.857  0.1860 -0.4988  0.3118
 3334SOL    HW121461   3.162   4.258   4.833 -0.7744  0.6582 -2.1961
 3334SOL    HW221462   3.282   4.340   4.804 -0.5463  0.4411 -0.8381
 3335SOL     OW21463   0.040   2.901   2.166 -0.1637  0.1420 -0.3663
 3335SOL    HW121464   0.118   2.890   2.220 -1.5140  0.9863  1.7550
 3335SOL    HW221465   0.064   2.967   2.101 -0.6229 -2.1810 -2.8762
 3336SOL     OW21466   2.287   3.253   2.615 -0.1574 -0.1679  0.1836
 3336SOL    HW121467   2.363   3.266   2.558 -0.5919  0.4934 -0.2450
 3336SOL    HW221468   2.283   3.158   2.623  1.3982 -0.2872 -0.6010
 3337SOL     OW21469   4.696   0.634   0.983 -0.5967  0.0146 -0.0596
 3337SOL    HW121470   0.048   0.657   1.035 -0.0720 -1.5521 -0.1381
 3337SOL    HW221471   4.626   0.675   1.035 -1.3001 -1.2991  0.0180
 3338SOL     OW21472   1.577   3.972  11.756 -0.1462 -0.1162  0.0489
 3338SOL    HW121473   1.516   4.046  11.751  1.1118  0.7643 -2.0567
 3338SOL    HW221474   1.526   3.921  11.693 -1.8313 -1.3252  2.3438
 3339SOL     OW21475   2.275   2.210   4.837 -0.1072 -0.3851 -0.1279
 3339SOL    HW121476   2.294   2.187   4.746 -0.2431 -1.4546  0.1180
 3339SOL    HW221477   2.248   2.125   4.869 -0.3009 -0.6770 -1.0471
 3340SOL     OW21478   0.128   4.656   3.986 -0.3511 -0.0289  0.3305
 3340SOL    HW121479   0.146   4.636   3.894 -0.3593  1.2828  0.0508
 3340SOL    HW221480   0.034   4.674   3.986 -0.6816 -1.6620  1.3114
 3341SOL     OW21481   0.170   2.905   5.772  0.1079 -0.4246  0.4341
 3341SOL    HW121482   0.247   2.960   5.788 -0.3879  0.0169  1.2925
 3341SOL    HW221483   0.103   2.965   5.804  0.7038  0.9897 -0.9411
 3342SOL     OW21484   4.039   3.556   0.090  0.0438 -0.0749 -0.2414
 3342SOL    HW121485   4.000   3.470   0.105 -0.2010  0.0411 -0.2045
 3342SOL    HW221486   4.115   3.533   0.037 -0.3492 -0.0397 -0.8212
 3343SOL     OW21487   0.430   0.774  17.578 -0.3488 -0.1773  0.4295
 3343SOL    HW121488   0.383   0.828  17.642 -0.1274 -0.1306  0.5540
 3343SOL    HW221489   0.515   0.816  17.569  0.1951 -1.6394 -1.1079
 3344SOL     OW21490   2.589   0.423  11.854  0.7790  0.0638  0.1990
 3344SOL    HW121491   2.613   0.450  11.943  0.6978 -2.7528  1.0691
 3344SOL    HW221492   2.519   0.360  11.872  0.0935  0.8021  0.1462
 3345SOL     OW21493   2.200   3.636   4.087  0.2676 -0.3870 -0.0232
 3345SOL    HW121494   2.180   3.592   4.004 -0.0871 -0.0697 -0.1069
 3345SOL    HW221495   2.122   3.606   4.133  0.3855 -1.7846 -0.7355
 3346SOL     OW21496   3.354   4.401  16.969  0.2342 -0.1484 -0.3787
 3346SOL    HW121497   3.434   4.395  16.917  0.3108  0.1430 -0.2930
 3346SOL    HW221498   3.379   4.449  17.048 -0.5315  0.0048 -0.2311
 3347SOL     OW21499   1.543   4.637   4.376  0.0888 -0.3354 -0.2449
 3347SOL    HW121500   1.629   4.605   4.346 -0.9417 -1.1526 -2.3394
 3347SOL    HW221501   1.570   0.001   4.397  2.8279 -1.8087  2.4649
 3348SOL     OW21502   4.529   4.619  14.014  0.4561 -0.0702 -0.2792
 3348SOL    HW121503   4.506   4.553  14.080  0.4449 -0.1571 -0.3688
 3348SOL    HW221504   4.621   4.606  13.993  0.9893  1.6651  1.0359
 3349SOL     OW21505   2.075   3.834   4.728 -0.2456 -0.1477 -0.2237
 3349SOL    HW121506   2.088   3.778   4.652 -1.4151 -0.4241 -0.2162
 3349SOL    HW221507   2.105   3.916   4.687  0.2929  0.2786  1.0232
 3350SOL     OW21508   2.907   2.538   6.434  0.2541  0.1290 -0.2752
 3350SOL    HW121509   2.852   2.489   6.372  3.0369 -2.2152 -0.8617
 3350SOL    HW221510   2.834   2.576   6.483 -1.1041 -0.1346 -2.0758
 3351SOL     OW21511   3.427   4.313   7.272 -0.1474  0.0442 -0.1751
 3351SOL    HW121512   3.417   4.278   7.361  1.8981  1.5195  0.6565
 3351SOL    HW221513   3.473   4.395   7.291 -1.2176  0.8507 -1.1612
 3352SOL     OW21514   3.635   3.878   5.934 -0.7986  0.5380 -0.4517
 3352SOL    HW121515   3.693   3.907   5.864  1.7953 -0.1648  1.4123
 3352SOL    HW221516   3.689   3.854   6.009 -1.5372 -0.4500 -0.2304
 3353SOL     OW21517   1.309   3.182   4.187  0.2461 -0.0963  0.1540
 3353SOL    HW121518   1.365   3.250   4.150  1.1108 -2.2101 -2.3999
 3353SOL    HW221519   1.236   3.244   4.185  0.1512 -0.1721  1.2681
 3354SOL     OW21520   4.620   1.443   5.054 -0.4604  0.1681  0.1238
 3354SOL    HW121521   4.626   1.504   5.128 -2.7619  1.0142 -0.4169
 3354SOL    HW221522   4.538   1.474   5.017 -0.4928 -0.7056 -0.5077
 3355SOL     OW21523   3.870   1.061  15.953 -0.1770 -0.0797 -0.2631
 3355SOL    HW121524   3.918   1.122  15.897 -2.2271  0.1404 -1.7843
 3355SOL    HW221525   3.934   1.055  16.025 -1.0615  2.4709  0.7587
 3356SOL     OW21526   4.342   4.652   8.913 -0.1042 -0.3527 -0.0816
 3356SOL    HW121527   4.323   4.561   8.938 -1.3580 -0.3800 -1.1234
 3356SOL    HW221528   4.372   4.690   8.995 -2.8722 -0.5160  0.9842
 3357SOL     OW21529   0.038   3.948   4.170 -0.2505 -0.3835  0.0278
 3357SOL    HW121530   4.706   3.979   4.239 -2.1710  3.4337 -3.3104
 3357SOL    HW221531   0.102   4.018   4.179  0.7156 -1.4740  1.8768
 3358SOL     OW21532   1.369   3.918   4.268  0.0901 -0.7655  0.2949
 3358SOL    HW121533   1.276   3.934   4.280  0.3326  1.1277 -0.4786
 3358SOL    HW221534   1.403   3.940   4.355  1.0635 -0.8491 -0.0584
 3359SOL     OW21535   3.671   3.132   9.262 -0.1609 -0.0918 -0.2292
 3359SOL    HW121536   3.697   3.054   9.213  3.7556  0.2811  1.2668
 3359SOL    HW221537   3.724   3.199   9.220  0.1771 -0.6518 -0.6908
 3360SOL     OW21538   0.220   0.361   9.313  0.3907  0.0666 -0.1261
 3360SOL    HW121539   0.209   0.404   9.398 -4.3555 -2.0958  0.3616
 3360SOL    HW221540   0.259   0.277   9.336  0.9063  0.6406  1.0674
 3361SOL     OW21541   2.691   2.252  14.430  0.1635 -0.1874 -0.1173
 3361SOL    HW121542   2.673   2.315  14.501  2.6377  0.3635  0.0279
 3361SOL    HW221543   2.749   2.189  14.472 -0.2290 -0.7398 -0.4102
 3362SOL     OW21544   2.027   1.765   4.724 -0.6835 -0.1384 -0.1964
 3362SOL    HW121545   2.065   1.695   4.672  0.9337  0.6502 -0.0779
 3362SOL    HW221546   2.097   1.830   4.723 -1.5484  0.7897 -0.7536
 3363SOL     OW21547   1.459   2.939   2.108  0.5776  0.7804 -0.1080
 3363SOL    HW121548   1.389   2.932   2.044  1.5204 -0.1849 -1.0434
 3363SOL    HW221549   1.443   2.867   2.169  1.5547  0.4788 -0.1948
 3364SOL     OW21550   2.075   2.490   5.666 -0.0114  0.2712 -0.2808
 3364SOL    HW121551   2.049   2.493   5.758  1.1317  0.5671  0.0448
 3364SOL    HW221552   2.006   2.547   5.634  1.4246  2.8065  1.0651
 3365SOL     OW21553   2.120   3.203   8.624 -0.3243  0.4060 -0.8110
 3365SOL    HW121554   2.027   3.191   8.647 -0.6915  2.8884 -0.9515
 3365SOL    HW221555   2.144   3.287   8.664 -0.3342 -0.4521  1.0293
 3366SOL     OW21556   3.399   1.282  12.304 -0.6080  0.0769  0.2715
 3366SOL    HW121557   3.342   1.210  12.276  0.6625  0.3122 -2.9573
 3366SOL    HW221558   3.484   1.241  12.286  1.2684  4.0037  0.1861
 3367SOL     OW21559   3.931   1.224   6.088  0.0820  0.1589 -0.1339
 3367SOL    HW121560   3.870   1.164   6.046 -2.0084  0.8590  1.8780
 3367SOL    HW221561   3.976   1.175   6.157  0.0346 -0.7091 -0.7234
 3368SOL     OW21562   2.524   3.646   5.796  0.5884 -0.3198  0.1348
 3368SOL    HW121563   2.434   3.669   5.772  0.7526  0.5302  0.3253
 3368SOL    HW221564   2.568   3.699   5.730 -0.7368 -0.8518 -1.1747
 3369SOL     OW21565   0.408   0.479   2.983 -0.3605  0.1870  0.5668
 3369SOL    HW121566   0.357   0.422   2.926 -1.7045  0.4261  1.5407
 3369SOL    HW221567   0.341   0.514   3.041 -0.2899  0.8434  0.2491
 3370SOL     OW21568   1.899   1.371  15.472  0.1756 -0.4899  0.3452
 3370SOL    HW121569   1.952   1.320  15.411 -1.0045  0.8977 -1.8135
 3370SOL    HW221570   1.968   1.436  15.488 -2.8883  2.6794  0.5766
 3371SOL     OW21571   3.469   3.173   7.314  0.3194  0.0129 -0.0750
 3371SOL    HW121572   3.401   3.240   7.312  2.1867  1.9429  1.6733
 3371SOL    HW221573   3.414   3.100   7.344  1.5303 -1.7123 -2.0708
 3372SOL     OW21574   4.044   2.457   8.258 -0.8861 -0.0125 -0.4689
 3372SOL    HW121575   3.994   2.488   8.333  0.9627  1.6530  0.0645
 3372SOL    HW221576   4.018   2.366   8.244  2.0947 -0.5986 -2.1884
 3373SOL     OW21577   4.691   2.797   6.767 -0.0686  0.1018  0.3794
 3373SOL    HW121578   0.058   2.789   6.791 -0.2795  0.7164  1.3969
 3373SOL    HW221579   4.680   2.729   6.700  1.0014 -1.7090  2.0407
 3374SOL     OW21580   0.648   2.679   5.662  0.3595 -0.1121  0.0285
 3374SOL    HW121581   0.561   2.689   5.701 -0.2033  0.5457 -1.3978
 3374SOL    HW221582   0.674   2.600   5.709  0.1251  2.0974  3.7994
 3375SOL     OW21583   3.802   0.875  12.381 -0.1597 -0.2676  0.3294
 3375SOL    HW121584   3.722   0.863  12.432 -0.1402  0.4865  0.5396
 3375SOL    HW221585   3.870   0.879  12.448  0.5584 -1.6256 -0.3091
 3376SOL     OW21586   3.768   1.485  10.472 -0.2375  0.4751  0.4268
 3376SOL    HW121587   3.707   1.412  10.464 -1.9452  1.8912  0.4549
 3376SOL    HW221588   3.732   1.533  10.547 -1.1961 -0.2043  0.3932
 3377SOL     OW21589   2.705   2.510  14.527  0.3094 -0.0987 -0.4098
 3377SOL    HW121590   2.711   2.591  14.577  0.9180  0.1097 -0.8170
 3377SOL    HW221591   2.620   2.521  14.485 -0.3455 -0.5696  0.7794
 3378SOL     OW21592   1.814   2.197   3.279 -0.0101  0.2444  0.6900
 3378SOL    HW121593   1.907   2.220   3.284  0.0474  0.1116  0.1603
 3378SOL    HW221594   1.815   2.156   3.193  0.4361  2.1063 -0.1931
 3379SOL     OW21595   1.241   3.061   2.921 -0.2360  0.4008  0.3060
 3379SOL    HW121596   1.206   3.078   2.834 -0.7761  1.8944  0.8163
 3379SOL    HW221597   1.185   2.989   2.948 -1.6632  2.0333  1.6849
 3380SOL     OW21598   3.544   0.309  14.334  0.7345 -0.0949 -0.4680
 3380SOL    HW121599   3.626   0.290  14.288  1.1043 -0.2514  0.2501
 3380SOL    HW221600   3.574   0.372  14.399  0.4017 -0.3059 -0.1102
 3381SOL     OW21601   1.175   3.347   5.565  0.2422 -0.0395 -0.1080
 3381SOL    HW121602   1.134   3.264   5.538  1.6268 -0.7836  0.1171
 3381SOL    HW221603   1.114   3.386   5.628 -0.8562 -1.0677 -0.5165
 3382SOL     OW21604   4.334   1.589  17.288  0.3692 -0.0098 -0.1316
 3382SOL    HW121605   4.310   1.501  17.260 -1.1405 -0.2737  1.9131
 3382SOL    HW221606   4.401   1.562  17.351 -2.8410 -3.8818  1.6616
 3383SOL     OW21607   3.980   0.059   7.637 -0.5964  0.0163  0.3776
 3383SOL    HW121608   3.907   0.077   7.578 -1.0925  1.9248  1.6114
 3383SOL    HW221609   4.012   0.149   7.639  0.1374 -0.2736  1.7361
 3384SOL     OW21610   0.407   3.640   8.598 -0.0468  0.3134  0.2719
 3384SOL    HW121611   0.387   3.558   8.644  2.3676 -0.7982 -0.6923
 3384SOL    HW221612   0.430   3.697   8.671  0.3562  1.2186 -0.5675
 3385SOL     OW21613   1.411   3.394  13.791 -0.0593 -0.1383  0.2009
 3385SOL    HW121614   1.371   3.357  13.870 -2.2718  0.1866 -0.7752
 3385SOL    HW221615   1.495   3.349  13.789 -1.0685 -2.1269  2.2455
 3386SOL     OW21616   3.102   2.869   4.522  0.0901  0.6596 -0.3043
 3386SOL    HW121617   3.161   2.896   4.452  0.4292  0.4331 -0.1061
 3386SOL    HW221618   3.090   2.951   4.570 -0.4363  0.7712 -0.6285
 3387SOL     OW21619   4.209   3.887   4.535 -0.6321 -0.0715 -0.1315
 3387SOL    HW121620   4.227   3.981   4.535 -1.3182  0.0520  1.8757
 3387SOL    HW221621   4.286   3.859   4.586 -1.1823 -0.8020  0.2862
 3388SOL     OW21622   3.693   0.293   7.342 -0.0761  0.4978  0.5203
 3388SOL    HW121623   3.705   0.240   7.421  1.9513  0.3961  0.1362
 3388SOL    HW221624   3.782   0.318   7.315 -1.2086  3.2143 -0.7493
 3389SOL     OW21625   4.580   2.571   5.255  0.2280 -0.4675 -0.3233
 3389SOL    HW121626   4.548   2.637   5.316 -0.8028 -1.4442  0.1925
 3389SOL    HW221627   4.498   2.570   5.205  0.3325 -0.3531 -0.4960
 3390SOL     OW21628   0.300   2.068   8.326  0.3204 -0.1788 -0.3986
 3390SOL    HW121629   0.339   1.981   8.338 -1.0451 -0.8963 -1.2657
 3390SOL    HW221630   0.292   2.094   8.418  1.4982 -0.5583 -0.1820
 3391SOL     OW21631   2.459   2.981   3.309 -0.3003  0.7586 -0.1698
 3391SOL    HW121632   2.485   2.889   3.311  0.1040  0.8532 -1.4756
 3391SOL    HW221633   2.379   2.982   3.362 -1.2219  0.3023 -1.5577
 3392SOL     OW21634   0.260   4.509   9.089 -0.7854  0.4992 -0.1155
 3392SOL    HW121635   0.258   4.586   9.032 -1.1875 -0.6374 -1.6612
 3392SOL    HW221636   0.198   4.450   9.046 -0.9957 -0.0264  0.9265
 3393SOL     OW21637   1.322   1.031  13.423  0.2404  0.4026 -0.1725
 3393SOL    HW121638   1.282   1.116  13.446 -2.6849 -1.4454  1.6183
 3393SOL    HW221639   1.404   1.034  13.473  2.5038 -0.9928 -3.8480
 3394SOL     OW21640   0.826   1.715   4.936  0.5820  0.2110 -0.1947
 3394SOL    HW121641   0.824   1.773   4.860 -0.1443  2.6476  1.6991
 3394SOL    HW221642   0.919   1.694   4.950  0.4804  0.9307  1.5360
 3395SOL     OW21643   0.283   4.588   7.140  0.0934  0.5129  0.4711
 3395SOL    HW121644   0.253   4.513   7.191 -1.6963  1.8282  1.3591
 3395SOL    HW221645   0.375   4.599   7.164 -0.7786  0.0781  3.9459
 3396SOL     OW21646   1.351   4.127   5.877 -0.4677  0.3719 -0.3234
 3396SOL    HW121647   1.397   4.184   5.938  0.4933  0.0033 -0.6989
 3396SOL    HW221648   1.396   4.150   5.796  1.8410  1.5589  1.3061
 3397SOL     OW21649   0.007   4.464  16.097  0.1563 -0.7049  0.0815
 3397SOL    HW121650   0.099   4.473  16.123 -0.9068  1.0876  3.2208
 3397SOL    HW221651   0.015   4.392  16.035 -1.3057  0.0863 -1.0188
 3398SOL     OW21652   0.543   0.159   6.400 -0.0838  0.2514  0.5563
 3398SOL    HW121653   0.495   0.185   6.321 -0.0417 -1.4700 -0.0247
 3398SOL    HW221654   0.578   0.237   6.443  0.1787  0.5601 -0.2089
 3399SOL     OW21655   0.855   1.845   3.118 -0.5179 -0.6178 -0.5318
 3399SOL    HW121656   0.814   1.918   3.071  0.1254 -0.1090 -0.2999
 3399SOL    HW221657   0.768   1.821   3.152 -1.0411  1.1963 -0.5726
 3400SOL     OW21658   2.293   0.413   3.609 -0.0897 -0.0714  0.5336
 3400SOL    HW121659   2.224   0.467   3.571  0.8784  0.7750 -0.0002
 3400SOL    HW221660   2.320   0.368   3.529 -0.8628  0.1195  0.1640
 3401SOL     OW21661   0.919   3.284   1.054 -0.1773 -0.0148 -0.4830
 3401SOL    HW121662   0.978   3.350   1.090  1.4768 -0.9665 -1.4440
 3401SOL    HW221663   0.914   3.305   0.960 -0.1113  1.2367 -0.2028
 3402SOL     OW21664   1.007   4.329   6.219  0.1099 -0.2974 -0.1567
 3402SOL    HW121665   1.003   4.261   6.151  0.9526 -0.3704 -0.1221
 3402SOL    HW221666   0.980   4.407   6.170  1.8596  1.5972  1.9434
 3403SOL     OW21667   4.145   1.169   1.302  0.0687 -0.3709 -0.1751
 3403SOL    HW121668   4.177   1.117   1.228  0.3148  0.0605 -0.3677
 3403SOL    HW221669   4.194   1.250   1.290  0.5242 -0.9857 -2.4394
 3404SOL     OW21670   4.161   2.036   4.810  0.8016  0.3397  0.4301
 3404SOL    HW121671   4.160   2.010   4.903  2.4718 -2.1430 -0.2603
 3404SOL    HW221672   4.248   2.067   4.786  0.5984  1.0931  0.6449
 3405SOL     OW21673   0.300   4.066  13.658  0.1684  0.6732  0.2712
 3405SOL    HW121674   0.325   4.105  13.574  0.1393  1.0992  0.4626
 3405SOL    HW221675   0.362   3.993  13.651  0.3009  0.8307 -0.2613
 3406SOL     OW21676   3.876   1.382   5.716 -0.0887 -0.2581  0.4297
 3406SOL    HW121677   3.954   1.401   5.665  0.6258 -0.1208  1.5707
 3406SOL    HW221678   3.818   1.452   5.686  2.6132  2.4545  1.5898
 3407SOL     OW21679   4.087   1.701   0.239 -0.0275 -0.0703  0.0704
 3407SOL    HW121680   4.087   1.638   0.311 -2.8470  0.6016  0.6391
 3407SOL    HW221681   4.182   1.711   0.237 -0.2057  1.5840  0.1426
 3408SOL     OW21682   4.390   2.050   2.875 -0.4168  0.3970 -0.6675
 3408SOL    HW121683   4.407   2.069   2.782  0.7889 -0.0267 -0.5334
 3408SOL    HW221684   4.460   1.997   2.912  0.4881  0.9689 -1.5609
 3409SOL     OW21685   0.538   2.046   6.646  0.6079 -0.1782 -0.3168
 3409SOL    HW121686   0.562   2.023   6.556 -1.1855 -2.0461 -0.3103
 3409SOL    HW221687   0.516   1.963   6.688 -0.8927 -0.0486 -0.8507
 3410SOL     OW21688   4.044   4.243   3.440 -0.4074 -0.1220  0.3995
 3410SOL    HW121689   4.048   4.176   3.509  2.9235  0.7793  1.0829
 3410SOL    HW221690   4.137   4.264   3.445 -0.1283 -0.8667 -1.9457
 3411SOL     OW21691   1.838   0.422   3.470  0.1485 -0.1288  0.0181
 3411SOL    HW121692   1.915   0.470   3.503 -1.1168  0.6698  1.8353
 3411SOL    HW221693   1.778   0.494   3.449 -0.2054 -0.6833 -0.8554
 3412SOL     OW21694   0.950   3.283   4.858  0.1998  0.0549 -0.1836
 3412SOL    HW121695   0.889   3.212   4.878 -0.6526  0.2538 -2.0510
 3412SOL    HW221696   1.029   3.235   4.833  0.8160  0.3889  1.1070
 3413SOL     OW21697   1.857   3.706   8.247 -0.0431  0.0435  0.1459
 3413SOL    HW121698   1.791   3.719   8.178 -0.1981  1.8810  0.6496
 3413SOL    HW221699   1.789   3.690   8.313  0.2215  2.0928  0.8937
 3414SOL     OW21700   4.305   2.553   8.560  0.1443  0.0178  0.4549
 3414SOL    HW121701   4.285   2.553   8.654 -1.2770  2.9842  0.1511
 3414SOL    HW221702   4.371   2.485   8.544  0.3519  0.3777 -0.2238
 3415SOL     OW21703   1.375   3.949  12.209  0.3676  0.1851 -0.2927
 3415SOL    HW121704   1.344   3.938  12.298 -2.2639 -0.4061 -1.2905
 3415SOL    HW221705   1.299   3.997  12.175  1.3961  1.6878 -0.4775
 3416SOL     OW21706   2.164   1.986   0.561 -0.2731  0.5686  1.0280
 3416SOL    HW121707   2.144   2.014   0.471 -0.8256 -1.2749  0.5740
 3416SOL    HW221708   2.222   2.059   0.583  1.6356 -1.1092  1.5940
 3417SOL     OW21709   3.436   4.350   6.397  0.1378  0.2280  0.3189
 3417SOL    HW121710   3.363   4.336   6.458 -1.6759 -1.3088 -2.1572
 3417SOL    HW221711   3.411   4.420   6.337 -0.7337 -0.4789 -0.1455
 3418SOL     OW21712   3.908   2.148   5.447 -0.1751  0.1451 -0.4401
 3418SOL    HW121713   3.890   2.107   5.532 -1.7049  0.1711 -0.7433
 3418SOL    HW221714   3.999   2.121   5.435  0.1797  0.1150  2.4375
 3419SOL     OW21715   1.171   1.873  14.667 -0.0417 -0.0261 -0.0465
 3419SOL    HW121716   1.228   1.918  14.605  0.8429 -1.5418 -0.3350
 3419SOL    HW221717   1.142   1.949  14.716  2.5911  1.9571 -1.6229
 3420SOL     OW21718   1.131   1.466   5.434  0.2930  0.1983 -0.1706
 3420SOL    HW121719   1.069   1.530   5.401 -1.8482 -0.5308  2.4258
 3420SOL    HW221720   1.198   1.475   5.366  0.0522 -2.6957 -0.8045
 3421SOL     OW21721   4.606   0.674  10.343 -0.1259  0.3854 -0.6104
 3421SOL    HW121722   4.676   0.709  10.288  0.2893 -0.7798 -0.8192
 3421SOL    HW221723   4.643   0.703  10.427  0.7292  0.0008 -0.8520
 3422SOL     OW21724   0.193   0.570  14.652 -0.0076 -0.5813 -0.5220
 3422SOL    HW121725   0.202   0.487  14.699  1.8717 -0.6090 -0.9260
 3422SOL    HW221726   0.264   0.613  14.699  0.4155  1.0684 -2.6964
 3423SOL     OW21727   2.443   1.449   4.322 -0.6014  0.3493 -0.3032
 3423SOL    HW121728   2.511   1.464   4.256  1.5867  0.6236  2.0326
 3423SOL    HW221729   2.382   1.519   4.300  0.1946  1.3779  0.7342
 3424SOL     OW21730   0.852   0.621   2.973  0.6919 -0.2205  0.1121
 3424SOL    HW121731   0.840   0.583   3.060 -2.8737 -0.7520 -0.6130
 3424SOL    HW221732   0.847   0.715   2.994 -0.0211 -0.9697  3.2748
 3425SOL     OW21733   1.800   1.166   5.801 -0.1555  0.0278  0.8207
 3425SOL    HW121734   1.861   1.239   5.814 -2.3925  2.2785 -1.4155
 3425SOL    HW221735   1.748   1.220   5.741  0.6315 -1.0756 -0.8538
 3426SOL     OW21736   3.998   0.654   9.935  0.2141 -0.2167  0.7325
 3426SOL    HW121737   3.980   0.582   9.875 -0.4281 -0.3809  1.1173
 3426SOL    HW221738   4.052   0.715   9.884  0.1203  0.3394  1.2907
 3427SOL     OW21739   3.664   0.602   6.059 -0.3951  0.6336  0.1419
 3427SOL    HW121740   3.682   0.687   6.019  2.2680 -0.0333 -0.0332
 3427SOL    HW221741   3.574   0.614   6.091 -0.0806  1.1423  0.8263
 3428SOL     OW21742   3.060   0.796   6.357  0.1170 -0.3581  0.4087
 3428SOL    HW121743   3.035   0.736   6.427 -2.5400  2.3916  1.7820
 3428SOL    HW221744   3.061   0.745   6.275  0.9921  1.7212 -0.8707
 3429SOL     OW21745   3.876   3.779  13.476  0.2832  0.1444  0.3513
 3429SOL    HW121746   3.912   3.724  13.546 -0.9646  0.6262  1.3761
 3429SOL    HW221747   3.808   3.823  13.526 -0.3748 -0.4366 -0.0443
 3430SOL     OW21748   3.527   3.275   8.020 -0.0553  0.5115  0.2937
 3430SOL    HW121749   3.606   3.311   8.059  1.5812  0.1784 -2.7201
 3430SOL    HW221750   3.555   3.275   7.929  0.3330 -1.4119  0.4067
 3431SOL     OW21751   1.448   3.580   9.433  0.3401  0.4581 -0.0380
 3431SOL    HW121752   1.475   3.507   9.378  1.1355  1.0355 -0.4214
 3431SOL    HW221753   1.454   3.537   9.518  0.7544 -0.2349 -0.4212
 3432SOL     OW21754   3.883   2.068  15.936  0.4082 -0.2501 -0.0936
 3432SOL    HW121755   3.889   1.992  15.878  1.3065 -0.2914  0.0543
 3432SOL    HW221756   3.975   2.092  15.947  0.2086  0.3472  0.2917
 3433SOL     OW21757   2.924   2.954  10.454 -0.4705  0.1440  0.2571
 3433SOL    HW121758   2.829   2.964  10.449 -0.1889  2.2401 -0.9639
 3433SOL    HW221759   2.924   2.878  10.512  0.8045 -0.0939 -0.0642
 3434SOL     OW21760   3.945   0.736   8.883 -0.0135  0.4273  0.5160
 3434SOL    HW121761   3.854   0.707   8.891  0.0758 -0.1818 -0.6309
 3434SOL    HW221762   3.991   0.686   8.951  0.9755  0.4261 -0.1598
 3435SOL     OW21763   3.396   3.181   3.869  0.3473  0.3324  0.2431
 3435SOL    HW121764   3.362   3.092   3.882 -1.3252  0.6488 -1.7897
 3435SOL    HW221765   3.312   3.226   3.883  0.4568  0.9224 -0.9830
 3436SOL     OW21766   2.353   4.023  15.479  0.2761  0.5805 -0.2592
 3436SOL    HW121767   2.284   4.061  15.534 -0.9264 -1.7743 -0.0943
 3436SOL    HW221768   2.297   3.948  15.457  1.7370 -0.2389 -1.1917
 3437SOL     OW21769   2.531   3.450   1.214  0.8718 -0.1668  0.4082
 3437SOL    HW121770   2.451   3.430   1.167 -0.5146  0.1487  2.6053
 3437SOL    HW221771   2.589   3.377   1.193 -1.4655 -2.4684  1.8670
 3438SOL     OW21772   2.694   4.034   4.924  0.4363  0.0896  0.5033
 3438SOL    HW121773   2.676   3.977   4.999  0.7422 -1.0962 -0.3354
 3438SOL    HW221774   2.663   4.119   4.957 -2.0572 -0.1939 -1.0619
 3439SOL     OW21775   4.038   2.384   1.097  0.0426 -0.0258  0.5786
 3439SOL    HW121776   4.109   2.408   1.038 -1.5036  2.9491 -0.0424
 3439SOL    HW221777   3.993   2.326   1.035 -0.1360 -0.9280  1.5551
 3440SOL     OW21778   3.301   2.471   9.074  0.4339 -0.6176  0.3509
 3440SOL    HW121779   3.294   2.397   9.135 -0.6733 -1.2248 -0.5111
 3440SOL    HW221780   3.243   2.438   9.005  2.0872 -0.7767 -0.9467
 3441SOL     OW21781   2.273   1.635   7.259 -0.5732  0.2478 -0.2073
 3441SOL    HW121782   2.316   1.718   7.278  1.3659 -1.0857  1.1432
 3441SOL    HW221783   2.180   1.659   7.251 -1.2061 -1.4370  2.1225
 3442SOL     OW21784   0.905   4.568  11.939  0.0444  0.3011 -0.5885
 3442SOL    HW121785   0.843   4.628  11.898 -2.0351 -0.4337  1.4497
 3442SOL    HW221786   0.984   4.590  11.890  0.5358  0.9523  0.4786
 3443SOL     OW21787   1.524   0.098  13.402  0.2280  0.2029 -0.2349
 3443SOL    HW121788   1.438   0.060  13.381 -1.2088  2.8300  1.0230
 3443SOL    HW221789   1.503   0.178  13.354  2.2560  1.7240  1.4135
 3444SOL     OW21790   0.929   1.865  12.928 -0.1300 -0.2935  0.8372
 3444SOL    HW121791   0.993   1.797  12.948  0.3976 -0.7271 -2.3235
 3444SOL    HW221792   0.987   1.940  12.910 -0.5802  0.0341  0.7521
 3445SOL     OW21793   4.714   2.585   7.634 -0.2220 -0.2043 -0.5980
 3445SOL    HW121794   0.000   2.627   7.549  2.0503  1.6499  0.6436
 3445SOL    HW221795   4.624   2.552   7.630  0.4298 -1.8431 -1.9890
 3446SOL     OW21796   2.862   4.707   6.441 -0.7113 -0.0488  0.1593
 3446SOL    HW121797   2.856   0.067   6.398  1.4822  0.3790  0.6943
 3446SOL    HW221798   2.799   4.654   6.392 -1.2962 -0.0508  0.9183
 3447SOL     OW21799   1.504   2.149  11.034  0.1480 -0.1124 -0.0648
 3447SOL    HW121800   1.560   2.072  11.035  0.5531  0.1886  0.5060
 3447SOL    HW221801   1.459   2.144  11.119  0.8091  0.2923  0.3101
 3448SOL     OW21802   3.864   4.430  12.291 -0.0859 -0.2108  0.2666
 3448SOL    HW121803   3.800   4.446  12.221  0.1438 -0.9181 -0.1131
 3448SOL    HW221804   3.918   4.508  12.279  1.8494 -1.3490  1.5209
 3449SOL     OW21805   3.608   4.549   0.315  0.2853  0.1161 -0.1878
 3449SOL    HW121806   3.551   4.625   0.324  0.2654  0.1444 -0.5660
 3449SOL    HW221807   3.682   4.596   0.275  1.0116  1.0860  2.2780
 3450SOL     OW21808   2.173   2.295   2.699 -0.0822  0.1436 -0.1466
 3450SOL    HW121809   2.102   2.358   2.688  0.7464  1.2513  0.9305
 3450SOL    HW221810   2.244   2.347   2.661 -2.9407  2.5027 -2.2600
 3451SOL     OW21811   2.897   2.350   8.107 -0.1013  1.0741 -0.0453
 3451SOL    HW121812   2.853   2.390   8.032 -0.0909  1.1354 -0.0189
 3451SOL    HW221813   2.817   2.306   8.136  1.9269 -0.5639  3.0807
 3452SOL     OW21814   0.204   4.105   7.980  0.6382  0.3197  0.5072
 3452SOL    HW121815   0.245   4.129   8.062  0.6929 -1.0472  0.8782
 3452SOL    HW221816   0.220   4.178   7.919  0.9929  0.1343  0.3758
 3453SOL     OW21817   0.391   2.344   4.993  0.0961  0.0670  0.2851
 3453SOL    HW121818   0.456   2.273   4.999  1.3626  1.2537  0.6123
 3453SOL    HW221819   0.431   2.387   4.917  1.1587  2.3716  2.1487
 3454SOL     OW21820   3.042   1.546   5.832 -0.5194 -0.4356  0.4474
 3454SOL    HW121821   2.989   1.618   5.866  1.4433  2.0034 -1.6644
 3454SOL    HW221822   3.001   1.539   5.746 -0.6830 -0.1327  0.5029
 3455SOL     OW21823   4.449   0.141  17.650  0.2748  0.0357 -0.3143
 3455SOL    HW121824   4.543   0.138  17.631  0.7224 -0.8038  2.0563
 3455SOL    HW221825   4.420   0.226  17.619 -0.7660 -0.2873 -0.2263
 3456SOL     OW21826   0.117   2.110   5.483  0.3871 -0.4641  0.3273
 3456SOL    HW121827   0.202   2.124   5.442  0.5416 -1.3375  0.3467
 3456SOL    HW221828   0.118   2.170   5.558  1.5098  0.4568 -0.4128
 3457SOL     OW21829   0.756   2.896   4.331  0.2631  0.0943  0.4673
 3457SOL    HW121830   0.698   2.964   4.364  2.6419  1.0235  2.7494
 3457SOL    HW221831   0.740   2.892   4.237 -0.8559  3.4751  0.5358
 3458SOL     OW21832   2.706   3.475  14.808 -0.2020  0.2970 -0.0427
 3458SOL    HW121833   2.756   3.402  14.774 -0.1893  0.9979 -1.5226
 3458SOL    HW221834   2.638   3.484  14.741  0.8107  0.1661 -1.0819
 3459SOL     OW21835   3.206   3.056   3.631 -0.1775  0.1164 -0.0334
 3459SOL    HW121836   3.193   3.042   3.724  1.5323  0.3981  0.2450
 3459SOL    HW221837   3.261   2.981   3.609  1.3199  1.1182  0.3592
 3460SOL     OW21838   2.749   4.480  13.254 -0.0653  0.3155  0.0910
 3460SOL    HW121839   2.752   4.573  13.231  0.0548  1.2171  3.7010
 3460SOL    HW221840   2.675   4.482  13.316 -0.4202  1.5168 -0.3592
 3461SOL     OW21841   0.402   2.239   6.759  0.7930  0.2302 -0.0105
 3461SOL    HW121842   0.375   2.156   6.797  0.8807 -0.6432 -1.8659
 3461SOL    HW221843   0.472   2.203   6.705  0.8106  1.8795 -1.1060
 3462SOL     OW21844   2.849   2.081  14.717  0.2849  0.1185 -0.2902
 3462SOL    HW121845   2.864   2.165  14.759  0.8630 -0.0697 -0.1264
 3462SOL    HW221846   2.755   2.075  14.737  0.5801  0.2310  1.1219
 3463SOL     OW21847   0.597   3.657   8.038 -0.2949  0.0221 -0.2193
 3463SOL    HW121848   0.569   3.699   7.956 -4.9361  0.2904  1.5039
 3463SOL    HW221849   0.624   3.734   8.088  2.7064 -1.2784  0.1659
 3464SOL     OW21850   3.893   4.625   6.433  0.8605  0.3076  0.5781
 3464SOL    HW121851   3.842   4.705   6.441 -1.3289 -0.7707 -2.3726
 3464SOL    HW221852   3.843   4.589   6.359 -0.2906  1.2095  0.9185
 3465SOL     OW21853   1.176   0.839   1.747  0.0376  0.1694 -0.2231
 3465SOL    HW121854   1.190   0.934   1.749 -2.9814  0.5637  1.0737
 3465SOL    HW221855   1.146   0.816   1.834 -2.0069 -0.0423 -0.9974
 3466SOL     OW21856   2.357   3.465  17.583  0.0802 -0.2986 -0.4940
 3466SOL    HW121857   2.317   3.540  17.629  0.6715  0.0011 -0.4721
 3466SOL    HW221858   2.311   3.403  17.640 -0.5712  0.2823 -0.3885
 3467SOL     OW21859   4.534   1.587   5.321  0.6345  0.4947 -0.1316
 3467SOL    HW121860   4.441   1.601   5.340  0.5297  0.9059 -0.9080
 3467SOL    HW221861   4.562   1.525   5.388 -1.3230 -0.0954  0.1460
 3468SOL     OW21862   1.781   0.693  15.912  0.5412  0.1377  0.1341
 3468SOL    HW121863   1.692   0.659  15.913  1.0965 -1.2842  1.7186
 3468SOL    HW221864   1.831   0.639  15.973  1.9890 -2.5007 -3.4069
 3469SOL     OW21865   4.074   1.310   6.383 -0.3403  0.1778 -0.9120
 3469SOL    HW121866   4.094   1.217   6.369 -1.8353 -0.2797  0.0211
 3469SOL    HW221867   4.091   1.325   6.475 -0.7764 -0.4227 -0.7348
 3470SOL     OW21868   1.521   4.648   8.241 -0.4007 -0.0029  0.5374
 3470SOL    HW121869   1.430   4.654   8.212  0.4277 -3.4259 -2.7068
 3470SOL    HW221870   1.528   4.556   8.265  0.8147  0.3257  1.4831
 3471SOL     OW21871   2.773   1.671   7.401 -0.2413 -0.0038 -0.2230
 3471SOL    HW121872   2.834   1.628   7.340  0.9550  1.3205  0.0442
 3471SOL    HW221873   2.706   1.697   7.337  0.7366  1.4730 -0.6490
 3472SOL     OW21874   1.735   3.793   5.088 -0.3770 -0.0377  0.3627
 3472SOL    HW121875   1.794   3.770   5.016 -1.7551 -0.5799 -0.5803
 3472SOL    HW221876   1.678   3.719   5.108 -0.7863  0.5164  1.2285
 3473SOL     OW21877   3.580   3.569   2.758  0.9530 -0.2615  0.2258
 3473SOL    HW121878   3.597   3.549   2.665 -0.3300 -1.7729  0.3126
 3473SOL    HW221879   3.664   3.596   2.795  1.0581 -0.1412 -0.1016
 3474SOL     OW21880   0.035   3.686   7.225  0.4886  0.4131 -0.3778
 3474SOL    HW121881   0.048   3.777   7.253 -0.3418 -0.1795  1.9370
 3474SOL    HW221882   0.067   3.685   7.134  1.7019 -1.7418  0.0865
 3475SOL     OW21883   0.204   4.036   4.938  0.3714  0.3976 -0.6671
 3475SOL    HW121884   0.218   4.077   4.852  3.4117  0.6627 -0.0400
 3475SOL    HW221885   0.139   3.972   4.909  1.6965 -0.9043 -0.7608
 3476SOL     OW21886   1.001   0.460   9.311 -0.1133 -0.1441 -0.1278
 3476SOL    HW121887   0.944   0.537   9.312  2.0640  1.4704  0.2495
 3476SOL    HW221888   1.070   0.486   9.371 -0.2549 -3.1373  1.3434
 3477SOL     OW21889   0.459   4.045   4.099  0.8330  0.3993  0.1331
 3477SOL    HW121890   0.548   4.044   4.134  0.4135  0.1265  1.2017
 3477SOL    HW221891   0.483   4.110   4.033 -0.6390  0.4058 -0.4052
 3478SOL     OW21892   4.143   0.662   4.414 -0.6702 -0.3205  0.1409
 3478SOL    HW121893   4.215   0.696   4.466 -0.6526 -0.7270  0.3869
 3478SOL    HW221894   4.164   0.568   4.406  2.2098  0.2981  0.5609
 3479SOL     OW21895   2.648   4.671   6.733 -0.6739 -0.0269  0.1676
 3479SOL    HW121896   2.552   4.661   6.733 -0.7444  0.6682  0.9275
 3479SOL    HW221897   2.662   4.592   6.681 -3.0540  1.0709 -2.1803
 3480SOL     OW21898   3.381   3.834   0.708  0.1528 -0.1891 -0.1756
 3480SOL    HW121899   3.375   3.927   0.730 -0.8249  0.4976 -3.3554
 3480SOL    HW221900   3.361   3.835   0.614 -1.2884 -1.5387  0.1177
 3481SOL     OW21901   1.577   1.379   3.277  0.2094 -0.2394 -0.3558
 3481SOL    HW121902   1.577   1.415   3.366  0.9973 -0.0298 -0.4353
 3481SOL    HW221903   1.531   1.448   3.229  1.2241 -0.2289 -1.3046
 3482SOL     OW21904   0.995   4.086   3.362 -0.2768  0.1926  0.1801
 3482SOL    HW121905   1.021   4.039   3.284  0.2509 -0.6498  0.8680
 3482SOL    HW221906   1.077   4.130   3.386  1.1562 -2.5112  0.1882
 3483SOL     OW21907   2.194   1.580  10.990  0.4782  0.1375  0.3845
 3483SOL    HW121908   2.156   1.589  10.903  0.8976  0.1076  0.1990
 3483SOL    HW221909   2.180   1.486  11.003 -0.8650  0.1724 -0.7777
 3484SOL     OW21910   3.876   0.270   6.261  0.4318 -0.2131  0.0631
 3484SOL    HW121911   3.802   0.208   6.264 -1.7453  2.3549 -0.2036
 3484SOL    HW221912   3.947   0.239   6.317 -1.0372 -0.5817  1.7172
 3485SOL     OW21913   1.077   2.416   6.916  0.7130 -0.1411 -0.3851
 3485SOL    HW121914   1.166   2.452   6.919  1.0348 -0.8658 -1.0496
 3485SOL    HW221915   1.084   2.356   6.990  0.4818  0.0197 -0.2337
 3486SOL     OW21916   4.051   0.048   8.074  0.2996 -0.2684  0.6134
 3486SOL    HW121917   4.066   0.138   8.045  0.0589 -0.3945  0.0993
 3486SOL    HW221918   3.964   0.053   8.112  0.2774  0.9258  0.4001
 3487SOL     OW21919   4.388   1.262   4.937  0.2561 -0.2636  0.7650
 3487SOL    HW121920   4.409   1.203   4.864 -1.8203 -0.0009 -0.0286
 3487SOL    HW221921   4.332   1.322   4.887  1.2898  0.7445  0.8150
 3488SOL     OW21922   0.671   0.671   3.885  0.2858 -0.1753  0.2441
 3488SOL    HW121923   0.585   0.629   3.892 -0.1175  0.4821 -0.8500
 3488SOL    HW221924   0.694   0.665   3.978  1.0403 -0.0808  0.0667
 3489SOL     OW21925   3.614   4.549  16.287  0.1915  0.1563 -0.1746
 3489SOL    HW121926   3.590   4.632  16.328  0.2730 -0.1463  0.4889
 3489SOL    HW221927   3.656   4.496  16.356  1.5451  0.2160 -0.9512
 3490SOL     OW21928   0.897   2.540   8.740  0.2110  0.5668  0.3827
 3490SOL    HW121929   0.834   2.504   8.802 -1.3836  2.0082 -0.3907
 3490SOL    HW221930   0.916   2.626   8.779  0.3546  0.4566  0.5562
 3491SOL     OW21931   1.768   4.192   5.185  1.0831  0.1034  0.2193
 3491SOL    HW121932   1.783   4.135   5.260  0.9041 -1.3428 -0.8308
 3491SOL    HW221933   1.783   4.156   5.097  1.4250  1.4936 -0.2921
 3492SOL     OW21934   2.537   2.375   1.815 -0.0275 -0.2953 -0.1478
 3492SOL    HW121935   2.578   2.366   1.729  2.2565  1.4006  0.7845
 3492SOL    HW221936   2.593   2.318   1.867  0.9486  0.0116 -0.8744
 3493SOL     OW21937   1.279   3.095   6.979  0.5635  0.2519  0.1846
 3493SOL    HW121938   1.214   3.029   7.005  0.3432  0.5222  0.3286
 3493SOL    HW221939   1.327   3.105   7.061 -0.0363 -0.1107  0.5831
 3494SOL     OW21940   4.587   1.609   7.318  0.3887  0.0207 -0.1427
 3494SOL    HW121941   4.527   1.538   7.343  1.6670 -0.9739  0.1365
 3494SOL    HW221942   4.645   1.563   7.257 -0.8040 -0.5457 -0.8661
 3495SOL     OW21943   0.825   3.868   1.967 -0.1242  0.1737  0.1007
 3495SOL    HW121944   0.813   3.907   2.054  0.8694 -0.5003  0.5413
 3495SOL    HW221945   0.871   3.935   1.917 -0.6721  0.7244  0.3348
 3496SOL     OW21946   2.029   3.944   0.458  0.7471  0.5657  0.5298
 3496SOL    HW121947   1.940   3.967   0.432  0.7953  0.0737 -0.0584
 3496SOL    HW221948   2.051   4.034   0.484 -2.2283  0.4123  3.6047
 3497SOL     OW21949   4.332   2.754   3.785 -0.1081  0.8171 -0.4108
 3497SOL    HW121950   4.411   2.728   3.737 -0.9068 -2.3680  0.0153
 3497SOL    HW221951   4.335   2.714   3.872 -1.5961 -0.4471 -0.9480
 3498SOL     OW21952   0.043   1.024   7.243  0.4508  0.2982  0.2368
 3498SOL    HW121953   0.078   1.076   7.171  0.0363  1.9818  1.2538
 3498SOL    HW221954   0.111   0.959   7.262  0.9336  0.9728  0.8231
 3499SOL     OW21955   3.192   0.273   4.882 -0.1075  0.4517 -0.0334
 3499SOL    HW121956   3.231   0.360   4.867  0.9914 -0.2316 -1.1592
 3499SOL    HW221957   3.250   0.250   4.955  0.2812 -0.4604 -0.6315
 3500SOL     OW21958   2.255   3.688   0.828 -0.1897  0.3727  0.0321
 3500SOL    HW121959   2.241   3.762   0.888 -2.8449  0.3585 -0.5583
 3500SOL    HW221960   2.175   3.636   0.836  0.0073  0.5426  3.0032
 3501SOL     OW21961   3.122   4.522  13.499  0.1803  0.3521  0.7184
 3501SOL    HW121962   3.099   4.613  13.479  0.1102  0.0211 -0.7637
 3501SOL    HW221963   3.192   4.543  13.560 -0.2703 -0.1237  1.4015
 3502SOL     OW21964   2.487   4.484   6.400 -0.0728  0.0857 -0.2549
 3502SOL    HW121965   2.421   4.540   6.440 -1.8839 -1.7796 -0.6673
 3502SOL    HW221966   2.432   4.433   6.340 -1.7547  0.1805  1.2090
 3503SOL     OW21967   4.544   0.546   9.190 -0.2307 -0.3530  0.4838
 3503SOL    HW121968   4.512   0.457   9.171 -0.5790 -0.5035  1.8157
 3503SOL    HW221969   4.630   0.544   9.149  0.0115  1.0227  0.9538
 3504SOL     OW21970   2.230   2.496   4.299  0.4257 -0.4422 -0.0065
 3504SOL    HW121971   2.269   2.583   4.288 -0.4819  0.1475  1.4802
 3504SOL    HW221972   2.144   2.495   4.257  0.1615  2.9343  0.4595
 3505SOL     OW21973   3.774   1.915   3.001  0.0276 -0.2582 -0.1947
 3505SOL    HW121974   3.847   1.893   3.060 -0.1674 -0.2683  0.0424
 3505SOL    HW221975   3.811   1.962   2.926  0.9965  1.5359  1.3754
 3506SOL     OW21976   2.864   1.306  14.847 -0.8832  0.1690 -0.3543
 3506SOL    HW121977   2.775   1.296  14.882 -1.7756  2.8281 -1.8928
 3506SOL    HW221978   2.850   1.289  14.754  0.4434 -1.6837 -0.2210
 3507SOL     OW21979   2.648   1.961   5.444  0.0733  0.9421 -0.4537
 3507SOL    HW121980   2.702   1.960   5.365  0.2302 -1.8907 -0.2867
 3507SOL    HW221981   2.635   2.055   5.462 -1.7760  0.1397  2.3066
 3508SOL     OW21982   2.888   2.884  15.561  0.5223 -0.1891  0.0274
 3508SOL    HW121983   2.832   2.814  15.527 -0.7995  0.5082  0.7854
 3508SOL    HW221984   2.921   2.920  15.478  0.1819  0.8366  0.3504
 3509SOL     OW21985   0.725   1.357  10.746  0.5670  0.0963  0.0654
 3509SOL    HW121986   0.698   1.398  10.828  1.4888  2.3613 -0.7373
 3509SOL    HW221987   0.642   1.321  10.716  0.5282 -1.1452  1.7179
 3510SOL     OW21988   0.215   0.613   2.055  0.4294 -0.5984  0.1134
 3510SOL    HW121989   0.126   0.589   2.028  0.0435 -1.5680  2.2225
 3510SOL    HW221990   0.267   0.598   1.976  1.3623  3.6345 -0.0539
 3511SOL     OW21991   0.431   0.138   1.870  0.3701 -0.3171  0.1755
 3511SOL    HW121992   0.503   0.122   1.809  1.1677  0.8209  0.8103
 3511SOL    HW221993   0.474   0.194   1.935  1.8061 -1.1867 -0.0312
 3512SOL     OW21994   1.625   1.028   6.200 -0.0972  0.6272  0.2501
 3512SOL    HW121995   1.551   1.010   6.142 -0.8690  0.2166  1.3798
 3512SOL    HW221996   1.608   0.964   6.269  1.2713  0.1689  0.1754
 3513SOL     OW21997   2.470   0.623  15.152  0.4537 -0.2375  0.1377
 3513SOL    HW121998   2.519   0.610  15.070 -1.7678 -0.0592 -1.2116
 3513SOL    HW221999   2.539   0.632  15.217  0.4126  0.0465  0.1413
 3514SOL     OW22000   1.016   3.657   5.301  0.0115 -0.5765 -0.3169
 3514SOL    HW122001   0.971   3.625   5.379 -1.9408 -0.8247 -1.5708
 3514SOL    HW222002   1.103   3.669   5.341 -0.1136 -0.1265 -0.1781
 3515SOL     OW22003   4.368   0.737   0.702  0.0852 -0.0683 -0.1784
 3515SOL    HW122004   4.444   0.714   0.649  1.1550  1.7391  0.5711
 3515SOL    HW222005   4.315   0.657   0.697  1.7038 -1.1108 -0.6620
 3516SOL     OW22006   3.701   2.763   8.539  0.0599 -0.3995  0.5106
 3516SOL    HW122007   3.722   2.761   8.633  1.7027 -0.3247  0.1417
 3516SOL    HW222008   3.672   2.853   8.527  0.8957 -0.1443  0.3707
 3517SOL     OW22009   3.181   2.988   4.299 -0.4429  0.1149  0.2574
 3517SOL    HW122010   3.164   2.954   4.210 -3.2038 -3.0512  1.9730
 3517SOL    HW222011   3.194   3.081   4.281  0.5672 -0.0327  0.2650
 3518SOL     OW22012   1.939   0.461   5.736  0.1219  0.2161  0.0156
 3518SOL    HW122013   1.887   0.480   5.657  0.1768  0.5963  0.0702
 3518SOL    HW222014   1.876   0.411   5.788  2.7763 -1.5124  1.5272
 3519SOL     OW22015   0.357   3.570  11.312  0.1749 -0.4610  0.2984
 3519SOL    HW122016   0.442   3.543  11.279 -0.5002 -1.9829 -0.2003
 3519SOL    HW222017   0.362   3.531  11.400  0.5124  0.5001  0.7021
 3520SOL     OW22018   3.212   3.240   4.155 -0.2424 -0.5254 -0.2797
 3520SOL    HW122019   3.143   3.292   4.195  0.3552  0.5763 -0.6675
 3520SOL    HW222020   3.190   3.240   4.062 -0.8559 -2.3659 -0.1437
 3521SOL     OW22021   1.568   1.961  14.489 -0.3243  0.2014 -0.2015
 3521SOL    HW122022   1.619   1.920  14.419 -0.1067  3.1823 -1.7770
 3521SOL    HW222023   1.487   1.976  14.440  0.8660 -0.2378 -2.3024
 3522SOL     OW22024   3.537   2.898   9.896  0.1642  0.3284  0.2829
 3522SOL    HW122025   3.571   2.953   9.826  0.8093  0.4846  0.7199
 3522SOL    HW222026   3.619   2.871   9.937  0.6352 -0.3719 -1.1270
 3523SOL     OW22027   4.375   2.442   9.442  0.2066 -0.4975  0.1627
 3523SOL    HW122028   4.326   2.522   9.461  2.7896  0.6611  1.9388
 3523SOL    HW222029   4.418   2.424   9.526 -0.1106 -2.8418 -0.1709
 3524SOL     OW22030   1.459   0.868  15.941  0.1087 -0.6199  0.0465
 3524SOL    HW122031   1.480   0.775  15.940  0.3737 -0.5619  0.2690
 3524SOL    HW222032   1.381   0.872  15.885  0.7962  1.6233 -0.7479
 3525SOL     OW22033   4.329   2.345   2.149 -0.1798 -0.7339  0.0805
 3525SOL    HW122034   4.346   2.283   2.078 -2.3759  0.5699 -1.5899
 3525SOL    HW222035   4.363   2.425   2.107  0.0460 -0.9452 -0.1404
 3526SOL     OW22036   0.633   0.278  17.486  0.3583 -0.2797  0.1646
 3526SOL    HW122037   0.622   0.186  17.464  2.1921 -0.2598 -0.9100
 3526SOL    HW222038   0.584   0.326  17.419 -0.7375 -3.5493 -1.3519
 3527SOL     OW22039   4.517   2.576   3.580 -0.3775  0.4837  0.1105
 3527SOL    HW122040   4.521   2.512   3.509 -0.0351  0.6963 -0.0617
 3527SOL    HW222041   4.470   2.648   3.538 -3.1141 -1.1063  0.4373
 3528SOL     OW22042   2.294   4.703   2.537 -0.0923  0.0524 -0.3048
 3528SOL    HW122043   2.300   0.035   2.460 -0.5302 -2.4900 -2.2031
 3528SOL    HW222044   2.381   4.666   2.548 -0.0802  0.8297  2.2715
 3529SOL     OW22045   2.489   2.622  13.388  0.1778 -0.0848 -0.2215
 3529SOL    HW122046   2.451   2.685  13.450 -1.3942 -1.5473  0.3010
 3529SOL    HW222047   2.571   2.596  13.431  0.0371 -1.1973 -0.6245
 3530SOL     OW22048   1.384   2.363   9.847 -0.2470  0.6830 -0.8766
 3530SOL    HW122049   1.299   2.343   9.885  0.0137 -1.0317 -1.1971
 3530SOL    HW222050   1.426   2.408   9.921  0.6500 -0.6016 -0.6166
 3531SOL     OW22051   0.761   0.621   9.581 -0.3278 -0.1710 -0.6876
 3531SOL    HW122052   0.710   0.699   9.604  0.6183  0.0764  0.5633
 3531SOL    HW222053   0.796   0.601   9.667  2.0271 -0.0611 -1.6305
 3532SOL     OW22054   0.863   0.791   2.589  0.4561  0.2248 -0.5743
 3532SOL    HW122055   0.834   0.734   2.518  3.2548 -2.8801  0.7800
 3532SOL    HW222056   0.922   0.733   2.637  1.3338 -0.3893 -2.4332
 3533SOL     OW22057   1.050   0.340   9.078 -0.5517  0.1529  0.0285
 3533SOL    HW122058   1.140   0.362   9.054 -0.5359 -0.2026 -0.2441
 3533SOL    HW222059   1.030   0.388   9.159 -2.1375  3.0097 -2.0555
 3534SOL     OW22060   4.407   1.636   3.411  0.0286  0.1173  0.3259
 3534SOL    HW122061   4.429   1.721   3.371 -0.3783 -0.5554 -1.3183
 3534SOL    HW222062   4.473   1.580   3.371 -2.1396 -1.1036 -1.4922
 3535SOL     OW22063   0.149   4.319  16.820  0.3530  0.4473  0.6008
 3535SOL    HW122064   0.237   4.305  16.854  0.0598 -0.5879  0.9379
 3535SOL    HW222065   0.148   4.415  16.822 -0.5429  0.4182  1.3045
 3536SOL     OW22066   1.793   2.392   4.102  0.5393  0.1289  0.5823
 3536SOL    HW122067   1.751   2.391   4.016 -0.5171  1.6811  1.0831
 3536SOL    HW222068   1.769   2.307   4.139 -2.4180  0.7743  0.1437
 3537SOL     OW22069   4.630   2.194  17.547  0.1917  0.0650 -0.4949
 3537SOL    HW122070   4.622   2.248  17.468  3.2352  0.1726 -0.7332
 3537SOL    HW222071   4.570   2.243  17.604  0.8402 -1.2362  1.2891
 3538SOL     OW22072   0.091   3.090   1.984  0.3546  0.2199 -0.1543
 3538SOL    HW122073   0.107   3.016   1.925 -3.8237  0.4973 -1.5921
 3538SOL    HW222074   0.126   3.163   1.934 -2.4299  1.8372  0.3037
 3539SOL     OW22075   4.051   2.585   4.018 -0.5799 -0.5410  0.0702
 3539SOL    HW122076   4.015   2.673   4.009  1.5760  0.4595  1.4601
 3539SOL    HW222077   4.043   2.554   3.927  3.0754  1.6966 -1.0090
 3540SOL     OW22078   2.689   3.914   8.277 -0.0911 -0.2914 -0.0826
 3540SOL    HW122079   2.729   3.928   8.363  0.0267 -0.7211 -0.0702
 3540SOL    HW222080   2.737   3.839   8.242 -0.5467 -0.6368  0.0331
 3541SOL     OW22081   3.686   0.629  12.280  0.1544 -0.6927 -0.2261
 3541SOL    HW122082   3.724   0.710  12.312 -1.4052 -0.7569  1.7997
 3541SOL    HW222083   3.741   0.565  12.325 -0.4813 -3.0227 -2.7353
 3542SOL     OW22084   2.519   1.935   6.763 -0.4845  0.4567 -0.4892
 3542SOL    HW122085   2.508   2.027   6.738  1.1573  1.1362  1.3626
 3542SOL    HW222086   2.596   1.907   6.714 -0.6334  0.2807 -0.6274
 3543SOL     OW22087   3.565   0.649  15.418 -0.1322  0.2369  0.0291
 3543SOL    HW122088   3.631   0.697  15.368  0.4049  1.7648  2.2269
 3543SOL    HW222089   3.493   0.710  15.406 -1.3999 -1.7210 -2.2346
 3544SOL     OW22090   2.385   2.701   2.461 -0.6897  0.0494 -0.2587
 3544SOL    HW122091   2.465   2.716   2.411 -1.3392  0.4116 -1.1770
 3544SOL    HW222092   2.320   2.688   2.393 -0.5897  0.3985 -0.4199
 3545SOL     OW22093   2.726   2.256   1.999  0.0441 -0.1876 -0.7077
 3545SOL    HW122094   2.783   2.210   2.061 -0.1221  0.1352 -0.3096
 3545SOL    HW222095   2.642   2.231   2.037 -0.0159  0.1948 -0.5849
 3546SOL     OW22096   1.773   2.586   4.857  0.0904  0.3240  0.0389
 3546SOL    HW122097   1.728   2.535   4.790  1.6995 -0.8041 -0.2043
 3546SOL    HW222098   1.743   2.674   4.831  1.7467  1.6698  2.6389
 3547SOL     OW22099   1.164   2.203  13.395  0.0543  0.7662 -0.0493
 3547SOL    HW122100   1.128   2.284  13.430  0.8957  1.3805 -0.6146
 3547SOL    HW222101   1.231   2.236  13.335  0.7111  0.1707  0.3427
 3548SOL     OW22102   3.374   3.353   1.781  0.8798 -0.7474 -0.0819
 3548SOL    HW122103   3.442   3.384   1.841  0.9642 -2.2530  0.6024
 3548SOL    HW222104   3.298   3.351   1.839 -1.4000 -0.2343 -3.0748
 3549SOL     OW22105   1.330   1.709  17.515  0.1831 -0.2583  0.1840
 3549SOL    HW122106   1.360   1.794  17.482  2.9032 -1.8073 -1.3487
 3549SOL    HW222107   1.388   1.694  17.589 -0.4303 -1.2450  0.4628
 3550SOL     OW22108   2.732   2.315  11.357  0.0373  1.1564  0.0990
 3550SOL    HW122109   2.827   2.328  11.349  0.0830  0.4955 -0.4819
 3550SOL    HW222110   2.721   2.234  11.407  1.5801  1.5757  1.1130
 3551SOL     OW22111   0.165   1.140  12.423 -0.2498 -0.3527 -0.1896
 3551SOL    HW122112   0.124   1.147  12.509  0.1594 -0.5126  0.0188
 3551SOL    HW222113   0.092   1.129  12.362 -0.2057 -1.5961 -0.0316
 3552SOL     OW22114   4.598   1.859   4.021  0.2500  0.9577 -0.1928
 3552SOL    HW122115   4.575   1.910   3.943  0.0819  1.7430  0.3753
 3552SOL    HW222116   4.604   1.777   3.972  3.1102 -0.5638  2.7332
 3553SOL     OW22117   3.606   3.324   9.736 -0.5013  0.4304  0.2035
 3553SOL    HW122118   3.523   3.348   9.776  0.2617  2.6746  0.4327
 3553SOL    HW222119   3.661   3.401   9.747 -0.4383  0.1941  1.4987
 3554SOL     OW22120   2.920   4.002  17.562 -0.3338 -0.6348 -0.0128
 3554SOL    HW122121   2.868   4.080  17.584  0.8259  0.5012 -1.3172
 3554SOL    HW222122   2.858   3.937  17.593 -1.9409  0.3848 -1.1041
 3555SOL     OW22123   3.811   2.106   4.081 -0.0519 -0.7244  0.2801
 3555SOL    HW122124   3.851   2.026   4.047 -0.7860  0.2666 -2.9312
 3555SOL    HW222125   3.877   2.172   4.060  0.6711 -1.6099 -0.2018
 3556SOL     OW22126   0.711   3.934  15.249  0.2521 -0.3719  0.4910
 3556SOL    HW122127   0.764   3.913  15.326  0.1832 -0.4128  0.5267
 3556SOL    HW222128   0.626   3.938  15.293 -1.3174  0.2844 -2.6411
 3557SOL     OW22129   1.255   4.537   3.549 -0.1353 -0.1054 -1.3761
 3557SOL    HW122130   1.239   4.605   3.614 -1.1351  0.3360 -2.0660
 3557SOL    HW222131   1.327   4.488   3.587 -1.6959 -0.6685  0.8399
 3558SOL     OW22132   2.081   3.748   5.112 -0.3862  0.2155  0.0949
 3558SOL    HW122133   2.167   3.739   5.072  0.1109  3.0272  0.5406
 3558SOL    HW222134   2.031   3.759   5.031  1.7446 -1.9689 -1.4976
 3559SOL     OW22135   2.807   4.593  10.804  0.7332  0.1210  0.3266
 3559SOL    HW122136   2.894   4.602  10.842 -0.4347  0.4814  2.8728
 3559SOL    HW222137   2.818   4.649  10.727  0.2681  0.9695  0.8880
 3560SOL     OW22138   2.163   4.052   8.872  0.2902  0.2949 -0.5893
 3560SOL    HW122139   2.165   3.968   8.919 -1.2863  0.3464 -0.4404
 3560SOL    HW222140   2.070   4.054   8.850  0.1132 -2.4007 -0.1030
 3561SOL     OW22141   0.967   3.566  11.025 -0.5096 -0.3393  0.3161
 3561SOL    HW122142   0.881   3.528  11.007 -1.4026  1.2602  1.2178
 3561SOL    HW222143   0.984   3.534  11.114 -2.4435  1.1746  1.2200
 3562SOL     OW22144   0.510   2.341  14.900  0.4835 -0.0277 -0.1715
 3562SOL    HW122145   0.509   2.434  14.878 -0.0859 -0.4269 -1.8429
 3562SOL    HW222146   0.567   2.348  14.977  1.7034 -3.4011 -0.7823
 3563SOL     OW22147   3.900   3.857   6.398 -0.1750 -0.0730 -0.1170
 3563SOL    HW122148   3.871   3.884   6.485 -2.5816 -0.1212 -0.8940
 3563SOL    HW222149   3.904   3.762   6.408 -1.1801  0.0625  1.5541
 3564SOL     OW22150   3.779   4.621   7.919 -0.5591  0.1931 -0.3188
 3564SOL    HW122151   3.769   4.701   7.868  1.6941  0.7360  0.1177
 3564SOL    HW222152   3.724   4.644   7.994  2.4628 -1.7224  2.4914
 3565SOL     OW22153   1.232   1.428   3.211 -0.0111  0.3500  0.1800
 3565SOL    HW122154   1.178   1.453   3.136  1.4080 -1.4187 -1.4502
 3565SOL    HW222155   1.167   1.372   3.254  0.4577  0.6459  1.2658
 3566SOL     OW22156   3.107   3.405   6.330  0.0143 -0.2875 -0.1833
 3566SOL    HW122157   3.076   3.316   6.310 -0.9891 -0.2559  1.2542
 3566SOL    HW222158   3.201   3.397   6.317  0.1251  0.1160  0.4058
 3567SOL     OW22159   0.655   0.411   2.977 -0.3305  0.4578 -0.4475
 3567SOL    HW122160   0.570   0.452   2.960  1.0564  2.9575 -1.3249
 3567SOL    HW222161   0.703   0.488   2.946  1.9609 -0.9616 -0.3414
 3568SOL     OW22162   4.064   3.200   7.873  0.4298 -0.2326  0.7556
 3568SOL    HW122163   4.016   3.212   7.791  2.4824  0.2323 -0.3561
 3568SOL    HW222164   4.113   3.118   7.867 -0.8647 -1.1464  2.7027
 3569SOL     OW22165   1.065   1.250   3.327 -0.1092  0.3623  0.6537
 3569SOL    HW122166   0.982   1.223   3.288  1.3571 -0.2468 -2.1033
 3569SOL    HW222167   1.075   1.195   3.404  0.1403  1.1350  1.1768
 3570SOL     OW22168   2.838   1.304   4.299  0.0396  0.8998 -0.5742
 3570SOL    HW122169   2.803   1.266   4.219 -0.3318 -1.2376  0.5943
 3570SOL    HW222170   2.807   1.395   4.295 -2.5947  0.2361  3.4606
 3571SOL     OW22171   0.530   4.552   7.244 -0.1450  0.0685 -0.0159
 3571SOL    HW122172   0.557   4.464   7.270  0.8025  0.5534  0.6458
 3571SOL    HW222173   0.611   4.600   7.261 -0.3110  0.7699 -1.2140
 3572SOL     OW22174   2.123   3.753   6.188  0.2775 -0.0726  0.3978
 3572SOL    HW122175   2.172   3.784   6.264 -0.2851  3.4096 -0.6209
 3572SOL    HW222176   2.166   3.795   6.113  0.4462 -1.7517 -0.4491
 3573SOL     OW22177   3.602   2.228   6.381  0.0016 -0.7815 -0.1065
 3573SOL    HW122178   3.588   2.281   6.302 -0.0349 -0.9138 -0.1887
 3573SOL    HW222179   3.523   2.245   6.433  0.3683 -1.2392  0.6006
 3574SOL     OW22180   0.673   1.638   9.476  0.2120  0.1977 -0.3285
 3574SOL    HW122181   0.732   1.705   9.510  0.1574 -0.2278  0.6049
 3574SOL    HW222182   0.710   1.634   9.388 -3.4363 -2.6160 -1.7623
 3575SOL     OW22183   3.851   4.169  12.242 -0.4308 -0.1029 -0.0430
 3575SOL    HW122184   3.786   4.155  12.173  0.6072 -0.5349 -0.9403
 3575SOL    HW222185   3.856   4.262  12.263  1.0780 -0.5877  1.6569
 3576SOL     OW22186   0.387   3.799   7.158 -0.0708 -0.2629  0.3401
 3576SOL    HW122187   0.455   3.838   7.104 -1.1025  0.7411 -0.2549
 3576SOL    HW222188   0.336   3.756   7.088  0.8852 -0.9197  0.0419
 3577SOL     OW22189   1.779   2.528   7.220  0.1679 -0.6847 -0.3907
 3577SOL    HW122190   1.739   2.535   7.133  2.2016  0.1157 -1.2635
 3577SOL    HW222191   1.832   2.448   7.216 -1.8162 -1.9742 -1.0421
 3578SOL     OW22192   1.992   1.753   2.388  0.1546  0.6962  0.0199
 3578SOL    HW122193   2.050   1.677   2.402 -1.1744 -0.3945 -0.4020
 3578SOL    HW222194   2.057   1.794   2.331  1.3285  0.6469  1.3249
 3579SOL     OW22195   1.540   0.937   6.443 -0.1520  0.4544 -0.2574
 3579SOL    HW122196   1.561   0.943   6.536 -1.3046 -3.0243  0.1949
 3579SOL    HW222197   1.504   1.026   6.437  1.1047  0.9973  0.2635
 3580SOL     OW22198   3.228   3.623  16.647  0.5803  0.0234  0.0934
 3580SOL    HW122199   3.312   3.577  16.639 -0.2594 -1.6178  0.7199
 3580SOL    HW222200   3.163   3.555  16.633 -0.5083  0.6962  1.8663
 3581SOL     OW22201   4.036   2.890   9.483 -0.3041 -0.2714 -0.5708
 3581SOL    HW122202   3.944   2.872   9.464 -0.4620 -0.4633  0.3528
 3581SOL    HW222203   4.036   2.883   9.579  2.1821  2.9068 -0.3547
 3582SOL     OW22204   1.280   2.785   9.413  0.2838 -0.7054  0.3591
 3582SOL    HW122205   1.295   2.852   9.480 -1.0084  1.6539 -1.7127
 3582SOL    HW222206   1.291   2.709   9.471  1.7561  0.8110  2.0744
 3583SOL     OW22207   4.279   0.192  14.896 -0.6578 -0.4522  0.1911
 3583SOL    HW122208   4.233   0.194  14.980  1.7176 -1.5566  1.5189
 3583SOL    HW222209   4.331   0.113  14.911  1.2253  1.1252  1.8047
 3584SOL     OW22210   3.043   4.087   8.029  0.0238 -0.0232 -0.3006
 3584SOL    HW122211   3.040   4.007   7.978  1.7990  0.5582 -1.3144
 3584SOL    HW222212   3.135   4.114   8.033  0.1102 -0.3660 -0.0138
 3585SOL     OW22213   2.743   1.613  15.995 -0.3584 -0.4892  0.2108
 3585SOL    HW122214   2.677   1.569  15.941 -0.6484  1.0021 -0.6379
 3585SOL    HW222215   2.682   1.660  16.052  0.3553  0.5704  0.0827
 3586SOL     OW22216   3.410   2.107   8.781  0.1571 -0.1604  0.3051
 3586SOL    HW122217   3.348   2.180   8.781 -0.4588 -0.7032  1.5025
 3586SOL    HW222218   3.473   2.133   8.848  1.3554  2.3291 -1.7673
 3587SOL     OW22219   3.855   1.101   6.991  0.4072  0.3212 -0.3505
 3587SOL    HW122220   3.911   1.077   7.065 -0.7040  0.1933  0.4493
 3587SOL    HW222221   3.895   1.044   6.925  2.4835  0.3719  0.8549
 3588SOL     OW22222   1.313   3.908   9.369  0.0450  0.5156 -0.4599
 3588SOL    HW122223   1.285   3.962   9.443  0.2088 -1.1132  0.7907
 3588SOL    HW222224   1.232   3.880   9.327  0.1308 -1.7731  0.8912
 3589SOL     OW22225   1.791   4.526   8.877 -0.7064  0.4299 -0.2853
 3589SOL    HW122226   1.789   4.432   8.862 -2.1704  0.2696  0.9870
 3589SOL    HW222227   1.815   4.527   8.969 -2.1146 -1.4298  0.0882
 3590SOL     OW22228   3.402   1.745   8.978  0.7066  0.8769 -0.2965
 3590SOL    HW122229   3.348   1.732   9.056 -1.2706 -0.1945 -1.8475
 3590SOL    HW222230   3.329   1.772   8.922  0.8193  2.0907  0.1540
 3591SOL     OW22231   2.420   3.707   4.929  0.3226  0.5682 -0.2838
 3591SOL    HW122232   2.443   3.704   4.836 -1.2729 -1.4782 -0.6281
 3591SOL    HW222233   2.375   3.623   4.939 -3.0049  2.2486 -1.2234
 3592SOL     OW22234   3.593   0.668   4.032  0.1316  0.5536 -0.0140
 3592SOL    HW122235   3.548   0.745   4.065 -0.4368  0.7466 -1.2471
 3592SOL    HW222236   3.532   0.644   3.963 -0.5425  1.3362  0.3137
 3593SOL     OW22237   3.829   2.697  17.015  0.5739 -0.3087 -0.1657
 3593SOL    HW122238   3.734   2.685  17.009  0.2899  1.4731  0.5839
 3593SOL    HW222239   3.852   2.616  16.970  1.2794  0.1067 -0.5476
 3594SOL     OW22240   4.523   3.760   6.210 -0.3815  0.3158  0.4077
 3594SOL    HW122241   4.500   3.801   6.126  1.9592  1.8586  0.5320
 3594SOL    HW222242   4.526   3.842   6.259 -0.6058  0.8828 -0.5096
 3595SOL     OW22243   4.200   0.923  11.768 -0.0529 -0.0578  0.4803
 3595SOL    HW122244   4.174   1.005  11.726 -0.4287 -0.0775  0.6754
 3595SOL    HW222245   4.168   0.861  11.702 -1.1420 -0.0167  0.9838
 3596SOL     OW22246   4.179   4.684  15.892 -0.1140 -0.0117  0.4375
 3596SOL    HW122247   4.223   0.043  15.887 -0.3703  0.1230  0.4211
 3596SOL    HW222248   4.093   4.723  15.908 -0.3590 -1.0168  1.6325
 3597SOL     OW22249   1.141   3.406   4.192 -0.2694  0.2595 -0.3798
 3597SOL    HW122250   1.056   3.400   4.235 -0.7565 -1.1238 -1.5459
 3597SOL    HW222251   1.197   3.448   4.258  0.7640 -1.7769  0.0422
 3598SOL     OW22252   3.689   0.159   6.931  0.6317 -0.1122  0.0154
 3598SOL    HW122253   3.727   0.230   6.983  2.7315  0.7395 -2.6808
 3598SOL    HW222254   3.770   0.108   6.923  0.1402 -0.6839 -1.2986
 3599SOL     OW22255   3.984   2.806   6.422 -0.1780 -0.0573  0.3164
 3599SOL    HW122256   3.985   2.902   6.415 -0.1661 -0.2029 -1.5424
 3599SOL    HW222257   4.000   2.791   6.515  0.6511  1.9598  0.5133
 3600SOL     OW22258   4.436   1.272   7.847  0.2496 -0.1279  0.4339
 3600SOL    HW122259   4.388   1.331   7.789  2.1830  1.5435  0.5256
 3600SOL    HW222260   4.489   1.324   7.908 -0.2751  1.3276 -0.3481
 3601SOL     OW22261   2.726   4.227   0.082  0.0390 -0.1335  0.2433
 3601SOL    HW122262   2.733   4.233  17.690 -1.2876  2.5525  0.3189
 3601SOL    HW222263   2.774   4.304   0.113 -2.4771  2.0004 -1.1547
 3602SOL     OW22264   3.918   0.809   4.702  1.0071 -0.0702  0.3405
 3602SOL    HW122265   3.956   0.724   4.679  1.3723 -0.6133  2.8755
 3602SOL    HW222266   3.888   0.794   4.792 -1.8077  1.2135 -0.3809
 3603SOL     OW22267   0.806   4.436   9.222 -0.0724 -0.1042  0.1177
 3603SOL    HW122268   0.851   4.508   9.266  2.8222 -1.3554 -0.7667
 3603SOL    HW222269   0.723   4.471   9.191  0.6155  0.2350 -1.2993
 3604SOL     OW22270   0.745   4.567  12.945  0.4829  0.1185  0.4281
 3604SOL    HW122271   0.789   4.543  13.027  0.3034  0.9029  0.7562
 3604SOL    HW222272   0.820   4.587  12.890  0.7260 -0.7494  0.4504
 3605SOL     OW22273   3.613   4.287   0.396 -0.0198 -0.3585  0.4047
 3605SOL    HW122274   3.609   4.376   0.359  0.3636 -0.1920  0.7603
 3605SOL    HW222275   3.706   4.279   0.415 -0.1707 -0.1722  1.2393
 3606SOL     OW22276   0.741   1.166   0.858 -0.3681 -0.3395  0.2805
 3606SOL    HW122277   0.810   1.103   0.843 -0.9287 -0.9755  0.3668
 3606SOL    HW222278   0.710   1.132   0.942  0.8098 -1.1907  0.3577
 3607SOL     OW22279   1.612   1.011   5.017  0.0170  0.1441 -0.1887
 3607SOL    HW122280   1.575   0.924   5.006  1.2644 -0.5503  0.9332
 3607SOL    HW222281   1.636   1.012   5.110  1.2903 -0.0885 -0.5136
 3608SOL     OW22282   1.395   4.453   5.773  0.8168 -0.0473 -0.1208
 3608SOL    HW122283   1.441   4.396   5.834 -0.3053 -0.9086 -0.0765
 3608SOL    HW222284   1.336   4.499   5.833 -0.9842  0.8131 -2.5588
 3609SOL     OW22285   2.312   4.329   5.339  0.3924 -0.6545  0.2506
 3609SOL    HW122286   2.256   4.349   5.264  3.4285 -0.4076 -1.9317
 3609SOL    HW222287   2.339   4.239   5.320  0.3373 -0.3257 -1.4211
 3610SOL     OW22288   0.384   3.713   5.972  0.3653 -0.0191 -0.3260
 3610SOL    HW122289   0.471   3.684   6.002  0.3617  0.6343  0.3105
 3610SOL    HW222290   0.377   3.663   5.891 -1.2942 -1.6758  0.8297
 3611SOL     OW22291   4.140   0.472  10.322 -0.1308  0.3438 -0.0265
 3611SOL    HW122292   4.203   0.534  10.359 -0.6569 -0.0370  1.4852
 3611SOL    HW222293   4.200   0.406  10.288  0.7615 -0.1633  2.6207
 3612SOL     OW22294   2.889   1.008   6.032 -0.2069  0.0660  0.5724
 3612SOL    HW122295   2.823   0.944   6.057 -2.2125  1.1525 -1.8753
 3612SOL    HW222296   2.878   1.074   6.100  2.4932  3.0001 -1.8299
 3613SOL     OW22297   3.179   1.281   5.947 -0.2004 -0.2579 -0.4099
 3613SOL    HW122298   3.183   1.263   5.853 -1.9971 -2.0363 -0.1542
 3613SOL    HW222299   3.146   1.195   5.974  1.2572 -0.2646  1.2766
 3614SOL     OW22300   0.209   2.606   4.011  0.1072  0.0384 -0.0708
 3614SOL    HW122301   0.296   2.640   3.992 -0.6564  3.1383  1.8601
 3614SOL    HW222302   0.146   2.646   3.952 -0.8678 -2.5531 -0.7833
 3615SOL     OW22303   1.826   3.008   6.493  0.2839 -0.4241  0.1746
 3615SOL    HW122304   1.830   3.008   6.588 -1.0987  0.1188  0.2324
 3615SOL    HW222305   1.899   3.065   6.468  0.1851 -1.9685 -3.6330
 3616SOL     OW22306   2.604   3.790  13.665  0.6751 -0.1839  0.0318
 3616SOL    HW122307   2.699   3.775  13.670  0.7768  0.3060 -0.4847
 3616SOL    HW222308   2.566   3.735  13.734 -0.0035  0.4012  0.1177
 3617SOL     OW22309   3.332   2.511  10.305  0.5115  0.8286 -0.1222
 3617SOL    HW122310   3.391   2.574  10.263  0.9707 -0.1555 -0.9651
 3617SOL    HW222311   3.389   2.460  10.363  1.1829  0.1093 -1.4052
 3618SOL     OW22312   0.567   3.690   9.734 -0.0272 -0.2324  0.0115
 3618SOL    HW122313   0.637   3.667   9.673 -0.0707  0.5613 -0.3395
 3618SOL    HW222314   0.631   3.740   9.784  0.1981  0.3968 -0.8962
 3619SOL     OW22315   3.055   4.078   1.560  0.1923 -0.3927  0.0430
 3619SOL    HW122316   3.131   4.070   1.504  1.7262  2.8025  1.6172
 3619SOL    HW222317   3.083   4.129   1.636  2.6474 -0.5298 -0.7847
 3620SOL     OW22318   3.257   1.908   8.098  0.0464 -0.3953 -0.3199
 3620SOL    HW122319   3.300   1.974   8.043 -1.1002  2.1468  1.8319
 3620SOL    HW222320   3.165   1.930   8.084  0.5004  0.4212 -2.0843
 3621SOL     OW22321   1.254   3.757   9.904 -0.2585  0.0835 -0.1155
 3621SOL    HW122322   1.240   3.842   9.945 -0.9898 -1.3733  2.7258
 3621SOL    HW222323   1.306   3.778   9.827  0.3593 -1.0558 -0.0168
 3622SOL     OW22324   0.920   0.900   8.135 -0.1183  0.4805  0.5296
 3622SOL    HW122325   0.989   0.967   8.137 -0.6392  1.0954 -1.9207
 3622SOL    HW222326   0.956   0.831   8.191  0.1909  0.6551  0.5442
 3623SOL     OW22327   0.314   1.627   3.469  0.3448 -0.1704 -0.4544
 3623SOL    HW122328   0.231   1.663   3.500  1.5129  1.9473  0.2094
 3623SOL    HW222329   0.284   1.547   3.426  1.0647 -0.8307  0.2678
 3624SOL     OW22330   3.415   0.695  16.936 -0.1993 -0.6704 -0.6607
 3624SOL    HW122331   3.330   0.660  16.910 -0.8217 -1.3590  2.2523
 3624SOL    HW222332   3.429   0.638  17.012 -0.1116 -0.5619 -0.5950
 3625SOL     OW22333   3.919   2.555   5.612  0.3763  0.3911  0.4522
 3625SOL    HW122334   3.962   2.501   5.545  0.7653  0.8539  0.3249
 3625SOL    HW222335   3.966   2.534   5.692  1.1165 -0.5995 -0.2383
 3626SOL     OW22336   1.917   0.123  12.131  0.2982  0.1513 -0.3135
 3626SOL    HW122337   1.831   0.103  12.168  0.7327  0.3969  0.8182
 3626SOL    HW222338   1.942   0.207  12.170  2.6017 -1.2946  1.3297
 3627SOL     OW22339   0.341   3.413   8.693 -0.2080 -0.2407 -0.0659
 3627SOL    HW122340   0.291   3.388   8.771 -0.1882 -0.4064 -0.1072
 3627SOL    HW222341   0.325   3.335   8.640 -1.9627  0.5448 -0.6963
 3628SOL     OW22342   2.108   0.449   8.407 -0.4455  0.1929 -0.9615
 3628SOL    HW122343   2.113   0.467   8.501 -0.5254 -0.9818 -0.7334
 3628SOL    HW222344   2.014   0.434   8.399 -0.1959 -1.7080 -0.3437
 3629SOL     OW22345   0.153   0.982   3.399  0.2725  0.8070 -0.1710
 3629SOL    HW122346   0.124   0.996   3.489  1.2609 -1.5604  0.5067
 3629SOL    HW222347   0.222   1.047   3.387  1.7713 -0.7598 -0.0134
 3630SOL     OW22348   4.087   2.208   6.546  0.0072  0.1885  0.1111
 3630SOL    HW122349   4.070   2.263   6.622 -0.5326 -0.9313  0.7902
 3630SOL    HW222350   4.117   2.129   6.592  1.5927  1.1411  0.7103
 3631SOL     OW22351   4.197   3.362   1.704 -0.2796  0.8114  0.0112
 3631SOL    HW122352   4.279   3.399   1.738  1.7222 -3.1898 -0.4217
 3631SOL    HW222353   4.126   3.424   1.717  0.7463  2.1749 -0.8819
 3632SOL     OW22354   3.370   1.684  16.433 -0.2752  0.4307 -0.4755
 3632SOL    HW122355   3.436   1.745  16.401  0.4004 -0.7443 -1.3337
 3632SOL    HW222356   3.364   1.709  16.525  0.1879 -2.4669  0.3219
 3633SOL     OW22357   2.304   4.317  16.561 -0.4844 -0.1343 -0.2265
 3633SOL    HW122358   2.225   4.262  16.559 -2.3016  2.4227  0.8332
 3633SOL    HW222359   2.371   4.249  16.566  0.8982  1.4264  2.4784
 3634SOL     OW22360   1.117   0.920   7.164 -0.6521 -0.4768 -0.5165
 3634SOL    HW122361   1.163   0.863   7.102  0.5107  1.5078 -1.4514
 3634SOL    HW222362   1.052   0.865   7.209  0.1987  0.2763  1.6187
 3635SOL     OW22363   3.093   2.204  17.022 -0.1098  0.1872  0.5330
 3635SOL    HW122364   3.123   2.286  16.982  1.0592 -0.0218  0.9838
 3635SOL    HW222365   3.066   2.226  17.111  2.4176  0.2246  1.2923
 3636SOL     OW22366   3.674   1.308  12.881 -0.1830  0.4165 -0.1333
 3636SOL    HW122367   3.711   1.321  12.968 -0.0338 -1.2925  0.0653
 3636SOL    HW222368   3.606   1.372  12.903 -1.2009  0.1324 -2.4586
 3637SOL     OW22369   3.909   3.588  15.662 -0.1134  0.3861  0.4283
 3637SOL    HW122370   3.816   3.602  15.643 -0.4914 -0.1546  1.8692
 3637SOL    HW222371   3.943   3.677  15.656 -0.8661  0.6183 -0.3479
 3638SOL     OW22372   4.480   2.486   4.343 -0.0258 -0.1208 -0.7278
 3638SOL    HW122373   4.556   2.463   4.289 -0.9956  1.6243 -2.8643
 3638SOL    HW222374   4.457   2.574   4.311  0.6578  0.1559 -0.4674
 3639SOL     OW22375   4.409   3.973   7.293  0.6333  0.1194 -0.0231
 3639SOL    HW122376   4.448   3.955   7.208 -0.2905 -1.9302 -0.0125
 3639SOL    HW222377   4.416   4.068   7.298  3.4414 -0.0387 -0.8786
 3640SOL     OW22378   2.378   3.297  16.776 -0.4432 -0.4365  0.1782
 3640SOL    HW122379   2.307   3.361  16.768  0.2755  0.4234  0.6639
 3640SOL    HW222380   2.379   3.271  16.868 -0.7522 -1.3703 -0.0837
 3641SOL     OW22381   3.443   1.637   7.213 -0.2247 -0.4206 -0.8911
 3641SOL    HW122382   3.366   1.668   7.261  0.1806 -0.3474 -0.2962
 3641SOL    HW222383   3.477   1.723   7.190  0.5741  0.1470  2.5168
 3642SOL     OW22384   2.886   2.851   5.269  0.2558 -0.4995  0.0397
 3642SOL    HW122385   2.947   2.791   5.227 -0.3836 -0.9962 -0.1889
 3642SOL    HW222386   2.891   2.813   5.357  1.4585  2.0061  1.0324
 3643SOL     OW22387   1.033   2.219  15.320 -0.3727  0.5930  0.5232
 3643SOL    HW122388   0.949   2.198  15.362 -0.7353  2.2092  0.6049
 3643SOL    HW222389   1.072   2.133  15.306  0.9884  1.0205  1.7345
 3644SOL     OW22390   0.510   4.420   9.024 -0.1578  0.0888 -0.1037
 3644SOL    HW122391   0.488   4.461   9.108 -0.6933  0.5224 -0.4553
 3644SOL    HW222392   0.445   4.457   8.965 -0.4403 -0.1985  0.0302
 3645SOL     OW22393   2.254   0.127   6.683 -0.1185  0.0370 -0.4401
 3645SOL    HW122394   2.321   0.174   6.634  1.4535 -0.1568  1.5096
 3645SOL    HW222395   2.251   0.180   6.763  0.9883  2.9439 -2.3388
 3646SOL     OW22396   2.112   3.699  14.262  0.8148 -0.0600 -0.3451
 3646SOL    HW122397   2.073   3.615  14.288  2.7296 -1.0096 -0.5373
 3646SOL    HW222398   2.048   3.716  14.193 -0.9750 -2.5864  0.6683
 3647SOL     OW22399   4.336   2.178   3.952 -0.3948  0.4360  0.5635
 3647SOL    HW122400   4.300   2.173   4.041  0.6192 -1.8040  0.8277
 3647SOL    HW222401   4.255   2.201   3.906 -2.3118 -1.7191  2.8897
 3648SOL     OW22402   3.429   2.077   4.389  0.3076 -0.6893  0.3347
 3648SOL    HW122403   3.520   2.066   4.418  0.3420 -0.1250  0.4507
 3648SOL    HW222404   3.419   2.024   4.310 -2.1026 -2.8853  2.1255
 3649SOL     OW22405   0.871   3.527   4.962 -0.6784  0.4147  0.0928
 3649SOL    HW122406   0.886   3.443   4.918 -1.1892  0.5324 -0.3028
 3649SOL    HW222407   0.959   3.562   4.977 -0.5772 -0.2157  0.9157
 3650SOL     OW22408   3.043   1.211   2.831 -0.0788  0.1326 -0.2643
 3650SOL    HW122409   3.137   1.217   2.846  0.0691 -0.8591 -0.7907
 3650SOL    HW222410   3.033   1.286   2.772 -1.9123  0.7452  0.8297
 3651SOL     OW22411   0.498   1.246   6.544  0.1111  0.4606  0.1084
 3651SOL    HW122412   0.561   1.312   6.572 -0.1889 -0.2202  2.3448
 3651SOL    HW222413   0.441   1.306   6.496  0.9351  0.8419 -0.4010
 3652SOL     OW22414   4.402   4.014   2.900 -0.4244 -0.2987  0.7477
 3652SOL    HW122415   4.367   4.095   2.936 -0.7696  0.5073 -1.4120
 3652SOL    HW222416   4.349   3.949   2.945 -0.9383  0.0499  0.6540
 3653SOL     OW22417   4.538   3.323   2.036  0.0017  0.3076  0.1529
 3653SOL    HW122418   4.507   3.364   2.117 -2.7337 -1.3507 -0.0668
 3653SOL    HW222419   4.632   3.313   2.051 -0.1763 -0.0340  1.0816
 3654SOL     OW22420   2.643   0.809   3.283 -0.2389 -0.3082  0.1637
 3654SOL    HW122421   2.645   0.886   3.226  0.4470  0.2728  0.9497
 3654SOL    HW222422   2.601   0.744   3.227 -0.9154 -0.1988  0.5477
 3655SOL     OW22423   0.143   1.291   5.928 -0.3503 -0.5894 -0.0381
 3655SOL    HW122424   0.189   1.214   5.894 -0.6491 -0.5499 -0.5237
 3655SOL    HW222425   0.076   1.249   5.982  0.4926 -3.5280 -1.2548
 3656SOL     OW22426   0.374   1.811   8.335  0.1195  0.3240  0.0402
 3656SOL    HW122427   0.469   1.814   8.349 -0.0975 -2.8190  2.3751
 3656SOL    HW222428   0.332   1.752   8.398 -0.6831  1.8646  0.9503
 3657SOL     OW22429   2.791   4.335   7.011  0.5196  0.2789 -0.5287
 3657SOL    HW122430   2.797   4.307   7.102  0.2331 -0.3071 -0.6859
 3657SOL    HW222431   2.697   4.353   7.002  0.6398  2.1084  2.0168
 3658SOL     OW22432   2.805   1.973  15.892  0.4200  0.0914  0.0805
 3658SOL    HW122433   2.783   2.003  15.804 -1.6197 -0.7870  0.2713
 3658SOL    HW222434   2.863   1.901  15.871 -0.2395 -0.2188 -0.6791
 3659SOL     OW22435   1.049   4.265   8.531 -0.3529 -0.0394  0.3433
 3659SOL    HW122436   1.098   4.202   8.582 -0.1478  0.6930  1.0495
 3659SOL    HW222437   1.070   4.351   8.567  0.9803  0.3437 -1.3777
 3660SOL     OW22438   2.229   1.045   5.639 -0.1308  0.0964 -0.2767
 3660SOL    HW122439   2.273   0.969   5.676 -1.0919 -1.2220 -1.7930
 3660SOL    HW222440   2.202   1.008   5.554 -0.1820 -1.9370  0.6149
 3661SOL     OW22441   0.862   0.443  11.372 -0.2162 -0.3202 -0.5128
 3661SOL    HW122442   0.936   0.416  11.317 -0.4271  0.3007 -1.0965
 3661SOL    HW222443   0.908   0.427  11.454  1.1550 -1.0529 -1.4116
 3662SOL     OW22444   2.458   1.850  14.688  0.4903  0.4380 -0.4862
 3662SOL    HW122445   2.478   1.771  14.739  0.8506  1.7610  1.4016
 3662SOL    HW222446   2.432   1.813  14.604  0.0483  0.5345 -0.3939
 3663SOL     OW22447   0.788   0.294   1.752 -0.0898 -0.6538  0.0758
 3663SOL    HW122448   0.694   0.312   1.757 -0.0620 -0.3043 -0.8566
 3663SOL    HW222449   0.815   0.252   1.671  0.2828  2.2939 -1.2994
 3664SOL     OW22450   0.766   0.262   9.567  0.0532 -0.3051  0.2402
 3664SOL    HW122451   0.759   0.278   9.473 -1.6896  2.2480  0.7741
 3664SOL    HW222452   0.823   0.335   9.592 -1.1194  0.8604 -0.4409
 3665SOL     OW22453   3.234   1.477   6.849  0.2105  0.6696 -0.0517
 3665SOL    HW122454   3.312   1.526   6.876  0.7490 -0.1105 -0.2040
 3665SOL    HW222455   3.170   1.546   6.871 -0.1668  0.9511 -2.0531
 3666SOL     OW22456   0.501   4.289   6.609 -0.5457  0.4176 -0.2012
 3666SOL    HW122457   0.543   4.348   6.547  0.7134  0.5600  0.7704
 3666SOL    HW222458   0.486   4.346   6.685  1.3084  0.5741  0.0527
 3667SOL     OW22459   0.548   1.540   3.934 -0.3857 -0.5529  0.5749
 3667SOL    HW122460   0.638   1.551   3.906 -0.3957 -0.0221  0.7674
 3667SOL    HW222461   0.527   1.619   3.984 -0.0499  0.1538 -0.3945
 3668SOL     OW22462   2.887   4.445   8.312  0.0525  0.4135 -0.0344
 3668SOL    HW122463   2.883   4.352   8.290  1.0835  0.0377  1.3552
 3668SOL    HW222464   2.949   4.482   8.250  1.8671 -0.7883  1.0477
 3669SOL     OW22465   4.472   2.338   8.538  0.0736  0.2304 -0.4643
 3669SOL    HW122466   4.553   2.385   8.558  0.0938 -0.8444  1.9887
 3669SOL    HW222467   4.506   2.290   8.463  0.8698 -0.6395  0.4382
 3670SOL     OW22468   3.401   4.163   5.991 -0.5322  0.2779 -0.2728
 3670SOL    HW122469   3.455   4.239   5.968  1.7894 -1.8639 -1.9164
 3670SOL    HW222470   3.333   4.208   6.042  2.0008 -0.0455  3.3427
 3671SOL     OW22471   0.964   3.005  14.295  0.1116 -0.1544 -0.0618
 3671SOL    HW122472   0.908   2.972  14.366  0.8626  0.9338  1.0282
 3671SOL    HW222473   0.923   2.959  14.221 -0.3033  0.4957 -0.2318
 3672SOL     OW22474   2.014   0.592   9.046 -0.1191  0.2151  0.2529
 3672SOL    HW122475   1.958   0.603   9.123  1.8523  1.5469  1.5342
 3672SOL    HW222476   2.100   0.575   9.085  0.4286  0.7080 -0.7511
 3673SOL     OW22477   1.893   1.154   4.481  0.4687 -0.2113  0.2358
 3673SOL    HW122478   1.895   1.248   4.501 -0.6400 -0.5048  1.7484
 3673SOL    HW222479   1.955   1.157   4.409 -0.2713 -2.2858 -0.5034
 3674SOL     OW22480   1.982   0.558   2.312  0.3180  0.3438  0.5149
 3674SOL    HW122481   1.910   0.499   2.335 -0.0596  0.5493 -0.1465
 3674SOL    HW222482   2.046   0.520   2.371 -0.2712  0.6415  1.3466
 3675SOL     OW22483   3.189   3.283   2.425 -0.5258  0.3697 -0.8467
 3675SOL    HW122484   3.215   3.354   2.484 -2.5581  0.5866 -0.2280
 3675SOL    HW222485   3.120   3.332   2.382 -0.0579  3.8901  2.4254
 3676SOL     OW22486   4.117   0.715  11.597 -0.5530  0.4877  0.0798
 3676SOL    HW122487   4.193   0.696  11.541 -0.2744  4.3168 -0.8179
 3676SOL    HW222488   4.119   0.640  11.656  0.7211 -0.3883 -1.0652
 3677SOL     OW22489   3.591   3.657   1.092 -0.3886  0.2647  0.1576
 3677SOL    HW122490   3.522   3.650   1.026  0.7573  0.9600 -1.1103
 3677SOL    HW222491   3.579   3.577   1.144  2.2261  0.2084  0.6860
 3678SOL     OW22492   1.327   3.508   9.113  0.2507  0.6110 -0.5566
 3678SOL    HW122493   1.361   3.593   9.140  0.6195  0.4508 -0.5239
 3678SOL    HW222494   1.382   3.444   9.158  0.1271  1.3584  0.6494
 3679SOL     OW22495   0.247   1.262   2.037 -0.3589 -0.5080 -0.4789
 3679SOL    HW122496   0.310   1.328   2.066 -0.9675  0.1189 -0.5788
 3679SOL    HW222497   0.170   1.319   2.043 -0.2089 -0.4921  1.3384
 3680SOL     OW22498   1.586   4.392   5.176 -0.0583 -0.0240 -0.2758
 3680SOL    HW122499   1.653   4.435   5.122 -0.4207  1.5101  0.5012
 3680SOL    HW222500   1.649   4.325   5.204 -0.2763 -0.2267 -0.2708
 3681SOL     OW22501   1.150   3.969  10.688  0.3657 -0.2228 -0.4691
 3681SOL    HW122502   1.188   3.890  10.650  1.2081 -0.0133 -0.0722
 3681SOL    HW222503   1.136   3.932  10.775  0.9664 -0.4846 -0.4843
 3682SOL     OW22504   0.948   0.336   8.383  0.2830  0.1748 -0.2563
 3682SOL    HW122505   0.901   0.255   8.363 -1.4104  1.5155 -1.7082
 3682SOL    HW222506   0.895   0.367   8.457 -1.9447 -0.0325 -1.7729
 3683SOL     OW22507   2.161   3.459   6.905  0.2670  0.4531  0.0256
 3683SOL    HW122508   2.138   3.549   6.927  0.5842  0.3947  0.5794
 3683SOL    HW222509   2.256   3.466   6.900  0.0967  2.9165  0.2339
 3684SOL     OW22510   4.674   0.053  12.725  0.4693  0.5167 -0.0176
 3684SOL    HW122511   4.706   0.106  12.798  1.2803  0.1178 -0.0863
 3684SOL    HW222512   0.022   0.073  12.668  2.3256 -1.8552  1.5364
 3685SOL     OW22513   2.804   3.290   5.382 -0.1302  0.0619  0.1181
 3685SOL    HW122514   2.763   3.210   5.348 -1.4306  0.6484  0.2771
 3685SOL    HW222515   2.836   3.270   5.470  0.9884  0.2314 -0.2536
 3686SOL     OW22516   3.751   4.585  14.641  0.4193 -0.0609  0.6706
 3686SOL    HW122517   3.763   4.503  14.592  0.8381 -0.8115  2.0169
 3686SOL    HW222518   3.695   4.557  14.713 -0.5770  0.3855  0.0617
 3687SOL     OW22519   4.178   2.635   2.337  0.1084 -0.3286 -0.7068
 3687SOL    HW122520   4.266   2.621   2.301  0.5662 -0.0502  0.3149
 3687SOL    HW222521   4.139   2.687   2.267  0.1641 -2.8618 -2.5904
 3688SOL     OW22522   3.130   2.162   6.296 -0.2023 -0.6391 -0.1558
 3688SOL    HW122523   3.210   2.174   6.347 -0.0870 -0.1269 -0.4500
 3688SOL    HW222524   3.166   2.140   6.210 -1.8068  0.7767 -1.1962
 3689SOL     OW22525   1.669   0.047   3.777 -0.1469  0.2873 -0.4582
 3689SOL    HW122526   1.575   0.052   3.759 -0.1478  1.5419 -0.0463
 3689SOL    HW222527   1.699   0.116   3.718  0.6839 -1.4417 -2.0743
 3690SOL     OW22528   2.107   2.756   6.122 -0.1103  0.4538 -0.0594
 3690SOL    HW122529   2.016   2.778   6.100 -0.3140 -0.7906 -0.4563
 3690SOL    HW222530   2.102   2.758   6.218  1.2725 -0.9031  0.0369
 3691SOL     OW22531   3.626   4.182   4.976 -0.0108 -0.0968 -0.6020
 3691SOL    HW122532   3.581   4.177   5.060 -1.3797  0.5873 -1.2912
 3691SOL    HW222533   3.607   4.273   4.954 -2.4738 -0.3665  0.4443
 3692SOL     OW22534   1.239   0.854   5.854  0.1417  0.2659  0.8220
 3692SOL    HW122535   1.217   0.775   5.903  2.1638 -0.7623  0.0762
 3692SOL    HW222536   1.300   0.830   5.784  1.8151  1.0617  2.0157
 3693SOL     OW22537   1.890   0.832   3.614  0.0954 -0.4588 -0.1587
 3693SOL    HW122538   1.865   0.832   3.706  1.7467 -0.8390  0.3083
 3693SOL    HW222539   1.852   0.917   3.594  2.6631  0.4707 -1.0782
 3694SOL     OW22540   0.441   0.284   7.511  0.0345 -0.0834 -0.6327
 3694SOL    HW122541   0.426   0.375   7.485 -0.8939  0.2260  1.0130
 3694SOL    HW222542   0.394   0.284   7.595  0.0240 -1.9525 -0.6478
 3695SOL     OW22543   0.670   4.221  12.674  0.3323 -0.0079 -0.4523
 3695SOL    HW122544   0.715   4.196  12.593  2.0884  0.0592  0.5116
 3695SOL    HW222545   0.731   4.188  12.740  0.2584  0.4865 -0.1337
 3696SOL     OW22546   0.251   3.144   0.573 -0.1311 -0.0513  0.9522
 3696SOL    HW122547   0.175   3.145   0.632  0.7475  0.4830  2.0671
 3696SOL    HW222548   0.307   3.215   0.603  1.4634 -2.4946  3.7594
 3697SOL     OW22549   3.513   2.125   1.751  0.4712 -0.6545 -0.8978
 3697SOL    HW122550   3.489   2.105   1.660 -0.5820  0.4282 -0.8615
 3697SOL    HW222551   3.429   2.166   1.772  1.0720 -0.0548  0.3281
 3698SOL     OW22552   2.096   4.649  12.042  0.5502  0.5716  0.1906
 3698SOL    HW122553   2.182   4.685  12.059  0.8549  1.3789 -3.1138
 3698SOL    HW222554   2.048   0.006  12.047 -2.5196 -1.0837 -1.7661
 3699SOL     OW22555   3.428   1.846   0.706 -0.1119  0.0433 -0.1480
 3699SOL    HW122556   3.509   1.815   0.746  0.2843 -0.5966 -1.4243
 3699SOL    HW222557   3.367   1.786   0.750  1.2851 -0.1067  1.5575
 3700SOL     OW22558   2.241   0.643   0.696 -0.0346  0.1614  0.0953
 3700SOL    HW122559   2.280   0.604   0.774 -0.9573 -0.0087  0.4607
 3700SOL    HW222560   2.237   0.737   0.713  0.4130  0.2981 -0.5469
 3701SOL     OW22561   3.711   3.976   5.217 -0.7145 -0.2935  0.2473
 3701SOL    HW122562   3.694   4.038   5.288 -1.4699 -2.4310  1.9300
 3701SOL    HW222563   3.787   4.024   5.186 -0.4072 -1.5401 -0.9480
 3702SOL     OW22564   3.632   0.266   3.312 -0.3632  0.2156  0.1170
 3702SOL    HW122565   3.655   0.231   3.398  0.7684 -0.0004 -0.2801
 3702SOL    HW222566   3.673   0.198   3.259  1.2624  1.4563 -0.2026
 3703SOL     OW22567   0.163   4.348  14.097  0.0981 -0.0368  0.2270
 3703SOL    HW122568   0.129   4.434  14.073  2.2166  1.1192  1.3314
 3703SOL    HW222569   0.176   4.314  14.009  0.5742  0.9510 -0.0774
 3704SOL     OW22570   2.177   2.465   0.174  0.1138  0.4932 -0.1241
 3704SOL    HW122571   2.170   2.476   0.269 -2.0966 -0.0203 -0.2243
 3704SOL    HW222572   2.249   2.404   0.158 -1.8953 -1.4368 -1.9381
 3705SOL     OW22573   1.257   4.262   6.868  0.6505  0.2277 -0.4732
 3705SOL    HW122574   1.227   4.268   6.777 -1.1136 -0.4915  0.0734
 3705SOL    HW222575   1.301   4.177   6.871  2.1738  1.0440  0.5888
 3706SOL     OW22576   4.641   3.894   3.314 -0.4036  0.7378 -0.5196
 3706SOL    HW122577   0.010   3.877   3.320 -0.2054  1.7600 -0.6952
 3706SOL    HW222578   4.639   3.906   3.219  1.2046 -0.1501 -0.6603
 3707SOL     OW22579   3.347   4.473  11.950 -0.0041 -0.2023 -0.0014
 3707SOL    HW122580   3.287   4.548  11.946  0.9828  0.5556 -0.7005
 3707SOL    HW222581   3.422   4.515  11.993 -0.3217 -0.8363  1.1509
 3708SOL     OW22582   3.173   2.627  11.850 -0.5745 -0.2819 -0.3888
 3708SOL    HW122583   3.191   2.534  11.838 -4.6876 -0.9756 -0.9479
 3708SOL    HW222584   3.079   2.625  11.865 -0.3474 -1.1503  0.9624
 3709SOL     OW22585   2.621   1.939  13.874  0.1397  0.3816 -0.1870
 3709SOL    HW122586   2.542   1.922  13.925  0.2876  2.1814  0.6316
 3709SOL    HW222587   2.583   1.953  13.787  1.0303 -1.2518 -0.8575
 3710SOL     OW22588   2.427   1.307   3.727 -0.2848  0.3984 -0.2349
 3710SOL    HW122589   2.347   1.259   3.749  0.0861  0.0098  0.2629
 3710SOL    HW222590   2.483   1.232   3.707  0.4709  1.0146 -0.4408
 3711SOL     OW22591   3.693   2.718   7.208  0.4793 -0.1949  0.5724
 3711SOL    HW122592   3.779   2.690   7.239  0.4634  0.2840  1.0413
 3711SOL    HW222593   3.696   2.813   7.218 -2.1490 -0.2053  1.4500
 3712SOL     OW22594   3.106   1.852   6.329  0.1442 -0.2977  0.3204
 3712SOL    HW122595   3.118   1.943   6.353  2.5074 -0.9584  1.7278
 3712SOL    HW222596   3.031   1.850   6.270  0.6835 -1.7978 -0.3470
 3713SOL     OW22597   0.676   0.774  15.725  0.9410 -0.6598 -0.6236
 3713SOL    HW122598   0.603   0.735  15.773  0.8881  0.2604  0.0337
 3713SOL    HW222599   0.749   0.739  15.777 -0.6126 -1.2273  1.1563
 3714SOL     OW22600   0.966   0.181   7.756  0.1571  0.3708 -0.4612
 3714SOL    HW122601   0.890   0.214   7.708  0.1126  2.4195  1.0105
 3714SOL    HW222602   0.986   0.252   7.818  1.3422 -1.0883  0.8291
 3715SOL     OW22603   3.643   0.050   5.584 -0.5144 -0.2030 -0.0727
 3715SOL    HW122604   3.611   0.118   5.644 -0.9479 -0.5277  0.0694
 3715SOL    HW222605   3.578   4.706   5.596  0.8104 -1.0102  2.3674
 3716SOL     OW22606   4.114   3.810   5.253  0.1693 -0.5038  0.0809
 3716SOL    HW122607   4.028   3.768   5.261 -0.0549 -0.2332 -1.0066
 3716SOL    HW222608   4.125   3.861   5.333  0.5985  1.3253 -1.1680
 3717SOL     OW22609   4.318   0.817   4.552  0.3760  0.3877  0.5559
 3717SOL    HW122610   4.277   0.896   4.588 -0.6665  0.4774 -0.8396
 3717SOL    HW222611   4.381   0.855   4.492 -1.0499  0.5636 -0.8238
 3718SOL     OW22612   1.692   4.252   3.753 -0.3682  0.2593  0.6220
 3718SOL    HW122613   1.745   4.177   3.726  0.7119  1.0264  0.6294
 3718SOL    HW222614   1.768   4.310   3.753  0.4247 -0.7762  0.8319
 3719SOL     OW22615   0.129   4.564   6.865  0.0533  0.1934 -0.5019
 3719SOL    HW122616   0.132   4.608   6.949  1.2672 -1.2073  0.1892
 3719SOL    HW222617   0.174   4.626   6.808 -0.5201 -0.0081 -1.1756
 3720SOL     OW22618   1.636   0.699   7.562 -0.3881  0.1936  0.6908
 3720SOL    HW122619   1.650   0.786   7.524 -0.6012 -0.4455 -0.8396
 3720SOL    HW222620   1.560   0.725   7.615 -0.3351 -2.0824  1.8458
 3721SOL     OW22621   1.385   4.405   7.087 -0.0637 -0.2597  0.2829
 3721SOL    HW122622   1.336   4.357   7.020  0.0711  1.2596 -0.9078
 3721SOL    HW222623   1.461   4.427   7.032 -1.7057 -0.1320 -1.9690
 3722SOL     OW22624   1.737   1.637   1.206 -0.1891  0.2816 -0.1416
 3722SOL    HW122625   1.796   1.595   1.268 -1.3360  2.8716  2.6610
 3722SOL    HW222626   1.803   1.684   1.154  0.0733  0.0316 -0.0375
 3723SOL     OW22627   3.925   3.032   5.752 -0.6809  0.2528  0.5639
 3723SOL    HW122628   4.012   3.055   5.720 -0.4087  0.9560  1.7737
 3723SOL    HW222629   3.940   2.941   5.779 -0.9312  0.1321  0.2849
 3724SOL     OW22630   3.948   3.832  15.093  0.2910 -0.1151 -0.2504
 3724SOL    HW122631   3.895   3.754  15.112  2.1498 -1.5852 -1.1441
 3724SOL    HW222632   3.995   3.817  15.011  0.8477  0.2517 -0.0017
 3725SOL     OW22633   0.987   0.248   3.849  0.2519  0.0124 -0.0403
 3725SOL    HW122634   0.924   0.319   3.842  0.3306  0.1934  1.1199
 3725SOL    HW222635   0.931   0.175   3.876 -0.7907 -0.1717 -2.6837
 3726SOL     OW22636   2.699   0.611   9.681  0.4997  0.1364 -0.2144
 3726SOL    HW122637   2.655   0.693   9.657  0.1144  0.3479  1.2137
 3726SOL    HW222638   2.628   0.557   9.716  0.1571 -0.4228 -1.7449
 3727SOL     OW22639   0.817   3.470   0.562  0.1988  0.3494  0.0608
 3727SOL    HW122640   0.750   3.525   0.520 -0.2493  1.4815  2.2878
 3727SOL    HW222641   0.805   3.496   0.653  0.8501  0.0866  0.2219
 3728SOL     OW22642   1.292   4.686   6.211 -0.8052 -0.2084  0.6151
 3728SOL    HW122643   1.255   0.047   6.224  0.4098  0.5378 -0.9075
 3728SOL    HW222644   1.346   4.658   6.286  0.3132  0.2267 -0.0240
 3729SOL     OW22645   2.105   0.505   6.834  0.2479  0.4588  0.0509
 3729SOL    HW122646   2.123   0.598   6.845 -1.0074  0.8556 -1.2324
 3729SOL    HW222647   2.174   0.494   6.768 -1.5617  1.4559 -2.0169
 3730SOL     OW22648   2.885   2.997   4.918  0.8852 -0.0894 -0.4189
 3730SOL    HW122649   2.856   2.911   4.949  0.1452  0.3332  0.0647
 3730SOL    HW222650   2.962   3.021   4.969  2.0369 -2.9221 -0.8618
 3731SOL     OW22651   0.319   3.793   3.974 -0.1977  0.3726 -0.0657
 3731SOL    HW122652   0.267   3.859   3.929  2.0311  2.2901  0.1744
 3731SOL    HW222653   0.249   3.741   4.015  2.6024 -1.8287  1.9054
 3732SOL     OW22654   3.271   0.687  11.782  0.4952  0.2584  0.7899
 3732SOL    HW122655   3.181   0.718  11.771  0.5999  0.0697 -0.6402
 3732SOL    HW222656   3.320   0.754  11.829 -0.1113  1.3230 -0.0757
 3733SOL     OW22657   0.089   0.054   0.184 -0.4705  0.0773 -0.0575
 3733SOL    HW122658   0.181   0.035   0.163  0.1051 -0.3816  2.8918
 3733SOL    HW222659   0.093   0.145   0.154 -0.5483 -0.2093 -0.9177
 3734SOL     OW22660   1.277   4.576   8.156 -0.0745 -1.0469 -0.2059
 3734SOL    HW122661   1.306   4.485   8.160 -3.2759 -2.0106  0.4200
 3734SOL    HW222662   1.250   4.577   8.064 -1.0358  0.7124  0.1108
 3735SOL     OW22663   3.884   2.275  16.815  0.3327  0.5398  0.1667
 3735SOL    HW122664   3.973   2.242  16.813  0.4821  0.9148  0.7524
 3735SOL    HW222665   3.885   2.330  16.736 -0.1667  0.7068  0.2735
 3736SOL     OW22666   4.384   1.907  15.219 -0.0456 -0.0483 -0.1782
 3736SOL    HW122667   4.301   1.954  15.212 -0.4181 -0.9378 -1.7872
 3736SOL    HW222668   4.434   1.943  15.145 -1.6111 -2.1570 -2.2728
 3737SOL     OW22669   1.164   2.308   5.502  0.8646  0.0169  0.0103
 3737SOL    HW122670   1.195   2.234   5.451 -0.1052 -0.8416  0.6684
 3737SOL    HW222671   1.070   2.292   5.499  0.6715  1.5019 -1.6011
 3738SOL     OW22672   1.648   4.337   9.992  0.2343  0.1692  0.0801
 3738SOL    HW122673   1.708   4.290  10.050  1.3715 -0.2142 -1.3906
 3738SOL    HW222674   1.694   4.421   9.984  1.5244 -0.5891 -0.3490
 3739SOL     OW22675   4.162   0.534  10.737  0.0219  0.8107 -0.1537
 3739SOL    HW122676   4.250   0.541  10.701  0.2397  0.7977  0.3670
 3739SOL    HW222677   4.180   0.539  10.831 -2.9435  0.4171  0.4287
 3740SOL     OW22678   3.925   4.591  11.101 -0.2426  0.8504  0.0667
 3740SOL    HW122679   4.018   4.608  11.086 -0.2225  1.6466  1.0251
 3740SOL    HW222680   3.907   4.543  11.020  1.7180  0.2387  0.0127
 3741SOL     OW22681   0.062   1.011   8.770 -0.2642 -0.0997 -0.3522
 3741SOL    HW122682   0.038   1.087   8.717  1.1504 -0.1404 -1.0589
 3741SOL    HW222683   0.141   1.051   8.808 -0.8159  0.5407  0.1247
 3742SOL     OW22684   1.738   2.602  12.981  0.2161 -0.1833 -0.1498
 3742SOL    HW122685   1.723   2.693  13.009 -1.6951 -0.2348 -1.0023
 3742SOL    HW222686   1.801   2.584  13.051  0.5934  0.2562 -0.3788
 3743SOL     OW22687   0.597   1.562   9.733  0.0783  0.0798 -0.2423
 3743SOL    HW122688   0.642   1.616   9.667  0.7708  1.9022  1.6852
 3743SOL    HW222689   0.551   1.493   9.686 -1.1533  0.2391  0.7367
 3744SOL     OW22690   4.240   1.580  16.585  0.6552 -0.1985  0.0608
 3744SOL    HW122691   4.167   1.557  16.643 -0.9956  0.7212 -1.6415
 3744SOL    HW222692   4.205   1.654  16.535 -0.9807 -1.2899 -0.3976
 3745SOL     OW22693   0.045   4.548   7.762  0.0987 -0.3986  0.9305
 3745SOL    HW122694   4.718   4.606   7.706  4.5481  1.3987 -1.3369
 3745SOL    HW222695   0.000   4.468   7.734  1.0241  0.0682 -1.9492
 3746SOL     OW22696   1.350   1.246   6.283 -0.0582  0.6487 -0.3986
 3746SOL    HW122697   1.269   1.228   6.330  0.1819  1.8510  0.4792
 3746SOL    HW222698   1.309   1.256   6.197 -0.0862  1.0345 -0.3415
 3747SOL     OW22699   4.350   0.617   8.357  0.0089 -0.1286 -0.1838
 3747SOL    HW122700   4.380   0.564   8.431 -0.1779 -0.1385 -0.1144
 3747SOL    HW222701   4.270   0.567   8.337 -0.1761  0.1691 -0.1845
 3748SOL     OW22702   1.230   3.868   2.406  0.4737  0.3435  0.0558
 3748SOL    HW122703   1.181   3.922   2.344 -1.8281 -0.0605  1.5309
 3748SOL    HW222704   1.304   3.929   2.406  1.2254 -0.5934  2.3757
 3749SOL     OW22705   4.611   2.187  14.859  0.4829  0.0134  0.6448
 3749SOL    HW122706   4.584   2.219  14.946 -2.4984 -1.8557  0.4252
 3749SOL    HW222707   4.556   2.234  14.797  1.0583 -0.8666 -0.5130
 3750SOL     OW22708   2.280   3.541   0.346  0.3646  0.3112 -0.3964
 3750SOL    HW122709   2.245   3.517   0.261 -1.4099 -1.0337  0.7281
 3750SOL    HW222710   2.233   3.624   0.345 -0.2692 -0.0151  3.0730
 3751SOL     OW22711   3.154   0.411   6.446 -0.2502 -0.0949  0.3098
 3751SOL    HW122712   3.155   0.368   6.531 -2.2874 -1.5786 -0.4283
 3751SOL    HW222713   3.072   0.460   6.453 -0.0402  0.4861 -1.2678
 3752SOL     OW22714   3.545   4.479   8.578  0.0943 -0.5748 -0.1175
 3752SOL    HW122715   3.506   4.558   8.614  2.9244  0.2146  1.2056
 3752SOL    HW222716   3.639   4.493   8.590 -0.1454  0.2200  0.8480
 3753SOL     OW22717   4.144   3.438   5.435 -0.0472  0.8971  0.1932
 3753SOL    HW122718   4.238   3.445   5.454  0.5869 -2.4381 -1.7002
 3753SOL    HW222719   4.133   3.469   5.345  0.2873 -0.2112 -0.2383
 3754SOL     OW22720   1.031   0.880   3.444  0.2232 -0.6134  0.6485
 3754SOL    HW122721   1.038   0.939   3.519  2.0650  0.7650 -0.6145
 3754SOL    HW222722   1.065   0.801   3.488 -0.8530 -1.4330  0.0142
 3755SOL     OW22723   0.199   2.572   6.706  0.3558  0.7043 -0.4340
 3755SOL    HW122724   0.230   2.662   6.717 -0.5852  1.1375 -1.3507
 3755SOL    HW222725   0.124   2.587   6.648  3.9227  0.4529 -5.1110
 3756SOL     OW22726   3.759   1.632  14.490 -0.6976 -0.1124 -0.0866
 3756SOL    HW122727   3.788   1.648  14.400 -0.1959 -1.4562 -0.1737
 3756SOL    HW222728   3.781   1.539  14.500 -1.7169 -0.1444  1.8150
 3757SOL     OW22729   4.611   1.298   8.888 -0.1468 -0.6737 -0.1899
 3757SOL    HW122730   4.530   1.318   8.840 -0.3073 -0.2673  0.2528
 3757SOL    HW222731   4.666   1.252   8.825  2.1031  0.2122  1.1412
 3758SOL     OW22732   2.625   3.785   2.805 -0.1637 -0.4237  0.3293
 3758SOL    HW122733   2.602   3.695   2.828  1.0159 -1.2609 -1.8058
 3758SOL    HW222734   2.620   3.785   2.709  0.6843  2.2437  0.3007
 3759SOL     OW22735   4.485   0.227   0.328  0.3051 -0.2664 -0.1659
 3759SOL    HW122736   4.419   0.191   0.269  1.3637  0.4965 -1.8342
 3759SOL    HW222737   4.527   0.146   0.358 -1.7628 -0.7353  1.4114
 3760SOL     OW22738   2.532   3.797   6.865  0.5296  0.0031 -0.6536
 3760SOL    HW122739   2.611   3.836   6.903  1.2366 -1.1931 -0.9142
 3760SOL    HW222740   2.548   3.801   6.770 -0.6999 -2.5166 -0.9587
 3761SOL     OW22741   1.815   1.205   3.489  0.6721  0.6184  0.5197
 3761SOL    HW122742   1.801   1.157   3.571 -1.0838  0.2645  0.0237
 3761SOL    HW222743   1.727   1.232   3.462  0.9554  0.8970 -0.1323
 3762SOL     OW22744   3.926   1.891   4.416 -0.6287 -0.0381  0.3053
 3762SOL    HW122745   3.988   1.898   4.343 -1.1082 -0.4333 -0.1327
 3762SOL    HW222746   3.882   1.811   4.389 -1.1047  0.7821 -1.3428
 3763SOL     OW22747   0.943   1.683  12.682 -0.5605 -0.8754  0.4691
 3763SOL    HW122748   1.032   1.664  12.711 -1.0010 -0.8947  1.8252
 3763SOL    HW222749   0.934   1.628  12.605 -2.1203 -0.2150  0.1769
 3764SOL     OW22750   1.558   1.531   7.939  0.3047  0.1202  0.2622
 3764SOL    HW122751   1.566   1.626   7.932 -1.5927  0.3210  0.9113
 3764SOL    HW222752   1.648   1.505   7.917 -0.0720 -2.1849  1.4229
 3765SOL     OW22753   4.605   0.653   4.833  0.1066  0.3339 -0.8050
 3765SOL    HW122754   4.638   0.743   4.825  1.8410 -0.2423 -0.1326
 3765SOL    HW222755   4.682   0.599   4.849  0.3486  0.9433  0.0573
 3766SOL     OW22756   0.310   0.926   7.064 -0.0925  0.3385 -0.0009
 3766SOL    HW122757   0.383   0.895   7.010 -1.3357 -1.2144 -0.8073
 3766SOL    HW222758   0.244   0.950   6.999 -0.7699  1.3577  1.0779
 3767SOL     OW22759   2.115   4.096  12.157  0.1621 -0.5342 -0.3451
 3767SOL    HW122760   2.086   4.147  12.232 -0.9698  0.0496 -1.1830
 3767SOL    HW222761   2.205   4.074  12.181 -0.1354 -0.2063  1.0686
 3768SOL     OW22762   3.345   4.470   3.380  0.0041  0.6531  0.6470
 3768SOL    HW122763   3.441   4.475   3.385  0.0306  1.5088 -0.7911
 3768SOL    HW222764   3.332   4.535   3.311 -1.6386  0.2008  0.5427
 3769SOL     OW22765   3.578   1.299   3.901  0.5316 -0.7435 -0.2804
 3769SOL    HW122766   3.541   1.261   3.821 -0.7534  1.9539 -0.9712
 3769SOL    HW222767   3.618   1.216   3.928 -1.3257 -1.3093  0.7906
 3770SOL     OW22768   4.323   3.809  16.003 -0.2675 -0.9929  0.1017
 3770SOL    HW122769   4.253   3.867  16.031  1.7759  1.4033  0.2476
 3770SOL    HW222770   4.277   3.756  15.939 -1.7970 -0.0925  0.4615
 3771SOL     OW22771   2.459   1.577  14.231  0.2828 -0.4343  0.5652
 3771SOL    HW122772   2.491   1.565  14.141 -1.7351  3.0380 -0.6305
 3771SOL    HW222773   2.468   1.671  14.246  2.1032 -0.6412  0.7209
 3772SOL     OW22774   0.675   1.043   8.699  0.1222 -0.1366 -0.0811
 3772SOL    HW122775   0.754   1.097   8.698  0.2336 -0.3167 -0.9181
 3772SOL    HW222776   0.627   1.073   8.622  0.4361  2.3246  0.6597
 3773SOL     OW22777   2.479   3.052   0.558 -0.1260  0.1446  0.1657
 3773SOL    HW122778   2.523   3.069   0.642 -0.1719 -0.6756  0.3569
 3773SOL    HW222779   2.487   2.957   0.550 -2.1766 -0.1596  1.6928
 3774SOL     OW22780   0.029   3.789   5.307  0.2329  0.4173 -0.1980
 3774SOL    HW122781   0.085   3.821   5.236  0.2969  1.7724  0.4698
 3774SOL    HW222782   0.092   3.729   5.347 -0.7857  1.2222  2.5803
 3775SOL     OW22783   1.458   2.754  17.632  0.8671  0.2278 -0.9221
 3775SOL    HW122784   1.492   2.773  17.544  2.0996  2.4462  0.0525
 3775SOL    HW222785   1.405   2.679  17.605  0.1413  0.8510 -1.2550
 3776SOL     OW22786   4.076   1.883   8.826  0.0624  0.5957  0.3433
 3776SOL    HW122787   4.128   1.911   8.750 -1.4231 -0.9185 -1.2106
 3776SOL    HW222788   4.143   1.904   8.891  0.8349 -0.8456  0.0052
 3777SOL     OW22789   3.176   3.040   6.045  0.0616  0.2385  0.1552
 3777SOL    HW122790   3.228   3.117   6.066  1.2875 -0.4423 -0.3449
 3777SOL    HW222791   3.090   3.082   6.044 -1.0970 -2.1066 -0.6836
 3778SOL     OW22792   4.386   0.716   2.576  0.3851 -0.4561  0.2821
 3778SOL    HW122793   4.431   0.632   2.587  1.4314  0.0794 -0.0289
 3778SOL    HW222794   4.351   0.720   2.665 -0.5998  2.0871 -0.2362
 3779SOL     OW22795   3.206   2.400   2.214 -0.2612  0.1823 -0.0622
 3779SOL    HW122796   3.260   2.353   2.278 -1.1843 -0.1789  0.4559
 3779SOL    HW222797   3.255   2.395   2.132  1.1816  0.5139  0.7848
 3780SOL     OW22798   2.527   0.686   7.442 -0.1660 -0.0946 -0.2584
 3780SOL    HW122799   2.505   0.713   7.353 -0.1414 -0.0740 -0.2583
 3780SOL    HW222800   2.441   0.669   7.480  0.3678 -1.5715  0.2557
 3781SOL     OW22801   0.186   0.869   0.602 -0.4689  0.0240 -0.2359
 3781SOL    HW122802   0.276   0.899   0.619 -0.3926 -0.0964 -0.4308
 3781SOL    HW222803   0.204   0.777   0.618  0.0579  0.3219  0.8982
 3782SOL     OW22804   1.049   1.918   4.778 -0.1456  0.0967 -0.1188
 3782SOL    HW122805   1.087   1.868   4.706  0.4601 -1.6420  1.3868
 3782SOL    HW222806   1.036   2.002   4.735  0.7003 -0.2693 -1.0978
 3783SOL     OW22807   2.510   0.685   6.639 -0.8422 -0.0675  0.4510
 3783SOL    HW122808   2.602   0.699   6.660 -0.6528  0.8886 -1.0630
 3783SOL    HW222809   2.470   0.767   6.670 -0.7527 -0.1690  0.8370
 3784SOL     OW22810   1.260   1.292   5.032 -0.1979 -0.3979 -0.2834
 3784SOL    HW122811   1.250   1.206   4.991  1.6995 -1.6545  1.8911
 3784SOL    HW222812   1.355   1.286   5.024 -0.0773  0.6094  0.4703
 3785SOL     OW22813   1.956   4.590  14.144 -0.1551 -0.1979  0.5459
 3785SOL    HW122814   1.987   4.538  14.070 -2.1325 -1.8441  0.8849
 3785SOL    HW222815   1.862   4.601  14.129  0.0840  1.1423 -0.0423
 3786SOL     OW22816   2.682   3.611   5.000  0.7521 -0.0275 -0.0887
 3786SOL    HW122817   2.598   3.622   4.954 -0.6974  0.1653  2.6442
 3786SOL    HW222818   2.684   3.688   5.057  1.6775 -0.8854  1.0119
 3787SOL     OW22819   4.209   3.960   9.027  0.3236  0.2464  0.7183
 3787SOL    HW122820   4.150   4.022   9.068  0.3472  1.0197 -0.4229
 3787SOL    HW222821   4.153   3.926   8.957  1.8344  1.1588 -0.9270
 3788SOL     OW22822   2.945   1.535  14.559 -0.3278  0.2433 -0.3987
 3788SOL    HW122823   2.945   1.446  14.523  0.8821 -0.6088  1.6775
 3788SOL    HW222824   2.956   1.581  14.476 -0.6672 -0.9420 -1.0970
 3789SOL     OW22825   2.048   4.183   5.663  0.5905 -0.1729  0.0175
 3789SOL    HW122826   2.005   4.101   5.688  1.9296 -1.0479 -0.5498
 3789SOL    HW222827   2.055   4.165   5.570 -0.4612 -1.1118  0.1195
 3790SOL     OW22828   1.353   1.829   0.111  0.3027 -0.1684  0.3753
 3790SOL    HW122829   1.375   1.739   0.087  1.7741  0.0259  1.0335
 3790SOL    HW222830   1.436   1.869   0.136  0.7937  0.0413 -1.5968
 3791SOL     OW22831   1.286   1.608   4.782  0.2426 -0.4995 -0.4066
 3791SOL    HW122832   1.377   1.637   4.785 -0.5433  1.9815 -0.3634
 3791SOL    HW222833   1.298   1.514   4.771 -0.8302 -0.4703 -1.8435
 3792SOL     OW22834   2.134   2.123   4.043  0.0068 -0.3895 -0.3689
 3792SOL    HW122835   2.188   2.112   3.964 -0.5249  3.3798 -1.2694
 3792SOL    HW222836   2.127   2.218   4.041  0.6721 -0.3303  0.3327
 3793SOL     OW22837   2.467   2.375   7.692 -0.5453  0.1038 -0.5385
 3793SOL    HW122838   2.518   2.426   7.630 -0.0596 -0.9077 -0.9639
 3793SOL    HW222839   2.538   2.361   7.754 -0.2134 -0.5612 -1.0721
 3794SOL     OW22840   0.895   1.556   7.602 -0.6245 -0.5187  0.6768
 3794SOL    HW122841   0.840   1.614   7.655  0.7799  0.1644  1.3925
 3794SOL    HW222842   0.974   1.538   7.652 -0.4675  0.0206  0.6190
 3795SOL     OW22843   4.648   4.544  12.895  0.6919  0.3288 -0.1074
 3795SOL    HW122844   4.663   4.633  12.862 -2.8219  0.6535 -0.7984
 3795SOL    HW222845   4.647   4.490  12.816  0.6923 -0.6900  0.5924
 3796SOL     OW22846   2.956   4.178  14.956  0.2342 -0.1685  0.3584
 3796SOL    HW122847   2.889   4.215  14.899  0.1634 -2.4144 -1.0220
 3796SOL    HW222848   3.032   4.234  14.943 -1.0262  1.1147 -1.5617
 3797SOL     OW22849   1.783   1.562   2.147 -1.3021  0.4185  0.1118
 3797SOL    HW122850   1.808   1.610   2.068  0.2817  0.8638  0.8878
 3797SOL    HW222851   1.819   1.474   2.137  0.4822  1.1600 -0.0295
 3798SOL     OW22852   4.321   4.248   3.016  0.3076 -0.3834 -0.7328
 3798SOL    HW122853   4.389   4.253   3.083 -2.5009 -1.8644  2.1869
 3798SOL    HW222854   4.303   4.339   2.993  0.5477  0.3120  1.7933
 3799SOL     OW22855   1.086   2.481  16.615 -0.2177 -0.3338  0.3783
 3799SOL    HW122856   1.037   2.515  16.689  1.4724  2.5969  0.1418
 3799SOL    HW222857   1.076   2.388  16.636 -2.7467 -0.6474 -2.3588
 3800SOL     OW22858   4.663   1.166   1.331 -0.0550  0.1616  0.0250
 3800SOL    HW122859   4.604   1.156   1.256 -0.2943  1.4591  0.0418
 3800SOL    HW222860   0.018   1.137   1.289  1.0585  2.2260  0.7503
 3801SOL     OW22861   3.197   0.661   9.313 -0.9633 -0.1739  0.4963
 3801SOL    HW122862   3.241   0.577   9.308 -2.6676 -1.1062  0.9159
 3801SOL    HW222863   3.106   0.629   9.309 -0.2677 -1.9594 -1.0546
 3802SOL     OW22864   0.768   4.085  17.027 -0.3057 -0.8196  0.3717
 3802SOL    HW122865   0.704   4.051  17.090  0.3250 -0.0411  1.4393
 3802SOL    HW222866   0.783   4.170  17.068  0.0199 -0.4063 -0.6001
 3803SOL     OW22867   3.339   2.127   3.815  0.0473  0.1397 -0.2040
 3803SOL    HW122868   3.250   2.139   3.848  1.2756  0.6270  2.9426
 3803SOL    HW222869   3.340   2.032   3.801  0.1464 -0.0556  1.1284
 3804SOL     OW22870   0.327   0.096   4.280 -0.4026 -0.3821 -0.1507
 3804SOL    HW122871   0.380   0.025   4.244  0.3847  1.3343 -2.4149
 3804SOL    HW222872   0.330   0.156   4.205  1.1113  0.5095  0.6346
 3805SOL     OW22873   4.041   0.342   3.740  0.2043  0.1295 -0.4119
 3805SOL    HW122874   3.983   0.417   3.747 -0.5180 -0.3969 -0.7615
 3805SOL    HW222875   4.121   0.393   3.732  0.8844 -0.8645  0.0790
 3806SOL     OW22876   4.583   3.121   9.124  0.2856  0.4336  0.0952
 3806SOL    HW122877   4.600   3.048   9.063 -2.1117 -0.9405  1.0566
 3806SOL    HW222878   4.560   3.179   9.052 -1.9393 -1.2508 -0.5694
 3807SOL     OW22879   3.540   1.874  16.318 -0.1446 -0.0424  0.0180
 3807SOL    HW122880   3.547   1.938  16.388 -2.4683 -0.2677  0.4700
 3807SOL    HW222881   3.631   1.856  16.294 -0.2625  0.7721 -1.0320
 3808SOL     OW22882   3.679   2.298   2.942  0.0830 -0.4590  0.2824
 3808SOL    HW122883   3.724   2.374   2.979 -1.2279 -0.0773  1.1292
 3808SOL    HW222884   3.721   2.281   2.858 -0.5237 -0.4178 -0.0272
 3809SOL     OW22885   3.808   3.735   3.322  0.1498  0.3637  0.7846
 3809SOL    HW122886   3.735   3.751   3.263 -0.5852 -0.5377  1.4599
 3809SOL    HW222887   3.861   3.813   3.308  0.0021  0.4479  0.6981
 3810SOL     OW22888   0.051   4.397   2.170 -0.2962 -0.2812 -0.5189
 3810SOL    HW122889   4.725   4.462   2.123 -1.8800 -2.3558 -1.6737
 3810SOL    HW222890   0.138   4.416   2.135  1.2908 -2.7981  2.0758
 3811SOL     OW22891   4.524   0.603   5.125  0.1678  0.2244 -0.5590
 3811SOL    HW122892   4.521   0.615   5.030  0.1845 -1.9921 -0.8293
 3811SOL    HW222893   4.558   0.514   5.127  0.2703  0.2650 -0.5107
 3812SOL     OW22894   1.107   1.565   3.571 -0.4669  0.6709  0.2777
 3812SOL    HW122895   1.053   1.500   3.528 -0.0874  0.4605  0.1251
 3812SOL    HW222896   1.123   1.633   3.505  0.0768  0.2062 -0.0671
 3813SOL     OW22897   3.270   4.090   1.380 -0.2177  0.0095 -0.6062
 3813SOL    HW122898   3.238   4.043   1.303  1.2895 -0.5347 -0.8833
 3813SOL    HW222899   3.341   4.030   1.401  0.2447  0.2177 -1.5895
 3814SOL     OW22900   0.475   3.954   8.342 -0.2856 -0.0733  0.0976
 3814SOL    HW122901   0.527   3.904   8.404  1.7004 -1.2136 -2.4841
 3814SOL    HW222902   0.392   3.913   8.367  1.2291 -2.2269  1.5417
 3815SOL     OW22903   2.549   4.531   3.926 -0.1537 -0.3573 -0.2970
 3815SOL    HW122904   2.528   4.519   3.834 -0.6535 -1.4816 -0.0300
 3815SOL    HW222905   2.463   4.549   3.966 -1.2120 -0.3958 -2.5456
 3816SOL     OW22906   3.462   0.774  17.652 -0.6914 -0.6619  0.5190
 3816SOL    HW122907   3.423   0.802  17.569  2.8848  0.5481 -0.7570
 3816SOL    HW222908   3.545   0.822  17.645 -0.8349 -0.2812  1.4668
 3817SOL     OW22909   0.440   3.480   8.343 -0.6754 -0.4567  0.0776
 3817SOL    HW122910   0.430   3.516   8.431 -0.5827 -2.3911  0.8575
 3817SOL    HW222911   0.349   3.481   8.313 -0.4198 -0.0410 -0.6855
 3818SOL     OW22912   0.209   1.969   5.011 -0.4619 -0.5304  0.5046
 3818SOL    HW122913   0.190   2.042   5.070  0.9450 -0.3367  0.7411
 3818SOL    HW222914   0.214   1.894   5.071 -0.7818 -0.0900  1.0841
 3819SOL     OW22915   0.518   3.891  13.616  0.0817 -0.3406 -0.5032
 3819SOL    HW122916   0.453   3.824  13.636 -0.7060  1.1498  2.0008
 3819SOL    HW222917   0.599   3.842  13.633 -0.2839 -1.2890 -1.4873
 3820SOL     OW22918   0.661   1.627  12.755  0.0443 -0.1437  0.5402
 3820SOL    HW122919   0.650   1.641  12.661 -0.1995 -0.7804  0.4784
 3820SOL    HW222920   0.699   1.539  12.758 -1.0405 -0.5912  1.1453
 3821SOL     OW22921   3.716   0.893  11.948 -0.0896  0.1837 -0.1115
 3821SOL    HW122922   3.792   0.918  12.000 -0.4398  1.5335 -0.2604
 3821SOL    HW222923   3.771   0.838  11.893 -0.0917 -0.7336  0.7788
 3822SOL     OW22924   4.484   4.468  12.029  0.5819  0.3549  0.4680
 3822SOL    HW122925   4.560   4.512  12.067 -0.0534  1.6396  0.2548
 3822SOL    HW222926   4.523   4.383  12.009 -1.6368 -0.7717  0.9481
 3823SOL     OW22927   4.386   4.384   2.465  0.2023 -0.3037 -0.1248
 3823SOL    HW122928   4.401   4.354   2.376 -1.3211 -1.9001  0.1393
 3823SOL    HW222929   4.290   4.381   2.456  0.2741 -0.7788 -0.7299
 3824SOL     OW22930   1.042   3.751   7.876  0.7677  0.0733  0.0818
 3824SOL    HW122931   0.967   3.807   7.895  0.1522 -1.4499  2.1706
 3824SOL    HW222932   1.071   3.783   7.791 -1.2436  0.1029 -0.5870
 3825SOL     OW22933   0.660   1.681  12.498  0.3825  0.2428 -0.2461
 3825SOL    HW122934   0.598   1.698  12.427 -1.1493  2.8458  1.7136
 3825SOL    HW222935   0.689   1.769  12.521 -0.0012  0.0786  0.8553
 3826SOL     OW22936   1.845   4.009   7.670 -0.7124  0.2268  0.2272
 3826SOL    HW122937   1.930   3.995   7.627  0.9732  0.6060  3.4416
 3826SOL    HW222938   1.784   3.998   7.598 -0.3266  0.7020 -0.1750
 3827SOL     OW22939   2.481   0.172   4.737 -0.4162 -0.6262 -0.7219
 3827SOL    HW122940   2.439   0.194   4.820 -0.7466 -0.4319 -0.9418
 3827SOL    HW222941   2.485   0.077   4.745  0.2578 -0.6971 -1.8488
 3828SOL     OW22942   0.514   0.291   5.391  0.6268  0.7526 -0.7754
 3828SOL    HW122943   0.533   0.251   5.477  0.7373 -0.6546 -1.4528
 3828SOL    HW222944   0.586   0.267   5.334  0.1100  0.2956 -1.2389
 3829SOL     OW22945   4.242   2.202  12.766  0.3157  0.2090  0.0485
 3829SOL    HW122946   4.306   2.273  12.771 -0.6374  1.3077 -3.9533
 3829SOL    HW222947   4.165   2.225  12.818 -0.8020 -0.3014 -1.4139
 3830SOL     OW22948   2.615   4.458   2.895 -0.1144  0.1812  0.0212
 3830SOL    HW122949   2.685   4.403   2.930 -1.7276  0.7002  4.0967
 3830SOL    HW222950   2.546   4.393   2.880  0.5760 -0.1676 -1.6056
 3831SOL     OW22951   0.767   2.302  10.646 -0.4703  0.6997 -0.0899
 3831SOL    HW122952   0.835   2.275  10.707  0.7906  1.5048 -1.1472
 3831SOL    HW222953   0.705   2.350  10.701 -1.4229 -2.6709  1.8184
 3832SOL     OW22954   2.545   2.341   0.120 -0.0313  0.3252 -0.1059
 3832SOL    HW122955   2.459   2.327   0.079 -0.3398  2.1309 -0.0818
 3832SOL    HW222956   2.548   2.255   0.163  1.8999  0.4299 -0.0201
 3833SOL     OW22957   1.319   2.036  10.772 -0.1116  0.1530  0.3037
 3833SOL    HW122958   1.380   2.104  10.744 -0.3444  0.2260 -0.0216
 3833SOL    HW222959   1.279   2.065  10.854 -0.3856 -0.2416  0.3106
 3834SOL     OW22960   4.330   4.114  10.000 -0.4317  0.4440  0.2638
 3834SOL    HW122961   4.415   4.157   9.990  0.0892 -0.5209  0.5720
 3834SOL    HW222962   4.303   4.144  10.087 -0.3471  2.7966 -0.4997
 3835SOL     OW22963   3.611   4.680   4.407  0.4414  0.6632  0.6238
 3835SOL    HW122964   3.532   4.710   4.362 -0.2465 -2.9688 -0.5720
 3835SOL    HW222965   3.667   0.027   4.380 -0.9558  1.1799 -0.9265
 3836SOL     OW22966   2.025   2.756   3.840  0.8318 -0.8827 -0.1584
 3836SOL    HW122967   1.967   2.804   3.900  2.1116  1.7344 -0.9839
 3836SOL    HW222968   1.962   2.689   3.816 -1.6498  0.9319  1.2498
 3837SOL     OW22969   4.387   3.788   4.292  0.4604 -0.3398 -0.1674
 3837SOL    HW122970   4.482   3.784   4.296  0.4630 -2.8027 -2.6960
 3837SOL    HW222971   4.362   3.834   4.372  0.5830  0.6644 -0.7073
 3838SOL     OW22972   1.009   4.523   9.613  0.0297 -0.4852 -0.3127
 3838SOL    HW122973   1.049   4.594   9.663 -1.6996 -0.3701  0.9105
 3838SOL    HW222974   1.077   4.528   9.546 -1.7552  2.3741 -1.9142
 3839SOL     OW22975   3.196   1.435  14.709 -0.2988  0.0604 -0.0749
 3839SOL    HW122976   3.248   1.430  14.629  1.2983  1.2353  0.8862
 3839SOL    HW222977   3.212   1.528  14.726 -0.2593  0.0181  0.1107
 3840SOL     OW22978   0.081   4.446   3.782  0.4063 -0.0711  0.2761
 3840SOL    HW122979   0.141   4.501   3.733  2.1098 -1.9760  0.2414
 3840SOL    HW222980   0.143   4.382   3.819  1.6765  1.0427  0.0462
 3841SOL     OW22981   2.711   3.931  14.858  0.5619  0.0249 -0.5956
 3841SOL    HW122982   2.756   3.939  14.942  3.2573  0.5698 -2.0796
 3841SOL    HW222983   2.674   4.019  14.860  2.7319  0.9299  0.1534
 3842SOL     OW22984   0.662   0.286  13.120 -0.7292 -0.3881 -0.1691
 3842SOL    HW122985   0.652   0.210  13.177  1.2154 -2.2330 -2.2783
 3842SOL    HW222986   0.684   0.354  13.184 -1.3854  0.4511 -0.8233
 3843SOL     OW22987   1.566   0.696   6.097 -0.4488  0.2345 -0.0304
 3843SOL    HW122988   1.593   0.772   6.045  1.5761  0.9292  2.0436
 3843SOL    HW222989   1.483   0.674   6.055 -0.3603 -0.2982  0.0806
 3844SOL     OW22990   2.939   3.644  14.582  0.6058  0.0032 -0.0268
 3844SOL    HW122991   2.844   3.637  14.593  0.5651 -0.1570 -0.4856
 3844SOL    HW222992   2.963   3.732  14.613 -0.5139  0.8759 -1.6059
 3845SOL     OW22993   1.922   2.859   5.090  0.5160  0.1127 -0.1507
 3845SOL    HW122994   1.855   2.924   5.066 -0.9814 -1.3707 -0.0112
 3845SOL    HW222995   1.874   2.809   5.156  1.3035 -0.1010  0.2510
 3846SOL     OW22996   4.294   1.101   3.530  0.2721 -0.1265 -0.1804
 3846SOL    HW122997   4.314   1.026   3.586  0.3033  1.0738  1.4246
 3846SOL    HW222998   4.377   1.149   3.529  1.0888 -1.5516 -1.0854
 3847SOL     OW22999   0.372   3.351   3.728 -0.0007  0.1089 -0.2506
 3847SOL    HW123000   0.301   3.415   3.727 -0.6650 -0.6379 -2.5039
 3847SOL    HW223001   0.388   3.350   3.633 -1.1496 -0.0849 -0.4425
 3848SOL     OW23002   3.684   3.374   4.808  0.1919  0.5511  0.6981
 3848SOL    HW123003   3.660   3.438   4.876 -2.0628  0.7373 -0.2876
 3848SOL    HW223004   3.780   3.379   4.801  0.2705 -1.3926  0.5353
 3849SOL     OW23005   3.959   1.091   3.202  0.0196 -0.0110  0.1277
 3849SOL    HW123006   3.942   1.004   3.166  1.9223 -1.8633  3.7855
 3849SOL    HW223007   3.976   1.069   3.293 -0.9720 -0.7358  0.1368
 3850SOL     OW23008   4.446   0.729   1.107 -0.4751  0.1735 -0.0653
 3850SOL    HW123009   4.455   0.634   1.102  1.2380  0.2550  1.5938
 3850SOL    HW223010   4.362   0.746   1.151  0.2952  1.2146  1.0098
 3851SOL     OW23011   0.214   0.671   8.838 -0.7892 -0.1760 -0.1652
 3851SOL    HW123012   0.175   0.658   8.925 -1.1737  4.8213  0.3594
 3851SOL    HW223013   0.197   0.764   8.825 -1.4902 -0.5618 -2.0585
 3852SOL     OW23014   1.484   2.016   6.164 -0.1426  0.0413 -0.9567
 3852SOL    HW123015   1.530   2.024   6.080 -0.3117  0.1218 -1.0398
 3852SOL    HW223016   1.467   1.922   6.158 -2.1272  0.3827 -0.4927
 3853SOL     OW23017   2.585   3.874  14.124 -0.3292  0.3233 -0.4117
 3853SOL    HW123018   2.526   3.947  14.140 -3.0235 -2.2032  1.0795
 3853SOL    HW223019   2.636   3.866  14.205  0.6558  0.2274 -1.0454
 3854SOL     OW23020   0.089   2.336   2.976 -0.0538 -0.1536  0.8659
 3854SOL    HW123021   0.178   2.317   2.947 -0.3816  0.0192 -0.2675
 3854SOL    HW223022   0.042   2.314   2.895 -3.9088  0.7236  2.8625
 3855SOL     OW23023   4.719   2.270   2.717  0.9987 -0.1879  0.6207
 3855SOL    HW123024   4.720   2.229   2.630 -0.2244  1.4133 -0.1509
 3855SOL    HW223025   4.632   2.240   2.741 -0.4619  2.3390 -1.4800
 3856SOL     OW23026   4.165   2.085  15.930  0.7213 -0.1773 -0.0409
 3856SOL    HW123027   4.250   2.104  15.969  0.6226 -0.5131  0.3335
 3856SOL    HW223028   4.142   2.168  15.888 -0.8245 -0.5488  0.0589
 3857SOL     OW23029   2.691   0.040  17.155  0.1346  0.2100 -0.6320
 3857SOL    HW123030   2.696   0.071  17.245 -0.1873 -0.0046 -0.5395
 3857SOL    HW223031   2.772   4.716  17.147  0.4989  1.0063 -1.9876
 3858SOL     OW23032   0.240   3.875   5.154 -0.3231 -0.1357  0.4514
 3858SOL    HW123033   0.273   3.915   5.073 -0.1592 -2.2411 -0.5238
 3858SOL    HW223034   0.276   3.787   5.149 -1.0367 -0.3765 -0.5700
 3859SOL     OW23035   4.098   2.067   9.133 -0.4703  0.6928  0.2617
 3859SOL    HW123036   4.140   1.984   9.157  2.3313  1.4190 -2.2763
 3859SOL    HW223037   4.151   2.128   9.183 -1.2906  2.0818 -0.5762
 3860SOL     OW23038   4.581   2.568   8.781  0.3712  0.1264 -0.0524
 3860SOL    HW123039   4.494   2.606   8.793 -0.0287 -0.5259 -0.8263
 3860SOL    HW223040   4.577   2.510   8.857  0.9612  0.8863  0.5593
 3861SOL     OW23041   0.524   0.334   9.666 -0.1325  0.4990 -0.3942
 3861SOL    HW123042   0.598   0.297   9.619  1.3973  1.4542  1.2368
 3861SOL    HW223043   0.521   0.285   9.748  0.2301  0.0347 -0.6598
 3862SOL     OW23044   2.272   0.402   8.836 -0.6853  0.2927 -0.5002
 3862SOL    HW123045   2.254   0.412   8.929  1.2260  2.9096 -0.4427
 3862SOL    HW223046   2.330   0.326   8.838 -0.7650  0.1567 -2.6251
 3863SOL     OW23047   2.838   2.810   2.100 -0.6020 -0.3849  0.0661
 3863SOL    HW123048   2.909   2.753   2.129  0.0761  0.5637  0.2744
 3863SOL    HW223049   2.773   2.741   2.108 -0.3871 -0.5935  0.0328
 3864SOL     OW23050   4.382   4.644   3.411  0.0474  0.0696  0.1470
 3864SOL    HW123051   4.291   4.624   3.392 -0.0174 -0.9156  1.5229
 3864SOL    HW223052   4.407   4.698   3.335 -1.9276  1.5189  0.5297
 3865SOL     OW23053   3.009   2.742   7.111 -0.2075 -0.1608  0.5041
 3865SOL    HW123054   3.010   2.687   7.032  1.6598  0.8775 -0.1872
 3865SOL    HW223055   2.991   2.827   7.072  1.7311 -0.8394 -1.9028
 3866SOL     OW23056   0.846   0.560   6.512 -0.5951  0.4262  0.8864
 3866SOL    HW123057   0.810   0.527   6.594  1.9923  0.9111  2.2126
 3866SOL    HW223058   0.889   0.480   6.483 -3.1670  0.1685 -2.2200
 3867SOL     OW23059   1.832   4.061   0.698 -0.3057  0.3971 -0.7762
 3867SOL    HW123060   1.741   4.034   0.710  0.3117 -0.7335  1.3176
 3867SOL    HW223061   1.825   4.082   0.605 -0.4081 -0.2410 -0.9136
 3868SOL     OW23062   4.479   3.883   6.800 -0.5652  0.2580 -0.0782
 3868SOL    HW123063   4.407   3.866   6.739 -2.7034  0.5743  2.3131
 3868SOL    HW223064   4.552   3.899   6.741  0.9013  0.6208  1.8648
 3869SOL     OW23065   0.158   2.589   2.164 -0.1708 -0.1227  0.1401
 3869SOL    HW123066   0.217   2.547   2.227 -0.1983  1.1235  1.0002
 3869SOL    HW223067   0.177   2.678   2.193  0.7592 -1.3917  3.3693
 3870SOL     OW23068   2.221   3.521   3.837 -0.2111 -0.0558 -0.4150
 3870SOL    HW123069   2.155   3.477   3.784 -0.0825 -1.7060  0.7999
 3870SOL    HW223070   2.256   3.585   3.775  0.9077  1.2087  1.5027
 3871SOL     OW23071   1.755   2.485   3.346 -0.4539  0.1463  0.0938
 3871SOL    HW123072   1.755   2.403   3.395 -0.9824  0.5836  0.8249
 3871SOL    HW223073   1.781   2.459   3.258 -1.1908 -0.2605  0.0031
 3872SOL     OW23074   3.467   4.315   9.649 -0.0338 -0.3266 -0.3905
 3872SOL    HW123075   3.431   4.251   9.588  1.8594 -1.2803 -0.5237
 3872SOL    HW223076   3.539   4.268   9.691 -0.1383  0.4314  0.6536
 3873SOL     OW23077   2.632   3.994   6.122 -0.5915 -0.2957 -0.1621
 3873SOL    HW123078   2.659   4.080   6.091  0.0483 -0.7744 -0.9204
 3873SOL    HW223079   2.679   3.941   6.058 -0.1426  0.8648 -0.7867
 3874SOL     OW23080   3.521   0.515  12.515  0.6935 -0.0902  0.1988
 3874SOL    HW123081   3.502   0.462  12.592  0.0843 -0.1010  0.0447
 3874SOL    HW223082   3.593   0.466  12.475 -0.4410 -1.4524 -0.1650
 3875SOL     OW23083   3.980   3.678   0.961 -0.0410  0.3931 -0.3957
 3875SOL    HW123084   3.911   3.617   0.989  1.3448 -1.1345 -0.2832
 3875SOL    HW223085   3.927   3.754   0.937  0.3853  0.1301 -2.1398
 3876SOL     OW23086   4.269   3.623   6.220 -0.2570  0.0020  0.5187
 3876SOL    HW123087   4.359   3.647   6.197  0.1700 -1.8724  0.2333
 3876SOL    HW223088   4.226   3.708   6.232 -2.7982 -1.0252 -1.2556
 3877SOL     OW23089   1.597   2.001   4.572 -0.0928 -0.4189  0.0892
 3877SOL    HW123090   1.592   1.910   4.603 -2.0399 -0.4989 -0.4651
 3877SOL    HW223091   1.508   2.036   4.582  0.0216  0.3558 -1.6392
 3878SOL     OW23092   0.843   2.338   4.997 -0.7486 -0.0246  0.3084
 3878SOL    HW123093   0.836   2.402   5.068 -0.1681 -0.0783  0.4162
 3878SOL    HW223094   0.924   2.288   5.012 -0.6601 -0.2339 -0.8986
 3879SOL     OW23095   2.355   0.301  17.185  0.5345 -0.0631  0.3395
 3879SOL    HW123096   2.364   0.387  17.143  1.1838 -0.5202 -0.4611
 3879SOL    HW223097   2.288   0.316  17.252 -0.8757 -1.2976 -0.7976
 3880SOL     OW23098   0.101   3.598  11.893  0.3682 -0.6484  0.1088
 3880SOL    HW123099   0.160   3.590  11.818  0.1932  2.2150 -0.3113
 3880SOL    HW223100   0.043   3.521  11.889 -1.9453  1.1879 -1.4849
 3881SOL     OW23101   1.966   3.937   8.344 -0.2113 -0.2072  0.1494
 3881SOL    HW123102   1.940   3.848   8.320  0.7711 -0.8162  1.3220
 3881SOL    HW223103   1.995   3.933   8.435  0.8892 -0.9885 -0.2322
 3882SOL     OW23104   3.968   0.103   5.762  0.1601  0.3052 -0.3346
 3882SOL    HW123105   3.934   0.064   5.843  1.4850  1.0858  0.6095
 3882SOL    HW223106   3.972   0.197   5.777  2.6184  0.3068 -1.0486
 3883SOL     OW23107   0.461   3.486   0.901 -0.3731 -0.2926 -0.1995
 3883SOL    HW123108   0.504   3.428   0.963 -0.1855 -1.8767 -1.7967
 3883SOL    HW223109   0.498   3.571   0.923 -0.1761 -0.2126 -0.8344
 3884SOL     OW23110   4.155   0.864   9.488  0.2474  0.7627  0.1507
 3884SOL    HW123111   4.178   0.957   9.479  0.7512  0.9551  3.4033
 3884SOL    HW223112   4.064   0.868   9.519  0.1424  1.2114 -0.2113
 3885SOL     OW23113   0.736   3.325   5.450  0.3903  0.0455  0.0834
 3885SOL    HW123114   0.768   3.306   5.362  2.3305 -0.2781  0.8682
 3885SOL    HW223115   0.647   3.289   5.444  0.9945 -1.3168 -0.7605
 3886SOL     OW23116   2.856   0.128   2.418  0.1260 -0.0704  0.3722
 3886SOL    HW123117   2.850   0.033   2.406  0.8916 -0.2859  1.6734
 3886SOL    HW223118   2.799   0.155   2.346 -0.0889 -1.2664  0.1029
 3887SOL     OW23119   0.871   1.907   1.863  0.0919 -0.1644 -0.4585
 3887SOL    HW123120   0.777   1.916   1.849 -0.3901 -0.3851  2.6293
 3887SOL    HW223121   0.875   1.840   1.932 -3.1008 -0.1940 -0.2913
 3888SOL     OW23122   1.691   2.181   8.046 -0.3996 -0.2366  0.1613
 3888SOL    HW123123   1.642   2.250   8.090 -1.2263  1.2396 -3.0470
 3888SOL    HW223124   1.731   2.122   8.110  1.5327  3.4718  2.3692
 3889SOL     OW23125   1.536   1.863   3.267 -0.6560 -0.0063 -0.2891
 3889SOL    HW123126   1.498   1.801   3.329 -0.5389  0.2558  0.0438
 3889SOL    HW223127   1.620   1.879   3.310 -0.7408 -0.0694 -0.1008
 3890SOL     OW23128   2.272   3.780   1.575 -0.2690  0.8786  0.6713
 3890SOL    HW123129   2.359   3.803   1.608 -0.4463  0.1275  1.6617
 3890SOL    HW223130   2.236   3.868   1.589  2.4399  1.9104  1.2050
 3891SOL     OW23131   3.321   2.000  15.055  0.4263 -0.1457  0.4243
 3891SOL    HW123132   3.324   2.049  15.137  2.3833  1.8501 -0.8246
 3891SOL    HW223133   3.234   1.960  15.055  0.0088  0.7411  2.6028
 3892SOL     OW23134   2.400   4.090   7.122  0.7947 -0.2393 -0.1706
 3892SOL    HW123135   2.342   4.129   7.057 -1.3795 -0.0299  1.8718
 3892SOL    HW223136   2.347   4.016   7.153  0.2167 -1.0025 -2.9624
 3893SOL     OW23137   1.766   1.537   3.954  0.0308 -0.2315  0.0780
 3893SOL    HW123138   1.687   1.552   4.005 -0.9856 -2.1849 -0.9421
 3893SOL    HW223139   1.819   1.509   4.029  1.0876  1.0695 -0.1674
 3894SOL     OW23140   1.345   4.367   7.890 -0.6764 -0.2602  0.4262
 3894SOL    HW123141   1.403   4.302   7.929 -2.4361 -2.0531  0.0688
 3894SOL    HW223142   1.318   4.327   7.807  0.3953 -0.4502  0.1737
 3895SOL     OW23143   4.175   4.293   6.858 -0.5402 -0.7473 -0.1891
 3895SOL    HW123144   4.167   4.326   6.768 -0.6954  0.9755  0.4565
 3895SOL    HW223145   4.106   4.226   6.864 -0.6594 -0.5561  0.5072
 3896SOL     OW23146   2.994   3.070   8.487 -0.2354 -0.0778 -0.2076
 3896SOL    HW123147   3.060   3.002   8.470 -1.0876 -0.7640 -0.7646
 3896SOL    HW223148   3.028   3.103   8.570 -1.5855  3.1118 -0.9320
 3897SOL     OW23149   0.740   4.414   5.207  0.2674 -0.3410  0.4469
 3897SOL    HW123150   0.771   4.485   5.151  0.4802  0.3284  1.4039
 3897SOL    HW223151   0.719   4.346   5.143  4.3828 -0.7830 -0.4404
 3898SOL     OW23152   1.548   0.150   8.695 -0.5218  0.0070 -0.1768
 3898SOL    HW123153   1.530   0.206   8.620  0.6386 -1.2716 -1.3925
 3898SOL    HW223154   1.597   0.078   8.655  0.0120  0.8206 -0.9764
 3899SOL     OW23155   2.504   0.470   7.667 -0.4172  0.1845 -0.8859
 3899SOL    HW123156   2.597   0.469   7.640  0.2199  0.3798  1.3514
 3899SOL    HW223157   2.458   0.420   7.599  1.3766 -3.5290  0.6444
 3900SOL     OW23158   1.381   2.974   1.105  0.4560  0.1162 -0.1632
 3900SOL    HW123159   1.357   2.936   1.020  2.0370  0.8280 -0.9261
 3900SOL    HW223160   1.351   3.065   1.099  0.3884  0.0458 -0.9126
 3901SOL     OW23161   1.625   3.473   3.157 -0.1245 -1.2012 -0.4912
 3901SOL    HW123162   1.619   3.488   3.062 -1.0971  1.7870  0.0279
 3901SOL    HW223163   1.531   3.455   3.165 -0.5168  1.0883  0.0511
 3902SOL     OW23164   0.772   2.419  12.387  0.7280 -0.4245  0.0058
 3902SOL    HW123165   0.711   2.485  12.418  3.1670  1.7219  0.1907
 3902SOL    HW223166   0.836   2.466  12.334  2.5350 -0.9062  1.7689
 3903SOL     OW23167   2.665   0.915  14.605 -0.1560  0.2488 -0.6426
 3903SOL    HW123168   2.737   0.964  14.645  1.2348 -1.6040 -0.8744
 3903SOL    HW223169   2.605   0.919  14.679 -1.1189  2.4688 -1.5561
 3904SOL     OW23170   1.481   2.223   2.264 -0.0120  0.1492 -0.3571
 3904SOL    HW123171   1.389   2.236   2.241 -0.5970  0.2461  2.0141
 3904SOL    HW223172   1.510   2.313   2.247  0.0636  0.0666 -0.6521
 3905SOL     OW23173   4.229   2.503  12.846  0.3883 -0.5461  0.0410
 3905SOL    HW123174   4.197   2.550  12.922  0.0593  2.0008 -1.6839
 3905SOL    HW223175   4.153   2.502  12.788 -1.7586  0.1376  2.8621
 3906SOL     OW23176   0.258   0.620   0.647 -0.1010 -0.4588 -0.4124
 3906SOL    HW123177   0.215   0.577   0.574 -0.4159 -4.5139  2.1636
 3906SOL    HW223178   0.346   0.595   0.620  0.2869  1.3649 -0.8744
 3907SOL     OW23179   0.376   3.967  17.375 -0.4525  0.0541  0.2190
 3907SOL    HW123180   0.426   3.997  17.451  0.5019 -0.0307 -0.3731
 3907SOL    HW223181   0.298   3.945  17.425  0.7066  1.0874  2.4756
 3908SOL     OW23182   2.352   2.024   2.997  0.0550  0.5402  0.1416
 3908SOL    HW123183   2.276   2.078   2.978 -0.2233 -0.2068 -0.8544
 3908SOL    HW223184   2.419   2.085   3.028 -0.6391  1.6534 -0.5548
 3909SOL     OW23185   2.065   3.837   2.565 -0.1528 -0.5105 -1.1086
 3909SOL    HW123186   2.080   3.866   2.475  0.5054 -1.0303 -1.1628
 3909SOL    HW223187   2.119   3.758   2.558 -0.3612 -0.6420 -1.2563
 3910SOL     OW23188   0.781   3.962  16.780 -0.0989 -0.2986 -0.1578
 3910SOL    HW123189   0.795   4.002  16.866  0.6377  2.3037 -1.4747
 3910SOL    HW223190   0.864   3.991  16.741 -0.6314 -0.0012 -1.0740
 3911SOL     OW23191   0.324   4.170   3.398  0.4301 -0.2048 -0.2980
 3911SOL    HW123192   0.372   4.088   3.390 -0.0415 -0.4346 -0.7265
 3911SOL    HW223193   0.380   4.233   3.354  0.8838 -0.2509  0.2154
 3912SOL     OW23194   0.619   1.117  11.718  0.2126 -0.0526 -0.4615
 3912SOL    HW123195   0.653   1.184  11.778 -0.7498 -0.2108  0.2565
 3912SOL    HW223196   0.527   1.113  11.742 -0.1941  2.3733 -1.6291
 3913SOL     OW23197   0.542   3.722   3.826 -0.4785 -0.5681 -0.3691
 3913SOL    HW123198   0.468   3.746   3.881  1.3923  0.2768  1.7610
 3913SOL    HW223199   0.563   3.805   3.784 -1.7947 -0.1350 -0.1636
 3914SOL     OW23200   3.657   3.102  14.997 -0.2269 -0.1367 -0.0291
 3914SOL    HW123201   3.713   3.175  14.970  1.8544 -1.1077  1.7633
 3914SOL    HW223202   3.568   3.135  14.980 -1.1067 -1.6991  1.5506
 3915SOL     OW23203   1.547   2.525   9.680  0.8154 -0.3166 -0.2498
 3915SOL    HW123204   1.512   2.466   9.748 -1.4104  1.4731  0.1387
 3915SOL    HW223205   1.466   2.563   9.647  0.2324 -0.6218  0.8153
 3916SOL     OW23206   2.826   2.264  12.964 -0.7784 -0.7239  0.0349
 3916SOL    HW123207   2.848   2.222  12.881  1.0910 -0.7210  0.5366
 3916SOL    HW223208   2.741   2.286  12.926 -0.4204 -0.7716 -0.8070
 3917SOL     OW23209   3.798   2.121   1.290 -0.5829 -0.3543 -0.4849
 3917SOL    HW123210   3.773   2.114   1.382 -1.2107 -1.0972 -0.7148
 3917SOL    HW223211   3.786   2.215   1.279  1.1168 -0.2249 -1.3171
 3918SOL     OW23212   1.386   2.414   9.403 -0.1090  0.0956  0.1200
 3918SOL    HW123213   1.360   2.338   9.455  1.8691 -2.7320 -3.0634
 3918SOL    HW223214   1.358   2.488   9.457 -0.3668  0.0845  0.0009
 3919SOL     OW23215   1.839   4.117   1.438  0.3842  0.0984  0.0386
 3919SOL    HW123216   1.752   4.151   1.418 -1.2152 -2.4659  2.4850
 3919SOL    HW223217   1.894   4.173   1.384 -1.9068  0.8497 -1.5284
 3920SOL     OW23218   1.965   1.537   9.085  0.2544 -0.2926 -0.5142
 3920SOL    HW123219   1.999   1.599   9.021  2.4445 -0.6843  0.2838
 3920SOL    HW223220   1.893   1.589   9.122 -0.5566 -0.5017 -1.8067
 3921SOL     OW23221   2.114   4.636   5.332 -0.1571 -1.2216 -0.2711
 3921SOL    HW123222   2.137   4.566   5.393  1.0019 -0.4247  0.2167
 3921SOL    HW223223   2.053   4.675   5.394 -0.2991 -0.8706 -0.6346
 3922SOL     OW23224   2.511   3.695  15.542  0.4037 -0.0055  0.9241
 3922SOL    HW123225   2.597   3.663  15.513 -0.6572 -0.7690 -1.3974
 3922SOL    HW223226   2.526   3.723  15.632 -0.4781  1.9441  0.4609
 3923SOL     OW23227   3.739   0.350  10.496  0.4958  0.2914 -0.3363
 3923SOL    HW123228   3.823   0.394  10.507  0.1812 -0.0809  3.4782
 3923SOL    HW223229   3.749   0.289  10.423  1.8974  1.1290 -0.8448
 3924SOL     OW23230   2.885   3.148   3.853 -0.6264 -0.3520  0.1643
 3924SOL    HW123231   2.857   3.097   3.776  1.1105 -1.3547  0.1971
 3924SOL    HW223232   2.846   3.097   3.924  1.7951 -1.3799  0.7591
 3925SOL     OW23233   3.805   0.570   3.189  0.1266  0.2987 -0.4446
 3925SOL    HW123234   3.844   0.527   3.265 -1.9777  2.0515  1.5915
 3925SOL    HW223235   3.750   0.502   3.150 -2.3965  2.3900 -0.5271
 3926SOL     OW23236   3.119   4.542   7.033  0.1374 -0.1829  0.1625
 3926SOL    HW123237   3.181   4.611   7.056 -1.7028  1.2812  0.7817
 3926SOL    HW223238   3.043   4.596   7.010 -0.0014 -0.0594  0.9058
 3927SOL     OW23239   2.945   1.641   0.403 -0.0076  0.6142 -0.3590
 3927SOL    HW123240   3.019   1.625   0.462 -0.4943 -2.1123 -0.4709
 3927SOL    HW223241   2.873   1.637   0.466  0.1668  1.3936 -0.1097
 3928SOL     OW23242   0.885   4.569   8.090  0.5050 -0.2185  0.0845
 3928SOL    HW123243   0.948   4.505   8.057 -0.7400 -1.0463 -0.7059
 3928SOL    HW223244   0.935   4.648   8.070 -1.9524  0.2727 -4.0043
 3929SOL     OW23245   1.969   1.095   5.417  0.1919 -0.3000 -0.4734
 3929SOL    HW123246   1.950   1.135   5.332 -0.3129  1.8347  0.6329
 3929SOL    HW223247   1.978   1.174   5.470  0.2563  0.1356 -1.1298
 3930SOL     OW23248   4.390   0.505   4.237  0.6609  0.3971  0.2000
 3930SOL    HW123249   4.322   0.451   4.277  0.3314 -1.0418 -2.3435
 3930SOL    HW223250   4.432   0.535   4.318 -0.5437 -2.3574  1.8586
 3931SOL     OW23251   0.027   4.376  11.721  0.2278 -0.1936  0.2556
 3931SOL    HW123252   4.721   4.367  11.631  1.1382  0.8024 -0.1619
 3931SOL    HW223253   0.063   4.465  11.718  0.1762 -0.1270  1.5422
 3932SOL     OW23254   0.798   1.103   9.159 -0.2789  0.4392  0.5353
 3932SOL    HW123255   0.795   1.159   9.237 -0.3364  1.4540 -0.1841
 3932SOL    HW223256   0.808   1.016   9.196 -0.6505  0.3625  0.4544
 3933SOL     OW23257   3.768   1.752  15.615 -0.3713 -0.4230 -0.5271
 3933SOL    HW123258   3.691   1.809  15.617 -0.2231 -0.1864 -1.4658
 3933SOL    HW223259   3.820   1.787  15.687  0.0924  0.2972 -1.2195
 3934SOL     OW23260   1.762   0.071   8.151 -0.1993  0.4836 -0.1282
 3934SOL    HW123261   1.692   0.006   8.141 -0.4396  0.3925  2.0959
 3934SOL    HW223262   1.806   0.027   8.224  2.0064  1.4792 -0.8743
 3935SOL     OW23263   2.283   1.823   2.816  0.0911 -0.0321 -0.0053
 3935SOL    HW123264   2.188   1.832   2.813 -0.0258 -2.3261 -2.2523
 3935SOL    HW223265   2.304   1.907   2.858 -1.2960 -0.1919  1.0139
 3936SOL     OW23266   3.968   1.934  13.941  0.2041  0.1246 -0.0696
 3936SOL    HW123267   3.898   1.870  13.951 -1.3429  1.6382 -1.2406
 3936SOL    HW223268   3.926   2.000  13.886  0.0351  0.6366  0.6837
 3937SOL     OW23269   3.638   3.156   3.329  0.1303 -0.2345  0.0864
 3937SOL    HW123270   3.688   3.136   3.250 -0.4422 -0.6472 -0.1655
 3937SOL    HW223271   3.547   3.144   3.302  0.2138 -1.5004  0.4003
 3938SOL     OW23272   0.694   1.652   6.548  0.2187 -0.4677 -0.0497
 3938SOL    HW123273   0.658   1.642   6.460  0.1048  3.3723 -0.4740
 3938SOL    HW223274   0.613   1.660   6.599 -1.2411 -1.5526 -2.2072
 3939SOL     OW23275   2.656   0.216   6.766 -0.3122  0.8838  0.1698
 3939SOL    HW123276   2.682   0.125   6.748  0.5776  0.9521  1.0934
 3939SOL    HW223277   2.710   0.246   6.839  2.1215 -0.9178 -0.8918
 3940SOL     OW23278   1.390   2.282  16.936  0.4854  0.6183 -0.1168
 3940SOL    HW123279   1.413   2.364  16.892 -3.5287  2.8582  1.9110
 3940SOL    HW223280   1.399   2.214  16.870 -0.2300 -0.4360  0.8655
 3941SOL     OW23281   4.109   1.122   0.860  0.4186 -0.1666  0.2847
 3941SOL    HW123282   4.045   1.064   0.819 -0.7950  1.2714  0.1168
 3941SOL    HW223283   4.189   1.104   0.810 -0.5132  0.1659 -1.3338
 3942SOL     OW23284   0.103   2.479   6.360 -0.4806 -0.0472  0.1850
 3942SOL    HW123285   0.083   2.403   6.415  1.7303 -0.8180 -0.0815
 3942SOL    HW223286   0.196   2.491   6.378 -0.3131  0.4871 -1.0483
 3943SOL     OW23287   0.553   1.607   5.466  0.1284  0.5258 -0.2635
 3943SOL    HW123288   0.612   1.648   5.403 -2.6482  1.6470 -2.1471
 3943SOL    HW223289   0.474   1.660   5.455  0.3219  0.7138 -0.7718
 3944SOL     OW23290   2.857   2.493  17.233  0.1810 -0.0507  0.1845
 3944SOL    HW123291   2.874   2.407  17.271  2.0230  0.1125 -0.2793
 3944SOL    HW223292   2.932   2.508  17.175  1.6398 -3.2087  1.2286
 3945SOL     OW23293   2.656   1.826   0.206  0.6067  0.3839  0.5731
 3945SOL    HW123294   2.687   1.749   0.254 -0.8667 -2.6023 -3.1970
 3945SOL    HW223295   2.594   1.781   0.148  0.2221 -1.0297  2.0887
 3946SOL     OW23296   3.586   3.983   1.318 -0.1946  0.3785 -0.0960
 3946SOL    HW123297   3.662   3.925   1.311 -0.3190  0.4900 -2.3092
 3946SOL    HW223298   3.636   4.064   1.303  0.2022  0.0998 -0.2552
 3947SOL     OW23299   0.104   1.462   4.512 -0.2765 -0.5425 -0.1152
 3947SOL    HW123300   0.088   1.536   4.454  0.3436  0.6017  1.1817
 3947SOL    HW223301   0.105   1.504   4.598 -1.5200  1.4207 -1.0557
 3948SOL     OW23302   4.530   3.637   7.916 -0.1774 -0.0692  0.1215
 3948SOL    HW123303   4.458   3.635   7.853  0.9143 -0.2650 -1.1184
 3948SOL    HW223304   4.507   3.720   7.957 -5.7907 -2.3257  1.4826
 3949SOL     OW23305   3.493   1.615   8.717  0.4991  0.1694 -0.2692
 3949SOL    HW123306   3.540   1.541   8.755  0.6122  0.1744 -0.4025
 3949SOL    HW223307   3.453   1.654   8.795  1.1527  3.0528 -1.3689
 3950SOL     OW23308   4.451   2.663  16.550 -0.0391 -0.2146 -0.4864
 3950SOL    HW123309   4.360   2.664  16.519 -0.3265 -1.2504  0.3347
 3950SOL    HW223310   4.497   2.610  16.485  1.5778 -0.8159  1.1569
 3951SOL     OW23311   2.989   1.078   3.483  0.2026  0.0269 -0.4404
 3951SOL    HW123312   3.047   1.151   3.463 -0.4004  1.0623  1.6146
 3951SOL    HW223313   2.965   1.060   3.393 -1.2096  2.5668 -0.5651
 3952SOL     OW23314   2.615   3.148   0.792  0.3897  0.2201 -0.0460
 3952SOL    HW123315   2.656   3.199   0.862 -1.4245  2.3116 -0.4998
 3952SOL    HW223316   2.575   3.070   0.829 -1.5314  2.0556  1.7255
 3953SOL     OW23317   1.285   4.373   2.332 -0.1479 -0.0599 -0.9927
 3953SOL    HW123318   1.254   4.360   2.242 -1.3577  1.7772 -0.8285
 3953SOL    HW223319   1.219   4.315   2.369  0.4094  0.9001  1.4612
 3954SOL     OW23320   3.707   0.626   8.881  0.2590  0.1385  0.1628
 3954SOL    HW123321   3.630   0.682   8.877 -0.3053 -0.5278  1.7360
 3954SOL    HW223322   3.647   0.552   8.894  0.8939 -0.6633 -1.5039
 3955SOL     OW23323   4.510   4.067  15.690  0.5838 -0.4200 -0.7564
 3955SOL    HW123324   4.562   4.060  15.610  0.2114  0.7800 -1.0991
 3955SOL    HW223325   4.422   4.070  15.654  0.1102 -0.3474  0.4038
 3956SOL     OW23326   0.194   0.371  17.567  0.6878 -0.5814 -0.2179
 3956SOL    HW123327   0.280   0.329  17.571  2.1102  2.2795 -0.4542
 3956SOL    HW223328   0.215   0.445  17.510 -0.9657  0.2448  0.2588
 3957SOL     OW23329   0.481   4.175   7.384  0.2532 -0.5070 -0.7844
 3957SOL    HW123330   0.551   4.113   7.406  0.4617  0.1818  0.4760
 3957SOL    HW223331   0.432   4.121   7.323 -0.4546 -1.1475  0.3466
 3958SOL     OW23332   0.279   1.791   5.776  0.0533  0.0062 -0.1523
 3958SOL    HW123333   0.346   1.743   5.826 -0.3626  0.9231  1.2856
 3958SOL    HW223334   0.306   1.773   5.686 -1.1586 -2.8175  0.0535
 3959SOL     OW23335   0.600   2.701   4.996  0.0495 -0.1039  0.3180
 3959SOL    HW123336   0.574   2.635   4.933  0.2589  2.0118 -1.9799
 3959SOL    HW223337   0.549   2.670   5.071  1.9163 -2.1377  0.7524
 3960SOL     OW23338   4.245   0.823  17.599  0.0016  0.2086  0.2217
 3960SOL    HW123339   4.337   0.811  17.623  0.0311 -2.0280 -1.0388
 3960SOL    HW223340   4.237   0.909  17.642 -0.1208  0.6358 -0.6501
 3961SOL     OW23341   4.685   1.064  12.656 -0.3296 -0.0241 -0.2685
 3961SOL    HW123342   4.613   1.127  12.653  0.4010  0.8805  1.1901
 3961SOL    HW223343   4.640   0.980  12.651  3.9752 -1.9367 -5.4968
 3962SOL     OW23344   4.721   3.214  14.701 -0.1533 -0.4304 -0.0670
 3962SOL    HW123345   0.070   3.211  14.762  2.3876  0.4179 -3.1218
 3962SOL    HW223346   4.648   3.202  14.763  0.3091 -2.5437  0.0914
 3963SOL     OW23347   0.186   1.090   6.508 -0.1939  0.3559  0.0010
 3963SOL    HW123348   0.187   1.172   6.557 -2.2572  1.6308 -2.0922
 3963SOL    HW223349   0.095   1.061   6.504  0.1281 -0.6957  0.3164
 3964SOL     OW23350   0.111   0.656   8.242 -0.5805 -0.2881  0.6174
 3964SOL    HW123351   0.132   0.675   8.333  0.2840  0.6730  0.2293
 3964SOL    HW223352   0.189   0.622   8.198 -0.3714  1.2877 -0.2322
 3965SOL     OW23353   2.521   1.619  14.815  0.4824  0.9379 -0.3148
 3965SOL    HW123354   2.604   1.610  14.863  0.3404 -0.5938 -0.3600
 3965SOL    HW223355   2.502   1.528  14.794  1.8500  1.1584 -2.5200
 3966SOL     OW23356   3.263   2.211   1.786  0.2439 -0.1092 -0.3976
 3966SOL    HW123357   3.209   2.280   1.748  0.6431  0.0319 -0.7159
 3966SOL    HW223358   3.228   2.207   1.875  2.4872 -0.8745  0.4545
 3967SOL     OW23359   4.600   1.135   3.043  0.3854  0.2523 -0.1514
 3967SOL    HW123360   4.575   1.219   3.006 -1.2479 -0.4284 -0.6062
 3967SOL    HW223361   4.692   1.122   3.020  0.6720  1.7609  0.1482
 3968SOL     OW23362   4.647   3.283   2.976  0.4237  1.0405  0.4565
 3968SOL    HW123363   4.555   3.258   2.967  0.3240  1.1480  1.1330
 3968SOL    HW223364   4.636   3.351   3.043 -0.0185  0.5177  0.9163
 3969SOL     OW23365   0.502   4.508   9.993 -0.4537 -0.1348 -0.5235
 3969SOL    HW123366   0.578   4.507  10.050 -2.1609  1.0190  1.8069
 3969SOL    HW223367   0.536   4.489   9.905 -1.5900 -2.2440 -0.5192
 3970SOL     OW23368   4.476   1.134  14.430 -0.0833 -0.4210 -0.2633
 3970SOL    HW123369   4.396   1.139  14.483 -0.8379 -0.6864 -1.3729
 3970SOL    HW223370   4.470   1.041  14.407 -2.2077 -0.1197 -0.9634
 3971SOL     OW23371   4.013   4.016   3.059  0.4450  0.1292 -0.4884
 3971SOL    HW123372   4.017   4.082   2.989 -2.2803  0.5369 -0.2596
 3971SOL    HW223373   3.922   4.033   3.083  0.3978 -0.9545  0.0675
 3972SOL     OW23374   3.592   0.531  16.630  0.1056 -0.4724 -0.1552
 3972SOL    HW123375   3.563   0.622  16.628 -1.9998 -1.1005  1.3583
 3972SOL    HW223376   3.655   0.542  16.559 -1.0128  0.8418 -0.9348
 3973SOL     OW23377   2.482   0.845   7.742 -0.1786 -0.0493  0.2053
 3973SOL    HW123378   2.413   0.796   7.697  0.2368 -0.5358  0.0991
 3973SOL    HW223379   2.447   0.860   7.830  0.4707 -1.7795  0.7499
 3974SOL     OW23380   2.573   1.676   6.440  0.0018 -0.2080 -0.1758
 3974SOL    HW123381   2.533   1.599   6.482  2.4002 -1.6449 -0.5508
 3974SOL    HW223382   2.611   1.717   6.518 -2.0196 -0.9712  1.2329
 3975SOL     OW23383   2.639   1.523   0.315  0.2656  0.0142 -0.2299
 3975SOL    HW123384   2.576   1.525   0.243  0.5002 -1.6951 -0.4779
 3975SOL    HW223385   2.679   1.439   0.294  0.7729  0.4144 -0.8606
 3976SOL     OW23386   3.327   3.305  16.804 -0.4836  0.4688  0.7290
 3976SOL    HW123387   3.340   3.398  16.787 -3.0597  0.7063  0.1241
 3976SOL    HW223388   3.282   3.303  16.889 -0.8584 -3.2544  0.4302
 3977SOL     OW23389   3.534   2.676   6.784  0.1136  0.4994 -0.0667
 3977SOL    HW123390   3.614   2.653   6.833 -1.1460  0.8696  2.1602
 3977SOL    HW223391   3.497   2.588   6.793  0.7070  0.2038 -0.4579
 3978SOL     OW23392   0.269   2.999   3.577 -0.7457 -0.1052 -0.2150
 3978SOL    HW123393   0.299   2.952   3.499 -1.4038 -0.1711 -0.4272
 3978SOL    HW223394   0.211   3.062   3.535 -1.6982 -1.2509 -0.6151
 3979SOL     OW23395   2.725   0.275   7.472 -0.0133  0.3361 -0.1435
 3979SOL    HW123396   2.709   0.210   7.540 -1.9281  2.0145  0.9886
 3979SOL    HW223397   2.807   0.307   7.509 -0.2613  0.4898  0.2644
 3980SOL     OW23398   4.353   4.662  11.398 -0.2079  0.5703  0.2090
 3980SOL    HW123399   4.274   4.611  11.382 -0.4559  0.7144  0.9497
 3980SOL    HW223400   4.414   4.607  11.350  0.8929  1.6623  0.3795
 3981SOL     OW23401   1.493   3.769  14.208  0.0578 -0.5359 -0.0315
 3981SOL    HW123402   1.515   3.837  14.145 -3.8153 -1.5989 -2.5461
 3981SOL    HW223403   1.400   3.746  14.200  0.0918 -0.6168 -0.1882
 3982SOL     OW23404   0.096   0.387   5.956  0.6844  0.2183  0.3648
 3982SOL    HW123405   0.136   0.454   6.012 -1.2251 -0.4174  2.5094
 3982SOL    HW223406   0.006   0.386   5.988  1.0120 -0.8044  1.2492
 3983SOL     OW23407   1.601   3.166   3.848  0.2213  0.3392  0.5064
 3983SOL    HW123408   1.650   3.119   3.916  1.9556  1.8542  0.3008
 3983SOL    HW223409   1.669   3.173   3.781  0.6445  0.5800  0.9571
 3984SOL     OW23410   0.920   0.660   7.080  0.2191  0.2284 -0.1118
 3984SOL    HW123411   0.950   0.646   6.991 -0.8940  0.7458 -0.5637
 3984SOL    HW223412   0.890   0.751   7.074  0.8491  0.5566  1.7515
 3985SOL     OW23413   2.483   3.605   1.439 -0.4639 -0.5488  0.5670
 3985SOL    HW123414   2.484   3.560   1.354  1.6191 -2.1126  1.4224
 3985SOL    HW223415   2.404   3.658   1.429  0.9766  1.4727 -0.0882
 3986SOL     OW23416   4.229   1.835   9.191  0.5797 -0.9880 -0.0730
 3986SOL    HW123417   4.305   1.784   9.162  1.4010 -0.7420  1.6258
 3986SOL    HW223418   4.158   1.777   9.165  1.5205 -3.5676  3.1670
 3987SOL     OW23419   3.209   2.678   7.274  0.0683  0.5523  0.1507
 3987SOL    HW123420   3.153   2.711   7.205  1.8839  3.0867 -0.1041
 3987SOL    HW223421   3.183   2.586   7.280 -0.0208  0.6197  0.7954
 3988SOL     OW23422   0.008   1.409   2.030 -0.0783 -0.0030 -0.2135
 3988SOL    HW123423   4.717   1.389   1.938 -3.1659 -0.0455  0.3515
 3988SOL    HW223424   4.695   1.496   2.039 -0.3124 -0.2969  1.7759
 3989SOL     OW23425   1.261   0.245   8.462  0.3398  0.1195 -0.7299
 3989SOL    HW123426   1.195   0.222   8.397 -0.3581 -1.1529  0.4475
 3989SOL    HW223427   1.294   0.161   8.495  1.0485  0.8391  0.4061
 3990SOL     OW23428   4.717   1.882   8.427 -0.3251  0.4342  0.3123
 3990SOL    HW123429   0.038   1.889   8.511  0.0407  1.8463 -0.0022
 3990SOL    HW223430   4.688   1.791   8.433 -0.7868  0.5235 -0.6293
 3991SOL     OW23431   2.114   4.072   4.595  0.4169 -0.1413  0.4469
 3991SOL    HW123432   2.132   4.105   4.507 -2.0911 -1.5381 -0.5721
 3991SOL    HW223433   2.030   4.114   4.613  0.5135 -0.8602  2.5809
 3992SOL     OW23434   3.349   0.566  13.238 -0.6366 -0.1911 -0.0506
 3992SOL    HW123435   3.411   0.553  13.310 -1.4113 -0.8234  0.4991
 3992SOL    HW223436   3.386   0.497  13.183  0.1050 -1.6306  2.2606
 3993SOL     OW23437   3.029   4.452  14.655 -0.7022 -0.0136  0.0593
 3993SOL    HW123438   3.076   4.535  14.655 -0.0660 -0.3786  2.6314
 3993SOL    HW223439   2.964   4.465  14.585 -0.3630  1.7240  0.0792
 3994SOL     OW23440   1.738   2.636   0.726  0.8302  0.1378  0.1488
 3994SOL    HW123441   1.816   2.591   0.758  1.7719  0.7020 -1.3235
 3994SOL    HW223442   1.744   2.601   0.637  0.4749 -2.7810  1.2748
 3995SOL     OW23443   0.388   1.768   6.063 -0.2926 -0.5363 -0.5072
 3995SOL    HW123444   0.336   1.710   6.119 -0.3924 -0.9578 -1.0449
 3995SOL    HW223445   0.338   1.848   6.080 -2.9977 -2.2630 -0.3865
 3996SOL     OW23446   4.628   4.335  13.827  1.0328  0.1130  0.2193
 3996SOL    HW123447   4.660   4.420  13.798  0.0877 -0.2931 -2.0049
 3996SOL    HW223448   4.680   4.273  13.777 -2.2626 -2.5259  0.0167
 3997SOL     OW23449   3.265   0.690   7.731  0.2915 -0.3432 -0.3572
 3997SOL    HW123450   3.171   0.705   7.742  0.5971  0.6545  0.9276
 3997SOL    HW223451   3.307   0.711   7.815  0.0815  1.5148 -0.7099
 3998SOL     OW23452   2.079   0.880   7.772 -0.2119  0.1904  0.8246
 3998SOL    HW123453   2.035   0.858   7.854 -0.6997 -1.3958  0.1341
 3998SOL    HW223454   2.030   0.828   7.709  0.9362  0.7818 -0.5696
 3999SOL     OW23455   2.657   2.473  12.446 -0.5970  0.0397  0.0413
 3999SOL    HW123456   2.735   2.498  12.495 -1.0644 -0.1134  0.8670
 3999SOL    HW223457   2.634   2.391  12.490 -0.6277  0.4604  0.7952
 4000SOL     OW23458   3.413   3.421  15.041 -0.0834  0.2019  0.6260
 4000SOL    HW123459   3.409   3.503  14.992  1.0523  1.7431  3.1199
 4000SOL    HW223460   3.433   3.452  15.129 -0.9315  3.1069 -0.2287
 4001SOL     OW23461   4.008   3.362   2.553  0.0261  0.1854  0.2574
 4001SOL    HW123462   4.088   3.309   2.556  0.0474  0.0907 -2.0646
 4001SOL    HW223463   4.011   3.400   2.466  0.7569  1.7980  0.9790
 4002SOL     OW23464   4.611   0.226   8.472  0.4970  0.1446 -0.1972
 4002SOL    HW123465   4.624   0.264   8.559  3.6878 -2.6824  0.5601
 4002SOL    HW223466   4.593   0.135   8.492  1.2890  0.5612  2.4135
 4003SOL     OW23467   3.966   2.048  14.822  0.1147  0.0827  0.6402
 4003SOL    HW123468   4.046   2.056  14.770  1.4071 -0.7420  2.4779
 4003SOL    HW223469   3.962   1.953  14.828  0.0851  0.0437 -0.1088
 4004SOL     OW23470   3.994   4.399   2.916  0.0491  0.1805 -0.0836
 4004SOL    HW123471   3.942   4.479   2.905 -0.3495 -0.2375 -1.2305
 4004SOL    HW223472   3.985   4.389   3.011  0.3493 -1.7134 -0.2674
 4005SOL     OW23473   0.972   3.375  17.043  0.2459  0.1708  0.0774
 4005SOL    HW123474   0.979   3.316  16.968  2.8100  1.2223 -0.5028
 4005SOL    HW223475   1.066   3.391  17.049  0.6214 -1.5421 -1.3277
 4006SOL     OW23476   1.328   3.515   3.400  0.1873  0.0350 -0.1208
 4006SOL    HW123477   1.268   3.586   3.380  1.3533  0.9583 -0.3151
 4006SOL    HW223478   1.329   3.464   3.319  0.5188 -2.3389  1.3857
 4007SOL     OW23479   0.126   2.651   4.681  1.3459 -0.4013  0.9391
 4007SOL    HW123480   0.040   2.638   4.640  1.9625 -0.8780 -0.2158
 4007SOL    HW223481   0.120   2.606   4.765 -0.8489 -0.0086  0.9806
 4008SOL     OW23482   2.700   2.090  11.514 -0.3988 -0.1407  0.3178
 4008SOL    HW123483   2.748   2.013  11.545 -0.8335 -0.8144 -0.7120
 4008SOL    HW223484   2.611   2.058  11.502 -1.1959  1.8370  0.8542
 4009SOL     OW23485   1.904   1.457   4.512 -0.3542 -0.0189  0.3705
 4009SOL    HW123486   1.967   1.465   4.583 -2.1171 -0.4933  1.9949
 4009SOL    HW223487   1.898   1.546   4.479  1.4300 -0.5945 -1.5417
 4010SOL     OW23488   2.896   2.469   6.002 -0.2762  0.1175  0.1897
 4010SOL    HW123489   2.929   2.557   6.021  0.7574 -0.0612 -0.7470
 4010SOL    HW223490   2.976   2.417   5.999 -0.5907 -0.2371 -1.6618
 4011SOL     OW23491   2.702   4.688   4.538 -0.7448 -0.7128  0.1654
 4011SOL    HW123492   2.740   4.608   4.575 -0.6199 -0.4908  0.5211
 4011SOL    HW223493   2.613   4.661   4.516 -0.5498 -0.2480 -1.2243
 4012SOL     OW23494   2.560   4.330  14.695 -0.2165 -0.0032  0.1427
 4012SOL    HW123495   2.524   4.260  14.750  2.2860  0.2361  2.0927
 4012SOL    HW223496   2.597   4.272  14.628 -0.5961 -2.0477  1.7085
 4013SOL     OW23497   4.695   2.959  11.820  0.1212  0.0412 -0.0130
 4013SOL    HW123498   0.044   2.938  11.763 -0.1821  1.2433 -0.8403
 4013SOL    HW223499   4.723   3.039  11.865 -1.0758  0.2877  0.2866
 4014SOL     OW23500   0.182   4.543   9.334  0.2833 -0.6619  0.4547
 4014SOL    HW123501   0.213   4.523   9.246  0.1501 -3.7177  1.1042
 4014SOL    HW223502   0.110   4.600   9.307  0.9706 -0.9660 -2.0569
 4015SOL     OW23503   3.698   3.254  10.193  0.3864  0.5900 -0.1495
 4015SOL    HW123504   3.621   3.307  10.170  1.2145  2.4482  1.4064
 4015SOL    HW223505   3.747   3.239  10.112 -1.1780 -1.6372 -0.6796
 4016SOL     OW23506   3.473   3.634   4.835  0.3805  0.0516  0.1211
 4016SOL    HW123507   3.514   3.701   4.780  0.1208 -0.2690 -0.4644
 4016SOL    HW223508   3.391   3.616   4.789 -1.4124  2.1092  2.5460
 4017SOL     OW23509   4.023   2.201   3.052  0.2196  0.1012 -0.0957
 4017SOL    HW123510   4.014   2.152   2.970 -0.3145 -0.2258  0.1627
 4017SOL    HW223511   4.057   2.281   3.012 -0.3860  0.9688  1.1209
 4018SOL     OW23512   0.328   1.866  10.910 -0.3618  0.1826 -0.0180
 4018SOL    HW123513   0.346   1.960  10.911  1.0270 -0.0414 -2.9308
 4018SOL    HW223514   0.254   1.855  10.969 -1.0258 -2.8689 -1.4543
 4019SOL     OW23515   3.835   1.724   6.738  0.1883 -0.1993  0.0456
 4019SOL    HW123516   3.853   1.672   6.660 -2.2742 -0.0586 -0.6019
 4019SOL    HW223517   3.757   1.770   6.708  1.1620  0.4620 -1.4540
 4020SOL     OW23518   3.168   3.473   8.397  0.1004  0.4403 -0.5181
 4020SOL    HW123519   3.082   3.439   8.422 -0.1312  0.4941 -1.2479
 4020SOL    HW223520   3.167   3.437   8.308 -0.5659  2.8883 -1.5014
 4021SOL     OW23521   3.112   0.439   7.022 -0.3977 -0.1176  0.2274
 4021SOL    HW123522   3.081   0.517   7.069 -4.4711 -1.7764  0.3137
 4021SOL    HW223523   3.197   0.424   7.064 -1.3382  0.1335  2.2575
 4022SOL     OW23524   3.534   1.808   5.133 -0.5465 -0.0709 -0.7485
 4022SOL    HW123525   3.454   1.847   5.167 -0.4861 -1.1640  0.6299
 4022SOL    HW223526   3.506   1.791   5.043 -0.5001  1.1942 -1.0143
 4023SOL     OW23527   0.915   0.155  12.289 -0.7706  0.1752  1.4483
 4023SOL    HW123528   0.854   0.214  12.244 -0.6621 -0.7217  0.1381
 4023SOL    HW223529   0.993   0.211  12.285 -0.9716  0.4982  2.0721
 4024SOL     OW23530   2.075   3.364   7.837  0.0876 -0.1286 -0.1698
 4024SOL    HW123531   2.053   3.271   7.848 -3.2378  0.6449 -0.0522
 4024SOL    HW223532   2.004   3.403   7.888 -0.0762 -0.1850 -0.3542
 4025SOL     OW23533   3.191   1.932  15.788 -0.3010  0.0560  0.0986
 4025SOL    HW123534   3.257   1.975  15.842 -0.9130  1.5871 -0.3982
 4025SOL    HW223535   3.152   1.874  15.854  0.0001 -2.1384 -1.6236
 4026SOL     OW23536   0.324   4.604   8.061 -0.4116  0.4676 -0.7232
 4026SOL    HW123537   0.324   4.606   8.156 -1.1366 -0.7275 -0.7116
 4026SOL    HW223538   0.395   4.540   8.050 -1.6577 -1.2537  1.5126
 4027SOL     OW23539   1.757   3.121  17.554  0.3467 -0.7727 -0.1011
 4027SOL    HW123540   1.836   3.173  17.537 -0.1441  0.0980  0.2640
 4027SOL    HW223541   1.756   3.154  17.644  0.8986  2.3075 -1.2304
 4028SOL     OW23542   4.492   3.791   7.072 -0.0512  0.2687  0.3612
 4028SOL    HW123543   4.584   3.817   7.084 -0.0455  0.4655 -0.1195
 4028SOL    HW223544   4.482   3.828   6.985  2.2590 -0.4658 -0.2157
 4029SOL     OW23545   1.304   2.901   1.625 -0.4307 -0.0793  0.2972
 4029SOL    HW123546   1.272   2.811   1.637  0.9162 -0.9484 -2.4369
 4029SOL    HW223547   1.313   2.895   1.530  0.1813 -1.7093  0.4547
 4030SOL     OW23548   3.156   3.113   2.842 -0.4773  0.3791 -0.8216
 4030SOL    HW123549   3.108   3.032   2.826 -1.7826  0.9061  0.3091
 4030SOL    HW223550   3.229   3.103   2.782 -1.0662  1.8445 -1.7909
 4031SOL     OW23551   1.182   0.984  10.490 -0.4641  0.0342  0.4257
 4031SOL    HW123552   1.180   1.051  10.560  0.4857  1.2297 -0.6924
 4031SOL    HW223553   1.152   0.912  10.545  0.6439  0.0732  1.0842
 4032SOL     OW23554   1.240   1.626   4.110 -0.5192  0.1533 -0.2040
 4032SOL    HW123555   1.201   1.605   4.025  0.8248 -1.3692 -0.4534
 4032SOL    HW223556   1.201   1.711   4.127  0.6222  0.2040  2.1974
 4033SOL     OW23557   0.434   1.804  10.125 -0.5498  0.3317 -0.6842
 4033SOL    HW123558   0.505   1.868  10.130 -1.1515  1.1818 -3.0197
 4033SOL    HW223559   0.482   1.724  10.149 -0.4016  0.8197  0.6267
 4034SOL     OW23560   0.341   3.977   5.863  0.0162 -0.8010  0.0091
 4034SOL    HW123561   0.413   4.041   5.859  0.0187 -0.6231  2.6777
 4034SOL    HW223562   0.383   3.901   5.903  1.5562  0.6634  1.2045
 4035SOL     OW23563   1.640   4.719   5.101 -0.1046  0.1789  0.2936
 4035SOL    HW123564   1.628   4.703   5.195 -0.0858  1.2290  0.4809
 4035SOL    HW223565   1.720   0.046   5.100 -0.1600  0.2246 -1.9056
 4036SOL     OW23566   3.839   1.748   5.673 -0.0701 -0.2572  0.2565
 4036SOL    HW123567   3.869   1.792   5.593  1.3850 -2.1324 -0.2191
 4036SOL    HW223568   3.912   1.764   5.732  1.6286  2.3035 -2.4858
 4037SOL     OW23569   3.759   4.526  11.297 -0.3764 -0.2388  0.0507
 4037SOL    HW123570   3.688   4.527  11.234  1.1274 -2.6295 -1.6639
 4037SOL    HW223571   3.817   4.568  11.233 -1.9135  0.9695 -0.5361
 4038SOL     OW23572   0.626   0.664   0.871 -0.5918  0.2431  0.6927
 4038SOL    HW123573   0.538   0.629   0.881 -0.1793 -1.1099 -0.4908
 4038SOL    HW223574   0.643   0.694   0.961 -0.0399  1.1616  0.2874
 4039SOL     OW23575   2.102   3.387  16.956  0.0907 -0.1135 -0.3732
 4039SOL    HW123576   2.104   3.297  16.923  0.2908 -0.0176 -0.6245
 4039SOL    HW223577   2.112   3.438  16.876 -0.0849 -1.4141 -1.2190
 4040SOL     OW23578   0.432   3.628   7.379  0.4916 -0.7782 -0.3911
 4040SOL    HW123579   0.453   3.541   7.344  0.0068 -0.7436 -0.7648
 4040SOL    HW223580   0.400   3.672   7.301 -0.2303 -1.0504 -0.2506
 4041SOL     OW23581   2.911   3.507   8.479 -0.3228 -0.0770 -0.6846
 4041SOL    HW123582   2.870   3.422   8.465 -0.2473  0.1923 -2.5894
 4041SOL    HW223583   2.837   3.567   8.471 -0.2064  0.0727 -0.6337
 4042SOL     OW23584   0.177   0.654  12.743 -0.1910 -0.1961  0.0830
 4042SOL    HW123585   0.239   0.721  12.715  0.1737 -1.5255 -2.2736
 4042SOL    HW223586   0.118   0.649  12.667 -0.5956 -1.6777  0.4894
 4043SOL     OW23587   4.019   1.378   8.354 -0.5453 -0.0601  0.4517
 4043SOL    HW123588   4.013   1.287   8.385  0.3082 -0.1070  0.4860
 4043SOL    HW223589   4.002   1.418   8.439 -0.0833 -0.8087  0.9012
 4044SOL     OW23590   3.124   1.610  11.590  0.2357 -0.1937 -0.6791
 4044SOL    HW123591   3.151   1.673  11.657  1.6539 -2.5370  0.9661
 4044SOL    HW223592   3.191   1.541  11.593 -0.4817 -0.9424 -2.0089
 4045SOL     OW23593   1.636   1.066   0.492 -0.2763  0.0263 -0.3276
 4045SOL    HW123594   1.731   1.059   0.498 -0.2217  1.1874  0.2824
 4045SOL    HW223595   1.626   1.004   0.420  3.5060 -1.2627  0.2461
 4046SOL     OW23596   2.260   0.718  15.364  0.4874  0.1247 -0.5251
 4046SOL    HW123597   2.231   0.630  15.387 -1.4314  0.8066 -0.3842
 4046SOL    HW223598   2.308   0.694  15.285 -0.1659 -0.6699 -0.6728
 4047SOL     OW23599   3.871   1.640   7.837 -0.0132  0.2305  0.0402
 4047SOL    HW123600   3.887   1.697   7.762  1.3282 -0.6394 -0.3363
 4047SOL    HW223601   3.935   1.570   7.830 -1.2751 -0.9157 -0.0269
 4048SOL     OW23602   0.872   2.679  13.635 -0.4303 -0.2349 -0.5265
 4048SOL    HW123603   0.807   2.695  13.566  1.6391  0.0959 -2.3817
 4048SOL    HW223604   0.919   2.605  13.598 -0.7687 -2.3940  3.2918
 4049SOL     OW23605   4.619   0.878   3.420 -0.5807 -0.2550 -0.2529
 4049SOL    HW123606   4.710   0.902   3.406 -0.3840 -1.4255 -0.9469
 4049SOL    HW223607   4.575   0.960   3.394 -0.7052 -0.2469 -0.0174
 4050SOL     OW23608   1.637   3.761   9.561 -0.0163 -0.1020 -0.1986
 4050SOL    HW123609   1.634   3.782   9.467  0.0954  0.8368  0.0077
 4050SOL    HW223610   1.675   3.673   9.565 -0.9497 -0.4519  0.6177
 4051SOL     OW23611   1.503   3.403   4.137  0.3845 -0.0885 -0.3264
 4051SOL    HW123612   1.591   3.435   4.119 -0.6349  2.1496 -1.3701
 4051SOL    HW223613   1.471   3.474   4.193  1.0406 -0.2881  0.2921
 4052SOL     OW23614   2.493   2.811   5.305 -0.5691 -0.0571 -0.1441
 4052SOL    HW123615   2.416   2.760   5.277 -0.5634 -0.7010  1.0189
 4052SOL    HW223616   2.535   2.817   5.219 -0.0868 -1.2188  0.0238
 4053SOL     OW23617   3.660   1.284   5.244 -0.3631 -0.3656  0.1411
 4053SOL    HW123618   3.579   1.252   5.282 -2.1019  3.6540 -0.2415
 4053SOL    HW223619   3.632   1.305   5.155  0.4244 -0.1056 -0.0529
 4054SOL     OW23620   0.628   4.024   4.641 -0.5086  0.3068  0.3422
 4054SOL    HW123621   0.642   3.975   4.722  0.6732  1.0350  0.5737
 4054SOL    HW223622   0.658   3.966   4.571  0.2924 -0.4442  1.3136
 4055SOL     OW23623   4.074   4.335  11.663  0.0000 -0.0143 -0.5804
 4055SOL    HW123624   4.005   4.365  11.603 -1.7570 -2.4937  0.1878
 4055SOL    HW223625   4.106   4.413  11.707 -2.0205  0.2139  0.4877
 4056SOL     OW23626   2.733   3.127  15.615 -0.1439  0.0577 -0.0358
 4056SOL    HW123627   2.810   3.149  15.562 -2.5799  1.9846 -2.7552
 4056SOL    HW223628   2.749   3.040  15.651 -1.8308  0.8406  2.5940
 4057SOL     OW23629   4.489   4.104   7.045  0.8675 -0.3139 -0.1285
 4057SOL    HW123630   4.585   4.103   7.037  0.8679  0.7827 -0.2342
 4057SOL    HW223631   4.467   4.190   7.080 -3.7960 -0.8560 -1.7604
 4058SOL     OW23632   1.577   4.064   8.557  0.4735  0.0213 -0.2350
 4058SOL    HW123633   1.541   4.003   8.622 -0.8276  0.6506 -0.3704
 4058SOL    HW223634   1.514   4.049   8.487  1.4503  0.2274 -1.1549
 4059SOL     OW23635   2.661   3.668   3.405  0.1310 -0.2323  0.4302
 4059SOL    HW123636   2.630   3.631   3.322  1.1667  0.1217 -0.1231
 4059SOL    HW223637   2.622   3.756   3.411  0.5418 -0.0072 -0.1993
 4060SOL     OW23638   1.726   2.829  12.742  0.1673  0.0113  0.4188
 4060SOL    HW123639   1.702   2.810  12.833 -0.8671 -0.1300  0.1216
 4060SOL    HW223640   1.718   2.745  12.698  2.4764  0.6998 -1.2916
 4061SOL     OW23641   3.669   0.559   4.701 -0.2344  0.3129  0.5279
 4061SOL    HW123642   3.655   0.588   4.611  0.8147  0.5787  0.4609
 4061SOL    HW223643   3.620   0.631   4.742 -1.3524  0.2971 -0.7732
 4062SOL     OW23644   1.334   1.385   7.338  0.2254 -0.7962  0.7650
 4062SOL    HW123645   1.343   1.290   7.333  0.7035 -0.4623 -4.1061
 4062SOL    HW223646   1.349   1.407   7.430  1.5039 -2.3158  0.9241
 4063SOL     OW23647   1.768   0.480   6.116 -0.1599  0.1780 -0.4617
 4063SOL    HW123648   1.715   0.401   6.104  0.2755  0.2238 -2.5851
 4063SOL    HW223649   1.695   0.532   6.148  0.2530 -0.7756  2.0407
 4064SOL     OW23650   2.584   2.483   4.375 -0.0571  0.3455 -0.1986
 4064SOL    HW123651   2.548   2.428   4.445 -0.1382 -0.5381 -0.9273
 4064SOL    HW223652   2.540   2.454   4.294  0.8158  0.7724 -0.8213
 4065SOL     OW23653   4.359   1.108   0.727  0.3074  0.1259 -0.1718
 4065SOL    HW123654   4.419   1.055   0.780 -0.2098 -0.0636  0.2299
 4065SOL    HW223655   4.406   1.191   0.725 -1.9209  1.4181  2.2992
 4066SOL     OW23656   0.314   1.101   8.875  0.1919 -0.8672  0.1181
 4066SOL    HW123657   0.304   1.092   8.970 -4.1187 -2.0315 -0.4805
 4066SOL    HW223658   0.391   1.047   8.854  0.8269  0.5885 -1.2949
 4067SOL     OW23659   2.999   2.046  11.932  0.8660  0.1645 -0.0045
 4067SOL    HW123660   2.938   2.117  11.917  2.7023  2.1014  1.7950
 4067SOL    HW223661   2.949   1.969  11.903  0.9528 -0.2754  1.0221
 4068SOL     OW23662   0.410   2.695   2.524 -0.0980 -0.0665 -0.3766
 4068SOL    HW123663   0.363   2.746   2.590  0.9341 -0.2542  0.4923
 4068SOL    HW223664   0.475   2.648   2.575  0.1755 -1.6297 -2.1471
 4069SOL     OW23665   0.514   3.773   7.804  0.1617  0.6463  0.1898
 4069SOL    HW123666   0.507   3.690   7.758  1.2155 -0.0557  1.3011
 4069SOL    HW223667   0.467   3.830   7.743  0.2719 -1.0369 -1.4486
 4070SOL     OW23668   2.727   4.052   4.209 -0.6512  0.3285 -0.4485
 4070SOL    HW123669   2.741   4.048   4.303 -1.5476 -0.1866 -0.3333
 4070SOL    HW223670   2.632   4.064   4.216 -0.7039 -0.2466 -0.1836
 4071SOL     OW23671   2.422   0.986   6.631  0.1148 -0.2511 -0.3801
 4071SOL    HW123672   2.426   1.023   6.720  3.3657  0.2319 -0.7411
 4071SOL    HW223673   2.334   0.950   6.626 -0.6029  0.9827  3.1965
 4072SOL     OW23674   4.440   1.409  14.438 -0.2315 -0.0269  0.3465
 4072SOL    HW123675   4.424   1.316  14.423  0.8228 -0.1399 -0.1419
 4072SOL    HW223676   4.454   1.446  14.350  0.2864 -0.4287  0.2566
 4073SOL     OW23677   1.040   4.272   2.457 -0.2892 -0.0336 -0.2761
 4073SOL    HW123678   1.015   4.239   2.370 -3.0954 -0.5551  0.7448
 4073SOL    HW223679   0.985   4.350   2.462 -1.9641 -1.1489 -1.0816
 4074SOL     OW23680   0.667   0.477   3.591  0.1824  0.0158  0.3397
 4074SOL    HW123681   0.572   0.465   3.594  0.3073 -1.1204 -0.1049
 4074SOL    HW223682   0.682   0.553   3.535  0.9039 -0.8084 -0.6106
 4075SOL     OW23683   3.546   2.232   2.166 -0.6286  0.6864  0.1867
 4075SOL    HW123684   3.608   2.171   2.126  0.4324  1.1690  1.0926
 4075SOL    HW223685   3.467   2.179   2.156  0.1309 -0.7922  2.1203
 4076SOL     OW23686   0.263   4.409   3.064  0.0989  0.1812  0.4493
 4076SOL    HW123687   0.182   4.445   3.027  0.0456  1.8269  2.1592
 4076SOL    HW223688   0.334   4.433   3.005 -0.1744  2.2724  0.9571
 4077SOL     OW23689   0.479   0.802   4.763  0.1166  0.2027 -0.3078
 4077SOL    HW123690   0.455   0.716   4.727  0.1860  0.4163 -0.8573
 4077SOL    HW223691   0.437   0.867   4.706 -0.0042  1.1534  0.8633
 4078SOL     OW23692   0.715   3.913   0.554  0.0780 -1.1246  0.4561
 4078SOL    HW123693   0.764   3.879   0.479  1.9066  0.5206  0.9329
 4078SOL    HW223694   0.640   3.955   0.510 -0.0103  0.0779  1.7600
 4079SOL     OW23695   2.259   0.271   8.257 -0.6357  0.5416  0.4123
 4079SOL    HW123696   2.298   0.234   8.336  0.4914 -0.9119 -0.8300
 4079SOL    HW223697   2.183   0.321   8.286 -0.6620 -0.5984  2.2860
 4080SOL     OW23698   3.584   0.546   5.000 -0.1369 -0.2790  0.2169
 4080SOL    HW123699   3.620   0.483   4.937  0.5743 -0.3547  0.6963
 4080SOL    HW223700   3.491   0.556   4.979 -0.5439  0.8381  2.5057
 4081SOL     OW23701   0.672   4.578  15.670  0.2474 -0.5359  0.0866
 4081SOL    HW123702   0.661   4.671  15.689  0.5694 -0.8055  1.5678
 4081SOL    HW223703   0.737   4.571  15.600  0.1542 -3.1794  0.2722
 4082SOL     OW23704   4.609   0.427   7.647  0.2211  0.0149  0.2421
 4082SOL    HW123705   4.664   0.457   7.720  0.3644  1.5865 -0.5023
 4082SOL    HW223706   4.528   0.471   7.673  0.5583  1.2774 -0.8316
 4083SOL     OW23707   4.450   1.814   5.577  0.3387  0.3742  0.3356
 4083SOL    HW123708   4.356   1.828   5.568  0.3531 -0.4466 -1.0913
 4083SOL    HW223709   4.476   1.900   5.543 -1.2988  0.3200 -1.0446
 4084SOL     OW23710   2.923   3.726   2.534 -0.1057  0.5603  0.0630
 4084SOL    HW123711   2.859   3.797   2.535 -0.7797 -0.0388 -0.2110
 4084SOL    HW223712   3.008   3.767   2.519 -0.1714 -0.2977 -2.6277
 4085SOL     OW23713   1.980   1.163   2.160 -0.0252  0.1326  0.2944
 4085SOL    HW123714   1.903   1.173   2.103 -1.0874 -1.8931  1.3748
 4085SOL    HW223715   2.029   1.098   2.110  0.9719  0.2241  1.1730
 4086SOL     OW23716   1.229   0.972   8.003  0.1002 -0.2609 -0.4118
 4086SOL    HW123717   1.322   0.970   7.980  0.4401  3.4735  0.5845
 4086SOL    HW223718   1.235   0.967   8.099 -0.1381 -0.1625 -0.3928
 4087SOL     OW23719   1.982   2.776   0.505  0.3938  0.3924 -0.2136
 4087SOL    HW123720   1.990   2.844   0.571  0.3448 -0.8813  1.0947
 4087SOL    HW223721   2.007   2.703   0.561  1.1405 -0.3305 -1.4898
 4088SOL     OW23722   3.579   1.544   1.565  0.4635  0.0404 -0.0606
 4088SOL    HW123723   3.625   1.547   1.649 -0.4132  1.2334  0.3770
 4088SOL    HW223724   3.599   1.628   1.525  2.1331 -0.9626 -1.2968
 4089SOL     OW23725   4.001   2.679  13.570 -0.4579 -0.2020  0.3119
 4089SOL    HW123726   4.017   2.704  13.661 -0.0830 -1.7352  0.6624
 4089SOL    HW223727   3.924   2.625  13.588 -2.5868  2.6490 -0.3335
 4090SOL     OW23728   3.871   4.705  11.787 -0.7333  0.5888 -0.8329
 4090SOL    HW123729   3.961   4.680  11.765 -0.6312  0.5913 -0.4175
 4090SOL    HW223730   3.892   0.027  11.867  1.2462  0.4873 -1.2877
 4091SOL     OW23731   3.780   4.473   5.808 -0.8923  0.2110  0.0661
 4091SOL    HW123732   3.767   4.466   5.713 -1.9893  1.4115  0.1376
 4091SOL    HW223733   3.706   4.420   5.839 -0.3897  0.6778  2.0472
 4092SOL     OW23734   3.410   2.731   4.303 -0.3382  0.2316 -0.5020
 4092SOL    HW123735   3.448   2.644   4.312  1.4176  1.3530  2.5236
 4092SOL    HW223736   3.321   2.719   4.338 -0.9666  1.1611 -1.7706
 4093SOL     OW23737   0.507   4.329   3.962  0.2952 -0.0733  0.3828
 4093SOL    HW123738   0.575   4.369   3.907 -0.5513 -1.9499 -2.0472
 4093SOL    HW223739   0.550   4.345   4.046 -0.7694  4.6701  0.0363
 4094SOL     OW23740   4.336   2.900  15.070  0.2075  0.4867 -0.1839
 4094SOL    HW123741   4.309   2.939  14.986  0.9988 -0.5671 -0.9353
 4094SOL    HW223742   4.257   2.854  15.097  1.7344 -3.0991 -1.8244
 4095SOL     OW23743   1.676   4.338   2.514  0.1060  0.3426 -0.1578
 4095SOL    HW123744   1.741   4.268   2.509 -0.5755 -0.2267 -1.0589
 4095SOL    HW223745   1.691   4.368   2.604  0.0686  3.1538 -1.1181
 4096SOL     OW23746   4.488   1.540   2.579  0.6877 -0.2076  0.3584
 4096SOL    HW123747   4.467   1.447   2.591  0.7408 -0.1325  1.0063
 4096SOL    HW223748   4.471   1.569   2.668 -0.8487 -1.4057  0.4555
 4097SOL     OW23749   0.668   4.638   2.389  0.5399 -0.2241  0.6609
 4097SOL    HW123750   0.627   4.724   2.397 -2.3794 -1.4359 -1.1651
 4097SOL    HW223751   0.709   4.653   2.303 -0.3838  1.2347  0.4894
 4098SOL     OW23752   0.823   1.599  14.412  0.2155 -0.3015  0.3444
 4098SOL    HW123753   0.785   1.516  14.442 -0.6343 -0.1667 -0.3535
 4098SOL    HW223754   0.844   1.637  14.497 -0.6495  1.4380 -0.2150
 4099SOL     OW23755   4.569   0.881   8.484  0.5692  0.2317 -0.1017
 4099SOL    HW123756   4.489   0.841   8.518  0.8779 -1.4368 -1.3903
 4099SOL    HW223757   4.628   0.870   8.559 -0.2686  0.6154  0.6218
 4100SOL     OW23758   3.991   2.337   7.278 -0.1952  0.2730  0.1104
 4100SOL    HW123759   4.065   2.276   7.272  0.4014  1.1775 -1.4230
 4100SOL    HW223760   3.944   2.304   7.354  0.1580 -0.3145  0.0782
 4101SOL     OW23761   2.236   1.660   4.274  0.0406 -0.3610 -0.2753
 4101SOL    HW123762   2.169   1.718   4.310 -2.4338 -2.5202 -1.3495
 4101SOL    HW223763   2.192   1.650   4.189 -1.8770 -1.2427  0.8265
 4102SOL     OW23764   1.736   3.509   6.327 -0.2739  0.4546  0.2401
 4102SOL    HW123765   1.780   3.544   6.249 -0.4080 -1.3682 -0.6516
 4102SOL    HW223766   1.819   3.476   6.362 -0.1926  0.0786 -0.3073
 4103SOL     OW23767   2.028   0.841   0.505  0.1175  0.4897 -0.2503
 4103SOL    HW123768   2.122   0.858   0.510  0.3417 -0.7367 -0.4276
 4103SOL    HW223769   2.010   0.861   0.413 -0.4581  0.0635 -0.2242
 4104SOL     OW23770   3.837   0.325   9.058  0.2264 -0.4113  0.2231
 4104SOL    HW123771   3.795   0.410   9.072  1.7772  0.3266  0.4242
 4104SOL    HW223772   3.759   0.279   9.027  0.7591  0.0627 -1.8175
 4105SOL     OW23773   4.135   0.937   8.902  0.5396 -0.4541  0.6541
 4105SOL    HW123774   4.074   0.870   8.872 -2.0818  1.8266  0.9151
 4105SOL    HW223775   4.203   0.873   8.925  1.6595  0.7370  0.6261
 4106SOL     OW23776   1.883   4.611   3.609 -0.2012  0.5683  0.1071
 4106SOL    HW123777   1.971   4.627   3.576  0.0055  2.2034  1.4679
 4106SOL    HW223778   1.880   4.686   3.669  2.6484 -0.4878  1.5999
 4107SOL     OW23779   2.718   3.213   4.109  0.4698 -0.0432  0.1586
 4107SOL    HW123780   2.728   3.221   4.204  2.3522  3.4837 -0.3419
 4107SOL    HW223781   2.690   3.301   4.085 -2.0699 -0.6787  0.7027
 4108SOL     OW23782   3.209   3.643   2.752  0.2511  0.1524 -0.5382
 4108SOL    HW123783   3.120   3.610   2.752 -0.0045  0.8310 -2.2670
 4108SOL    HW223784   3.209   3.689   2.836 -2.4328  0.3127 -0.6171
 4109SOL     OW23785   1.679   0.399   5.497 -0.3665 -0.2409 -0.0687
 4109SOL    HW123786   1.649   0.374   5.409 -0.1503  3.1459 -1.0888
 4109SOL    HW223787   1.765   0.431   5.470 -0.3513  0.8753  1.3653
 4110SOL     OW23788   3.516   1.677   7.799  0.1423 -0.0681  0.4669
 4110SOL    HW123789   3.430   1.692   7.838  0.2730 -2.8020  1.8311
 4110SOL    HW223790   3.510   1.705   7.707  0.0978  1.4442  0.9471
 4111SOL     OW23791   3.593   1.530   1.086  0.0765 -0.4688 -0.9916
 4111SOL    HW123792   3.552   1.581   1.016 -0.5434  0.7624  0.2602
 4111SOL    HW223793   3.610   1.605   1.143 -1.6513  0.0641 -1.1744
 4112SOL     OW23794   4.481   3.601   5.259  0.0585  0.1642 -0.3732
 4112SOL    HW123795   4.439   3.687   5.248  0.6823  0.4470 -0.5719
 4112SOL    HW223796   4.573   3.625   5.272 -0.1797  1.6673 -1.3612
 4113SOL     OW23797   3.114   1.697   7.938 -0.0797  0.3994 -0.1194
 4113SOL    HW123798   3.155   1.649   7.866 -1.5104 -1.0200  0.0086
 4113SOL    HW223799   3.162   1.666   8.015  0.8683 -2.7869 -1.9639
 4114SOL     OW23800   2.491   2.709   3.347 -0.4010 -0.0286 -0.0374
 4114SOL    HW123801   2.490   2.628   3.296  3.4666 -0.1975  0.1583
 4114SOL    HW223802   2.427   2.702   3.418  0.4021 -1.3351  0.5656
 4115SOL     OW23803   3.078   1.257  14.445 -0.5250  0.0855 -0.6929
 4115SOL    HW123804   3.169   1.231  14.460 -0.6133 -0.3537 -0.9389
 4115SOL    HW223805   3.092   1.294  14.358  0.3090 -1.7093 -1.3087
 4116SOL     OW23806   3.511   2.913  14.343  0.1665 -0.4615  0.0129
 4116SOL    HW123807   3.488   2.940  14.432  3.1988  1.3185  0.2851
 4116SOL    HW223808   3.429   2.880  14.308 -0.7191  0.3177  1.3950
 4117SOL     OW23809   2.174   2.870  17.368 -0.4560  0.5902  0.3927
 4117SOL    HW123810   2.258   2.862  17.412 -0.9829 -2.2208  0.8347
 4117SOL    HW223811   2.128   2.800  17.414  0.5397 -1.4876 -1.7337
 4118SOL     OW23812   4.572   1.937  17.459 -0.4933 -0.0255  0.3911
 4118SOL    HW123813   4.645   1.921  17.400 -0.0239 -0.0440  0.9811
 4118SOL    HW223814   4.578   2.029  17.483 -0.5198 -0.5653  2.4853
 4119SOL     OW23815   4.328   0.385   4.633  0.0696  0.3310 -0.3632
 4119SOL    HW123816   4.290   0.316   4.578 -3.2496  1.5440  0.4662
 4119SOL    HW223817   4.305   0.363   4.723  1.9689  1.4583  0.4039
 4120SOL     OW23818   0.412   2.525  12.283 -0.1838  0.2680 -0.0441
 4120SOL    HW123819   0.399   2.543  12.376 -1.8015  0.6430 -0.3473
 4120SOL    HW223820   0.409   2.616  12.253  1.1663  1.1910  2.6220
 4121SOL     OW23821   1.977   0.354   6.369  0.4332 -0.9564  0.3772
 4121SOL    HW123822   2.054   0.410   6.363 -0.9381  0.8433 -0.4710
 4121SOL    HW223823   1.912   0.424   6.358  1.3953 -0.1413 -0.1942
 4122SOL     OW23824   3.804   2.437   7.753 -0.1829  0.0795  0.1074
 4122SOL    HW123825   3.736   2.417   7.817 -1.6630 -0.7032 -1.6824
 4122SOL    HW223826   3.877   2.444   7.815 -0.0978  0.4474 -0.0376
 4123SOL     OW23827   2.849   2.731   4.160 -0.1546  0.0009 -0.1248
 4123SOL    HW123828   2.932   2.688   4.182  0.3988  1.7759  1.2717
 4123SOL    HW223829   2.817   2.757   4.246 -0.4936 -0.6937 -0.0337
 4124SOL     OW23830   0.614   1.916   1.790  0.1556  0.0958  0.8351
 4124SOL    HW123831   0.558   1.845   1.758 -0.0995  0.6391  0.0701
 4124SOL    HW223832   0.567   1.949   1.866  1.2758 -1.0980  2.0320
 4125SOL     OW23833   0.604   1.405   6.181 -0.3994 -0.6872 -0.4245
 4125SOL    HW123834   0.511   1.402   6.162 -0.4774  1.1895 -0.2777
 4125SOL    HW223835   0.602   1.493   6.216  0.9044 -1.0470  0.5616
 4126SOL     OW23836   1.889   4.170   1.704 -0.4918 -0.3651 -0.5356
 4126SOL    HW123837   1.887   4.264   1.690 -1.4938 -0.2845  0.0936
 4126SOL    HW223838   1.848   4.149   1.620 -0.2500 -1.3219 -0.4198
 4127SOL     OW23839   3.388   4.445   6.910  0.3064  0.0317 -0.3923
 4127SOL    HW123840   3.322   4.403   6.965  0.4555 -1.3397 -1.2497
 4127SOL    HW223841   3.379   4.536   6.938 -2.4028 -0.3463 -0.0849
 4128SOL     OW23842   1.692   0.278   2.152  0.3273 -0.2672 -0.4220
 4128SOL    HW123843   1.602   0.245   2.148 -0.4154  1.7053  0.0507
 4128SOL    HW223844   1.696   0.299   2.245 -3.7385  1.6548 -0.6819
 4129SOL     OW23845   0.305   1.296   2.737 -0.0260 -0.2217  0.4708
 4129SOL    HW123846   0.387   1.304   2.688 -0.1984  1.2216  0.4150
 4129SOL    HW223847   0.252   1.338   2.670  1.1128  0.8587  0.2382
 4130SOL     OW23848   1.287   1.394  16.326  0.0059 -0.2846 -0.3043
 4130SOL    HW123849   1.222   1.420  16.391 -1.1687 -0.5377 -1.3646
 4130SOL    HW223850   1.346   1.469  16.332  1.6953 -1.6447 -0.1413
 4131SOL     OW23851   4.696   0.576   2.375  0.5203  0.2883  0.6072
 4131SOL    HW123852   0.059   0.538   2.367 -0.2189 -1.0546 -1.1639
 4131SOL    HW223853   4.645   0.501   2.405  0.7416 -0.5587 -1.1191
 4132SOL     OW23854   3.198   0.853   8.767  0.1629  0.6186 -0.0853
 4132SOL    HW123855   3.122   0.831   8.820 -1.1492  0.0533 -2.1834
 4132SOL    HW223856   3.149   0.922   8.721 -0.0071  1.4928  1.4036
 4133SOL     OW23857   4.061   3.841   2.790  0.1790 -0.2985  0.0712
 4133SOL    HW123858   4.139   3.790   2.813  0.0278 -0.7071 -0.3333
 4133SOL    HW223859   4.060   3.919   2.846  1.1329 -1.0001  1.0766
 4134SOL     OW23860   0.499   2.344   9.206 -0.6267 -0.5857 -0.0114
 4134SOL    HW123861   0.506   2.339   9.111 -3.3218 -0.2119 -0.2178
 4134SOL    HW223862   0.470   2.255   9.224  1.8317 -1.3426  0.1554
 4135SOL     OW23863   2.579   3.653   9.469  0.4744  0.2593 -0.1134
 4135SOL    HW123864   2.585   3.560   9.492 -1.0756  0.1863  0.0093
 4135SOL    HW223865   2.659   3.687   9.509  0.3924  0.9465 -0.5282
 4136SOL     OW23866   1.513   2.182  16.278  0.0959 -0.4835  0.0061
 4136SOL    HW123867   1.517   2.142  16.365 -0.8871  3.0901  1.6855
 4136SOL    HW223868   1.465   2.263  16.296 -0.5626 -1.0986  1.0304
 4137SOL     OW23869   1.487   0.073   9.922  0.1562 -0.1193 -0.4581
 4137SOL    HW123870   1.457   0.094   9.833 -3.0441  0.3505  0.7471
 4137SOL    HW223871   1.410   0.098   9.973 -0.4579 -0.2666 -1.3057
 4138SOL     OW23872   2.810   2.388  11.938  0.1485  0.8417  0.4262
 4138SOL    HW123873   2.717   2.368  11.947 -0.2674  2.1003 -1.1451
 4138SOL    HW223874   2.836   2.329  11.867 -1.9441  1.2786 -0.7068
 4139SOL     OW23875   4.066   2.689   3.266 -0.1848 -0.7088 -0.3139
 4139SOL    HW123876   4.040   2.693   3.174 -1.6196  2.7283  0.2618
 4139SOL    HW223877   4.002   2.747   3.307  0.8456  0.5754 -0.5490
 4140SOL     OW23878   3.208   2.277   8.749  0.0898 -0.4248 -0.0286
 4140SOL    HW123879   3.172   2.351   8.798  0.2009 -0.9318  0.8145
 4140SOL    HW223880   3.197   2.315   8.662  0.4319 -1.4988 -0.5330
 4141SOL     OW23881   0.471   3.994   9.371  0.2019  0.1609  0.2104
 4141SOL    HW123882   0.399   4.017   9.313 -0.4383 -1.3011  0.4301
 4141SOL    HW223883   0.490   4.079   9.413  2.5868 -1.4424  2.4161
 4142SOL     OW23884   2.913   3.158   1.605 -0.3916 -0.2987  0.4015
 4142SOL    HW123885   2.967   3.087   1.569  0.6733 -0.1064  1.5909
 4142SOL    HW223886   2.849   3.115   1.661 -0.2276 -0.4517  0.4738
 4143SOL     OW23887   3.664   1.305  12.509 -0.0221 -0.6060  1.1071
 4143SOL    HW123888   3.584   1.357  12.504 -0.0919 -0.7462  0.7670
 4143SOL    HW223889   3.628   1.224  12.473 -2.5390  1.4843 -1.1062
 4144SOL     OW23890   0.942   3.261   8.801 -0.4944  0.2597  0.2492
 4144SOL    HW123891   0.925   3.305   8.885 -1.5591 -0.7250  0.5504
 4144SOL    HW223892   0.856   3.276   8.763 -0.4564 -2.0357 -0.7214
 4145SOL     OW23893   3.169   4.706  14.596  0.6966  0.1285 -0.0002
 4145SOL    HW123894   3.209   4.701  14.509 -0.5177  2.1991 -0.6603
 4145SOL    HW223895   3.175   0.075  14.587 -0.1168  0.0244 -1.6503
 4146SOL     OW23896   2.544   2.714  11.355  0.0942 -0.0941 -0.3601
 4146SOL    HW123897   2.534   2.789  11.297 -0.1609  1.1330  1.2910
 4146SOL    HW223898   2.639   2.713  11.364  0.0471 -2.7561 -0.0349
 4147SOL     OW23899   2.760   0.730   6.763  0.0450  0.0656 -0.5917
 4147SOL    HW123900   2.845   0.766   6.785 -0.7633  1.0537  0.9857
 4147SOL    HW223901   2.714   0.732   6.848 -2.3444 -4.5236 -1.7828
 4148SOL     OW23902   2.505   3.858  11.603 -0.6002  0.3526  0.8470
 4148SOL    HW123903   2.437   3.792  11.618 -0.1907 -0.2054  0.2387
 4148SOL    HW223904   2.581   3.801  11.616  0.2203  1.4058  0.6261
 4149SOL     OW23905   3.144   1.459  15.031 -0.4520 -0.4057 -0.3572
 4149SOL    HW123906   3.164   1.460  15.125 -0.3230  3.2287 -0.4058
 4149SOL    HW223907   3.146   1.554  15.021  1.3706 -0.5500 -1.2829
 4150SOL     OW23908   0.255   4.367   8.283  0.4072 -0.2268  0.5086
 4150SOL    HW123909   0.199   4.371   8.205  0.6622 -0.7819  0.2960
 4150SOL    HW223910   0.192   4.322   8.340  0.9338 -0.8630  0.5776
 4151SOL     OW23911   2.064   1.338   2.959  0.2092  0.4612  0.1114
 4151SOL    HW123912   1.992   1.325   2.897  0.5118 -0.0007 -0.1353
 4151SOL    HW223913   2.111   1.399   2.902 -0.3416  1.5724  0.8288
 4152SOL     OW23914   3.372   0.256   3.880  0.1994 -0.3168  0.8771
 4152SOL    HW123915   3.348   0.188   3.943  0.0639 -1.2396 -0.1848
 4152SOL    HW223916   3.424   0.311   3.938  2.6945 -0.4735 -1.2474
 4153SOL     OW23917   4.241   0.617   7.950 -0.2885 -0.1342 -0.4399
 4153SOL    HW123918   4.234   0.605   7.856  2.3203  1.2773 -0.7847
 4153SOL    HW223919   4.263   0.710   7.955  0.7564 -0.3453 -1.2411
 4154SOL     OW23920   2.398   1.792   5.233  0.0075  0.2617 -0.6442
 4154SOL    HW123921   2.437   1.803   5.319 -2.4301 -1.3045  0.6300
 4154SOL    HW223922   2.415   1.881   5.202 -0.6671  1.0676  1.3108
 4155SOL     OW23923   0.891   2.518   7.533 -0.0088 -0.0912 -0.3014
 4155SOL    HW123924   0.894   2.533   7.439 -1.5732 -1.4050 -0.5473
 4155SOL    HW223925   0.880   2.423   7.538  0.4365 -0.0599  1.4496
 4156SOL     OW23926   3.402   4.278  11.792  0.5285  0.2168  0.1611
 4156SOL    HW123927   3.367   4.350  11.844  1.3500  1.6824 -1.3068
 4156SOL    HW223928   3.489   4.273  11.831  0.2738 -2.8205  0.3352
 4157SOL     OW23929   2.727   1.512   0.022  0.0318 -0.5300  0.4285
 4157SOL    HW123930   2.809   1.510   0.072 -1.3662 -2.6829  2.6024
 4157SOL    HW223931   2.749   1.452  17.653 -1.7614 -0.1897 -0.4112
 4158SOL     OW23932   1.645   4.026   4.852  0.4966 -0.0402 -0.1177
 4158SOL    HW123933   1.732   4.052   4.883  0.6473  0.3167 -0.8510
 4158SOL    HW223934   1.597   4.024   4.935 -0.9653  1.3637 -0.9433
 4159SOL     OW23935   1.510   2.340   7.044 -0.7172 -0.1658 -0.8401
 4159SOL    HW123936   1.469   2.256   7.027 -1.5820  0.1151 -0.1348
 4159SOL    HW223937   1.446   2.369   7.109  0.8474 -0.0857  0.6696
 4160SOL     OW23938   3.967   0.172   8.427 -0.1490  0.3213 -0.8505
 4160SOL    HW123939   4.006   0.257   8.408  1.5436 -0.3408 -0.3552
 4160SOL    HW223940   3.873   0.187   8.436 -0.4285 -1.1461 -1.3308
 4161SOL     OW23941   3.239   4.005  17.532  0.1007 -0.0040  0.0834
 4161SOL    HW123942   3.144   4.000  17.523  0.3285 -1.9455 -1.3569
 4161SOL    HW223943   3.252   4.089  17.490  2.2855  0.3773  1.4788
 4162SOL     OW23944   1.947   3.324  17.568  0.0057 -0.4136  0.3113
 4162SOL    HW123945   1.911   3.403  17.527 -0.4815 -0.7088  0.1754
 4162SOL    HW223946   2.038   3.349  17.585 -0.2568  2.1982 -2.0355
 4163SOL     OW23947   0.272   3.201   7.587  0.8257  0.3401  0.0921
 4163SOL    HW123948   0.289   3.290   7.619  0.5375  0.4527 -0.0587
 4163SOL    HW223949   0.214   3.174   7.659 -0.3722 -0.6218 -1.2179
 4164SOL     OW23950   1.013   0.415  16.710  0.3811  0.0463  0.3446
 4164SOL    HW123951   1.011   0.440  16.618  0.2372  1.6008  0.7790
 4164SOL    HW223952   1.054   0.329  16.702 -0.4407 -0.2484 -0.7208
 4165SOL     OW23953   0.818   2.828   3.381 -0.2029 -0.3887  0.1000
 4165SOL    HW123954   0.891   2.773   3.408 -1.1718 -1.4770  0.5161
 4165SOL    HW223955   0.769   2.833   3.464 -0.3553 -2.3149  0.1186
 4166SOL     OW23956   0.430   2.199   2.151  0.2955  0.1106  0.2236
 4166SOL    HW123957   0.407   2.160   2.236  0.2049  1.9261  1.0349
 4166SOL    HW223958   0.436   2.292   2.175  3.3545 -0.1936  0.6080
 4167SOL     OW23959   2.349   0.573   3.338  0.3625 -0.1138 -0.6186
 4167SOL    HW123960   2.261   0.577   3.300 -0.4700  0.0435  1.3437
 4167SOL    HW223961   2.396   0.559   3.256  2.1108 -0.7856  0.5164
 4168SOL     OW23962   0.667   3.527  11.253 -0.2845  0.4360  0.0913
 4168SOL    HW123963   0.759   3.503  11.256 -0.5135 -0.3913  0.3713
 4168SOL    HW223964   0.657   3.597  11.188 -0.8930 -0.1433 -0.4480
 4169SOL     OW23965   0.100   2.922   2.744  0.1763 -0.8970 -0.3540
 4169SOL    HW123966   0.192   2.898   2.749  0.8567  1.8543  0.1168
 4169SOL    HW223967   0.118   3.016   2.745  2.5493 -1.3553  0.7239
 4170SOL     OW23968   1.980   1.705   8.872 -0.1900  0.1041  0.3558
 4170SOL    HW123969   2.063   1.725   8.831 -1.5545 -1.2086 -3.0110
 4170SOL    HW223970   1.933   1.786   8.853 -1.4552 -1.6101 -3.7205
 4171SOL     OW23971   0.929   3.587  15.512 -0.7688  0.4760  0.5245
 4171SOL    HW123972   0.853   3.609  15.565 -1.4052 -0.8523  0.1602
 4171SOL    HW223973   0.980   3.667  15.497  0.3319 -0.0816  1.2827
 4172SOL     OW23974   1.556   3.528   3.723 -0.4921  0.0990 -0.1524
 4172SOL    HW123975   1.489   3.592   3.699 -0.2013 -0.1003 -1.4754
 4172SOL    HW223976   1.501   3.450   3.710 -0.2687 -0.1252  0.2495
 4173SOL     OW23977   2.296   0.142   5.388  0.1116 -0.0253  0.1194
 4173SOL    HW123978   2.238   0.154   5.463 -2.1449 -0.2553 -1.5993
 4173SOL    HW223979   2.251   0.071   5.343  1.4382  0.4387 -1.9360
 4174SOL     OW23980   0.652   1.760   9.217  0.0277  0.2506  0.0900
 4174SOL    HW123981   0.661   1.834   9.156 -1.6229  2.0864  2.0579
 4174SOL    HW223982   0.735   1.720   9.192 -1.0186 -1.4297 -0.7402
 4175SOL     OW23983   0.756   0.704   6.105  0.4179 -0.1606 -0.4884
 4175SOL    HW123984   0.758   0.680   6.197  1.3941 -0.2784 -0.5355
 4175SOL    HW223985   0.810   0.627   6.088  1.1821  0.0340  1.0196
 4176SOL     OW23986   1.392   2.707   8.730  0.4671 -0.1854  0.2378
 4176SOL    HW123987   1.325   2.642   8.711  0.9519 -1.1040  1.7422
 4176SOL    HW223988   1.380   2.727   8.823  1.7124  0.7562  0.1968
 4177SOL     OW23989   1.329   1.804   8.880  0.6825  0.3525  0.1204
 4177SOL    HW123990   1.318   1.719   8.925  1.5846  0.2097  0.0715
 4177SOL    HW223991   1.342   1.867   8.951 -1.1868 -1.2533  1.9202
 4178SOL     OW23992   4.622   0.180   7.760  1.0224  0.6461  0.0282
 4178SOL    HW123993   4.615   0.258   7.705  1.1182 -0.1856 -1.1551
 4178SOL    HW223994   4.640   0.224   7.843 -0.1977 -0.9412  1.1353
 4179SOL     OW23995   4.448   3.910   8.026 -0.3427  0.1142 -0.2354
 4179SOL    HW123996   4.368   3.895   8.076 -1.5007  0.7085 -1.9006
 4179SOL    HW223997   4.505   3.942   8.096  1.5605 -0.7836 -1.3560
 4180SOL     OW23998   4.327   2.945  16.883  0.0262  0.2940  0.4841
 4180SOL    HW123999   4.244   2.904  16.910 -0.2609  0.7220  0.2535
 4180SOL    HW224000   4.306   3.039  16.878 -0.1359  0.3217  1.7122
 4181SOL     OW24001   0.331   3.122   4.293 -0.4760  0.1327  0.3740
 4181SOL    HW124002   0.309   3.043   4.244  3.1650  0.0447 -1.1596
 4181SOL    HW224003   0.412   3.088   4.332 -0.0997  1.6455  0.9210
 4182SOL     OW24004   4.627   1.292   7.187 -0.1919  0.1193 -0.4656
 4182SOL    HW124005   4.631   1.197   7.198 -1.0629 -0.0224 -1.3524
 4182SOL    HW224006   4.715   1.307   7.151 -0.3265 -1.4028 -1.4317
 4183SOL     OW24007   1.554   0.319  17.105  0.2630  0.1525 -0.3883
 4183SOL    HW124008   1.484   0.255  17.100  0.0589  0.3276  0.2626
 4183SOL    HW224009   1.514   0.406  17.106  1.4159  0.6734  0.0960
 4184SOL     OW24010   0.387   0.471   8.764  0.3281 -0.1183 -0.1267
 4184SOL    HW124011   0.358   0.561   8.777  1.6351  0.2806  0.0577
 4184SOL    HW224012   0.475   0.474   8.802 -0.0986 -2.6851  1.0528
 4185SOL     OW24013   3.051   4.287  13.551  0.1166  0.3881 -1.1393
 4185SOL    HW124014   3.127   4.241  13.515  1.1824  1.5921 -0.4051
 4185SOL    HW224015   3.085   4.376  13.546 -0.0853  0.4698 -1.0343
 4186SOL     OW24016   3.449   1.486  12.477  0.5954  0.6211  0.2342
 4186SOL    HW124017   3.416   1.431  12.549  0.1959 -0.3399 -0.6881
 4186SOL    HW224018   3.413   1.440  12.402  1.5889 -0.2094  0.2674
 4187SOL     OW24019   4.591   2.621  12.581  0.3589  0.4252  0.4846
 4187SOL    HW124020   4.604   2.598  12.489 -3.9367  1.4051 -0.3849
 4187SOL    HW224021   4.677   2.661  12.596 -0.2570  1.1532  2.1524
 4188SOL     OW24022   4.327   1.750   6.374  0.2010  0.0629 -0.7459
 4188SOL    HW124023   4.282   1.790   6.448  0.0929  1.2642 -1.4572
 4188SOL    HW224024   4.327   1.659   6.405 -0.9891  0.0860 -0.6520
 4189SOL     OW24025   0.132   2.538   8.417  0.0517 -0.4453  0.0761
 4189SOL    HW124026   0.149   2.449   8.385 -0.2901 -0.8358  0.9578
 4189SOL    HW224027   0.168   2.531   8.506 -0.6284 -0.2813  0.3720
 4190SOL     OW24028   0.827   4.092  12.861 -0.6923 -0.2261  0.1946
 4190SOL    HW124029   0.909   4.044  12.845  0.3771  1.4307  0.7031
 4190SOL    HW224030   0.832   4.110  12.955 -0.2285  2.9112 -0.4147
 4191SOL     OW24031   2.308   0.859  12.183  0.1408 -0.0731 -0.0937
 4191SOL    HW124032   2.222   0.862  12.225  0.4062  0.6668  0.4059
 4191SOL    HW224033   2.300   0.779  12.131 -0.3417  0.1765 -0.3997
 4192SOL     OW24034   1.927   0.822   4.330  0.1322  0.3148  0.3391
 4192SOL    HW124035   1.872   0.890   4.291  1.8941  2.0996  1.0273
 4192SOL    HW224036   1.912   0.840   4.422  0.0159  2.3325 -0.0896
 4193SOL     OW24037   2.133   4.106   3.114  0.0173 -0.1549  0.0309
 4193SOL    HW124038   2.138   4.200   3.094  0.4771 -0.2576 -0.3563
 4193SOL    HW224039   2.216   4.077   3.075 -0.2079 -2.8706  1.5527
 4194SOL     OW24040   4.505   2.010   6.490 -0.1984  0.3917 -0.5758
 4194SOL    HW124041   4.433   1.974   6.438 -0.9318 -0.7312  1.1915
 4194SOL    HW224042   4.477   2.017   6.582  0.1299 -1.5198 -0.3166
 4195SOL     OW24043   2.128   0.746  12.901  0.0182  0.6992  0.1463
 4195SOL    HW124044   2.194   0.691  12.859  0.0083 -0.9009  2.2902
 4195SOL    HW224045   2.141   0.838  12.877 -1.3410  0.5229 -1.3292
 4196SOL     OW24046   2.454   2.753  17.232 -0.5976 -0.4628 -0.0003
 4196SOL    HW124047   2.526   2.690  17.231 -1.2563 -1.2446  0.7993
 4196SOL    HW224048   2.392   2.708  17.290 -0.6664  1.4164  1.3779
 4197SOL     OW24049   3.088   2.696   4.724  0.7787  0.1129  0.0057
 4197SOL    HW124050   3.041   2.613   4.714  0.1125  0.8400 -2.7834
 4197SOL    HW224051   3.090   2.741   4.640 -1.1807 -0.3650 -0.3019
 4198SOL     OW24052   0.379   3.820   7.575 -0.7421  0.1640  0.3336
 4198SOL    HW124053   0.404   3.762   7.504  2.0704  0.9586  0.6800
 4198SOL    HW224054   0.353   3.901   7.532  3.1461  1.0526 -0.3012
 4199SOL     OW24055   0.073   2.012  12.412 -0.0175  0.2818  0.0218
 4199SOL    HW124056   0.063   1.987  12.504  2.9416  0.5690  0.4157
 4199SOL    HW224057   0.153   2.063  12.421 -0.8856  1.4962  0.8440
 4200SOL     OW24058   2.607   1.017   8.292 -0.9336  0.4952 -0.0655
 4200SOL    HW124059   2.666   1.091   8.277  1.2315 -1.5610 -1.8153
 4200SOL    HW224060   2.587   0.994   8.201  1.9890  2.3793 -1.1724
 4201SOL     OW24061   3.224   4.013  13.848 -0.0012  0.1727  0.4224
 4201SOL    HW124062   3.311   4.016  13.889 -0.3367 -0.4680  1.1897
 4201SOL    HW224063   3.167   4.027  13.924 -1.8882 -0.7540 -0.8451
 4202SOL     OW24064   4.725   2.136   8.016 -0.1871  0.1828 -0.3468
 4202SOL    HW124065   4.723   2.052   8.060  1.5688  0.0272 -0.5922
 4202SOL    HW224066   0.091   2.162   8.027 -0.6014  1.2002  0.6864
 4203SOL     OW24067   4.649   3.767   4.389  0.4152  0.1585 -0.0766
 4203SOL    HW124068   4.669   3.674   4.400 -2.3950 -0.3934  0.1692
 4203SOL    HW224069   0.011   3.799   4.366 -0.7912  3.1019 -0.5240
 4204SOL     OW24070   1.857   1.303   7.312 -0.4053 -0.5113  0.4678
 4204SOL    HW124071   1.852   1.324   7.219 -1.6027 -1.5023  0.3019
 4204SOL    HW224072   1.916   1.372   7.341 -0.5459 -0.2669  0.1599
 4205SOL     OW24073   1.176   4.421  12.427  0.1394  0.1077  0.0885
 4205SOL    HW124074   1.128   4.347  12.465  3.9529 -1.4265  1.9884
 4205SOL    HW224075   1.151   4.492  12.485  0.3370  0.2586 -0.0125
 4206SOL     OW24076   1.998   4.105   6.685 -0.4955  0.4286  0.2258
 4206SOL    HW124077   1.983   4.113   6.779 -2.6291  0.4354 -0.1300
 4206SOL    HW224078   2.092   4.120   6.673 -0.9358  2.2768 -0.8648
 4207SOL     OW24079   3.821   2.554   1.706  1.2194  0.2478  0.3167
 4207SOL    HW124080   3.798   2.639   1.669 -2.2958 -0.7356  0.2266
 4207SOL    HW224081   3.892   2.569   1.768  0.7662  1.5534  0.5046
 4208SOL     OW24082   2.834   0.349  13.884 -0.5513  0.5412 -0.5302
 4208SOL    HW124083   2.753   0.338  13.835 -0.2492  0.9779 -1.1282
 4208SOL    HW224084   2.826   0.443  13.899  0.4426  0.5830 -0.2372
 4209SOL     OW24085   2.213   0.924   7.236 -0.1799 -0.3670 -0.4168
 4209SOL    HW124086   2.141   0.968   7.191  0.0273  0.2019 -0.1963
 4209SOL    HW224087   2.204   0.961   7.324  0.7310 -1.1001 -0.0222
 4210SOL     OW24088   0.826   0.996   2.843 -0.5716  0.9307 -0.0037
 4210SOL    HW124089   0.879   0.916   2.846 -2.8721 -0.6206 -0.6904
 4210SOL    HW224090   0.884   1.060   2.884  1.5686 -2.1946  1.8653
 4211SOL     OW24091   2.141   1.513   4.615 -0.8996  0.4441  0.3041
 4211SOL    HW124092   2.155   1.443   4.551 -1.2529  1.4097 -0.8124
 4211SOL    HW224093   2.192   1.478   4.689  3.3134  0.7762 -2.4507
 4212SOL     OW24094   2.465   2.737   1.810 -0.6476 -0.1563 -0.1225
 4212SOL    HW124095   2.556   2.710   1.797 -0.0293  1.2868  1.2621
 4212SOL    HW224096   2.460   2.797   1.736 -0.9836 -0.3113 -0.2258
 4213SOL     OW24097   3.305   3.966  13.101  0.0754 -0.6312  0.1167
 4213SOL    HW124098   3.218   3.936  13.074 -0.9286  1.3858  1.0717
 4213SOL    HW224099   3.326   4.026  13.030 -1.5472  0.1918  0.3116
 4214SOL     OW24100   3.103   0.178   4.647  0.1343  0.2094 -0.1746
 4214SOL    HW124101   3.121   0.207   4.737  0.0115  1.5672 -0.5887
 4214SOL    HW224102   3.096   0.256   4.592  0.8685 -1.5357 -2.7248
 4215SOL     OW24103   2.981   3.873  15.261  0.2910  0.2619  0.2110
 4215SOL    HW124104   3.034   3.793  15.254 -0.8817 -0.6377  1.5736
 4215SOL    HW224105   3.052   3.937  15.266  3.1193 -2.9404  1.1237
 4216SOL     OW24106   1.664   2.760   0.106 -0.1827  0.4928  0.3557
 4216SOL    HW124107   1.735   2.714   0.063  1.6389  2.0113  1.7517
 4216SOL    HW224108   1.589   2.752   0.046  1.6337 -2.5372 -1.4719
 4217SOL     OW24109   1.635   3.332   1.360 -0.0849  0.1401 -0.1448
 4217SOL    HW124110   1.702   3.329   1.292  0.6275 -1.7546  0.6502
 4217SOL    HW224111   1.671   3.378   1.436 -2.2206  0.8699  0.4371
 4218SOL     OW24112   0.481   2.194   4.689  0.1820 -0.1296 -0.2200
 4218SOL    HW124113   0.546   2.203   4.758 -0.6690  1.7823  0.3106
 4218SOL    HW224114   0.522   2.225   4.608 -1.4798 -2.3321 -1.9352
 4219SOL     OW24115   3.075   0.351  11.017  0.5246  0.3141 -0.1464
 4219SOL    HW124116   3.134   0.295  11.067 -2.2070 -0.8020  1.8540
 4219SOL    HW224117   3.132   0.427  11.016 -0.1893  0.8513 -0.1704
 4220SOL     OW24118   3.199   3.170   5.704 -0.0775 -0.1913  0.2999
 4220SOL    HW124119   3.271   3.108   5.717 -0.4592 -1.0191 -1.4649
 4220SOL    HW224120   3.154   3.123   5.633 -0.5511  1.8646 -0.7469
 4221SOL     OW24121   0.837   1.630   2.937  0.5587 -0.1492 -0.2552
 4221SOL    HW124122   0.839   1.719   2.973 -3.0799  0.6218 -2.0372
 4221SOL    HW224123   0.836   1.645   2.843  2.9946 -0.2581 -0.2895
 4222SOL     OW24124   2.963   3.804   5.640  0.4164 -0.1102  0.4689
 4222SOL    HW124125   2.890   3.743   5.629  1.1368 -1.1847  1.5553
 4222SOL    HW224126   2.937   3.859   5.566  2.7978  0.7928  0.2964
 4223SOL     OW24127   1.308   4.541  13.151 -0.2234  0.1051  0.0840
 4223SOL    HW124128   1.337   4.463  13.198  1.8875 -0.8329 -2.7792
 4223SOL    HW224129   1.238   4.514  13.092 -0.9905  0.7569  0.6899
 4224SOL     OW24130   0.131   2.531   8.801  0.4092 -0.0233  0.3026
 4224SOL    HW124131   0.166   2.453   8.845  2.6107  0.7591 -0.0828
 4224SOL    HW224132   0.035   2.525   8.797  0.2262  2.4571  1.1287
 4225SOL     OW24133   0.365   1.136  12.121 -0.2379 -0.5778  0.3068
 4225SOL    HW124134   0.329   1.047  12.116  1.3754 -1.0969 -1.9949
 4225SOL    HW224135   0.392   1.153  12.211 -0.2273 -0.3525  0.2598
 4226SOL     OW24136   0.872   4.362   8.840 -0.5857 -0.0692  0.5458
 4226SOL    HW124137   0.851   4.375   8.747 -1.6645  0.6758  0.8860
 4226SOL    HW224138   0.855   4.449   8.877 -1.9804  0.0675 -0.3965
 4227SOL     OW24139   2.563   0.493   4.097  0.4984  0.0579  0.2396
 4227SOL    HW124140   2.494   0.500   4.031  0.1905  0.4340  0.6001
 4227SOL    HW224141   2.638   0.471   4.042 -1.1367  0.5920 -2.2136
 4228SOL     OW24142   4.412   1.290   8.231 -0.2794  0.0167  0.0844
 4228SOL    HW124143   4.337   1.231   8.234 -0.9556  0.8085 -0.8195
 4228SOL    HW224144   4.404   1.330   8.317  1.5861  3.6067 -1.3737
 4229SOL     OW24145   2.655   3.389   6.115  0.3925 -0.1644 -0.3359
 4229SOL    HW124146   2.654   3.476   6.156  0.1937 -0.8875  1.1649
 4229SOL    HW224147   2.605   3.407   6.035 -0.7526 -0.6044  0.2915
 4230SOL     OW24148   1.356   2.691  12.213 -1.0610 -0.8270 -0.1984
 4230SOL    HW124149   1.403   2.623  12.262 -2.2629 -2.7897 -1.7595
 4230SOL    HW224150   1.377   2.770  12.262 -0.2765 -0.0559 -1.7750
 4231SOL     OW24151   2.138   1.235   8.506 -0.2536 -0.4586  0.2666
 4231SOL    HW124152   2.185   1.248   8.589  0.5190 -3.6419  0.3410
 4231SOL    HW224153   2.204   1.237   8.436 -1.0357 -2.9578 -0.5441
 4232SOL     OW24154   2.709   0.327   1.701 -0.3093 -0.2367 -0.1241
 4232SOL    HW124155   2.721   0.236   1.727 -0.3809 -0.0667  0.5196
 4232SOL    HW224156   2.616   0.338   1.721 -0.2701 -0.6458  0.2727
 4233SOL     OW24157   0.464   4.355  13.104  0.0424  0.2022  0.2151
 4233SOL    HW124158   0.441   4.447  13.100 -1.3186 -0.1138  0.7200
 4233SOL    HW224159   0.404   4.320  13.038  2.4304 -0.6279 -1.5415
 4234SOL     OW24160   1.326   0.598   6.008 -0.1100 -0.1040 -0.1968
 4234SOL    HW124161   1.303   0.585   6.100 -1.0477 -0.2182 -0.4468
 4234SOL    HW224162   1.270   0.534   5.963  0.8690 -0.0382 -1.4914
 4235SOL     OW24163   1.081   2.283   2.571 -0.2289  0.0478  0.1582
 4235SOL    HW124164   0.997   2.239   2.579 -0.3064 -0.1564 -1.9038
 4235SOL    HW224165   1.107   2.242   2.488  0.9356 -0.6534  0.8545
 4236SOL     OW24166   0.848   4.554  13.197  0.5041 -0.0231  0.8138
 4236SOL    HW124167   0.875   4.508  13.277  1.8805 -0.6391 -0.0095
 4236SOL    HW224168   0.881   4.643  13.211 -0.6482  0.5408 -0.0392
 4237SOL     OW24169   1.423   2.366   1.643 -0.2080 -0.4569 -0.4278
 4237SOL    HW124170   1.514   2.377   1.672  0.2553 -0.5060 -1.8620
 4237SOL    HW224171   1.397   2.274   1.644 -0.3558 -0.4166 -0.7455
 4238SOL     OW24172   3.283   1.289  16.576 -0.5968  0.6366 -0.2035
 4238SOL    HW124173   3.340   1.250  16.509 -0.0220 -0.6802  1.0450
 4238SOL    HW224174   3.195   1.275  16.543  0.4128 -3.4190 -1.1759
 4239SOL     OW24175   2.762   1.741   9.243 -0.7761  0.0521 -0.0555
 4239SOL    HW124176   2.682   1.709   9.285 -0.2078 -1.5155 -0.1750
 4239SOL    HW224177   2.806   1.656   9.234 -0.5087  0.0176  1.4934
 4240SOL     OW24178   1.112   3.221   2.430  0.5452  0.7408 -0.1368
 4240SOL    HW124179   1.149   3.156   2.489  2.4131  1.1743 -0.8076
 4240SOL    HW224180   1.132   3.306   2.470 -2.2690  1.3492 -0.0752
 4241SOL     OW24181   1.141   0.756   4.735 -0.9201 -0.3341 -0.5155
 4241SOL    HW124182   1.080   0.717   4.797 -1.2241  2.4202  0.8805
 4241SOL    HW224183   1.155   0.837   4.782  0.9346 -0.3909 -0.9622
 4242SOL     OW24184   0.013   4.044  12.373 -0.1030 -0.6148  0.0126
 4242SOL    HW124185   0.069   3.969  12.395 -0.2324 -0.6818  0.1142
 4242SOL    HW224186   4.668   4.018  12.432 -0.4666  0.6891  0.1600
 4243SOL     OW24187   4.152   4.585   3.266  0.2725  0.6399  0.1724
 4243SOL    HW124188   4.068   4.630   3.280  0.8234  1.3250  1.2748
 4243SOL    HW224189   4.163   4.612   3.175 -1.3689 -3.7363 -1.3236
 4244SOL     OW24190   0.703   1.625   8.895  0.4850 -0.7963 -0.5489
 4244SOL    HW124191   0.780   1.682   8.906  0.6028 -1.0385 -0.0993
 4244SOL    HW224192   0.735   1.558   8.834 -0.1098 -1.1580 -0.4567
 4245SOL     OW24193   2.753   2.322   1.134  0.0514  0.0747  0.4339
 4245SOL    HW124194   2.786   2.295   1.048 -1.4805  1.1061 -0.4721
 4245SOL    HW224195   2.789   2.253   1.190  0.4502  0.8841  1.1679
 4246SOL     OW24196   1.037   1.971   8.120 -0.2101  0.4105  0.1921
 4246SOL    HW124197   1.073   1.963   8.208 -0.3200 -1.6693  0.0542
 4246SOL    HW224198   1.111   1.938   8.068  1.4453  1.2886  1.9939
 4247SOL     OW24199   4.015   3.713   1.760  0.7496 -0.4300 -0.3725
 4247SOL    HW124200   4.069   3.677   1.830  0.7047  0.4152  0.0859
 4247SOL    HW224201   4.001   3.803   1.788 -0.2787 -0.9429  0.7726
 4248SOL     OW24202   3.086   2.167   8.192  0.3099  0.8405  0.7460
 4248SOL    HW124203   3.019   2.117   8.239  1.5001 -2.3648 -0.9507
 4248SOL    HW224204   3.033   2.237   8.155  0.4822  0.3160 -0.5029
 4249SOL     OW24205   0.385   3.864   4.292 -0.1377  0.0142  0.2461
 4249SOL    HW124206   0.450   3.797   4.273 -0.5660 -0.5355  0.7534
 4249SOL    HW224207   0.392   3.923   4.216 -2.1471 -0.0700 -0.0064
 4250SOL     OW24208   3.061   0.968   8.006  0.0064 -0.3696 -0.3994
 4250SOL    HW124209   3.021   1.055   8.012 -0.3396 -0.4381 -1.6168
 4250SOL    HW224210   3.149   0.995   7.980 -0.0325 -1.6375 -1.8661
 4251SOL     OW24211   1.918   2.603   5.281 -0.5568 -0.3127  0.2105
 4251SOL    HW124212   1.994   2.546   5.271  0.1002  1.0031 -2.3485
 4251SOL    HW224213   1.879   2.584   5.366  0.4393  2.3653  1.2755
 4252SOL     OW24214   0.750   0.917   7.076  0.1188  0.3386  0.2136
 4252SOL    HW124215   0.676   0.936   7.019 -1.2974  1.5543  2.5020
 4252SOL    HW224216   0.715   0.924   7.164  0.5371 -1.0590  0.5055
 4253SOL     OW24217   2.875   2.728   4.942  0.8921 -0.0540 -0.1513
 4253SOL    HW124218   2.886   2.717   4.847  0.5025 -2.2061  0.0498
 4253SOL    HW224219   2.955   2.712   4.990  0.1833 -1.1253  0.6718
 4254SOL     OW24220   0.979   1.464   6.005 -0.4703  0.5097 -0.3922
 4254SOL    HW124221   0.986   1.510   5.921  0.3106  0.4239 -0.3795
 4254SOL    HW224222   0.887   1.438   6.009 -0.3792  0.4129  1.0736
 4255SOL     OW24223   2.084   3.616  13.530 -0.0559 -0.1067  0.5058
 4255SOL    HW124224   2.099   3.542  13.590  2.8518 -0.9895 -1.3160
 4255SOL    HW224225   2.138   3.683  13.572 -0.9816  1.1619 -0.3286
 4256SOL     OW24226   0.164   2.913  11.628  0.1732  0.4022 -0.5460
 4256SOL    HW124227   0.114   2.946  11.553 -1.2425  2.4698  1.2905
 4256SOL    HW224228   0.238   2.903  11.568  0.7451  2.1130 -0.1417
 4257SOL     OW24229   0.163   0.137  12.610  0.4999 -0.2080 -0.0461
 4257SOL    HW124230   0.141   0.222  12.648  0.4357  0.1387 -0.8670
 4257SOL    HW224231   0.211   0.081  12.672  2.2762  0.6080 -0.6862
 4258SOL     OW24232   4.140   3.306  14.823 -0.4089  0.2675 -0.2557
 4258SOL    HW124233   4.087   3.294  14.744 -1.6239  0.5828  0.5060
 4258SOL    HW224234   4.150   3.212  14.835 -1.5548 -0.0157 -1.4161
 4259SOL     OW24235   0.476   2.149  17.561 -0.4083 -0.1906  0.2972
 4259SOL    HW124236   0.421   2.087  17.513 -0.3621  0.6027 -0.7870
 4259SOL    HW224237   0.565   2.117  17.544 -0.9308 -2.6586  2.1708
 4260SOL     OW24238   2.511   4.051  15.243 -0.1098 -0.2775 -0.0334
 4260SOL    HW124239   2.545   3.963  15.227  2.6215  0.8487 -0.4983
 4260SOL    HW224240   2.448   4.036  15.314 -1.1042 -0.0509 -0.8778
 4261SOL     OW24241   2.574   1.314  11.245  0.0510 -0.1140  0.5062
 4261SOL    HW124242   2.511   1.303  11.173 -0.9613  1.3366  1.1655
 4261SOL    HW224243   2.653   1.340  11.198 -0.4592 -1.5061 -1.1226
 4262SOL     OW24244   3.258   0.238   4.353 -0.2400  0.0885 -0.9704
 4262SOL    HW124245   3.291   0.310   4.299  0.1377 -0.6157 -1.6859
 4262SOL    HW224246   3.173   0.273   4.381  0.8184  0.0959  2.2468
 4263SOL     OW24247   0.365   0.191  13.300  0.2528 -0.4125  0.2006
 4263SOL    HW124248   0.371   0.108  13.348 -0.3068 -0.5268  0.0667
 4263SOL    HW224249   0.417   0.164  13.225  1.2005  0.7864  0.4365
 4264SOL     OW24250   2.079   2.779   6.399 -0.1154 -0.0633 -0.2971
 4264SOL    HW124251   2.066   2.773   6.493 -0.7653 -0.4711 -0.4149
 4264SOL    HW224252   2.136   2.856   6.396  0.6393 -0.6452 -0.8520
 4265SOL     OW24253   0.254   3.313   2.464  0.4420  0.2454  0.3634
 4265SOL    HW124254   0.185   3.346   2.407 -0.3534 -0.1494  1.1136
 4265SOL    HW224255   0.236   3.359   2.546 -2.2592 -0.9453  0.4280
 4266SOL     OW24256   4.443   2.410   6.493  0.3313 -0.5528  0.2410
 4266SOL    HW124257   4.410   2.413   6.403 -0.3598  1.6792  0.5488
 4266SOL    HW224258   4.404   2.328   6.521  0.4301 -1.1753 -1.4530
 4267SOL     OW24259   2.283   2.381   7.469 -0.1712  0.2159 -0.7797
 4267SOL    HW124260   2.308   2.410   7.556 -1.7947  1.4006 -0.7022
 4267SOL    HW224261   2.241   2.460   7.435  0.4849  1.0062  0.2900
 4268SOL     OW24262   4.287   0.875   8.029  0.6026 -0.1323 -1.0837
 4268SOL    HW124263   4.266   0.869   8.122  1.0932  1.4123 -0.8822
 4268SOL    HW224264   4.240   0.955   8.007 -1.8241 -1.7453 -1.6991
 4269SOL     OW24265   1.346   0.583  17.689 -0.0134  0.1838 -0.7598
 4269SOL    HW124266   1.318   0.546  17.605 -1.0318  0.8553 -0.7177
 4269SOL    HW224267   1.325   0.506   0.039 -0.2947  1.1088  0.4700
 4270SOL     OW24268   2.876   2.594   7.549 -0.3923 -0.1547  0.0989
 4270SOL    HW124269   2.901   2.652   7.477  1.0078  0.2351  0.8920
 4270SOL    HW224270   2.941   2.620   7.614  0.0185 -0.4737 -0.1867
 4271SOL     OW24271   4.636   3.331   3.892  0.4644 -0.8856 -0.5203
 4271SOL    HW124272   4.662   3.424   3.888 -2.8458 -0.0745 -3.0572
 4271SOL    HW224273   4.724   3.301   3.914  0.5455  1.3097  2.1723
 4272SOL     OW24274   0.910   0.780  14.050  0.0386 -0.6836  0.0524
 4272SOL    HW124275   0.996   0.819  14.065 -1.2245  1.7474  1.1234
 4272SOL    HW224276   0.900   0.805  13.959 -0.7270  1.9372  0.8621
 4273SOL     OW24277   0.361   3.385  10.159  0.3161 -0.3176  0.2848
 4273SOL    HW124278   0.268   3.393  10.176  0.2852  0.3361 -0.1873
 4273SOL    HW224279   0.375   3.290  10.157 -0.1827 -0.3965  0.6085
 4274SOL     OW24280   3.706   0.766   2.498  0.7500 -0.8240  0.1750
 4274SOL    HW124281   3.760   0.812   2.433 -0.0563  1.9930  1.5296
 4274SOL    HW224282   3.638   0.829   2.522  0.8119 -0.7290  0.1037
 4275SOL     OW24283   1.041   3.419  12.285  0.0237  0.0221 -0.4523
 4275SOL    HW124284   1.071   3.399  12.196  0.7316 -0.8408 -0.0179
 4275SOL    HW224285   1.120   3.454  12.325 -1.5249 -0.4112  2.9397
 4276SOL     OW24286   2.590   3.436   3.946  0.0915 -0.5639  0.5491
 4276SOL    HW124287   2.673   3.459   3.905 -0.6110  0.0589 -0.5221
 4276SOL    HW224288   2.566   3.519   3.987 -2.2885 -2.1995  2.5679
 4277SOL     OW24289   1.581   3.813   5.834 -0.1477 -0.2871  0.2330
 4277SOL    HW124290   1.542   3.817   5.921  2.1669  0.7165  1.2134
 4277SOL    HW224291   1.636   3.736   5.844 -0.8000 -0.5108  2.0725
 4278SOL     OW24292   2.058   3.492   0.804 -0.6293  0.0303  0.3405
 4278SOL    HW124293   1.988   3.452   0.855  1.2538 -1.8260  1.4460
 4278SOL    HW224294   2.014   3.539   0.732 -0.9289 -0.9181 -0.0919
 4279SOL     OW24295   1.808   2.226   4.385  0.6008  0.0863 -0.2993
 4279SOL    HW124296   1.877   2.293   4.386  0.7534 -0.0396 -1.7179
 4279SOL    HW224297   1.856   2.154   4.426 -1.4346 -1.3679 -0.4647
 4280SOL     OW24298   3.054   4.237   2.443  0.9357  0.1751 -0.2980
 4280SOL    HW124299   3.060   4.333   2.446  0.5516  0.1946  0.0148
 4280SOL    HW224300   3.125   4.209   2.501 -0.8606  0.9259  2.3157
 4281SOL     OW24301   0.516   2.996   5.023 -0.3660  0.1548  0.2502
 4281SOL    HW124302   0.569   2.917   5.015 -0.3972  0.0721  0.8613
 4281SOL    HW224303   0.493   2.999   4.930 -1.4524  1.4229  0.5543
 4282SOL     OW24304   1.006   3.990   2.225  0.5567 -0.2957 -0.0221
 4282SOL    HW124305   0.936   3.964   2.285  0.4971  3.4139  1.5461
 4282SOL    HW224306   1.004   4.086   2.232  0.2623 -0.3483  0.5877
 4283SOL     OW24307   4.085   0.357   5.768  0.0406 -0.3220 -0.2283
 4283SOL    HW124308   4.005   0.409   5.776 -0.6977 -1.4511 -0.2855
 4283SOL    HW224309   4.110   0.368   5.676 -0.6548 -1.0291 -0.5006
 4284SOL     OW24310   4.028   2.841  16.483 -0.2898  0.3898  0.3675
 4284SOL    HW124311   4.124   2.842  16.477 -0.1680 -2.2034  1.8080
 4284SOL    HW224312   4.024   2.854  16.578  0.7922  1.3372  0.2888
 4285SOL     OW24313   2.892   3.696  14.911 -0.0051  0.2147  0.5139
 4285SOL    HW124314   2.813   3.660  14.872 -1.3004  1.8161  1.6859
 4285SOL    HW224315   2.841   3.746  14.974  0.1312  2.1683 -0.8971
 4286SOL     OW24316   3.102   4.081  17.063 -0.5010  0.0390 -0.2152
 4286SOL    HW124317   3.087   4.019  17.135  1.5481 -0.3358 -0.0829
 4286SOL    HW224318   3.094   4.163  17.111  0.3962 -0.0889  0.1580
 4287SOL     OW24319   4.288   0.893   6.736  0.3143  0.6187 -0.0722
 4287SOL    HW124320   4.310   0.889   6.829 -0.7130 -0.2609  0.1343
 4287SOL    HW224321   4.260   0.802   6.734  2.4167 -0.0762  2.0513
 4288SOL     OW24322   2.083   1.358   7.770  0.1906 -0.5969 -0.5798
 4288SOL    HW124323   2.156   1.414   7.742  1.1921 -1.9211 -0.6357
 4288SOL    HW224324   2.043   1.339   7.685 -0.5729  0.9059 -0.5715
 4289SOL     OW24325   2.724   4.158   3.904  0.0674  0.4382 -0.1074
 4289SOL    HW124326   2.657   4.184   3.967 -0.2052  0.1663 -0.2865
 4289SOL    HW224327   2.791   4.225   3.918 -1.1071  1.6743 -0.4370
 4290SOL     OW24328   1.648   1.286   1.643 -0.5122  0.4193  0.5757
 4290SOL    HW124329   1.641   1.195   1.614 -1.6873  0.3334  1.1376
 4290SOL    HW224330   1.595   1.322   1.571 -1.9224 -2.1294  0.3232
 4291SOL     OW24331   3.826   1.064  13.431 -0.5367 -0.0934 -0.9533
 4291SOL    HW124332   3.737   1.060  13.464 -0.5386 -0.2114 -0.9726
 4291SOL    HW224333   3.810   1.143  13.379 -1.9941 -0.0533 -0.4392
 4292SOL     OW24334   4.607   1.180   7.570  0.0687  0.3299  0.0011
 4292SOL    HW124335   4.586   1.226   7.652  0.9383 -0.6102  0.7586
 4292SOL    HW224336   4.702   1.187   7.562  0.2934  0.9924  3.1057
 4293SOL     OW24337   2.701   1.478   4.949 -0.5730  0.0964  0.0867
 4293SOL    HW124338   2.758   1.538   4.996 -0.6218 -2.8159  3.8752
 4293SOL    HW224339   2.761   1.440   4.884 -0.8768 -0.3982  0.0879
 4294SOL     OW24340   2.368   3.631  14.254 -0.4475  0.2223 -0.0488
 4294SOL    HW124341   2.290   3.687  14.258 -0.9780 -0.5897  1.0636
 4294SOL    HW224342   2.347   3.584  14.174 -1.5356  0.5354  0.0414
 4295SOL     OW24343   1.934   0.076  10.094  0.1773  0.4990  0.0191
 4295SOL    HW124344   1.879   0.121  10.158 -1.0382  1.8568 -2.0092
 4295SOL    HW224345   2.018   0.112  10.124 -0.6431  0.9954  1.7245
 4296SOL     OW24346   0.469   4.624   3.090 -0.0656 -0.1584  0.1093
 4296SOL    HW124347   0.400   4.685   3.065  0.1195  0.6649  1.6004
 4296SOL    HW224348   0.499   4.607   3.001  2.5604  0.9933  0.7640
 4297SOL     OW24349   1.851   0.406   6.965  0.4914 -0.1486  0.2754
 4297SOL    HW124350   1.777   0.464   6.949  0.0632 -0.3532  1.5079
 4297SOL    HW224351   1.922   0.466   6.943 -1.4357  1.8821 -0.4178
 4298SOL     OW24352   1.224   4.361   7.368  0.2020  0.7173 -0.0046
 4298SOL    HW124353   1.265   4.359   7.281 -0.0672 -0.8313 -0.1118
 4298SOL    HW224354   1.132   4.343   7.348  0.0491  0.4856  0.9293
 4299SOL     OW24355   2.155   1.684   8.027 -0.0166  0.8424  0.1686
 4299SOL    HW124356   2.062   1.687   8.002  0.1898  1.6085 -0.5188
 4299SOL    HW224357   2.160   1.599   8.069 -1.8055  0.5053 -0.2911
 4300SOL     OW24358   3.609   1.833   6.636  0.5635 -0.1106  0.1203
 4300SOL    HW124359   3.526   1.849   6.591 -0.3859 -1.2207  1.4537
 4300SOL    HW224360   3.677   1.872   6.581  2.1555 -2.9008  0.0991
 4301SOL     OW24361   0.369   3.819   3.545 -1.1839 -0.5562 -0.2787
 4301SOL    HW124362   0.410   3.765   3.478  1.2473 -0.0715  0.8172
 4301SOL    HW224363   0.447   3.872   3.564 -1.9847  0.9041 -1.0284
 4302SOL     OW24364   4.045   2.714   4.359 -0.3729  0.1717 -0.2659
 4302SOL    HW124365   4.042   2.739   4.266 -1.4202  0.7827 -0.0666
 4302SOL    HW224366   3.956   2.683   4.378 -0.0948 -0.5574 -0.1291
 4303SOL     OW24367   4.147   4.569  10.835  0.4335  0.5159  0.2771
 4303SOL    HW124368   4.149   4.664  10.821  1.0796  0.4944  0.2228
 4303SOL    HW224369   4.055   4.548  10.814  0.6052 -0.1464  0.1818
 4304SOL     OW24370   3.527   1.294  14.639  0.0928  0.2080 -0.1769
 4304SOL    HW124371   3.573   1.320  14.719  1.3147 -0.4558 -0.6778
 4304SOL    HW224372   3.480   1.374  14.616 -0.0260  1.3620  4.0257
 4305SOL     OW24373   3.549   3.447  17.500 -0.0196 -0.0521 -0.2475
 4305SOL    HW124374   3.482   3.444  17.568  1.3644 -1.7374  1.0474
 4305SOL    HW224375   3.614   3.502  17.545  1.0755 -0.1472 -1.7143
 4306SOL     OW24376   3.783   0.573  10.815  0.6717 -0.1915  0.0557
 4306SOL    HW124377   3.851   0.589  10.749  0.2446 -0.3578 -0.4209
 4306SOL    HW224378   3.703   0.592  10.767  1.5516  1.8646 -0.6348
 4307SOL     OW24379   0.203   4.211   6.743  0.6860  0.5080 -0.8318
 4307SOL    HW124380   0.168   4.295   6.714  0.0407  0.5092 -0.0732
 4307SOL    HW224381   0.183   4.208   6.837 -1.3007 -0.7310 -1.3087
 4308SOL     OW24382   2.533   4.264   8.330  0.3665 -0.0008 -0.7588
 4308SOL    HW124383   2.523   4.186   8.274  1.4894 -2.5176  2.5354
 4308SOL    HW224384   2.489   4.325   8.272  1.1500  2.1324  0.8955
 4309SOL     OW24385   0.948   3.455  14.599  0.1538 -0.1211  0.0961
 4309SOL    HW124386   0.974   3.365  14.580 -1.0338 -0.6411  0.9865
 4309SOL    HW224387   1.017   3.501  14.550 -0.8894  0.0704 -1.2051
 4310SOL     OW24388   2.613   0.344   5.817 -0.8071  0.0375 -0.3374
 4310SOL    HW124389   2.609   0.411   5.749  1.8145  0.5492  0.0122
 4310SOL    HW224390   2.681   0.285   5.784 -0.5887  1.3166 -2.1406
 4311SOL     OW24391   3.737   0.163   5.026 -0.2684 -0.4259  0.5025
 4311SOL    HW124392   3.679   0.185   4.952 -0.6614  0.4381  1.0650
 4311SOL    HW224393   3.785   0.088   4.991  1.6537  1.5628 -1.1667
 4312SOL     OW24394   4.487   1.052  10.092 -0.2387  0.2324  0.6627
 4312SOL    HW124395   4.450   1.037  10.179  0.6142 -1.8646  0.6790
 4312SOL    HW224396   4.580   1.032  10.099 -0.5685 -1.8606 -0.8573
 4313SOL     OW24397   4.014   0.697   8.362 -0.4548  0.1744 -0.1270
 4313SOL    HW124398   3.929   0.726   8.331 -0.1019 -0.0785 -1.3433
 4313SOL    HW224399   3.994   0.679   8.454  0.1950  0.9223  0.1659
 4314SOL     OW24400   0.910   4.714   8.659 -0.3744 -0.0190  0.3782
 4314SOL    HW124401   1.002   4.688   8.651 -0.8439 -1.8050  0.7082
 4314SOL    HW224402   0.882   4.679   8.574 -2.6646  1.7228  0.4145
 4315SOL     OW24403   2.350   2.694   5.010 -0.2011  0.2449  0.5214
 4315SOL    HW124404   2.318   2.618   5.060  1.6433 -2.1986 -2.0062
 4315SOL    HW224405   2.442   2.673   4.991 -0.0970  0.1762  1.0752
 4316SOL     OW24406   4.422   1.653   7.682  0.4695  0.0674  0.1424
 4316SOL    HW124407   4.494   1.706   7.717  0.8529 -1.3587  1.4932
 4316SOL    HW224408   4.347   1.667   7.741  1.4962  0.9838  1.2349
 4317SOL     OW24409   2.768   0.884   4.556  0.5458  0.1638 -0.0889
 4317SOL    HW124410   2.775   0.870   4.651  1.3847 -0.9570 -0.3262
 4317SOL    HW224411   2.770   0.980   4.557 -0.0886  0.1792 -0.7739
 4318SOL     OW24412   2.102   0.650   7.385 -0.2202 -0.2506 -0.2330
 4318SOL    HW124413   2.152   0.591   7.328  1.1700  0.6511  0.0460
 4318SOL    HW224414   2.094   0.711   7.312 -0.3008 -0.8417 -0.7217
 4319SOL     OW24415   3.623   3.496   0.216 -0.8142  0.8077  0.2499
 4319SOL    HW124416   3.680   3.529   0.286  0.3626  1.3304 -0.9418
 4319SOL    HW224417   3.688   3.472   0.150 -0.7285 -1.4106  1.1457
 4320SOL     OW24418   0.647   1.460   3.418  0.9950  0.5112  0.1928
 4320SOL    HW124419   0.730   1.465   3.464 -0.2849  0.7743  2.5076
 4320SOL    HW224420   0.624   1.368   3.431  0.8458  0.5596  0.2772
 4321SOL     OW24421   2.798   0.782   3.522 -0.2043  0.1148 -0.0345
 4321SOL    HW124422   2.791   0.831   3.440  0.7040  0.9498  0.3919
 4321SOL    HW224423   2.722   0.725   3.510  0.3698 -0.5935 -0.2337
 4322SOL     OW24424   1.360   3.686   7.852  0.4299 -0.1905 -0.1835
 4322SOL    HW124425   1.373   3.608   7.906 -0.5259  0.3595  0.8529
 4322SOL    HW224426   1.265   3.688   7.838  0.3750 -1.2460  0.0333
 4323SOL     OW24427   0.519   0.556  15.501 -0.2029  0.5363 -0.3141
 4323SOL    HW124428   0.450   0.609  15.541 -0.2743 -0.1376  0.4603
 4323SOL    HW224429   0.571   0.621  15.454 -1.3704  1.7625  0.1119
 4324SOL     OW24430   1.843   0.708  16.522 -0.2420 -0.5575 -0.2889
 4324SOL    HW124431   1.928   0.723  16.562 -1.1470  0.5117  1.2157
 4324SOL    HW224432   1.791   0.730  16.599 -1.0473 -2.0785 -0.3901
 4325SOL     OW24433   0.084   3.326  11.124 -0.1484 -0.3812 -0.4028
 4325SOL    HW124434   0.143   3.274  11.178  2.7366  1.6934 -1.5635
 4325SOL    HW224435   0.104   3.291  11.037 -0.6706 -1.8294  0.0506
 4326SOL     OW24436   2.410   3.348   4.825  0.6041  0.1261  0.2803
 4326SOL    HW124437   2.359   3.349   4.744  1.0041  2.1479  0.0395
 4326SOL    HW224438   2.357   3.297   4.886  0.7911  0.4896  0.7467
 4327SOL     OW24439   1.726   2.419   2.856  0.0897 -0.3023 -0.3383
 4327SOL    HW124440   1.656   2.383   2.801 -0.9522  1.2720 -0.0317
 4327SOL    HW224441   1.737   2.350   2.921  1.4067 -0.8148 -1.1093
 4328SOL     OW24442   2.865   0.073   4.801  0.1865 -0.7556  0.6067
 4328SOL    HW124443   2.930   0.008   4.777  1.3281  0.6968 -0.1999
 4328SOL    HW224444   2.789   0.018   4.779 -1.9072  2.8168 -1.0878
 4329SOL     OW24445   3.043   2.675  12.884  0.8842  0.1349  0.0344
 4329SOL    HW124446   3.037   2.650  12.792  1.8073 -3.0074  0.8342
 4329SOL    HW224447   2.967   2.733  12.887  1.7704  1.2296  1.5726
 4330SOL     OW24448   3.607   0.926   5.589  0.3684 -0.1293 -0.0629
 4330SOL    HW124449   3.692   0.958   5.561  1.2639 -1.6009  0.9686
 4330SOL    HW224450   3.569   0.896   5.507 -0.5607 -1.4696  0.8481
 4331SOL     OW24451   4.700   4.343   5.608  0.0146 -0.4040  0.0954
 4331SOL    HW124452   0.043   4.278   5.625 -1.2839 -1.5521  0.8878
 4331SOL    HW224453   4.688   4.327   5.514 -0.2844  0.3213  0.0113
 4332SOL     OW24454   1.491   1.678   1.147 -0.1657  0.2707 -0.4600
 4332SOL    HW124455   1.575   1.645   1.179 -0.3516  1.0111  0.8095
 4332SOL    HW224456   1.509   1.676   1.053 -1.0162 -0.1827 -0.6077
 4333SOL     OW24457   0.210   4.450   4.137 -0.2649  1.3450 -0.6760
 4333SOL    HW124458   0.180   4.518   4.076 -0.9954  0.1554 -1.6425
 4333SOL    HW224459   0.296   4.488   4.157  0.4703  0.0661 -1.4235
 4334SOL     OW24460   0.027   1.999  12.805 -0.1837  0.4341  0.0558
 4334SOL    HW124461   4.686   2.043  12.752  0.0031  2.9979  1.8924
 4334SOL    HW224462   0.095   1.979  12.742 -0.6460  3.2822 -1.3452
 4335SOL     OW24463   0.447   1.688   7.684  0.8323  0.1448 -0.1088
 4335SOL    HW124464   0.391   1.758   7.651  2.1546  1.1583 -0.2378
 4335SOL    HW224465   0.387   1.614   7.685  1.2927 -0.2210  0.3804
 4336SOL     OW24466   1.963   2.542  10.986  0.3761 -0.1152  0.1181
 4336SOL    HW124467   2.045   2.590  10.997  0.4944 -0.0665 -0.9774
 4336SOL    HW224468   1.901   2.603  11.027  2.4532  2.1467 -0.0753
 4337SOL     OW24469   1.419   1.302   7.868 -0.4945  0.0403  0.0101
 4337SOL    HW124470   1.381   1.268   7.949  0.6791  1.5387  1.2078
 4337SOL    HW224471   1.453   1.383   7.906  2.6774 -0.6226 -1.3969
 4338SOL     OW24472   2.765   0.056   1.759 -0.6589  0.0234  0.1033
 4338SOL    HW124473   2.720   4.697   1.746 -0.9861  0.0467  1.1208
 4338SOL    HW224474   2.848   0.046   1.713 -0.6521 -0.1294  0.1487
 4339SOL     OW24475   3.338   4.317  13.034  0.1562  0.2014 -0.7545
 4339SOL    HW124476   3.275   4.302  13.105  0.4677  1.5848 -0.1769
 4339SOL    HW224477   3.419   4.325  13.084 -0.1298  0.6576 -0.3597
 4340SOL     OW24478   1.891   3.110   8.765 -0.8507 -0.2933  0.0207
 4340SOL    HW124479   1.914   3.102   8.857  1.2797  2.4347 -0.2759
 4340SOL    HW224480   1.844   3.028   8.749  0.2723 -0.9722  0.2614
 4341SOL     OW24481   0.740   3.152   4.963 -0.1702  0.1437 -0.6854
 4341SOL    HW124482   0.658   3.201   4.965  0.3694  0.9767  0.4628
 4341SOL    HW224483   0.717   3.080   5.022  1.6339  0.1349  0.0016
 4342SOL     OW24484   2.746   4.383   2.635  0.0496  0.3705  0.0864
 4342SOL    HW124485   2.820   4.330   2.665 -2.3030 -1.5137  2.5248
 4342SOL    HW224486   2.671   4.325   2.649  1.1186 -0.6449  1.6457
 4343SOL     OW24487   0.051   1.970   1.631  0.2191 -0.2383 -0.2022
 4343SOL    HW124488   0.109   2.009   1.695  2.7062  1.5980 -3.5604
 4343SOL    HW224489   4.689   1.989   1.665  1.0693 -1.0191  2.4147
 4344SOL     OW24490   0.224   0.356   2.823  0.4462  0.0559 -1.0691
 4344SOL    HW124491   0.228   0.408   2.743 -0.3388  0.2910 -0.9481
 4344SOL    HW224492   0.287   0.290   2.793 -0.3754 -0.6563 -1.2213
 4345SOL     OW24493   1.746   1.234   0.257  0.5294 -0.3661  0.5668
 4345SOL    HW124494   1.796   1.245   0.338 -2.3230 -1.9059  2.5176
 4345SOL    HW224495   1.808   1.183   0.205 -0.9082 -1.2119 -0.3206
 4346SOL     OW24496   2.507   0.456   7.095  0.8225 -0.6874 -0.2565
 4346SOL    HW124497   2.560   0.535   7.083 -1.3073  1.0439  1.7601
 4346SOL    HW224498   2.523   0.436   7.187 -0.3276  1.0589  0.3352
 4347SOL     OW24499   4.024   2.920  16.740 -0.0150 -0.1334  0.6644
 4347SOL    HW124500   4.086   2.992  16.726  1.1262 -1.1861  0.2906
 4347SOL    HW224501   4.000   2.931  16.832 -0.1694  1.3405  0.4504
 4348SOL     OW24502   2.523   2.998   3.768 -0.1608  0.1107  0.0007
 4348SOL    HW124503   2.551   2.928   3.709  0.4263 -0.8044  1.3894
 4348SOL    HW224504   2.556   2.973   3.854  1.3683 -0.1899 -0.6726
 4349SOL     OW24505   3.193   3.555   7.486  0.0530  0.2532 -0.4633
 4349SOL    HW124506   3.225   3.635   7.443  0.1291  1.2239  1.3625
 4349SOL    HW224507   3.246   3.490   7.440 -1.8240 -1.1854 -0.5991
 4350SOL     OW24508   2.064   2.861   1.921 -0.5158  0.5208 -0.1194
 4350SOL    HW124509   2.115   2.868   2.002 -2.4320 -2.5762  1.3575
 4350SOL    HW224510   1.977   2.868   1.961  0.1897 -1.1991  1.7550
 4351SOL     OW24511   2.260   2.088   5.396 -0.0754  0.2028  0.6335
 4351SOL    HW124512   2.184   2.131   5.436 -0.2453  0.3549  0.1409
 4351SOL    HW224513   2.222   2.005   5.367  0.2079  0.1802  0.3222
 4352SOL     OW24514   1.752   3.187   3.055  0.3652  0.2430 -0.6051
 4352SOL    HW124515   1.676   3.186   2.998 -1.2422  0.4172  1.5429
 4352SOL    HW224516   1.745   3.104   3.102  3.5378 -0.0561 -0.6377
 4353SOL     OW24517   2.172   4.363   8.181  0.4019 -0.1168  0.1524
 4353SOL    HW124518   2.112   4.381   8.109 -1.6203 -1.6817  1.4626
 4353SOL    HW224519   2.148   4.277   8.216  2.7326 -1.3696 -1.2758
 4354SOL     OW24520   2.166   1.321  17.097  0.3241  0.0899 -0.6507
 4354SOL    HW124521   2.239   1.283  17.147  0.7244  0.8767 -0.6290
 4354SOL    HW224522   2.208   1.371  17.027  0.0659  3.5256  1.6785
 4355SOL     OW24523   0.517   0.071   7.055 -0.1975  0.2040 -0.1283
 4355SOL    HW124524   0.499   0.066   7.149  1.5281 -0.3284  0.1801
 4355SOL    HW224525   0.490   0.159   7.028 -0.7729 -0.0954 -0.5066
 4356SOL     OW24526   3.376   3.689   4.323 -0.1560  0.0515  0.2324
 4356SOL    HW124527   3.447   3.639   4.284  0.1133  1.9938 -1.7503
 4356SOL    HW224528   3.359   3.749   4.251 -2.7131 -0.0430  0.7653
 4357SOL     OW24529   2.515   3.700   2.176 -0.7156  0.1073  0.1451
 4357SOL    HW124530   2.480   3.743   2.098 -0.4617  1.5061  0.7951
 4357SOL    HW224531   2.480   3.611   2.170  1.6027 -0.5969 -2.7024
 4358SOL     OW24532   1.577   0.919   5.531  0.1747 -0.3565  0.1357
 4358SOL    HW124533   1.654   0.943   5.583  2.5243  1.8628 -4.2709
 4358SOL    HW224534   1.570   1.004   5.486  2.9275 -0.5830 -0.7225
 4359SOL     OW24535   0.084   3.178   3.431  0.3246 -0.0303  0.4325
 4359SOL    HW124536   0.062   3.267   3.407 -1.7713  0.2210  3.3222
 4359SOL    HW224537   0.005   3.170   3.484 -1.2828 -0.6442 -2.0284
 4360SOL     OW24538   4.400   4.528  10.816 -0.2458 -0.2448  0.3941
 4360SOL    HW124539   4.404   4.491  10.728  0.5991 -3.3162  1.6984
 4360SOL    HW224540   4.305   4.535  10.821 -0.1653  0.9622  0.2887
 4361SOL     OW24541   1.328   4.518   6.448 -0.1349  0.1186  0.3056
 4361SOL    HW124542   1.369   4.477   6.524  0.3323  0.3031  0.1535
 4361SOL    HW224543   1.235   4.525   6.466  0.1956 -1.1027  2.4543
 4362SOL     OW24544   0.680   4.314   3.530 -0.1972  0.2114 -0.3692
 4362SOL    HW124545   0.769   4.346   3.519 -0.4998  0.9777 -0.6666
 4362SOL    HW224546   0.700   4.221   3.522  0.3019  0.3538 -0.7623
 4363SOL     OW24547   2.157   2.074   5.751 -0.3287 -0.2108  0.4526
 4363SOL    HW124548   2.203   2.127   5.816 -0.6577 -1.6665  1.8625
 4363SOL    HW224549   2.080   2.122   5.719  1.0227  1.4139 -0.3692
 4364SOL     OW24550   3.831   1.415   4.562 -0.5055 -0.4393 -0.2869
 4364SOL    HW124551   3.899   1.482   4.561 -0.6918 -0.2448  0.4006
 4364SOL    HW224552   3.862   1.361   4.489  0.1116  1.2015 -1.2572
 4365SOL     OW24553   3.727   3.814   8.317 -0.2700  0.0166 -0.3133
 4365SOL    HW124554   3.667   3.742   8.335  1.1894 -0.8564  0.9701
 4365SOL    HW224555   3.696   3.884   8.375  1.6398  1.1253 -0.6164
 4366SOL     OW24556   2.926   2.299   7.069 -0.6830  1.0626  0.0182
 4366SOL    HW124557   2.928   2.241   7.146 -1.0112 -0.3701 -1.0374
 4366SOL    HW224558   2.831   2.298   7.053 -0.2963 -1.5928 -2.2904
 4367SOL     OW24559   3.128   1.322   4.214 -0.7166 -0.3881  0.3041
 4367SOL    HW124560   3.169   1.270   4.283  0.8803 -0.4099 -0.6516
 4367SOL    HW224561   3.042   1.283   4.206 -0.4723 -0.6899 -0.8603
 4368SOL     OW24562   0.270   1.716  10.699 -0.3407  0.0709  0.4085
 4368SOL    HW124563   0.275   1.776  10.625  0.8277 -2.1064 -1.2865
 4368SOL    HW224564   0.316   1.762  10.770 -0.4938  1.7052 -0.5612
 4369SOL     OW24565   4.603   4.680   7.585 -0.1458  0.1127  0.4922
 4369SOL    HW124566   4.604   0.044   7.619  0.1471  0.3511 -0.1515
 4369SOL    HW224567   4.516   4.644   7.605 -0.8022  1.3172 -0.1671
 4370SOL     OW24568   0.245   1.760   5.186 -0.0787 -0.1718 -0.1716
 4370SOL    HW124569   0.215   1.777   5.275  1.1403 -0.9188  0.3743
 4370SOL    HW224570   0.243   1.664   5.187  0.3092 -0.2069 -2.6998
 4371SOL     OW24571   3.594   0.025   3.738 -0.0255 -0.6382 -0.7028
 4371SOL    HW124572   3.579   0.024   3.832  1.7660 -2.5879 -0.4447
 4371SOL    HW224573   3.687   0.005   3.726  0.4405  1.0191  0.1098
 4372SOL     OW24574   3.187   4.353  16.756 -0.1856  0.6540 -0.0851
 4372SOL    HW124575   3.219   4.355  16.846  1.1843  0.6715 -0.5771
 4372SOL    HW224576   3.181   4.258  16.748  0.2653  0.5278  1.0679
 4373SOL     OW24577   3.767   1.797   3.322  0.2804 -0.6620  1.3333
 4373SOL    HW124578   3.845   1.850   3.304  0.9797 -1.7093  1.2471
 4373SOL    HW224579   3.705   1.840   3.264 -0.3513 -2.2386  0.8328
 4374SOL     OW24580   4.180   3.826   9.302 -0.0546  0.1131 -0.3849
 4374SOL    HW124581   4.097   3.827   9.254 -0.5555 -2.0436  0.4026
 4374SOL    HW224582   4.199   3.919   9.297 -0.0027 -0.0032 -2.3320
 4375SOL     OW24583   3.725   4.605  12.132 -0.3251  0.4505 -0.1605
 4375SOL    HW124584   3.747   4.698  12.129 -0.6261  0.5693  1.3930
 4375SOL    HW224585   3.631   4.609  12.151 -0.7625 -0.8490 -2.0860
 4376SOL     OW24586   4.600   2.106   4.360 -0.0920  0.8908 -0.1580
 4376SOL    HW124587   4.514   2.133   4.391 -0.6703 -2.1037  0.9088
 4376SOL    HW224588   4.603   2.128   4.268 -1.0176 -1.3051 -0.7237
 4377SOL     OW24589   1.931   3.609   0.090 -0.0269 -0.3142  0.3192
 4377SOL    HW124590   1.925   3.610  17.697 -1.4659  2.0629  0.4349
 4377SOL    HW224591   1.849   3.646   0.123  0.4629  1.5672 -0.5554
 4378SOL     OW24592   2.867   4.587   7.903 -0.0893  0.1115  0.2260
 4378SOL    HW124593   2.884   4.493   7.916 -0.2008  0.0827  0.1617
 4378SOL    HW224594   2.774   4.598   7.886  0.2093 -0.3151 -1.7595
 4379SOL     OW24595   1.877   1.297   8.498 -0.0652 -0.0101 -0.3669
 4379SOL    HW124596   1.887   1.388   8.470  0.6094 -0.7780 -2.6170
 4379SOL    HW224597   1.969   1.273   8.512  0.1372  1.5676  0.9273
 4380SOL     OW24598   0.784   3.868   7.910  0.1233  0.1590  0.1096
 4380SOL    HW124599   0.767   3.957   7.879  1.2449  0.4656  0.3969
 4380SOL    HW224600   0.701   3.857   7.958 -1.2039 -1.7672 -2.6067
 4381SOL     OW24601   2.977   2.198   4.450 -0.0562  0.2723  0.4601
 4381SOL    HW124602   3.055   2.198   4.395  0.6760 -0.3087  1.5012
 4381SOL    HW224603   2.906   2.206   4.387  0.6603 -0.1186 -0.3902
 4382SOL     OW24604   3.190   2.088   2.827  0.4257  0.3679 -0.6213
 4382SOL    HW124605   3.213   2.155   2.762  1.6378  0.1899 -0.3643
 4382SOL    HW224606   3.277   2.056   2.849  0.3674  0.8217  0.2491
 4383SOL     OW24607   0.364   0.902   3.903 -0.2936 -0.1271  0.6232
 4383SOL    HW124608   0.376   0.855   3.820  0.9776 -2.7521  2.2897
 4383SOL    HW224609   0.453   0.893   3.938  0.2732  0.9752 -0.5424
 4384SOL     OW24610   3.973   1.708   3.784  0.5401 -0.1892  0.3964
 4384SOL    HW124611   3.986   1.696   3.690  0.3809  1.4613  0.1632
 4384SOL    HW224612   3.918   1.635   3.813  1.0962 -1.5301 -1.8975
 4385SOL     OW24613   1.674   0.747   7.985 -0.4319 -0.5988  0.3755
 4385SOL    HW124614   1.663   0.686   7.912 -0.0843  1.2673 -1.2413
 4385SOL    HW224615   1.764   0.780   7.977 -0.9518  1.0190  1.2464
 4386SOL     OW24616   1.596   0.140   5.675 -0.1486  0.1776  0.2084
 4386SOL    HW124617   1.534   0.067   5.669 -1.0327  1.1683 -2.8609
 4386SOL    HW224618   1.575   0.195   5.599 -0.1188 -1.2950 -0.8679
 4387SOL     OW24619   0.013   0.647  14.126  0.4761  0.1547  0.0149
 4387SOL    HW124620   0.000   0.584  14.055  1.1083  0.1224 -0.0744
 4387SOL    HW224621   4.723   0.585  14.198  1.2547 -1.9497 -1.6236
 4388SOL     OW24622   1.288   1.047  16.674  0.2115  0.0194 -0.3513
 4388SOL    HW124623   1.245   1.121  16.716  0.9747  0.3192 -0.1029
 4388SOL    HW224624   1.277   1.069  16.581  0.5714 -3.5436 -1.2385
 4389SOL     OW24625   1.430   3.262   1.961  0.3139  0.1144 -0.2810
 4389SOL    HW124626   1.341   3.296   1.968  1.0716  1.3663  3.0155
 4389SOL    HW224627   1.405   3.201   1.891 -0.3082  0.2534 -0.1794
 4390SOL     OW24628   1.137   2.655   1.964 -0.5772  0.4211  0.4730
 4390SOL    HW124629   1.182   2.739   1.967 -2.0863  1.1861  1.3241
 4390SOL    HW224630   1.092   2.660   1.879 -0.3994  1.9466  0.4711
 4391SOL     OW24631   0.311   4.262   9.295  0.3543  0.8613 -0.3512
 4391SOL    HW124632   0.324   4.330   9.229 -0.4496  0.0514 -1.3400
 4391SOL    HW224633   0.329   4.183   9.245 -0.1143  1.9392 -2.2295
 4392SOL     OW24634   0.648   0.508   2.580  0.0260  0.6277 -0.2657
 4392SOL    HW124635   0.637   0.581   2.518  1.2265  1.3413  0.3577
 4392SOL    HW224636   0.659   0.554   2.663  0.7944  0.1879 -0.1263
 4393SOL     OW24637   3.650   3.667   1.824 -0.2448 -0.1813  0.0495
 4393SOL    HW124638   3.592   3.683   1.899  0.3490  0.4225  0.3756
 4393SOL    HW224639   3.648   3.758   1.795  1.2548 -1.4173 -3.9777
 4394SOL     OW24640   4.424   4.436  14.201  0.0017  0.2350 -0.1107
 4394SOL    HW124641   4.332   4.410  14.199  1.0354 -3.3729 -1.4388
 4394SOL    HW224642   4.450   4.393  14.283 -3.4287 -1.5495  0.0522
 4395SOL     OW24643   2.608   0.375   2.904  0.0013  0.2678 -0.5866
 4395SOL    HW124644   2.685   0.427   2.885  0.4764 -0.1859  0.1089
 4395SOL    HW224645   2.537   0.431   2.871  1.0474  2.2410  0.5620
 4396SOL     OW24646   1.723   1.188   0.718 -0.2977  0.3241  0.0063
 4396SOL    HW124647   1.638   1.213   0.754 -0.4097  1.2742 -0.9193
 4396SOL    HW224648   1.698   1.139   0.640  1.4398 -0.7041  0.0783
 4397SOL     OW24649   2.380   2.750  15.788  0.0122  0.2357 -0.1582
 4397SOL    HW124650   2.371   2.844  15.778 -1.7385  0.0718 -0.1942
 4397SOL    HW224651   2.364   2.742  15.882  0.4699  0.4284 -0.0654
 4398SOL     OW24652   0.725   1.498   2.423  0.1408  0.2986  0.4019
 4398SOL    HW124653   0.782   1.431   2.387 -0.6777 -0.3698  0.3588
 4398SOL    HW224654   0.777   1.575   2.397  1.7157 -1.7421 -2.4093
 4399SOL     OW24655   1.405   4.413  17.103 -0.2411 -0.1927 -0.5488
 4399SOL    HW124656   1.436   4.503  17.116  1.2809 -0.7669 -0.1618
 4399SOL    HW224657   1.443   4.400  17.016 -0.6527 -1.4396 -0.5455
 4400SOL     OW24658   3.668   0.894  16.016  0.1729  0.3467 -0.7816
 4400SOL    HW124659   3.735   0.953  15.980 -1.6936  2.4540 -0.8017
 4400SOL    HW224660   3.600   0.960  16.027  0.8151  0.6469  1.2488
 4401SOL     OW24661   0.464   0.109   2.237 -0.4394  0.2412 -0.0004
 4401SOL    HW124662   0.503   0.169   2.172  0.7617 -2.5660 -1.8652
 4401SOL    HW224663   0.505   0.028   2.206 -3.4742 -1.5269  0.6419
 4402SOL     OW24664   1.797   3.973   5.749  0.6537 -0.9388  0.0563
 4402SOL    HW124665   1.809   4.004   5.659  0.4608  0.1041  0.3917
 4402SOL    HW224666   1.702   3.976   5.748  0.6748  0.1759  1.0482
 4403SOL     OW24667   3.316   4.153   6.594 -0.3484 -0.2704 -0.2028
 4403SOL    HW124668   3.245   4.198   6.549 -1.0757 -3.0935 -1.8790
 4403SOL    HW224669   3.290   4.166   6.685 -0.0567  0.3476 -0.2109
 4404SOL     OW24670   3.728   4.332   8.226  0.1031  0.6131  0.4147
 4404SOL    HW124671   3.648   4.282   8.244 -0.2192  0.9168 -0.1808
 4404SOL    HW224672   3.772   4.341   8.310 -2.2710 -0.1130  1.7295
 4405SOL     OW24673   2.082   2.398   6.169  0.5719 -0.5440 -0.0147
 4405SOL    HW124674   2.027   2.474   6.191 -0.6905 -1.5314  0.2097
 4405SOL    HW224675   2.151   2.408   6.235 -0.2758 -2.8846  1.1921
 4406SOL     OW24676   1.375   3.445   5.048  0.0263 -0.6989 -0.7153
 4406SOL    HW124677   1.389   3.424   5.140  0.1776 -0.2167 -0.6267
 4406SOL    HW224678   1.389   3.357   5.014  0.4431 -0.6570 -0.6526
 4407SOL     OW24679   4.259   1.133  14.614  0.1218  0.4714  0.0109
 4407SOL    HW124680   4.264   1.040  14.635 -1.0894 -0.0996 -2.1825
 4407SOL    HW224681   4.228   1.168  14.697 -1.6245  0.0813 -0.4803
 4408SOL     OW24682   1.456   1.470  15.335  0.8225 -0.4986  0.0210
 4408SOL    HW124683   1.529   1.466  15.273  0.6077  0.7259 -0.2983
 4408SOL    HW224684   1.407   1.545  15.303  0.7292  0.0239  1.3714
 4409SOL     OW24685   1.119   4.021   4.260  0.4360 -0.1265  0.0855
 4409SOL    HW124686   1.120   4.094   4.198 -1.7809 -0.4961 -0.3989
 4409SOL    HW224687   1.098   4.060   4.345  0.2518 -2.3721  1.0813
 4410SOL     OW24688   3.803   1.078  16.773 -0.0920 -0.1556  0.3553
 4410SOL    HW124689   3.813   1.164  16.815  0.8171  0.6099 -1.3981
 4410SOL    HW224690   3.713   1.091  16.743  0.5421  1.0993 -1.0246
 4411SOL     OW24691   3.121   3.654   6.444 -0.6666  0.0123  0.0287
 4411SOL    HW124692   3.037   3.629   6.483  0.3828  0.2948  2.4368
 4411SOL    HW224693   3.128   3.565   6.411  1.5004 -0.1611  1.0157
 4412SOL     OW24694   4.406   3.661  15.093 -0.4038 -0.2366  0.5406
 4412SOL    HW124695   4.385   3.733  15.034 -2.2685 -2.1447 -1.1511
 4412SOL    HW224696   4.329   3.605  15.079  1.9787 -2.6593 -2.9563
 4413SOL     OW24697   0.369   0.128   7.291  0.2250 -0.4687 -0.2094
 4413SOL    HW124698   0.379   0.192   7.362  0.6761  0.9292 -1.5233
 4413SOL    HW224699   0.329   0.056   7.340 -1.4888  0.6887  0.1088
 4414SOL     OW24700   3.756   3.009   7.988 -0.2444  0.6950 -0.3347
 4414SOL    HW124701   3.675   3.029   8.034  1.0602  2.3005  1.2620
 4414SOL    HW224702   3.810   3.072   8.035 -0.7621 -1.4945  3.1162
 4415SOL     OW24703   1.488   1.411   1.469  0.2046  0.3957  0.5827
 4415SOL    HW124704   1.501   1.498   1.431  0.8069  0.2277  0.3985
 4415SOL    HW224705   1.393   1.402   1.474  0.3057 -0.6429  0.7512
 4416SOL     OW24706   4.471   4.628  11.066  0.3284  0.6675  0.2158
 4416SOL    HW124707   4.563   4.606  11.050 -0.2747 -1.2642 -0.6543
 4416SOL    HW224708   4.426   4.598  10.987 -0.1760  2.0670 -0.0290
 4417SOL     OW24709   3.429   3.384   0.583 -0.1233 -0.1830  0.2696
 4417SOL    HW124710   3.514   3.381   0.626 -0.4598  1.6022  1.0845
 4417SOL    HW224711   3.374   3.426   0.650 -3.3471 -0.4157 -2.1935
 4418SOL     OW24712   0.195   3.077  10.958 -0.3422  0.4835  0.1576
 4418SOL    HW124713   0.245   3.062  10.878 -1.5220 -1.5953 -0.2199
 4418SOL    HW224714   0.178   2.988  10.990 -0.6389  0.3188 -0.4464
 4419SOL     OW24715   0.929   3.201  10.592 -0.2986 -0.7471  0.4776
 4419SOL    HW124716   0.888   3.259  10.656  2.1097  1.1877  0.2602
 4419SOL    HW224717   0.908   3.250  10.512  1.2493 -0.1762  0.4325
 4420SOL     OW24718   4.268   1.092   0.471  0.1607  0.0108 -0.0580
 4420SOL    HW124719   4.283   1.107   0.564 -1.6700 -0.3184  0.2929
 4420SOL    HW224720   4.349   1.062   0.429 -0.4349 -2.1796  0.3420
 4421SOL     OW24721   0.865   2.889   5.619  0.0718 -0.5690  0.2527
 4421SOL    HW124722   0.799   2.927   5.562 -0.1592 -0.3687  0.6533
 4421SOL    HW224723   0.820   2.811   5.654 -1.2138 -0.8135 -1.9144
 4422SOL     OW24724   1.428   0.240   2.244  0.3346 -0.4013  0.1357
 4422SOL    HW124725   1.356   0.177   2.241 -2.3059  2.4056  3.4669
 4422SOL    HW224726   1.445   0.240   2.338  0.3334  0.7905  0.1409
 4423SOL     OW24727   3.370   0.341   4.617 -0.3332  0.1175  0.6705
 4423SOL    HW124728   3.401   0.357   4.528 -1.2201 -0.5923  0.2333
 4423SOL    HW224729   3.299   0.278   4.605 -0.1615  0.3812 -1.5994
 4424SOL     OW24730   3.808   2.251   9.714  0.7223  0.7329 -0.5051
 4424SOL    HW124731   3.873   2.198   9.762  1.6601  1.5718 -0.8622
 4424SOL    HW224732   3.745   2.192   9.672  1.3677  0.0068 -0.4526
 4425SOL     OW24733   1.837   0.016   5.426  0.1570 -0.0477  0.3983
 4425SOL    HW124734   1.778   4.680   5.384  0.8794 -0.5260  0.0807
 4425SOL    HW224735   1.806   0.008   5.516 -0.4324  2.5212  0.4245
 4426SOL     OW24736   1.071   3.824   7.611 -0.2101  0.2804 -0.3887
 4426SOL    HW124737   1.150   3.809   7.558 -1.1906  0.3155 -1.8583
 4426SOL    HW224738   1.021   3.873   7.545  1.9412  0.0539 -2.2156
 4427SOL     OW24739   0.874   4.560   6.076 -0.1246  0.1448  0.1129
 4427SOL    HW124740   0.816   4.621   6.030 -0.1445  0.4375  0.5243
 4427SOL    HW224741   0.852   4.479   6.030 -2.4235 -0.1255  1.6659
 4428SOL     OW24742   3.563   1.437  13.487 -0.6478  0.0395  0.0804
 4428SOL    HW124743   3.591   1.459  13.576  1.1214 -1.2732 -0.1454
 4428SOL    HW224744   3.487   1.387  13.515 -1.9825  1.2065 -1.4711
 4429SOL     OW24745   2.208   0.512  13.096 -0.4589  0.3026  0.6411
 4429SOL    HW124746   2.291   0.546  13.061 -0.5647  2.0395  2.0259
 4429SOL    HW224747   2.241   0.486  13.182  0.9713  1.3115  0.4158
 4430SOL     OW24748   3.317   1.142  14.521 -0.0077  0.2163 -0.4748
 4430SOL    HW124749   3.359   1.139  14.435  0.4144 -0.5657 -0.2393
 4430SOL    HW224750   3.366   1.217  14.555 -1.3789  2.8288 -4.2205
 4431SOL     OW24751   3.530   0.532  11.961  0.6311 -0.1274 -0.1725
 4431SOL    HW124752   3.535   0.447  12.005  0.6067 -0.0208  0.0391
 4431SOL    HW224753   3.520   0.598  12.030  1.4200  0.3520 -0.5165
 4432SOL     OW24754   2.794   2.805   3.126  0.1496  0.4224  0.5169
 4432SOL    HW124755   2.758   2.893   3.123  0.0244  0.3713  0.5154
 4432SOL    HW224756   2.769   2.769   3.040  1.2547 -1.2151  0.8836
 4433SOL     OW24757   0.803   4.718   6.999 -0.2899  0.2150  0.5871
 4433SOL    HW124758   0.721   0.006   7.045 -0.7596 -2.5297  0.5450
 4433SOL    HW224759   0.864   4.712   7.073  2.2539 -0.7801 -1.5674
 4434SOL     OW24760   1.761   1.490  15.906  0.0234  0.1537 -0.4748
 4434SOL    HW124761   1.842   1.499  15.857  0.4647  0.4924  0.3208
 4434SOL    HW224762   1.752   1.575  15.949 -2.3838 -0.3995  0.1202
 4435SOL     OW24763   1.074   3.887  10.937 -0.5200 -0.4202 -0.3145
 4435SOL    HW124764   1.069   3.908  11.031  1.0771 -0.6252 -0.1735
 4435SOL    HW224765   1.169   3.870  10.938 -0.2272  1.2162 -2.0645
 4436SOL     OW24766   4.161   3.361   1.167  0.1076 -0.3992 -0.5158
 4436SOL    HW124767   4.179   3.413   1.089 -2.0822  1.6422  0.3432
 4436SOL    HW224768   4.147   3.272   1.134 -0.0970  0.1977 -1.9890
 4437SOL     OW24769   3.832   1.901   7.272 -0.2183  0.3516 -0.1045
 4437SOL    HW124770   3.921   1.868   7.270  0.3641  1.9477 -0.3885
 4437SOL    HW224771   3.811   1.864   7.186  1.7269 -0.5213 -0.2025
 4438SOL     OW24772   3.550   0.788  11.047  0.2881 -0.1016  0.6344
 4438SOL    HW124773   3.507   0.713  11.088 -2.7326  1.9420  1.1950
 4438SOL    HW224774   3.485   0.806  10.979  0.6331 -1.0976  0.0390
 4439SOL     OW24775   0.907   2.733  10.045  0.1913 -0.4138  0.3165
 4439SOL    HW124776   0.835   2.794  10.036  0.5499 -0.0930 -0.4289
 4439SOL    HW224777   0.872   2.657  10.091  1.2885 -0.9789  0.2320
 4440SOL     OW24778   3.224   4.402   7.860  0.0886  0.7767 -0.5954
 4440SOL    HW124779   3.139   4.358   7.856 -0.5936  2.0417  0.2122
 4440SOL    HW224780   3.282   4.342   7.907 -0.9713 -0.6876 -1.1585
 4441SOL     OW24781   0.502   3.878  15.377 -0.6574 -0.1582 -0.0964
 4441SOL    HW124782   0.440   3.910  15.442  0.5536 -1.3445  1.6675
 4441SOL    HW224783   0.499   3.786  15.406 -1.3743 -0.0620  0.1300
 4442SOL     OW24784   2.398   0.869   4.740  0.2183 -0.1241 -0.2598
 4442SOL    HW124785   2.376   0.945   4.794 -2.2115 -1.3893  0.5083
 4442SOL    HW224786   2.450   0.896   4.664 -1.4069 -0.1501 -1.3782
 4443SOL     OW24787   4.582   3.188  12.115 -0.5343  0.2090 -0.0286
 4443SOL    HW124788   4.633   3.181  12.195 -0.6523  2.6860  0.2536
 4443SOL    HW224789   4.655   3.199  12.054 -1.2012  0.3243 -0.8122
 4444SOL     OW24790   3.575   1.376   2.857  0.0343  0.1051 -0.0524
 4444SOL    HW124791   3.645   1.441   2.851  1.0895 -0.9316  1.0554
 4444SOL    HW224792   3.605   1.318   2.786 -0.6259 -1.4987  0.9796
 4445SOL     OW24793   3.154   3.760   1.795 -0.0511 -0.2851  0.0228
 4445SOL    HW124794   3.066   3.737   1.762 -0.8506  0.6291  1.5533
 4445SOL    HW224795   3.203   3.778   1.715  0.8632 -0.0048  0.6509
 4446SOL     OW24796   4.725   0.183  17.543  0.9413 -0.2491 -0.1476
 4446SOL    HW124797   0.031   0.271  17.564 -0.4870  0.4592 -0.8960
 4446SOL    HW224798   4.701   0.200  17.452  1.4992 -0.7985 -0.3932
 4447SOL     OW24799   4.495   2.719  12.902  0.4353  0.0564  0.5430
 4447SOL    HW124800   4.571   2.766  12.868  0.8213 -0.8833  0.1039
 4447SOL    HW224801   4.476   2.776  12.977  0.5087 -1.5900  1.8083
 4448SOL     OW24802   4.451   4.715   3.131 -0.3723 -0.1728  0.1170
 4448SOL    HW124803   4.441   4.661   3.052 -0.9856  0.4855 -0.2513
 4448SOL    HW224804   4.373   0.044   3.119  1.2532  1.9212 -0.9921
 4449SOL     OW24805   4.616   4.398   8.913 -0.0987  0.0514 -1.1037
 4449SOL    HW124806   4.687   4.343   8.948 -0.5763 -0.0473 -0.3028
 4449SOL    HW224807   4.646   4.421   8.825  1.3825  1.0472 -0.3485
 4450SOL     OW24808   2.451   1.171   2.767 -0.3392  0.5126  0.4275
 4450SOL    HW124809   2.441   1.258   2.729 -0.1958 -0.7095 -2.4260
 4450SOL    HW224810   2.359   1.155   2.789 -0.2488 -1.4714 -0.6392
 4451SOL     OW24811   1.831   3.695  11.876  0.2208  0.4250  0.4776
 4451SOL    HW124812   1.890   3.762  11.910 -0.0755  0.6159  0.6208
 4451SOL    HW224813   1.796   3.735  11.797  3.1014  1.3578 -0.2998
 4452SOL     OW24814   0.183   1.591   7.505  0.0714 -0.3978 -0.7338
 4452SOL    HW124815   0.190   1.547   7.590  1.8924  1.1055 -0.0961
 4452SOL    HW224816   0.099   1.637   7.515  0.3182 -0.0758 -0.1771
 4453SOL     OW24817   0.394   2.427   4.186  0.0477 -0.0936  0.7017
 4453SOL    HW124818   0.342   2.433   4.106  1.4112  0.1183 -0.1554
 4453SOL    HW224819   0.353   2.352   4.229 -2.3691  1.2266  0.6825
 4454SOL     OW24820   2.362   4.174   6.444 -0.1017  0.3657  0.1780
 4454SOL    HW124821   2.329   4.234   6.377  0.2916  0.3632 -0.0150
 4454SOL    HW224822   2.448   4.152   6.408 -1.2385 -2.2757 -0.9356
 4455SOL     OW24823   4.144   2.761   4.599 -0.0121  0.7576 -0.2434
 4455SOL    HW124824   4.112   2.726   4.516 -0.0453  0.0311  0.0713
 4455SOL    HW224825   4.212   2.697   4.622 -2.1084 -1.1876  0.6076
 4456SOL     OW24826   3.816   0.450   5.773  0.7280 -0.2960  0.1112
 4456SOL    HW124827   3.750   0.505   5.731  2.3463  1.0736 -0.6425
 4456SOL    HW224828   3.765   0.418   5.847  2.9761 -0.0977  1.7527
 4457SOL     OW24829   4.411   0.384   1.155  0.1443  0.0049 -0.2752
 4457SOL    HW124830   4.331   0.404   1.106  1.6789  1.1925 -2.2867
 4457SOL    HW224831   4.396   0.298   1.196 -0.9582 -1.1393 -3.0729
 4458SOL     OW24832   3.596   4.411   4.037 -0.3616 -0.0475 -0.5357
 4458SOL    HW124833   3.679   4.451   4.012  0.0385  0.6079  1.8494
 4458SOL    HW224834   3.602   4.403   4.132  0.5298 -0.2760 -0.6082
 4459SOL     OW24835   3.134   2.747   2.601  0.6703  0.2104  0.2117
 4459SOL    HW124836   3.217   2.756   2.554 -0.0541 -1.4741 -1.3921
 4459SOL    HW224837   3.156   2.707   2.686  0.9545  2.4471  1.1839
 4460SOL     OW24838   1.996   0.556   0.755  0.1275  0.0512 -0.2667
 4460SOL    HW124839   2.078   0.596   0.726  0.7389 -0.3385  0.9542
 4460SOL    HW224840   2.019   0.515   0.838 -0.3579 -1.1722 -0.7238
 4461SOL     OW24841   4.000   1.456   5.966 -0.7664 -0.1844  0.1402
 4461SOL    HW124842   3.959   1.387   6.017 -0.0623 -0.1555  0.7448
 4461SOL    HW224843   3.994   1.416   5.879  1.4622  0.2394 -0.2206
 4462SOL     OW24844   3.934   2.651   2.456  0.2436 -0.0207  0.5966
 4462SOL    HW124845   4.019   2.658   2.412 -1.0475  3.8505 -1.3390
 4462SOL    HW224846   3.874   2.688   2.391  0.2412 -1.8124 -0.4152
 4463SOL     OW24847   0.484   3.259  13.548  0.4152  0.6027 -0.1782
 4463SOL    HW124848   0.469   3.353  13.542  1.1863  0.7443  0.2137
 4463SOL    HW224849   0.519   3.243  13.460  2.9308  0.7474  0.7843
 4464SOL     OW24850   3.416   1.408   5.519 -0.3799  0.3606  1.0048
 4464SOL    HW124851   3.508   1.426   5.538  0.1466 -2.6010  1.2101
 4464SOL    HW224852   3.370   1.492   5.510 -1.8797 -0.6824 -1.1217
 4465SOL     OW24853   3.031   4.551   4.783 -0.2632 -0.2769 -0.4432
 4465SOL    HW124854   3.021   4.596   4.867  0.2283 -0.5837 -0.2216
 4465SOL    HW224855   3.102   4.490   4.802  0.0355  0.5032  0.9797
 4466SOL     OW24856   2.120   3.897   8.574 -0.3020  0.5366 -0.2224
 4466SOL    HW124857   2.187   3.837   8.543 -0.4584  0.2060  0.0819
 4466SOL    HW224858   2.049   3.846   8.613 -0.3830  1.3687  0.7453
 4467SOL     OW24859   2.259   1.174   4.750 -0.2752  0.2124  0.1910
 4467SOL    HW124860   2.258   1.257   4.799  2.2271  0.5947 -0.3925
 4467SOL    HW224861   2.217   1.191   4.665  1.3533  1.0041 -0.4637
 4468SOL     OW24862   2.055   0.267   7.564 -0.2332 -0.4852 -0.0102
 4468SOL    HW124863   2.000   0.189   7.562 -1.3537  0.2843  0.9205
 4468SOL    HW224864   2.002   0.333   7.520 -0.9832 -1.0420  0.0543
 4469SOL     OW24865   3.469   0.029   7.567  0.7290 -0.1451  0.3845
 4469SOL    HW124866   3.430   0.060   7.649  1.5200  2.2593 -0.1460
 4469SOL    HW224867   3.487   4.664   7.595  0.7654 -0.1522  0.3372
 4470SOL     OW24868   3.866   4.174   0.968  0.3494 -1.0741  0.6925
 4470SOL    HW124869   3.957   4.204   0.960  0.5564 -1.2996  2.1183
 4470SOL    HW224870   3.816   4.227   0.907  0.3262 -0.9279  0.8379
 4471SOL     OW24871   1.694   3.659   0.209  0.6384 -0.3066 -0.2803
 4471SOL    HW124872   1.622   3.615   0.255 -0.1379  0.4508 -0.7724
 4471SOL    HW224873   1.640   3.686   0.135 -0.6117  0.5896  0.9480
 4472SOL     OW24874   2.768   1.086   6.680 -0.0873  0.5882 -0.8745
 4472SOL    HW124875   2.734   1.009   6.726 -0.7278  1.8785  0.7847
 4472SOL    HW224876   2.786   1.052   6.593  0.0383 -1.7111  0.0360
 4473SOL     OW24877   1.108   2.845   2.331 -0.2592  0.2415 -0.5120
 4473SOL    HW124878   1.109   2.931   2.289 -0.3332  1.3979  1.8817
 4473SOL    HW224879   1.060   2.865   2.411 -0.4764  0.4674 -0.6970
 4474SOL     OW24880   3.785   1.473   3.791 -0.4676  0.2965  0.0216
 4474SOL    HW124881   3.815   1.466   3.700  0.3850 -2.7481  0.5465
 4474SOL    HW224882   3.704   1.424   3.784 -0.4679 -0.0915  3.0639
 4475SOL     OW24883   2.537   4.267   0.961 -0.4950  0.1740  0.1004
 4475SOL    HW124884   2.515   4.191   1.015  0.0225 -0.5396 -0.6993
 4475SOL    HW224885   2.567   4.338   1.018 -3.6900  0.5175  1.3826
 4476SOL     OW24886   3.265   4.360   6.125  0.0033 -0.2005 -0.2633
 4476SOL    HW124887   3.307   4.430   6.174 -3.3376  0.1211  2.1384
 4476SOL    HW224888   3.188   4.346   6.180 -0.9978 -0.7923 -1.7991
 4477SOL     OW24889   3.373   3.521   0.334  0.0729  0.0216  0.4313
 4477SOL    HW124890   3.363   3.473   0.416  0.4824 -1.8431 -0.6212
 4477SOL    HW224891   3.467   3.512   0.318 -0.2020 -2.9257  0.4478
 4478SOL     OW24892   1.645   4.117   1.983 -0.3353 -0.6348  0.6985
 4478SOL    HW124893   1.567   4.103   1.930 -0.1705 -2.6299  1.0007
 4478SOL    HW224894   1.716   4.089   1.926  0.5549 -0.8786  1.9196
 4479SOL     OW24895   2.454   1.627   2.492 -0.8986  0.6312 -0.1595
 4479SOL    HW124896   2.464   1.685   2.417  0.1563 -2.3146 -2.2593
 4479SOL    HW224897   2.361   1.605   2.497 -0.6737 -0.6838 -1.8921
 4480SOL     OW24898   3.767   2.551   5.094 -0.1401 -0.1457  0.2983
 4480SOL    HW124899   3.763   2.594   5.180  1.0334  0.7512 -0.1052
 4480SOL    HW224900   3.756   2.623   5.033  1.2920 -0.6222 -0.5258
 4481SOL     OW24901   0.231   2.747  15.542  0.6904  1.1253 -0.0346
 4481SOL    HW124902   0.302   2.811  15.538  0.2624  1.8566  4.4232
 4481SOL    HW224903   0.283   2.670  15.567 -0.8425  0.1072  0.0627
 4482SOL     OW24904   1.734   1.044   9.324  0.4204 -0.5812 -0.2707
 4482SOL    HW124905   1.658   1.097   9.345  0.6614 -0.4440  0.2571
 4482SOL    HW224906   1.797   1.093   9.376  1.1697  0.3501 -2.0646
 4483SOL     OW24907   4.317   1.787   8.291  0.6384 -0.3383  0.0996
 4483SOL    HW124908   4.369   1.864   8.314  1.7166 -0.2335 -2.5779
 4483SOL    HW224909   4.365   1.756   8.214 -1.7844 -0.2287 -1.4444
 4484SOL     OW24910   1.546   1.416  11.065 -0.2364  0.5411  0.0018
 4484SOL    HW124911   1.498   1.441  10.986  0.6531  0.2598 -0.6244
 4484SOL    HW224912   1.558   1.499  11.112  1.4135  0.4555 -0.2628
 4485SOL     OW24913   4.461   2.968   2.111 -0.2588 -0.0961  0.1383
 4485SOL    HW124914   4.557   2.970   2.117 -0.0805 -1.0588 -2.3024
 4485SOL    HW224915   4.437   2.877   2.096  0.6176 -0.1433 -1.0641
 4486SOL     OW24916   4.149   3.107   6.184  0.3396  0.1095  0.3641
 4486SOL    HW124917   4.124   3.190   6.143 -0.9292 -1.1524 -1.4326
 4486SOL    HW224918   4.094   3.107   6.262 -1.0945 -1.0777 -0.6644
 4487SOL     OW24919   2.211   2.340   3.699  0.0188 -0.5404  0.1593
 4487SOL    HW124920   2.272   2.307   3.766 -0.1479  0.8270  0.9724
 4487SOL    HW224921   2.247   2.293   3.624  1.1008  0.7753 -0.1476
 4488SOL     OW24922   3.200   0.703   4.553  0.3251 -0.0835 -0.2551
 4488SOL    HW124923   3.134   0.724   4.618 -0.0542  3.1191 -1.6926
 4488SOL    HW224924   3.273   0.761   4.576 -0.1112  0.7955 -1.1048
 4489SOL     OW24925   4.266   3.512  11.033 -0.7511  0.0247  0.6494
 4489SOL    HW124926   4.355   3.490  11.008 -0.3692  1.5370  0.6568
 4489SOL    HW224927   4.284   3.537  11.124  2.1057 -0.4159  0.1844
 4490SOL     OW24928   1.172   3.082   1.780 -0.2739  0.3219 -0.2318
 4490SOL    HW124929   1.200   3.015   1.717 -1.1323  0.3117 -0.6022
 4490SOL    HW224930   1.160   3.158   1.723 -1.1937  0.6675  0.4281
 4491SOL     OW24931   4.666   1.020  15.182  0.1775  0.3929 -0.2415
 4491SOL    HW124932   4.725   0.968  15.128  1.7419  1.0594  0.8160
 4491SOL    HW224933   4.638   1.094  15.127  2.0584  2.1715  1.1591
 4492SOL     OW24934   0.995   2.242   9.000 -0.0511  0.1602 -0.3384
 4492SOL    HW124935   1.062   2.278   9.059 -1.8592 -0.6120  2.1633
 4492SOL    HW224936   0.916   2.294   9.014  1.0622  2.3402 -2.0711
 4493SOL     OW24937   0.773   1.715   5.308 -0.2213 -0.6713 -0.0910
 4493SOL    HW124938   0.809   1.648   5.250  2.0008 -1.7907  2.6100
 4493SOL    HW224939   0.854   1.747   5.347 -0.0849 -0.3202 -0.6640
 4494SOL     OW24940   1.435   1.512   7.120 -0.1537  0.3243 -0.2862
 4494SOL    HW124941   1.379   1.500   7.196  1.7311  0.7589  1.1489
 4494SOL    HW224942   1.486   1.591   7.138 -0.6017  0.2546  1.2634
 4495SOL     OW24943   3.895   1.945   9.355 -0.0503 -0.0095 -0.5829
 4495SOL    HW124944   3.933   1.957   9.268 -0.1100  4.0407 -0.0341
 4495SOL    HW224945   3.931   2.021   9.399 -1.4077  1.4150 -1.9292
 4496SOL     OW24946   0.649   3.010   5.466 -0.0030 -0.4249 -0.1513
 4496SOL    HW124947   0.604   3.095   5.462 -3.0082 -1.9261  1.4572
 4496SOL    HW224948   0.579   2.944   5.468  0.5382 -0.9741  0.5655
 4497SOL     OW24949   1.024   0.205   5.404 -0.1629  0.4437  0.2969
 4497SOL    HW124950   0.937   0.244   5.397 -0.5849 -0.6863 -0.9270
 4497SOL    HW224951   1.010   0.110   5.404  1.0315  0.2747  0.5775
 4498SOL     OW24952   2.446   3.976   2.585  0.5082 -0.3538 -0.0703
 4498SOL    HW124953   2.451   3.977   2.680 -3.3661  2.8865  0.1420
 4498SOL    HW224954   2.406   3.889   2.583 -0.1700 -0.0464  0.0450
 4499SOL     OW24955   0.602   0.302   3.232  0.4694  0.1406 -0.2786
 4499SOL    HW124956   0.625   0.320   3.141  1.2632 -2.2448 -0.5559
 4499SOL    HW224957   0.682   0.327   3.278  0.1746 -0.5157  0.5971
 4500SOL     OW24958   2.497   4.132  11.564 -0.2364  0.3462  0.3553
 4500SOL    HW124959   2.482   4.038  11.566  0.6332  0.1535 -2.2619
 4500SOL    HW224960   2.411   4.173  11.567 -0.0981  0.6685  0.0125
 4501SOL     OW24961   0.184   2.391  12.185  0.1367 -0.0763  0.4572
 4501SOL    HW124962   0.253   2.441  12.228  0.1508 -0.2254  0.6103
 4501SOL    HW224963   0.212   2.392  12.094 -1.5793  1.2520 -0.0511
 4502SOL     OW24964   4.360   4.633   6.530 -0.6003  0.5261  0.0355
 4502SOL    HW124965   4.292   4.672   6.476  0.1584  0.5538 -0.8866
 4502SOL    HW224966   4.396   4.576   6.462 -0.6544 -0.6274  0.9662
 4503SOL     OW24967   3.978   0.460   9.727 -0.1471  0.2456  0.1894
 4503SOL    HW124968   3.954   0.368   9.737 -1.3818  0.7317  1.6255
 4503SOL    HW224969   4.072   0.456   9.741  0.3244  2.2092 -2.3098
 4504SOL     OW24970   1.646   3.699   1.162  1.1238 -0.2687 -0.6598
 4504SOL    HW124971   1.664   3.792   1.180  1.9288 -0.6793  0.6409
 4504SOL    HW224972   1.603   3.668   1.241  0.8174 -1.1047 -1.1553
 4505SOL     OW24973   3.485   1.514   3.126 -0.1202 -0.2101 -0.3527
 4505SOL    HW124974   3.398   1.513   3.086 -0.0548 -0.3969 -0.4890
 4505SOL    HW224975   3.538   1.574   3.073 -0.6242  0.2130 -0.3805
 4506SOL     OW24976   4.492   0.940   1.521 -0.1371  0.3985 -0.3112
 4506SOL    HW124977   4.470   0.915   1.611 -1.4520  0.3934 -0.6431
 4506SOL    HW224978   4.410   0.911   1.480 -0.6621 -0.7554  1.5512
 4507SOL     OW24979   2.297   0.337   6.134 -0.4670 -0.1261  0.0179
 4507SOL    HW124980   2.215   0.377   6.107 -1.3601 -1.8807  0.1514
 4507SOL    HW224981   2.282   0.376   6.220 -1.0597 -0.4044  0.0341
 4508SOL     OW24982   3.459   0.241  14.734  0.2944 -0.0637 -0.1770
 4508SOL    HW124983   3.405   0.239  14.655  0.6514 -3.6421 -0.3523
 4508SOL    HW224984   3.530   0.297  14.703 -0.2332  1.4715  1.3950
 4509SOL     OW24985   3.260   1.464  11.930  0.1105  0.4493 -0.1615
 4509SOL    HW124986   3.225   1.418  11.854 -1.2609  1.4002 -0.1143
 4509SOL    HW224987   3.285   1.546  11.887  1.8481 -0.0919 -0.1839
 4510SOL     OW24988   3.308   1.718  14.365 -0.0977 -0.4749 -0.2435
 4510SOL    HW124989   3.235   1.678  14.320 -2.1242  2.3599  0.5072
 4510SOL    HW224990   3.273   1.782  14.427 -1.4230 -1.7214  0.2873
 4511SOL     OW24991   2.505   1.636   7.880  0.2615 -0.3270 -0.3169
 4511SOL    HW124992   2.518   1.541   7.880  2.1561 -0.0770 -2.0698
 4511SOL    HW224993   2.539   1.656   7.967 -0.8635  0.5366 -0.0801
 4512SOL     OW24994   2.258   3.648  15.651  0.0308 -0.3721  0.1791
 4512SOL    HW124995   2.245   3.559  15.619  0.1188 -0.0421 -0.7779
 4512SOL    HW224996   2.352   3.649  15.631  0.0342 -0.0614  0.2080
 4513SOL     OW24997   3.399   3.784   0.402  0.3076 -0.0192 -0.3051
 4513SOL    HW124998   3.385   3.700   0.360 -2.4111 -1.2518  3.0563
 4513SOL    HW224999   3.494   3.781   0.405  0.3159 -0.7018 -1.3535
 4514SOL     OW25000   0.772   2.211   7.619 -0.0309 -0.5828  0.1532
 4514SOL    HW125001   0.708   2.161   7.567 -2.6994  2.1208  0.8240
 4514SOL    HW225002   0.733   2.191   7.704 -2.3627  0.6101 -0.6349
 4515SOL     OW25003   2.503   1.896   4.881 -0.3263  0.5083  0.3530
 4515SOL    HW125004   2.582   1.874   4.830 -0.5774  1.9609 -0.6688
 4515SOL    HW225005   2.494   1.988   4.856  0.7294 -0.1065 -2.3214
 4516SOL     OW25006   3.637   3.218   3.714  0.1297  0.5742  0.1358
 4516SOL    HW125007   3.657   3.130   3.684 -0.8444  1.1482 -2.1590
 4516SOL    HW225008   3.583   3.203   3.792  0.0778  0.3411  0.0563
 4517SOL     OW25009   0.544   2.502  13.719 -0.1013 -0.5833 -0.2311
 4517SOL    HW125010   0.581   2.415  13.726  0.5293 -0.4924 -2.3170
 4517SOL    HW225011   0.521   2.529  13.808 -0.7483 -0.0909 -0.5451
 4518SOL     OW25012   2.977   3.564   7.972 -0.0649  0.9739  0.0947
 4518SOL    HW125013   3.001   3.543   7.881  1.6356  0.2270  0.7197
 4518SOL    HW225014   3.060   3.571   8.019  0.4318 -0.9780 -0.4615
 4519SOL     OW25015   3.612   3.942  13.309  0.4746 -0.1472 -0.6425
 4519SOL    HW125016   3.554   4.013  13.334 -2.9715 -2.4999 -1.9115
 4519SOL    HW225017   3.639   3.906  13.394 -1.9249  0.5927  0.4213
 4520SOL     OW25018   0.949   2.144  15.064  0.4181 -0.4730 -0.1292
 4520SOL    HW125019   0.974   2.196  15.141 -0.7350 -0.6099  0.3393
 4520SOL    HW225020   0.973   2.197  14.988 -1.3219  1.5259  0.7107
 4521SOL     OW25021   1.733   3.020   7.891  0.0929 -0.4447 -0.3322
 4521SOL    HW125022   1.726   3.009   7.986  1.0913 -0.0887 -0.2143
 4521SOL    HW225023   1.826   3.039   7.878  0.0536 -0.3202 -0.4349
 4522SOL     OW25024   1.544   0.759   4.359  0.0857 -0.4633  0.2330
 4522SOL    HW125025   1.600   0.784   4.285  0.7306  2.6181  1.7976
 4522SOL    HW225026   1.527   0.666   4.340  2.2906 -0.2374 -2.9797
 4523SOL     OW25027   4.713   3.490   9.304  0.5857 -0.0934 -0.9547
 4523SOL    HW125028   0.064   3.538   9.336  0.4860 -0.7972  0.3392
 4523SOL    HW225029   4.689   3.545   9.228 -0.2789 -0.9456 -1.2931
 4524SOL     OW25030   2.602   1.067   3.147 -0.1642 -0.2920  0.2282
 4524SOL    HW125031   2.660   1.131   3.106  0.6474  0.2161  2.1804
 4524SOL    HW225032   2.519   1.081   3.102 -0.7720  0.1186  1.4899
 4525SOL     OW25033   0.485   4.556   2.105 -0.4022 -0.2798 -0.4420
 4525SOL    HW125034   0.452   4.572   2.016  0.8201 -0.3879 -0.9240
 4525SOL    HW225035   0.580   4.548   2.094 -0.6912 -0.2492 -3.0645
 4526SOL     OW25036   0.432   3.186   9.090 -0.1824  0.2780  0.3045
 4526SOL    HW125037   0.374   3.221   9.022  0.6106  0.3725 -0.3201
 4526SOL    HW225038   0.464   3.109   9.044 -0.3246 -0.1132  0.8695
 4527SOL     OW25039   3.889   3.934   1.880 -0.3373 -0.5949  0.4901
 4527SOL    HW125040   3.804   3.956   1.841 -0.2944 -0.7257  0.3194
 4527SOL    HW225041   3.866   3.923   1.972 -0.5615 -0.5017  0.4471
 4528SOL     OW25042   4.245   3.337   1.432 -0.0564  0.0418 -0.8518
 4528SOL    HW125043   4.209   3.326   1.344 -1.2033 -0.2357 -0.3449
 4528SOL    HW225044   4.173   3.346   1.494  1.0899  0.3552  0.4219
 4529SOL     OW25045   3.995   1.553   7.379 -0.1450 -0.0809 -0.0114
 4529SOL    HW125046   3.955   1.478   7.424 -0.2017  1.3954  2.4233
 4529SOL    HW225047   3.918   1.584   7.332  1.9687  1.3143 -2.5446
 4530SOL     OW25048   2.438   2.251   3.226 -0.2845  0.2000 -0.0573
 4530SOL    HW125049   2.452   2.310   3.300 -2.5241  0.8427 -0.1469
 4530SOL    HW225050   2.393   2.185   3.278 -1.9616  1.0838 -0.4107
 4531SOL     OW25051   0.867   3.386   9.021  0.0827 -0.1521  0.6158
 4531SOL    HW125052   0.786   3.413   9.066 -0.1219  3.5142 -1.9917
 4531SOL    HW225053   0.931   3.361   9.088  2.5961  1.0951 -1.3842
 4532SOL     OW25054   0.579   3.414   4.175  0.1723  0.3310 -0.3192
 4532SOL    HW125055   0.664   3.369   4.168 -1.2143 -2.2303 -0.7276
 4532SOL    HW225056   0.548   3.426   4.085 -0.6659 -1.3923 -0.2620
 4533SOL     OW25057   0.887   0.124   9.828  0.2344 -0.5951  0.2621
 4533SOL    HW125058   0.946   0.106   9.754  0.4768 -0.0842  0.3305
 4533SOL    HW225059   0.823   0.183   9.786  1.0438 -0.4520 -0.7789
 4534SOL     OW25060   1.353   0.952  16.946  0.0885 -0.1873  0.1811
 4534SOL    HW125061   1.419   1.021  16.943  1.6291 -1.7068 -0.9447
 4534SOL    HW225062   1.304   0.977  16.867  1.6479  1.0840 -0.4052
 4535SOL     OW25063   3.543   0.345   4.074  0.4427 -0.1423  0.2387
 4535SOL    HW125064   3.618   0.400   4.097  0.1773 -1.8439  5.1513
 4535SOL    HW225065   3.516   0.312   4.160  0.1519 -1.8490 -0.4907
 4536SOL     OW25066   1.125   1.648   4.537 -0.0488 -0.0095  0.0730
 4536SOL    HW125067   1.088   1.626   4.623  0.8619 -2.1324 -0.0784
 4536SOL    HW225068   1.179   1.570   4.526 -0.0669 -0.1098  0.6917
 4537SOL     OW25069   3.895   3.634   2.569  0.0613  0.2692 -0.6570
 4537SOL    HW125070   3.975   3.686   2.557 -0.9585  1.4499 -2.2120
 4537SOL    HW225071   3.924   3.562   2.624 -0.5692  0.8073  0.3712
 4538SOL     OW25072   0.910   3.918   7.385 -0.0102  0.2548  0.7598
 4538SOL    HW125073   0.971   3.983   7.349 -0.5676 -0.8396 -2.1351
 4538SOL    HW225074   0.922   3.857   7.313  3.4441  0.2635  1.3246
 4539SOL     OW25075   0.439   1.727   8.604  0.2241  0.2043 -0.1875
 4539SOL    HW125076   0.450   1.822   8.612  1.0370  0.1522 -0.7161
 4539SOL    HW225077   0.529   1.701   8.584 -0.1984  0.2099 -2.0429
 4540SOL     OW25078   1.378   0.550  12.686 -0.0492  0.1773  0.2616
 4540SOL    HW125079   1.387   0.522  12.595  0.8501  0.5452  0.2348
 4540SOL    HW225080   1.361   0.644  12.679 -0.0252  0.2966  1.7893
 4541SOL     OW25081   0.920   1.537   5.187 -0.0643  0.6797 -0.0501
 4541SOL    HW125082   0.997   1.565   5.137  0.1428  1.9516  0.9600
 4541SOL    HW225083   0.895   1.453   5.149  0.0090  1.1091 -1.0387
 4542SOL     OW25084   0.834   2.332   5.976 -0.5026  0.4524 -0.4692
 4542SOL    HW125085   0.889   2.272   6.026 -1.8677  1.1106  1.8452
 4542SOL    HW225086   0.850   2.289   5.892 -0.2232  0.0017 -0.1826
 4543SOL     OW25087   0.090   0.395  12.078 -0.1089  0.6066 -0.1699
 4543SOL    HW125088   0.017   0.340  12.049 -0.3476  1.2391 -0.7976
 4543SOL    HW225089   0.154   0.336  12.040 -0.1831  0.8193 -0.6342
 4544SOL     OW25090   0.879   1.999  14.153  0.0525  0.2915  0.1698
 4544SOL    HW125091   0.866   1.998  14.248  1.9595  1.0759  0.4259
 4544SOL    HW225092   0.931   1.920  14.150  2.4397  1.9631 -2.6933
 4545SOL     OW25093   0.972   1.947   4.224  0.1784  0.3003  0.2587
 4545SOL    HW125094   0.933   2.014   4.280  0.3516  0.9014 -0.3396
 4545SOL    HW225095   0.975   1.864   4.271  1.3840  0.3394  0.2643
 4546SOL     OW25096   3.060   1.651   2.899  0.5840  0.7272 -0.0821
 4546SOL    HW125097   3.013   1.733   2.891 -0.3278  0.2281  0.0971
 4546SOL    HW225098   3.114   1.650   2.821  0.8976 -1.9756  0.1663
 4547SOL     OW25099   2.943   2.720   6.110 -0.1722 -0.1366  0.1139
 4547SOL    HW125100   2.981   2.781   6.173 -4.2388  0.6773  1.7791
 4547SOL    HW225101   2.863   2.692   6.154 -0.2480  0.2668  0.2287
 4548SOL     OW25102   0.450   0.307  17.673 -0.1266  0.6019  0.4951
 4548SOL    HW125103   0.482   0.394  17.696 -0.5589  0.6160  1.0427
 4548SOL    HW225104   0.527   0.290  17.619 -0.9139  0.0780 -0.4607
 4549SOL     OW25105   3.104   4.695   1.360  0.7389 -0.7813  0.3497
 4549SOL    HW125106   3.181   0.026   1.360 -0.0351  0.2552 -0.3689
 4549SOL    HW225107   3.042   4.724   1.294  0.8454  1.2483  1.1355
 4550SOL     OW25108   4.512   3.209   9.361 -0.4139  0.0195 -0.1126
 4550SOL    HW125109   4.524   3.199   9.266 -0.3027  0.5741 -0.1604
 4550SOL    HW225110   4.425   3.171   9.373 -1.2108  0.1849 -5.3238
 4551SOL     OW25111   2.668   2.728  10.706  0.0680 -0.4115  0.1519
 4551SOL    HW125112   2.613   2.777  10.645 -1.0289 -0.2817  1.2406
 4551SOL    HW225113   2.755   2.750  10.674 -0.1687 -0.2727 -0.4006
 4552SOL     OW25114   1.817   1.620   3.155 -0.5895  0.5497 -0.3786
 4552SOL    HW125115   1.826   1.527   3.135 -1.9711  0.3744 -0.1562
 4552SOL    HW225116   1.812   1.612   3.251 -1.7590  0.6262 -0.4401
 4553SOL     OW25117   3.285   3.670   2.349 -0.4624 -0.0985 -0.0236
 4553SOL    HW125118   3.367   3.712   2.323 -0.8999 -0.6583 -2.3280
 4553SOL    HW225119   3.263   3.729   2.421  0.4540  1.0603 -0.6752
 4554SOL     OW25120   4.647   0.486  17.419 -0.4786 -0.4406  0.5089
 4554SOL    HW125121   4.577   0.471  17.483 -0.7650  2.4997  0.8789
 4554SOL    HW225122   4.645   0.403  17.371 -0.9641  0.9575 -1.8210
 4555SOL     OW25123   3.619   1.903   5.500 -0.3258 -0.2216 -0.0549
 4555SOL    HW125124   3.616   1.818   5.457 -1.1360 -0.9687  1.4573
 4555SOL    HW225125   3.531   1.913   5.536  0.0669  1.7944  0.3525
 4556SOL     OW25126   0.922   1.682   4.318  0.0960 -0.0849 -0.3672
 4556SOL    HW125127   0.915   1.662   4.412 -0.2435  0.9398 -0.1742
 4556SOL    HW225128   0.919   1.590   4.291 -0.3233  0.1045 -0.9648
 4557SOL     OW25129   2.420   2.993   1.678  0.0191  0.0309  0.0571
 4557SOL    HW125130   2.475   3.037   1.742 -0.5853 -0.4674  0.9258
 4557SOL    HW225131   2.337   3.041   1.680  0.7695  1.3020  0.7236
 4558SOL     OW25132   2.628   3.960   7.243  0.1837  0.8436 -0.1344
 4558SOL    HW125133   2.559   4.011   7.200 -1.1790 -0.5279  0.4320
 4558SOL    HW225134   2.666   3.922   7.164 -2.9077 -2.2319 -0.1267
 4559SOL     OW25135   0.392   3.859   0.803 -0.0953 -0.1377  0.3715
 4559SOL    HW125136   0.306   3.891   0.778  0.2169 -0.5730 -1.2560
 4559SOL    HW225137   0.430   3.834   0.719 -0.0730  1.7059 -0.1588
 4560SOL     OW25138   0.854   3.302   5.171  0.3990 -0.3806  0.0746
 4560SOL    HW125139   0.885   3.390   5.148  0.2249  0.4304  2.9231
 4560SOL    HW225140   0.793   3.276   5.101 -1.6941 -1.3680  2.2832
 4561SOL     OW25141   1.535   1.016   1.881  0.9381 -0.6394 -0.0038
 4561SOL    HW125142   1.533   1.015   1.786 -0.0270 -1.3647  0.0273
 4561SOL    HW225143   1.591   0.938   1.890  2.3734  0.7882  3.4195
 4562SOL     OW25144   3.872   0.831   7.644  0.4055  0.2458 -0.0990
 4562SOL    HW125145   3.947   0.774   7.626 -0.9839 -1.3556 -0.8462
 4562SOL    HW225146   3.819   0.783   7.580 -0.2927 -0.2726  0.8734
 4563SOL     OW25147   3.182   2.350  11.890 -0.2412  0.5130  0.0924
 4563SOL    HW125148   3.109   2.305  11.932 -1.3963  1.4645 -0.9094
 4563SOL    HW225149   3.212   2.284  11.827 -1.8917 -0.0005 -0.1341
 4564SOL     OW25150   3.635   0.272  13.293  0.0694 -0.6243 -0.2957
 4564SOL    HW125151   3.587   0.322  13.359 -0.4428 -1.3941 -0.0954
 4564SOL    HW225152   3.573   0.266  13.220 -0.9626  0.2344  0.5085
 4565SOL     OW25153   0.934   4.360  17.199 -0.4818 -0.3901 -0.4144
 4565SOL    HW125154   0.913   4.443  17.243  2.4809  0.6781 -1.0225
 4565SOL    HW225155   0.861   4.304  17.227  1.5526 -2.1519  1.4091
 4566SOL     OW25156   2.101   2.525  14.469  0.1293  0.0221  0.2694
 4566SOL    HW125157   2.158   2.571  14.408 -0.3004 -0.3501 -0.4237
 4566SOL    HW225158   2.157   2.470  14.523 -0.9191 -1.2978  0.0403
 4567SOL     OW25159   4.392   1.943   7.894 -0.1857 -0.4106 -0.3601
 4567SOL    HW125160   4.322   2.001   7.926 -1.2750 -2.0331  0.2140
 4567SOL    HW225161   4.391   1.974   7.804 -1.6035 -2.4746 -1.0567
 4568SOL     OW25162   1.590   4.152   6.237  0.1081  0.1311  0.2540
 4568SOL    HW125163   1.539   4.075   6.215  0.4260  0.0119 -0.0633
 4568SOL    HW225164   1.531   4.198   6.297  0.2605  0.3305  0.2513
 4569SOL     OW25165   0.746   2.752   8.975 -0.8677 -0.2488 -0.2134
 4569SOL    HW125166   0.691   2.694   9.028  0.0108 -0.8166  0.0627
 4569SOL    HW225167   0.807   2.783   9.042 -1.4461 -0.7860  0.5688
 4570SOL     OW25168   2.143   0.888  11.368 -0.3661  0.7503 -0.5117
 4570SOL    HW125169   2.050   0.910  11.358 -1.0815 -2.1332 -0.4666
 4570SOL    HW225170   2.192   0.964  11.338 -1.4142  1.6020 -0.0326
 4571SOL     OW25171   0.114   0.027   6.130  0.1218  0.4436 -0.0289
 4571SOL    HW125172   0.037   0.053   6.079 -0.8002 -3.5769 -0.6658
 4571SOL    HW225173   0.121   4.664   6.092 -2.0069  0.7808 -1.2317
 4572SOL     OW25174   1.247   0.559  14.977  0.2061  0.0647  0.7026
 4572SOL    HW125175   1.316   0.523  14.921  1.0289  1.3576  0.8842
 4572SOL    HW225176   1.288   0.550  15.063  1.2169 -0.3223  0.1819
 4573SOL     OW25177   0.404   2.786  10.974  0.6792  0.1407  0.3076
 4573SOL    HW125178   0.421   2.776  10.880 -0.8855 -0.8620  0.1414
 4573SOL    HW225179   0.474   2.851  10.981  1.8513 -0.9633 -1.0506
 4574SOL     OW25180   0.025   1.671   1.518 -0.4677  0.1838  0.5896
 4574SOL    HW125181   0.094   1.617   1.481 -3.0725 -3.1093  0.5745
 4574SOL    HW225182   4.677   1.616   1.491 -1.0714  1.6196 -0.7357
 4575SOL     OW25183   1.748   4.338   7.082 -0.3032 -0.8862  0.1055
 4575SOL    HW125184   1.793   4.412   7.122 -2.1440 -1.6273  3.6206
 4575SOL    HW225185   1.677   4.382   7.036 -1.0050 -2.0394  0.0579
 4576SOL     OW25186   4.458   4.144   3.719  0.0196  0.7641 -0.0884
 4576SOL    HW125187   4.465   4.086   3.643 -0.2223  0.8270 -0.1574
 4576SOL    HW225188   4.464   4.086   3.795 -0.8609 -1.1634 -1.4879
 4577SOL     OW25189   1.414   4.173  17.270  0.0231 -0.0067 -0.2712
 4577SOL    HW125190   1.393   4.094  17.221  1.2575 -0.2244 -0.4416
 4577SOL    HW225191   1.400   4.241  17.204 -2.1363 -0.3404 -0.1380
 4578SOL     OW25192   2.695   1.068   2.764  0.5598  0.2758 -0.2480
 4578SOL    HW125193   2.602   1.087   2.778  0.2415 -0.7724 -0.9441
 4578SOL    HW225194   2.723   1.149   2.721 -1.1787  0.3162 -1.2964
 4579SOL     OW25195   3.229   4.584  12.417  0.4329  0.3231  0.4918
 4579SOL    HW125196   3.271   4.615  12.498 -0.8572 -0.4081  1.4417
 4579SOL    HW225197   3.157   4.539  12.461  0.4235 -0.1742 -0.0355
 4580SOL     OW25198   0.689   1.024   3.487  0.5141 -0.0401  0.2883
 4580SOL    HW125199   0.679   1.058   3.398 -2.4666 -1.7074 -0.0004
 4580SOL    HW225200   0.671   1.099   3.544 -0.9585 -1.6388  1.9253
 4581SOL     OW25201   2.101   3.735   6.958  0.7372  0.2343  0.7367
 4581SOL    HW125202   2.065   3.821   6.978  2.3400  1.4760 -1.6853
 4581SOL    HW225203   2.137   3.744   6.870  0.8463  1.8897  0.9568
 4582SOL     OW25204   2.354   4.542   1.019  0.4640 -0.1427  0.4920
 4582SOL    HW125205   2.381   4.619   1.070  0.7498  0.7967 -1.0805
 4582SOL    HW225206   2.437   4.494   1.018  2.0712  2.6282 -0.2456
 4583SOL     OW25207   0.451   1.415   5.927 -0.2367 -0.3212  0.1013
 4583SOL    HW125208   0.478   1.331   5.892  0.3855 -1.6134  3.6977
 4583SOL    HW225209   0.388   1.380   5.990 -3.9566 -0.1507 -3.5043
 4584SOL     OW25210   1.707   2.742   3.712  0.0047 -0.0961 -0.2276
 4584SOL    HW125211   1.749   2.823   3.684  2.0530 -1.5329 -1.3609
 4584SOL    HW225212   1.662   2.713   3.633 -1.2306 -0.5046  0.6191
 4585SOL     OW25213   1.712   2.549   1.648 -0.4302  0.2763 -0.3171
 4585SOL    HW125214   1.795   2.586   1.617  0.3693 -0.6903  0.6590
 4585SOL    HW225215   1.653   2.615   1.613  0.7514  0.3597 -2.1808
 4586SOL     OW25216   3.510   4.669   4.685  0.2034 -0.8501  0.4893
 4586SOL    HW125217   3.559   4.673   4.602  2.2121 -0.7463  1.6640
 4586SOL    HW225218   3.420   4.666   4.652  0.6389 -0.0683 -0.7971
 4587SOL     OW25219   3.763   1.691   4.779 -0.1386  0.5527  0.7342
 4587SOL    HW125220   3.803   1.615   4.820  3.2320  1.6258 -0.5838
 4587SOL    HW225221   3.840   1.733   4.742 -0.6871  2.4913  1.7820
 4588SOL     OW25222   3.299   0.844   4.843 -0.4558  0.4811 -0.0138
 4588SOL    HW125223   3.347   0.854   4.761  1.8396 -1.9202  1.0485
 4588SOL    HW225224   3.207   0.848   4.819 -0.3760 -1.2935 -0.6088
 4589SOL     OW25225   1.026   0.618   6.838  0.3073  0.0664  0.1694
 4589SOL    HW125226   1.111   0.589   6.803  1.3942  0.8304  2.1833
 4589SOL    HW225227   0.965   0.562   6.791  1.3841  0.7234 -2.0136
 4590SOL     OW25228   2.202   3.018   0.423  0.3729 -0.6931 -0.2554
 4590SOL    HW125229   2.141   2.945   0.415 -0.7610  0.4879 -2.3622
 4590SOL    HW225230   2.280   2.980   0.381  0.5992 -0.9918  0.4298
 4591SOL     OW25231   1.436   4.573   7.323  0.5934  0.2746  0.2185
 4591SOL    HW125232   1.443   4.492   7.272  1.3490  0.0561  0.6763
 4591SOL    HW225233   1.352   4.604   7.289 -0.4104 -1.9074  0.7362
 4592SOL     OW25234   3.976   1.610  15.163 -0.4711  0.3528  0.3823
 4592SOL    HW125235   3.980   1.614  15.259 -0.5147  2.1891  0.2942
 4592SOL    HW225236   3.886   1.576  15.166  0.3586 -1.7561  1.8846
 4593SOL     OW25237   1.248   1.856   5.590 -0.1965 -0.0838  0.6340
 4593SOL    HW125238   1.186   1.907   5.642 -0.4371 -2.5896  2.7923
 4593SOL    HW225239   1.271   1.797   5.662  0.9367  1.1298  1.2642
 4594SOL     OW25240   1.107   1.519   8.353 -0.2837 -0.3000  0.2285
 4594SOL    HW125241   1.114   1.562   8.438  0.2665  0.5050 -0.2252
 4594SOL    HW225242   1.095   1.426   8.371  0.2546 -0.2246  1.0006
 4595SOL     OW25243   2.252   2.429   9.360  0.1532 -0.5429  0.2842
 4595SOL    HW125244   2.328   2.377   9.388 -0.0054  0.2387  2.1469
 4595SOL    HW225245   2.237   2.495   9.428 -0.7931  1.5500 -1.9585
 4596SOL     OW25246   3.659   2.362   1.267 -0.1792  0.0310 -0.1492
 4596SOL    HW125247   3.632   2.445   1.228  1.2294 -0.1989 -1.6424
 4596SOL    HW225248   3.579   2.309   1.265 -0.3250  0.2786 -0.9337
 4597SOL     OW25249   2.794   0.845   4.831  0.1534  0.4281  0.2605
 4597SOL    HW125250   2.747   0.891   4.900 -1.0802  0.0529 -0.3304
 4597SOL    HW225251   2.752   0.759   4.835 -0.0331  0.6107  2.2890
 4598SOL     OW25252   0.625   0.682   1.136 -0.0260 -0.4554  0.6787
 4598SOL    HW125253   0.575   0.630   1.198 -0.5447  0.2204  0.8180
 4598SOL    HW225254   0.623   0.771   1.172  1.0560 -0.6537  1.2378
 4599SOL     OW25255   2.453   0.722   4.254  0.1673 -0.4972  0.8035
 4599SOL    HW125256   2.523   0.697   4.315 -0.7958  0.1996  2.1761
 4599SOL    HW225257   2.470   0.672   4.174 -1.7917  2.2488 -1.2879
 4600SOL     OW25258   2.521   4.562   2.630  0.0133  0.2805 -0.4847
 4600SOL    HW125259   2.589   4.520   2.683  0.5306  1.5281 -0.1384
 4600SOL    HW225260   2.510   4.505   2.554  0.0593 -0.8033  0.3237
 4601SOL     OW25261   3.659   1.850   9.036  0.0818 -0.3200  0.7600
 4601SOL    HW125262   3.568   1.828   9.013  0.2658  0.0077 -0.2669
 4601SOL    HW225263   3.674   1.816   9.124  2.3265 -1.3705 -0.0337
 4602SOL     OW25264   1.115   3.445  10.724 -0.2015  0.1589 -0.1890
 4602SOL    HW125265   1.186   3.447  10.788 -0.1594 -2.8901 -0.1530
 4602SOL    HW225266   1.070   3.525  10.750 -0.6818 -0.2616  0.2765
 4603SOL     OW25267   3.965   3.138   5.389 -0.4487  0.0920  0.2587
 4603SOL    HW125268   3.880   3.095   5.380 -0.7908  1.0082 -0.8197
 4603SOL    HW225269   3.998   3.106   5.473 -2.0028  0.0762  0.8714
 4604SOL     OW25270   0.736   2.160   8.864 -0.0293 -0.1410 -0.9798
 4604SOL    HW125271   0.757   2.110   8.785 -0.5645  0.8515 -1.7549
 4604SOL    HW225272   0.812   2.143   8.919 -0.0110  0.1126 -0.9282
 4605SOL     OW25273   1.337   1.457   2.597  0.3005 -0.2629 -0.1568
 4605SOL    HW125274   1.247   1.478   2.624  0.8826  2.6826 -0.4745
 4605SOL    HW225275   1.375   1.438   2.682  0.1450 -1.1683 -0.2936
 4606SOL     OW25276   1.954   4.452   1.834  0.2620  0.1388 -0.0833
 4606SOL    HW125277   2.038   4.499   1.831 -0.5956  1.5509 -1.5199
 4606SOL    HW225278   1.917   4.456   1.746 -1.4947  2.4789  0.7542
 4607SOL     OW25279   3.596   2.148   6.857  0.1128 -0.2412  0.0521
 4607SOL    HW125280   3.626   2.191   6.777  0.4898  0.1303  0.3938
 4607SOL    HW225281   3.621   2.214   6.922  1.4730  0.8679 -1.6128
 4608SOL     OW25282   2.778   0.245  15.994 -0.4248 -0.3502  0.4071
 4608SOL    HW125283   2.767   0.317  16.055 -1.8239 -0.0337 -0.2279
 4608SOL    HW225284   2.858   0.271  15.947  0.8976 -0.6963  2.4747
 4609SOL     OW25285   1.220   3.169  17.286 -0.3183 -0.2823  0.2403
 4609SOL    HW125286   1.178   3.253  17.270  0.0314 -0.5828 -2.2038
 4609SOL    HW225287   1.289   3.177  17.220  0.2321 -0.6847  0.7726
 4610SOL     OW25288   1.419   2.651   4.413 -0.7481 -0.4740 -0.0983
 4610SOL    HW125289   1.423   2.566   4.456 -1.6985 -2.1038 -3.2079
 4610SOL    HW225290   1.328   2.674   4.432 -0.6526 -0.1652 -0.0177
 4611SOL     OW25291   3.373   0.769   2.871  0.2956 -0.2905 -0.4687
 4611SOL    HW125292   3.403   0.809   2.952 -2.0239 -0.5139  0.5028
 4611SOL    HW225293   3.389   0.680   2.903  3.0585  0.0765 -0.8217
 4612SOL     OW25294   3.210   2.827   6.718 -0.1891 -0.3529  0.2469
 4612SOL    HW125295   3.263   2.798   6.645 -1.6453  0.9420 -1.3280
 4612SOL    HW225296   3.275   2.853   6.784  0.9262 -0.3440 -0.8528
 4613SOL     OW25297   4.518   1.056   9.491 -0.7413  0.2895 -0.0900
 4613SOL    HW125298   4.455   1.060   9.419 -0.1046  0.5835 -0.6333
 4613SOL    HW225299   4.493   0.967   9.517  1.9768 -0.3089  0.4830
 4614SOL     OW25300   0.648   2.256  13.731  0.0679  1.2283 -0.1509
 4614SOL    HW125301   0.688   2.202  13.798 -1.8803 -0.8479 -0.6778
 4614SOL    HW225302   0.621   2.186  13.672  1.1486  0.9098 -0.2485
 4615SOL     OW25303   3.140   1.212   8.372  0.0347  0.7056 -0.1032
 4615SOL    HW125304   3.171   1.263   8.446  1.1952 -0.8041  0.4522
 4615SOL    HW225305   3.164   1.124   8.401  3.5187  1.5887 -0.3500
 4616SOL     OW25306   3.780   4.152   1.657  0.7995 -0.0896 -0.4162
 4616SOL    HW125307   3.844   4.196   1.601  0.7375  0.6638  0.1038
 4616SOL    HW225308   3.798   4.206   1.734 -0.0354 -0.2986 -0.0687
 4617SOL     OW25309   0.543   1.159   9.397  0.4317 -0.2613 -0.5009
 4617SOL    HW125310   0.637   1.169   9.413  0.1898 -1.5871  1.6002
 4617SOL    HW225311   0.508   1.170   9.485  0.6199  1.2370 -0.6091
 4618SOL     OW25312   3.618   3.345   6.211 -0.5417 -0.0215 -0.3042
 4618SOL    HW125313   3.682   3.275   6.222 -0.6729 -0.1047 -0.0566
 4618SOL    HW225314   3.631   3.376   6.121  1.5868  1.5247  0.5673
 4619SOL     OW25315   4.707   1.098   6.085  0.2451 -0.4701  0.1582
 4619SOL    HW125316   0.019   1.035   6.147  0.2575 -0.1892  0.4374
 4619SOL    HW225317   4.698   1.047   6.004 -1.0605  0.7022 -0.4421
 4620SOL     OW25318   3.846   1.498   6.269 -0.4070 -0.0699  0.0079
 4620SOL    HW125319   3.770   1.439   6.266 -1.0154  0.5749  3.3134
 4620SOL    HW225320   3.923   1.442   6.255 -0.7172 -0.8672  1.5078
 4621SOL     OW25321   3.154   4.342  14.911  0.2827  0.0044  0.2046
 4621SOL    HW125322   3.170   4.317  14.821 -0.4571  0.4621 -0.0550
 4621SOL    HW225323   3.193   4.429  14.927 -0.4520  0.5058 -0.7830
 4622SOL     OW25324   2.755   3.850   1.343 -0.3946 -0.0800 -0.2318
 4622SOL    HW125325   2.846   3.824   1.332 -0.6490 -0.7430 -0.8149
 4622SOL    HW225326   2.710   3.807   1.270  0.4287 -0.0427 -0.7548
 4623SOL     OW25327   1.214   1.498  16.651 -0.6234  0.6231 -0.2917
 4623SOL    HW125328   1.131   1.535  16.620 -1.1628  0.2579  0.7226
 4623SOL    HW225329   1.185   1.432  16.713 -0.1174  0.5831 -0.0999
 4624SOL     OW25330   3.671   2.016   8.210 -0.1230  0.3944  0.2323
 4624SOL    HW125331   3.678   1.930   8.169  1.9446  0.3098  0.7701
 4624SOL    HW225332   3.739   2.014   8.277 -0.6386 -1.6116  0.7008
 4625SOL     OW25333   3.850   2.490   7.501  0.0585 -0.0087 -0.3778
 4625SOL    HW125334   3.872   2.582   7.517  1.0979 -0.2175 -0.5860
 4625SOL    HW225335   3.836   2.471   7.593 -0.9316  0.0888 -0.5118
 4626SOL     OW25336   4.579   1.621   8.712 -0.6169 -0.0146  0.0056
 4626SOL    HW125337   4.645   1.604   8.645  0.6643  0.4839  1.1307
 4626SOL    HW225338   4.583   1.536   8.756 -0.6261  0.8279  1.6288
 4627SOL     OW25339   3.647   0.951   4.937 -0.0723 -0.1520  0.3022
 4627SOL    HW125340   3.710   0.879   4.934 -1.4061 -1.2896 -0.1892
 4627SOL    HW225341   3.700   1.020   4.978  2.7930 -2.2317  0.0430
 4628SOL     OW25342   2.880   1.135  14.593  0.3252 -0.4171  0.6044
 4628SOL    HW125343   2.817   1.175  14.533 -0.7133 -2.8652  0.0731
 4628SOL    HW225344   2.961   1.170  14.556 -0.7264  0.9698 -0.4147
 4629SOL     OW25345   4.595   1.760   7.843  0.2578 -0.5061 -0.4943
 4629SOL    HW125346   4.523   1.823   7.844 -0.5962 -1.4718 -1.6113
 4629SOL    HW225347   4.668   1.822   7.842 -0.6883  0.6514  1.5929
 4630SOL     OW25348   0.634   3.819   6.940  0.0154 -0.0925  0.5268
 4630SOL    HW125349   0.603   3.796   6.853 -0.1990  2.2216 -0.0096
 4630SOL    HW225350   0.717   3.772   6.948  0.0546 -0.0660  0.2835
 4631SOL     OW25351   0.391   1.108   3.431  0.8054 -0.1965 -0.1839
 4631SOL    HW125352   0.437   1.107   3.515 -2.5253 -2.3585  1.6238
 4631SOL    HW225353   0.463   1.132   3.372  1.7540 -1.2054  0.5836
 4632SOL     OW25354   1.091   2.099  14.455 -0.1349 -0.2332  0.6133
 4632SOL    HW125355   1.024   2.165  14.437  0.0669 -0.2429 -0.1553
 4632SOL    HW225356   1.061   2.078  14.544 -0.4823  0.3585  0.6400
 4633SOL     OW25357   0.871   2.165   8.371  0.0660  0.5439  0.2263
 4633SOL    HW125358   0.883   2.128   8.459 -1.0250  0.9102  0.5231
 4633SOL    HW225359   0.964   2.179   8.353 -0.0751  0.0750 -0.8254
 4634SOL     OW25360   1.188   2.245   8.387  0.1231  0.6844 -0.5527
 4634SOL    HW125361   1.210   2.330   8.350  1.6274 -0.8156 -3.0453
 4634SOL    HW225362   1.145   2.271   8.469 -0.4097 -1.3071 -0.1931
 4635SOL     OW25363   0.784   2.878   5.064  0.5874 -0.0983  0.2062
 4635SOL    HW125364   0.725   2.803   5.059  1.1873 -0.7501  3.3026
 4635SOL    HW225365   0.840   2.867   4.987 -2.2941  0.7009 -1.9989
 4636SOL     OW25366   0.479   0.276   2.740 -0.0701  0.3063 -0.1285
 4636SOL    HW125367   0.509   0.338   2.674 -2.7920  2.1676  0.3617
 4636SOL    HW225368   0.554   0.218   2.748  0.0996  0.5693  0.1793
 4637SOL     OW25369   0.748   1.924   6.442 -0.2959 -0.2002  0.3369
 4637SOL    HW125370   0.719   1.859   6.505 -0.9076  1.1049  1.4108
 4637SOL    HW225371   0.812   1.875   6.390  0.7749 -0.0774  1.5526
 4638SOL     OW25372   2.460   2.718   9.752  0.3420  0.6269  0.4063
 4638SOL    HW125373   2.431   2.783   9.688 -0.2536  1.6931  1.7679
 4638SOL    HW225374   2.386   2.724   9.812  0.4916 -0.5774  0.7012
 4639SOL     OW25375   0.374   3.396   4.367 -0.3997  0.0524  0.1080
 4639SOL    HW125376   0.424   3.417   4.288  0.4849 -2.0801  0.1173
 4639SOL    HW225377   0.361   3.302   4.357 -0.7443 -0.0567  1.6690
 4640SOL     OW25378   0.918   4.122   6.055  0.3030 -0.0308  0.6598
 4640SOL    HW125379   0.825   4.099   6.060  0.5046 -1.1223 -0.5397
 4640SOL    HW225380   0.922   4.176   5.975  1.2400 -0.2965  0.5247
 4641SOL     OW25381   2.449   2.189   6.657  0.2967 -0.2688  0.3485
 4641SOL    HW125382   2.533   2.210   6.616  1.3697 -0.5547  2.3833
 4641SOL    HW225383   2.391   2.194   6.581  0.0309  1.7168  0.6753
 4642SOL     OW25384   4.232   0.450   6.423  0.2308  0.4016  1.1022
 4642SOL    HW125385   4.221   0.451   6.327  0.6226 -0.0908  1.0529
 4642SOL    HW225386   4.206   0.359   6.437  3.2944 -0.1852  2.8009
 4643SOL     OW25387   0.416   3.620  17.455 -0.3382 -0.0001  0.7393
 4643SOL    HW125388   0.365   3.637  17.375  1.6908  0.1160 -0.5119
 4643SOL    HW225389   0.378   3.537  17.484 -0.5996 -0.4582 -0.9166
 4644SOL     OW25390   0.925   1.320  16.082 -0.0722 -0.2028  0.2357
 4644SOL    HW125391   0.969   1.403  16.064  1.6514 -1.1381  0.1627
 4644SOL    HW225392   0.851   1.333  16.023 -0.4492 -1.6546  0.3981
 4645SOL     OW25393   3.779   2.732  11.426  0.4149 -0.3232  0.1258
 4645SOL    HW125394   3.828   2.689  11.495  0.8420  0.3216  0.2271
 4645SOL    HW225395   3.796   2.824  11.446  0.1424 -0.5212  1.2526
 4646SOL     OW25396   4.253   1.852  16.293 -0.1935 -0.1886  0.2418
 4646SOL    HW125397   4.170   1.894  16.270 -0.8932 -0.6634  1.9386
 4646SOL    HW225398   4.245   1.765  16.254 -0.4509 -0.2453  0.4268
 4647SOL     OW25399   4.439   3.329   5.271 -0.1512 -0.6352 -0.1806
 4647SOL    HW125400   4.426   3.423   5.278  1.0027 -0.5682  1.1186
 4647SOL    HW225401   4.353   3.287   5.280 -0.2863 -0.4507 -0.6657
 4648SOL     OW25402   2.473   2.787   2.915  0.0901  0.5549 -0.3472
 4648SOL    HW125403   2.566   2.766   2.908 -0.3900 -1.9051  0.7690
 4648SOL    HW225404   2.472   2.869   2.865 -0.8123 -0.9288 -2.7584
 4649SOL     OW25405   2.491   3.713  13.930 -0.4328  0.4269  0.2020
 4649SOL    HW125406   2.535   3.758  14.002 -3.1063  1.1879  1.3574
 4649SOL    HW225407   2.400   3.731  13.951 -0.6177 -0.3947  0.0728
 4650SOL     OW25408   1.450   4.606  12.923  0.1727 -0.3943 -0.6226
 4650SOL    HW125409   1.427   4.632  13.012 -0.7274  0.1074 -0.9982
 4650SOL    HW225410   1.373   4.638  12.875 -0.5546 -0.7052  0.3373
 4651SOL     OW25411   2.268   4.613  12.680  0.2486 -0.1963 -0.4969
 4651SOL    HW125412   2.213   4.690  12.662  0.8163  0.4672  0.6290
 4651SOL    HW225413   2.245   4.566  12.600  0.0311  0.4374 -0.8145
 4652SOL     OW25414   3.361   4.507  14.653 -0.3025 -0.7726  0.1996
 4652SOL    HW125415   3.360   4.519  14.558  2.7832 -1.1457  0.1340
 4652SOL    HW225416   3.318   4.585  14.688 -0.9724 -0.3329 -1.5929
 4653SOL     OW25417   4.478   1.355   7.410  0.1970 -0.0637  0.1772
 4653SOL    HW125418   4.520   1.294   7.471 -0.5521  1.1439  1.8654
 4653SOL    HW225419   4.521   1.335   7.326 -1.0696 -0.2282 -0.4399
 4654SOL     OW25420   3.605   1.516   6.117  0.2751  0.0265 -0.1508
 4654SOL    HW125421   3.691   1.555   6.098  1.1480 -1.3615  0.9947
 4654SOL    HW225422   3.572   1.573   6.187 -1.2983 -0.9946 -0.0732
 4655SOL     OW25423   0.450   1.391   8.354 -0.0375  0.1304  0.7405
 4655SOL    HW125424   0.366   1.420   8.319  0.4426 -0.2456 -0.7512
 4655SOL    HW225425   0.491   1.351   8.277 -0.9231 -0.9346  0.8151
 4656SOL     OW25426   1.123   3.890   3.865  0.3242 -0.4467  0.2473
 4656SOL    HW125427   1.114   3.805   3.909 -0.4620 -0.9467 -0.8819
 4656SOL    HW225428   1.151   3.870   3.775  0.2991  0.3452  0.0642
 4657SOL     OW25429   1.328   3.454   8.273  0.1640 -0.1594  0.5283
 4657SOL    HW125430   1.276   3.378   8.297  0.1181 -0.1389  0.4952
 4657SOL    HW225431   1.261   3.520   8.254 -0.0478 -0.8607 -1.1805
 4658SOL     OW25432   3.331   2.527   5.479  0.2941  0.3951 -0.6478
 4658SOL    HW125433   3.395   2.562   5.418  1.1937  2.3677  1.4316
 4658SOL    HW225434   3.333   2.602   5.538  0.3489 -0.1806  0.0815
 4659SOL     OW25435   3.003   0.912  15.512  0.2790  0.0288 -0.0341
 4659SOL    HW125436   2.926   0.966  15.494  0.8769  1.6934  2.3790
 4659SOL    HW225437   2.997   0.905  15.608  2.0503 -3.5210 -0.1944
 4660SOL     OW25438   2.308   3.721   8.434  0.3773 -0.1110 -0.1527
 4660SOL    HW125439   2.386   3.736   8.487 -0.0539  0.2761  0.3684
 4660SOL    HW225440   2.300   3.807   8.394 -0.4259  0.5515  1.4395
 4661SOL     OW25441   0.768   2.611   0.405  0.5279 -0.2721 -0.0612
 4661SOL    HW125442   0.705   2.574   0.344 -2.3587  0.1913  2.6530
 4661SOL    HW225443   0.708   2.675   0.443 -0.4281 -1.4314  0.3565
 4662SOL     OW25444   1.638   1.830  13.896 -0.0638  0.1070  0.3719
 4662SOL    HW125445   1.659   1.737  13.888 -1.6853 -0.1543 -0.7230
 4662SOL    HW225446   1.636   1.867  13.808 -3.3165 -0.3252  0.2733
 4663SOL     OW25447   3.185   4.366   0.486 -0.0210 -0.2558 -0.4934
 4663SOL    HW125448   3.193   4.361   0.391  1.1278 -1.4248 -0.3361
 4663SOL    HW225449   3.196   4.461   0.491  0.3891 -0.4034  1.4068
 4664SOL     OW25450   2.123   4.717   3.517  0.1683 -0.1842 -0.2883
 4664SOL    HW125451   2.176   0.016   3.592  0.1998 -4.9182  1.2141
 4664SOL    HW225452   2.141   0.065   3.458 -2.6515  1.3127  0.6748
 4665SOL     OW25453   2.309   0.876   0.876  0.3395  0.2300 -0.8866
 4665SOL    HW125454   2.228   0.890   0.925  0.4789  0.6954 -0.7911
 4665SOL    HW225455   2.373   0.842   0.938 -0.9717 -0.1058  0.2914
 4666SOL     OW25456   2.396   4.082   8.745 -0.1494  0.6609  0.4567
 4666SOL    HW125457   2.309   4.065   8.783 -1.6386  1.0681 -2.7126
 4666SOL    HW225458   2.432   4.140   8.812 -1.5705  0.2659  1.5788
 4667SOL     OW25459   2.762   2.933   8.377 -0.2175  1.1253  0.0089
 4667SOL    HW125460   2.816   3.006   8.407  1.4969 -0.0237 -0.2497
 4667SOL    HW225461   2.737   2.887   8.457  0.3519 -1.6565 -1.4059
 4668SOL     OW25462   1.215   0.219   6.913 -0.1516  0.1126  0.2824
 4668SOL    HW125463   1.272   0.279   6.864  0.7644 -1.5393 -0.6440
 4668SOL    HW225464   1.195   0.279   6.986 -0.0513  0.2919  0.1618
 4669SOL     OW25465   0.713   4.232   9.024  0.3876 -0.5312 -0.3186
 4669SOL    HW125466   0.630   4.273   9.046  0.2784 -0.8440 -0.1610
 4669SOL    HW225467   0.770   4.308   9.038 -0.7700  0.5843 -1.5995
 4670SOL     OW25468   4.415   0.766   9.107  0.3146  0.1460 -0.7372
 4670SOL    HW125469   4.476   0.693   9.119  0.5480  0.7124  1.4981
 4670SOL    HW225470   4.466   0.830   9.058 -1.6124  1.7101 -0.6640
 4671SOL     OW25471   2.858   2.139   4.684 -0.1079 -0.2349 -0.1499
 4671SOL    HW125472   2.899   2.136   4.598 -2.1909 -0.4115 -1.1291
 4671SOL    HW225473   2.936   2.129   4.738 -0.9136  0.4254  1.1310
 4672SOL     OW25474   1.320   1.979   3.436  0.0603  0.5619 -0.9137
 4672SOL    HW125475   1.235   2.023   3.447 -0.7476 -1.7736  2.0131
 4672SOL    HW225476   1.374   2.044   3.391  1.9496 -1.1149 -1.0694
 4673SOL     OW25477   2.126   0.913   3.146  0.1001 -0.2168  0.4263
 4673SOL    HW125478   2.062   0.934   3.078 -0.2133 -0.2274  0.7116
 4673SOL    HW225479   2.086   0.950   3.225 -0.2731 -1.5097  0.8509
 4674SOL     OW25480   1.786   3.924   3.953 -0.0371 -0.5921  0.2131
 4674SOL    HW125481   1.771   3.963   3.867 -1.0510 -0.3103  0.5215
 4674SOL    HW225482   1.732   3.845   3.952  0.2433 -0.7738 -0.7465
 4675SOL     OW25483   4.209   2.126   5.080  0.0553  0.4545  0.3554
 4675SOL    HW125484   4.175   2.073   5.153  1.3015 -1.6124 -0.5551
 4675SOL    HW225485   4.252   2.199   5.124 -0.9247  1.1107  0.2231
 4676SOL     OW25486   2.253   1.335   6.759  0.3651  0.2601  0.4606
 4676SOL    HW125487   2.202   1.378   6.827  1.0363  2.1283 -0.2187
 4676SOL    HW225488   2.184   1.292   6.708 -0.7033  0.6667  1.5623
 4677SOL     OW25489   1.385   1.193  10.871  0.9289 -0.0791 -0.0155
 4677SOL    HW125490   1.460   1.179  10.929 -1.6833  0.3336  3.5006
 4677SOL    HW225491   1.319   1.193  10.941 -0.2026 -0.2778 -1.0912
 4678SOL     OW25492   0.518   3.572   6.560 -0.0051  0.0003 -0.3421
 4678SOL    HW125493   0.478   3.545   6.477  1.1966 -2.9298  0.0148
 4678SOL    HW225494   0.603   3.529   6.549 -0.8406 -1.5489 -0.7801
 4679SOL     OW25495   1.693   4.091  17.190 -0.0725 -0.2831 -0.2522
 4679SOL    HW125496   1.649   4.072  17.107  2.9835 -0.7751 -1.7516
 4679SOL    HW225497   1.615   4.100  17.245  1.1182  0.2568  1.3242
 4680SOL     OW25498   0.373   2.067   8.951  0.1302  0.5491  0.3722
 4680SOL    HW125499   0.358   2.049   9.044 -0.5149  0.1114  0.1800
 4680SOL    HW225500   0.423   1.988   8.932 -0.5134 -0.1969  1.7076
 4681SOL     OW25501   3.441   4.689   2.513  0.6828  0.2804  0.3527
 4681SOL    HW125502   3.535   4.689   2.499  0.5995  2.4076 -0.1544
 4681SOL    HW225503   3.431   0.029   2.583 -2.0585  2.4558 -2.0925
 4682SOL     OW25504   0.613   0.318  16.564  0.6788  0.6088 -0.1005
 4682SOL    HW125505   0.672   0.298  16.637 -0.0599  1.1463  0.6322
 4682SOL    HW225506   0.672   0.309  16.489  1.4743  2.5387  0.2862
 4683SOL     OW25507   1.347   2.236  16.661 -0.2674 -0.1652 -0.3560
 4683SOL    HW125508   1.254   2.260  16.663 -0.6934 -1.8618  0.8655
 4683SOL    HW225509   1.353   2.179  16.584 -1.2181  1.6398 -1.7473
 4684SOL     OW25510   2.337   4.363   4.948 -0.0504  0.4016  0.5585
 4684SOL    HW125511   2.258   4.341   4.998  0.2651  0.8754  1.2666
 4684SOL    HW225512   2.308   4.362   4.857 -3.6161 -2.6591  1.7414
 4685SOL     OW25513   4.474   3.492   4.149  0.0813  0.0469  0.0304
 4685SOL    HW125514   4.437   3.409   4.118 -1.7214  1.1757 -0.8464
 4685SOL    HW225515   4.418   3.551   4.099 -1.1261 -0.1883  1.0928
 4686SOL     OW25516   1.676   4.660   9.814 -0.0402 -0.2694  0.3314
 4686SOL    HW125517   1.735   4.612   9.872  0.7513 -1.2503 -1.2621
 4686SOL    HW225518   1.618   4.709   9.872  2.0929 -0.3243  2.5440
 4687SOL     OW25519   0.734   1.472  10.092  0.1168 -0.0559  0.7565
 4687SOL    HW125520   0.787   1.454  10.169 -1.0323  1.0119  1.7955
 4687SOL    HW225521   0.662   1.523  10.129  0.8147  1.3487  0.1461
 4688SOL     OW25522   3.118   4.146   5.343 -0.1327 -0.2352 -0.1311
 4688SOL    HW125523   3.127   4.190   5.258  0.6173  0.6025  0.3916
 4688SOL    HW225524   3.028   4.165   5.371  0.9029  1.2087  2.1690
 4689SOL     OW25525   3.775   1.554   3.181  0.0904  0.3983  0.4625
 4689SOL    HW125526   3.701   1.511   3.225 -0.4188 -0.1525 -0.9376
 4689SOL    HW225527   3.772   1.636   3.230  1.7127  0.7202  0.0115
 4690SOL     OW25528   2.452   1.750   4.496 -0.2721  0.1556  0.1249
 4690SOL    HW125529   2.542   1.768   4.469 -0.4090  1.9090  0.8688
 4690SOL    HW225530   2.395   1.774   4.423  1.1972 -0.4539 -1.2279
 4691SOL     OW25531   2.719   1.960   5.156 -0.4669  0.2227 -0.5548
 4691SOL    HW125532   2.720   2.021   5.082  1.4239 -1.3700 -1.8538
 4691SOL    HW225533   2.624   1.956   5.165 -0.4307  0.4962 -0.0890
 4692SOL     OW25534   4.448   2.752   2.879  0.6900  0.3259 -0.0506
 4692SOL    HW125535   4.470   2.816   2.947  0.5510  0.6743 -0.3269
 4692SOL    HW225536   4.476   2.799   2.800  0.2537  1.6192  0.5593
 4693SOL     OW25537   1.398   3.731   6.777  0.3321  0.0361  0.3041
 4693SOL    HW125538   1.313   3.769   6.758  0.7571  1.4255  1.1718
 4693SOL    HW225539   1.440   3.723   6.691  0.1329 -1.0561  0.3068
 4694SOL     OW25540   1.822   1.474   7.838 -0.3441 -0.0023 -0.2534
 4694SOL    HW125541   1.814   1.383   7.867  0.6217 -0.2291 -0.7136
 4694SOL    HW225542   1.917   1.484   7.841 -0.3074 -0.1820 -0.8305
 4695SOL     OW25543   2.211   3.091   4.847 -0.0178 -0.6905 -0.1735
 4695SOL    HW125544   2.128   3.086   4.893  1.0466 -1.9657  1.6039
 4695SOL    HW225545   2.254   3.016   4.889 -2.8663 -1.9189  0.5693
 4696SOL     OW25546   3.581   3.651  14.447  0.1187  0.3162 -0.5604
 4696SOL    HW125547   3.508   3.599  14.415 -0.3033  0.1248  0.7088
 4696SOL    HW225548   3.633   3.579  14.484  0.8584  0.4209 -1.3933
 4697SOL     OW25549   2.366   2.895   5.542 -0.2764 -0.2940 -0.0169
 4697SOL    HW125550   2.427   2.893   5.468 -0.3381 -0.4733 -0.0627
 4697SOL    HW225551   2.286   2.894   5.490 -0.9826  0.1172  1.0429
 4698SOL     OW25552   3.269   3.494   3.260  0.2597  0.2728  0.1046
 4698SOL    HW125553   3.264   3.419   3.200 -1.6134 -0.2855  0.9816
 4698SOL    HW225554   3.254   3.566   3.198 -0.8759  0.8150  1.0218
 4699SOL     OW25555   3.145   4.044   3.545 -0.0744 -0.4953  0.3099
 4699SOL    HW125556   3.199   4.054   3.623 -0.3709 -0.5084  0.5179
 4699SOL    HW225557   3.155   3.950   3.530 -1.7343 -0.4798 -0.9581
 4700SOL     OW25558   0.246   0.372   6.301 -0.3376 -0.0881  0.5628
 4700SOL    HW125559   0.163   0.339   6.334 -0.0792 -0.8982  0.3914
 4700SOL    HW225560   0.281   0.293   6.259 -1.4882 -1.1810  1.6605
 4701SOL     OW25561   4.135   1.013   6.531  0.3239  0.9937  0.1522
 4701SOL    HW125562   4.194   0.972   6.594 -2.5610 -0.5341  1.8568
 4701SOL    HW225563   4.130   1.103   6.561 -0.7962  1.2637 -0.8288
 4702SOL     OW25564   1.555   1.576   9.145  0.4238  0.3338 -0.3675
 4702SOL    HW125565   1.496   1.515   9.103 -1.0060  1.0221  0.6337
 4702SOL    HW225566   1.626   1.588   9.081 -0.6183 -1.6004 -1.8655
 4703SOL     OW25567   3.794   0.473  17.154  0.3162 -0.0402 -0.3424
 4703SOL    HW125568   3.752   0.388  17.145 -3.0193  1.5119  0.5621
 4703SOL    HW225569   3.884   0.446  17.137  0.6783  0.4312  0.8109
 4704SOL     OW25570   4.618   2.546   2.070 -0.2023  0.3122  0.0992
 4704SOL    HW125571   4.697   2.593   2.042  0.3909 -0.7817 -0.0929
 4704SOL    HW225572   4.660   2.482   2.128 -0.6821 -0.4483 -0.3897
 4705SOL     OW25573   2.143   1.006  16.790 -0.3515 -0.0671  0.2754
 4705SOL    HW125574   2.154   0.989  16.884  2.6529 -0.6366 -0.1880
 4705SOL    HW225575   2.152   0.924  16.742  0.0688  0.8983 -1.2845
 4706SOL     OW25576   0.008   3.904  10.187 -0.2002  0.0713 -0.4065
 4706SOL    HW125577   0.010   3.974  10.121  0.3224 -0.3959 -0.8872
 4706SOL    HW225578   0.010   3.953  10.269 -2.4594  2.7826 -1.9745
 4707SOL     OW25579   2.299   2.493   7.096  0.0146 -0.1758  0.6756
 4707SOL    HW125580   2.365   2.434   7.134  1.8315 -0.1438 -2.4065
 4707SOL    HW225581   2.267   2.438   7.025 -0.6507 -0.8524  1.4999
 4708SOL     OW25582   3.324   3.686  10.568 -0.0272 -0.4914  0.4207
 4708SOL    HW125583   3.295   3.769  10.605  0.7205 -0.2078  0.3584
 4708SOL    HW225584   3.277   3.616  10.614  1.9954 -2.7839 -1.0183
 4709SOL     OW25585   3.220   4.343   2.825  0.3683  0.0940 -0.7680
 4709SOL    HW125586   3.183   4.422   2.864  0.8184  0.6534 -1.5023
 4709SOL    HW225587   3.285   4.328   2.894 -0.3472 -0.0036 -0.1007
 4710SOL     OW25588   0.927   1.072   4.848  0.1090  0.8624  0.4832
 4710SOL    HW125589   0.881   1.127   4.784 -0.9268  1.7442  1.9974
 4710SOL    HW225590   0.846   1.027   4.871  1.3031 -2.2950 -1.5000
 4711SOL     OW25591   2.081   3.209   6.959  0.5493 -0.4017 -0.4420
 4711SOL    HW125592   2.114   3.298   6.948 -0.4281 -0.0186 -0.2762
 4711SOL    HW225593   2.052   3.217   7.050 -0.8670  0.7835 -1.0051
 4712SOL     OW25594   3.110   2.809   7.991  0.3839  0.4624 -0.1294
 4712SOL    HW125595   3.140   2.725   8.026 -0.9057 -0.6000 -1.5878
 4712SOL    HW225596   3.099   2.776   7.902  0.3822  1.6482 -0.5633
 4713SOL     OW25597   0.797   3.409   1.722 -0.7273  0.0068 -0.3130
 4713SOL    HW125598   0.800   3.471   1.795  1.1488  0.7021 -0.9846
 4713SOL    HW225599   0.724   3.351   1.742 -1.6234  1.0908 -0.4793
 4714SOL     OW25600   3.740   0.890  16.541 -0.2144  0.4192 -0.2024
 4714SOL    HW125601   3.814   0.870  16.599  0.3927  0.1741 -1.0539
 4714SOL    HW225602   3.664   0.877  16.598  0.5135 -0.0930  0.6445
 4715SOL     OW25603   0.955   0.318   4.178 -0.1631  0.0667 -0.7018
 4715SOL    HW125604   1.032   0.276   4.218 -0.0023 -0.8330 -1.9409
 4715SOL    HW225605   0.993   0.382   4.118 -3.9709  1.9659 -1.0627
 4716SOL     OW25606   3.120   3.188   8.704  0.3004  0.3176  0.0595
 4716SOL    HW125607   3.208   3.211   8.674  0.4502 -0.2425  0.0646
 4716SOL    HW225608   3.150   3.157   8.790 -0.4616  2.7819  1.2333
 4717SOL     OW25609   2.938   0.195  15.688 -0.1703 -0.3358 -0.3932
 4717SOL    HW125610   2.861   0.139  15.696 -0.4962  0.1806  0.0361
 4717SOL    HW225611   2.935   0.195  15.592  0.5817 -2.5221 -0.4286
 4718SOL     OW25612   3.791   2.516   3.070 -0.1114  0.1483 -0.0308
 4718SOL    HW125613   3.852   2.590   3.071 -0.5566  0.5126 -0.0424
 4718SOL    HW225614   3.831   2.460   3.137 -1.2972 -1.2013 -0.4414
 4719SOL     OW25615   0.810   1.660   4.592  0.3542  0.4259  1.3959
 4719SOL    HW125616   0.871   1.587   4.605 -1.3742 -1.6500 -2.3256
 4719SOL    HW225617   0.732   1.622   4.553  0.7508  0.0398  0.9749
 4720SOL     OW25618   1.139   2.046   6.433 -0.1349 -0.0404 -0.1782
 4720SOL    HW125619   1.178   1.974   6.383 -1.5419  0.1019 -1.4722
 4720SOL    HW225620   1.178   2.129   6.406 -2.8345  1.4895  0.6353
 4721SOL     OW25621   3.232   0.971   6.437  0.1349 -0.2274 -0.1897
 4721SOL    HW125622   3.213   1.030   6.364 -2.2040 -0.9579 -0.1461
 4721SOL    HW225623   3.169   0.905   6.408  0.8684 -0.5157 -1.1321
 4722SOL     OW25624   0.625   2.553   4.313  0.7912 -0.1621 -0.1409
 4722SOL    HW125625   0.556   2.511   4.262  0.8996 -0.8963  0.3101
 4722SOL    HW225626   0.658   2.610   4.244  0.0635 -0.6104 -0.8493
 4723SOL     OW25627   3.765   3.623   5.850 -0.2107 -0.2702 -0.0373
 4723SOL    HW125628   3.833   3.628   5.783  0.9235  1.2999  1.2302
 4723SOL    HW225629   3.781   3.698   5.907  2.2306 -0.6212 -0.2567
 4724SOL     OW25630   2.225   1.841  16.082  0.0931  0.3047  0.0848
 4724SOL    HW125631   2.219   1.882  16.168 -0.4118  3.1568 -1.3163
 4724SOL    HW225632   2.307   1.875  16.047 -0.2793  2.0965  0.9753
 4725SOL     OW25633   4.303   0.852   3.617 -0.1157 -0.2508 -0.2711
 4725SOL    HW125634   4.378   0.795   3.636 -0.4106 -0.3194  0.7107
 4725SOL    HW225635   4.232   0.812   3.668 -1.7504  1.2371 -1.3666
 4726SOL     OW25636   3.915   4.149   5.148 -0.2128 -0.0944 -0.3725
 4726SOL    HW125637   3.965   4.207   5.091 -0.4413  0.4647 -0.0039
 4726SOL    HW225638   3.860   4.222   5.178  0.8574  1.0359 -1.1495
 4727SOL     OW25639   1.479   2.452   1.953  0.3655 -0.1606  0.0380
 4727SOL    HW125640   1.425   2.464   2.030  0.3866  0.4861 -0.0529
 4727SOL    HW225641   1.540   2.525   1.959  0.2090 -0.1808  1.9426
 4728SOL     OW25642   4.564   2.902   2.646 -0.0591 -0.3187  0.5227
 4728SOL    HW125643   4.650   2.895   2.688  0.1046 -0.0273  0.2378
 4728SOL    HW225644   4.594   2.901   2.555 -2.1328  0.8224 -0.1794
 4729SOL     OW25645   0.072   3.813   6.767 -0.1890 -0.4728 -0.5833
 4729SOL    HW125646   0.087   3.735   6.714  0.3217 -0.5313 -0.3507
 4729SOL    HW225647   0.056   3.881   6.703  0.2131  0.2040  0.0387
 4730SOL     OW25648   0.239   1.101   9.128  0.0674 -0.2052  0.1158
 4730SOL    HW125649   0.157   1.136   9.161  0.6639  1.3245 -0.0113
 4730SOL    HW225650   0.289   1.175   9.164  0.4644 -0.7170  0.6124
 4731SOL     OW25651   1.166   0.848   5.118  0.0164  0.0339  0.1684
 4731SOL    HW125652   1.089   0.826   5.170 -1.2642  1.5655 -1.0773
 4731SOL    HW225653   1.224   0.779   5.151  0.1510 -0.0205 -0.1782
 4732SOL     OW25654   4.286   0.756  11.185  0.0127 -0.7395 -0.5301
 4732SOL    HW125655   4.278   0.735  11.278  2.1980  0.2758 -0.1269
 4732SOL    HW225656   4.245   0.843  11.184  2.0953  0.2353 -0.3345
 4733SOL     OW25657   3.052   3.038  15.707 -0.5731  0.1940  0.4410
 4733SOL    HW125658   3.096   2.974  15.764  4.2049  2.9354 -0.2866
 4733SOL    HW225659   2.983   2.981  15.672 -2.3228  1.1170  2.3555
 4734SOL     OW25660   2.064   0.019   7.002 -0.4219 -0.3253  0.0539
 4734SOL    HW125661   2.022   4.669   7.042 -0.9581  1.4875  2.8592
 4734SOL    HW225662   1.997   0.055   6.943  2.7316  0.4656 -3.0658
 4735SOL     OW25663   3.340   3.705  10.274 -0.1976 -0.0455  0.1104
 4735SOL    HW125664   3.408   3.638  10.269  0.7918  0.9132  0.8999
 4735SOL    HW225665   3.321   3.699  10.368  0.3103 -2.5100  0.0730
 4736SOL     OW25666   3.097   0.314  15.891 -0.4208  0.3819 -0.2679
 4736SOL    HW125667   3.048   0.257  15.831  0.3258 -0.1932 -0.3262
 4736SOL    HW225668   3.100   0.392  15.835 -0.9972 -0.8495 -2.0223
 4737SOL     OW25669   1.338   3.394   4.680  0.0858 -0.1457 -0.0189
 4737SOL    HW125670   1.319   3.323   4.741 -0.5180  0.3362  0.3478
 4737SOL    HW225671   1.269   3.459   4.689 -0.6911 -0.7719 -1.4395
 4738SOL     OW25672   0.059   2.965   8.039  0.4425  0.3708  0.0400
 4738SOL    HW125673   4.704   2.955   8.089  0.9229 -0.6938  0.5855
 4738SOL    HW225674   0.107   3.033   8.088  1.1647 -0.1305  0.0262
 4739SOL     OW25675   2.964   3.282  11.764 -0.3474 -0.0714  0.2175
 4739SOL    HW125676   2.960   3.372  11.798 -1.4144  0.2619 -0.8194
 4739SOL    HW225677   3.058   3.271  11.782 -0.6337 -0.4066  1.4871
 4740SOL     OW25678   3.435   2.430   6.848  0.2466  0.3379  0.6501
 4740SOL    HW125679   3.447   2.429   6.943  1.6187 -1.0075  0.4706
 4740SOL    HW225680   3.343   2.452   6.837  0.1437 -0.1886  0.4423
 4741SOL     OW25681   3.495   0.071   6.763 -0.0639 -0.2829 -0.2554
 4741SOL    HW125682   3.487   0.164   6.739 -0.8958 -0.1329  0.5829
 4741SOL    HW225683   3.570   0.080   6.822 -1.6766 -1.3220  1.9533
 4742SOL     OW25684   1.190   4.655   7.228  0.0065 -0.0297 -0.3246
 4742SOL    HW125685   1.187   4.659   7.133  1.9006  0.2708 -0.3784
 4742SOL    HW225686   1.104   4.614   7.243  0.3159  0.4253  2.7779
 4743SOL     OW25687   0.357   0.981   1.134 -0.3846 -0.1202 -0.3207
 4743SOL    HW125688   0.312   0.910   1.088  2.0578 -0.6531 -1.8220
 4743SOL    HW225689   0.367   1.046   1.064 -0.2540  1.4011  1.0990
 4744SOL     OW25690   2.317   0.243   7.524 -0.5012  0.0559  0.0061
 4744SOL    HW125691   2.235   0.258   7.569 -0.8595 -0.4454 -0.4709
 4744SOL    HW225692   2.289   0.183   7.455 -0.6018 -0.2400  0.3050
 4745SOL     OW25693   1.117   2.571  12.385 -0.1760 -0.1827  0.8304
 4745SOL    HW125694   1.168   2.614  12.316  1.4744 -3.2413  0.1515
 4745SOL    HW225695   1.039   2.626  12.379  0.4925  0.7747  0.9380
 4746SOL     OW25696   1.197   0.596   1.602 -0.0377  0.5425  0.7961
 4746SOL    HW125697   1.196   0.655   1.678  0.0562  0.2521  1.0232
 4746SOL    HW225698   1.137   0.641   1.542 -0.8685  0.6080  1.6748
 4747SOL     OW25699   4.715   3.357   7.601 -0.2450 -0.1745  0.3408
 4747SOL    HW125700   4.701   3.451   7.593  0.0590 -0.1818 -0.2434
 4747SOL    HW225701   0.075   3.348   7.643 -0.9079 -2.0266  1.2990
 4748SOL     OW25702   0.478   2.590   3.520 -0.0394  0.8277  0.1672
 4748SOL    HW125703   0.557   2.594   3.574 -0.5601 -1.3478  1.0735
 4748SOL    HW225704   0.484   2.507   3.472 -1.2768  0.1217  1.2707
 4749SOL     OW25705   1.153   2.517   5.053  0.4793 -1.1390 -0.4356
 4749SOL    HW125706   1.113   2.451   5.109 -3.1086  1.1568 -0.2723
 4749SOL    HW225707   1.162   2.587   5.118  2.2394 -2.0810  0.3473
 4750SOL     OW25708   3.962   3.421   1.461 -0.0735  0.7444  0.3140
 4750SOL    HW125709   3.978   3.328   1.475  0.2619  0.4365 -2.0217
 4750SOL    HW225710   3.941   3.455   1.548 -1.9736  0.7403 -0.1278
 4751SOL     OW25711   3.860   2.335   2.683 -0.1870  0.2137  0.9366
 4751SOL    HW125712   3.945   2.359   2.722 -0.5976  2.1640  0.6239
 4751SOL    HW225713   3.820   2.418   2.656  1.6977  0.7109 -0.3124
 4752SOL     OW25714   4.040   0.441  17.500 -0.5207 -0.5546 -0.0682
 4752SOL    HW125715   3.945   0.453  17.499 -0.4224  0.0332 -1.6542
 4752SOL    HW225716   4.065   0.486  17.581  0.6920  1.9008 -1.8148
 4753SOL     OW25717   0.450   1.610  10.998 -0.6293  0.9015  0.1697
 4753SOL    HW125718   0.441   1.623  11.093 -0.8419  3.0859 -0.1520
 4753SOL    HW225719   0.436   1.694  10.956  1.9509  0.3837 -1.7322
 4754SOL     OW25720   2.467   0.511  12.989 -0.1455 -0.6980  0.6913
 4754SOL    HW125721   2.493   0.539  12.902 -0.4614  1.5370  1.3303
 4754SOL    HW225722   2.437   0.421  12.971  2.0205 -1.2166 -0.2662
 4755SOL     OW25723   3.962   2.935  16.992  0.1536 -0.3711  0.5083
 4755SOL    HW125724   3.907   2.857  16.997  1.4587 -1.2468  1.1318
 4755SOL    HW225725   3.947   2.959  17.084  3.2474 -1.4526  1.2879
 4756SOL     OW25726   0.350   4.629  10.340 -0.6667 -0.4519 -0.1285
 4756SOL    HW125727   0.437   4.615  10.302 -0.4065 -0.5105  0.4884
 4756SOL    HW225728   0.349   4.568  10.414  0.3827 -0.5499 -0.1893
 4757SOL     OW25729   3.034   0.943   2.833  0.1750 -0.2455  0.5910
 4757SOL    HW125730   3.011   1.035   2.843  0.9308  0.0945 -0.8770
 4757SOL    HW225731   2.991   0.907   2.911 -0.0406 -0.3092  0.4435
 4758SOL     OW25732   0.755   1.144   7.589 -0.0340  0.4928 -0.1851
 4758SOL    HW125733   0.703   1.063   7.585 -0.2998  0.5933  1.2602
 4758SOL    HW225734   0.698   1.208   7.631 -0.9273 -1.5613  1.7291
 4759SOL     OW25735   2.966   1.560   8.830  0.7794  0.0877  0.0859
 4759SOL    HW125736   3.059   1.580   8.824  0.3571  1.0087 -3.2329
 4759SOL    HW225737   2.961   1.491   8.897  1.2627  0.7953  0.8468
 4760SOL     OW25738   2.370   4.084  12.204 -0.0525 -0.0535 -0.7307
 4760SOL    HW125739   2.406   4.171  12.225 -0.9716  0.3504 -0.8444
 4760SOL    HW225740   2.417   4.023  12.261  1.8207  1.6713 -0.4089
 4761SOL     OW25741   2.940   2.482  13.579 -0.8093  0.6291  0.5589
 4761SOL    HW125742   2.999   2.555  13.600  1.1371 -0.1980 -2.0340
 4761SOL    HW225743   2.980   2.424  13.644  0.0397 -2.1237 -2.4226
 4762SOL     OW25744   0.498   0.699   2.814  0.1568 -0.0017  0.0261
 4762SOL    HW125745   0.450   0.631   2.861  3.2264 -0.2738  2.7640
 4762SOL    HW225746   0.541   0.737   2.891 -0.4086 -2.2283  1.4464
 4763SOL     OW25747   1.947   0.291  10.411  0.6254  0.0957 -0.2474
 4763SOL    HW125748   1.919   0.244  10.489  0.9160 -1.9383 -1.3692
 4763SOL    HW225749   1.868   0.281  10.357  0.1435  0.4800  0.3900
 4764SOL     OW25750   2.743   2.452   6.246  0.1456  0.4991  0.4028
 4764SOL    HW125751   2.659   2.407   6.247 -0.7166  2.0371 -1.3398
 4764SOL    HW225752   2.775   2.441   6.157 -0.8880 -2.5897  0.4391
 4765SOL     OW25753   0.617   3.767   8.476 -0.4174 -0.3524  0.4739
 4765SOL    HW125754   0.568   3.692   8.509 -0.7082  0.7843  2.6775
 4765SOL    HW225755   0.703   3.739   8.445 -0.8571 -0.6014 -0.4902
 4766SOL     OW25756   2.347   2.806   8.614  0.0902  0.5680  0.1172
 4766SOL    HW125757   2.363   2.847   8.699  2.5048  0.1845 -0.1311
 4766SOL    HW225758   2.340   2.711   8.628  0.6421  0.2577 -1.6055
 4767SOL     OW25759   0.618   2.457   6.073  0.1962 -0.2865  0.0906
 4767SOL    HW125760   0.625   2.495   6.161 -1.7808  0.6346 -0.1502
 4767SOL    HW225761   0.707   2.431   6.050  0.6489  1.0757  0.2810
 4768SOL     OW25762   1.587   0.814   8.508 -0.1737 -0.0936  0.0381
 4768SOL    HW125763   1.605   0.774   8.423 -0.3511  0.9953 -0.5174
 4768SOL    HW225764   1.650   0.887   8.508  1.2135 -1.2755  1.7528
 4769SOL     OW25765   2.129   2.887   2.192  0.0188  0.0719 -0.0392
 4769SOL    HW125766   2.106   2.811   2.246  0.1812 -0.2808 -0.4589
 4769SOL    HW225767   2.114   2.962   2.249 -0.2749  0.6385 -0.8583
 4770SOL     OW25768   0.250   1.641   7.997 -0.5018 -0.5388  0.4488
 4770SOL    HW125769   0.266   1.583   7.923  1.6784 -2.5735  2.4994
 4770SOL    HW225770   0.212   1.717   7.953  0.6889 -0.0899  0.1852
 4771SOL     OW25771   1.500   1.882   0.821 -0.1909  0.4244  0.6961
 4771SOL    HW125772   1.473   1.790   0.819 -0.6206  0.5739 -0.3796
 4771SOL    HW225773   1.588   1.864   0.854 -0.3620  0.9599  1.4421
 4772SOL     OW25774   3.839   3.488   7.713 -0.5569  0.4417  0.5533
 4772SOL    HW125775   3.793   3.408   7.688 -2.4536  1.6632  0.1939
 4772SOL    HW225776   3.921   3.489   7.664 -0.5851  0.4450  0.5057
 4773SOL     OW25777   4.365   0.171   3.698 -0.4003 -0.4118 -0.2928
 4773SOL    HW125778   4.281   0.158   3.655 -0.7278  4.4302 -1.1324
 4773SOL    HW225779   4.398   0.086   3.727 -0.8136 -0.7474 -0.8024
 4774SOL     OW25780   2.776   2.704   6.838 -0.1679 -0.2947 -1.1564
 4774SOL    HW125781   2.759   2.709   6.932  1.9364 -1.5629 -0.6936
 4774SOL    HW225782   2.731   2.621   6.824  0.0709 -0.4452 -1.0481
 4775SOL     OW25783   1.419   4.044   2.356 -0.1336  0.4181  0.0781
 4775SOL    HW125784   1.411   4.138   2.340 -0.9140 -0.1070 -2.5010
 4775SOL    HW225785   1.512   4.021   2.349 -1.3616 -3.8362 -1.9068
 4776SOL     OW25786   3.173   3.833  16.817 -0.0926 -0.0943 -0.2593
 4776SOL    HW125787   3.152   3.782  16.739 -0.8802 -1.6067  0.9235
 4776SOL    HW225788   3.102   3.813  16.880 -2.0725 -0.0799 -2.4822
 4777SOL     OW25789   3.632   0.359   5.480  0.0636  0.2269 -0.8166
 4777SOL    HW125790   3.565   0.426   5.484  0.1838  0.3421 -0.7307
 4777SOL    HW225791   3.623   0.315   5.565  0.9473  0.8514 -0.3962
 4778SOL     OW25792   1.386   2.394   4.529 -0.2446  0.2266 -0.2549
 4778SOL    HW125793   1.374   2.346   4.611  1.1098 -1.2465 -0.9282
 4778SOL    HW225794   1.293   2.411   4.513  0.0931  0.9671 -1.4344
 4779SOL     OW25795   4.691   4.555   8.252 -0.0791  0.0682  0.0816
 4779SOL    HW125796   4.722   4.502   8.178  0.5709  0.6497 -0.0545
 4779SOL    HW225797   4.640   4.495   8.306 -1.4723 -0.5417 -1.9064
 4780SOL     OW25798   1.433   3.573   2.085 -0.3888  0.0958 -0.1897
 4780SOL    HW125799   1.456   3.660   2.054  0.1096  0.8783  2.3378
 4780SOL    HW225800   1.349   3.573   2.131 -0.1911 -0.1022  0.1763
 4781SOL     OW25801   0.832   3.277   8.304  0.4284  0.1049  0.1160
 4781SOL    HW125802   0.840   3.233   8.220  1.3506  1.9381 -0.7518
 4781SOL    HW225803   0.767   3.346   8.288 -0.0816 -0.4248 -0.0976
 4782SOL     OW25804   3.405   4.098  12.832  0.0209 -0.2120  0.1508
 4782SOL    HW125805   3.331   4.093  12.771  0.7958 -1.3033 -0.7018
 4782SOL    HW225806   3.378   4.159  12.900  1.8648  1.3471 -0.5123
 4783SOL     OW25807   4.623   0.092  10.773  0.1325 -0.3274 -0.0755
 4783SOL    HW125808   4.678   0.028  10.818  2.6840  2.1376  0.2989
 4783SOL    HW225809   4.685   0.154  10.735 -1.2358 -0.1965 -2.1016
 4784SOL     OW25810   4.117   3.334  16.061  0.0909  0.4099 -0.0406
 4784SOL    HW125811   4.122   3.337  16.157 -0.9438  0.3557  0.0120
 4784SOL    HW225812   4.088   3.420  16.031  2.3170  0.5460 -1.7676
 4785SOL     OW25813   4.080   0.694   7.327 -0.2299  0.4729  0.1957
 4785SOL    HW125814   4.171   0.720   7.309  0.4265 -1.4518  0.7127
 4785SOL    HW225815   4.090   0.686   7.422 -2.4219 -3.5819  0.0529
 4786SOL     OW25816   4.682   1.174  17.036 -0.1227  0.1714 -0.6509
 4786SOL    HW125817   4.612   1.157  17.099  0.5805 -1.1475 -0.2336
 4786SOL    HW225818   4.674   1.266  17.009  1.1754  0.5393  0.2342
 4787SOL     OW25819   0.786   0.605   8.030  0.2364 -0.3072 -0.6453
 4787SOL    HW125820   0.756   0.528   7.981  0.6526 -1.4654  0.9096
 4787SOL    HW225821   0.770   0.577   8.120 -0.9302 -3.1048 -1.7273
 4788SOL     OW25822   2.117   0.628   2.926 -0.0471 -0.2835 -0.5010
 4788SOL    HW125823   2.042   0.686   2.911 -0.6032 -1.1750 -1.1810
 4788SOL    HW225824   2.108   0.591   3.014  0.9604  0.9218  0.1096
 4789SOL     OW25825   3.903   4.287   4.349 -0.6555  0.1182  0.7778
 4789SOL    HW125826   3.829   4.342   4.322 -0.4110  0.3324  0.5411
 4789SOL    HW225827   3.863   4.204   4.377 -0.5713  0.1475  0.9828
 4790SOL     OW25828   4.605   3.044   5.308  0.6730  0.0076  0.2824
 4790SOL    HW125829   4.577   2.974   5.249  1.5562  0.1926 -0.3533
 4790SOL    HW225830   4.638   2.989   5.379 -2.6634 -2.1092  0.2226
 4791SOL     OW25831   2.128   4.443  11.734 -0.1947 -0.9231  0.0548
 4791SOL    HW125832   2.217   4.424  11.761 -0.1331  0.9180  1.1649
 4791SOL    HW225833   2.140   4.528  11.692  0.4459 -0.4052  1.2963
 4792SOL     OW25834   0.035   0.360  12.675  0.1138  0.4170 -0.1007
 4792SOL    HW125835   0.034   0.449  12.640 -0.9350  0.5829  0.3652
 4792SOL    HW225836   0.072   0.369  12.763 -1.8491 -0.0393  0.7658
 4793SOL     OW25837   1.535   1.582   2.896  0.0442 -0.1797  0.0412
 4793SOL    HW125838   1.527   1.487   2.891 -2.1618 -0.1348  2.6886
 4793SOL    HW225839   1.477   1.602   2.969  0.5107  4.2854 -0.7600
 4794SOL     OW25840   2.944   4.345   4.331 -0.2278 -0.0623 -0.2219
 4794SOL    HW125841   2.871   4.378   4.279 -1.4052 -0.9327  0.8806
 4794SOL    HW225842   3.001   4.312   4.261  1.8519  0.8177  1.0801
 4795SOL     OW25843   2.643   1.581   6.019  0.2375  0.7930  0.6580
 4795SOL    HW125844   2.687   1.550   5.940  1.4465 -1.5787  2.2333
 4795SOL    HW225845   2.551   1.559   6.004  1.4079 -1.9420 -2.6226
 4796SOL     OW25846   2.673   2.801   3.599  0.0600 -0.0407 -0.0217
 4796SOL    HW125847   2.698   2.796   3.507  0.3118 -1.9076  0.1312
 4796SOL    HW225848   2.632   2.719   3.626  0.6142 -0.6948 -1.1591
 4797SOL     OW25849   1.765   4.235   6.636 -0.5268  0.0650  0.1032
 4797SOL    HW125850   1.850   4.195   6.616  0.2398  1.7688 -0.0206
 4797SOL    HW225851   1.724   4.161   6.680 -0.8778 -0.0327 -0.3843
 4798SOL     OW25852   0.544   4.135   7.675  0.4717  0.3604  0.1505
 4798SOL    HW125853   0.630   4.114   7.710  0.6444  0.7872 -0.0236
 4798SOL    HW225854   0.539   4.062   7.613  2.0760 -0.8633  1.4830
 4799SOL     OW25855   0.772   4.144   2.631  0.1341 -0.5549  0.3042
 4799SOL    HW125856   0.789   4.233   2.661  1.1377 -0.3326 -0.9287
 4799SOL    HW225857   0.715   4.164   2.556 -0.3577  0.4631  0.9627
 4800SOL     OW25858   0.322   1.021   6.259 -0.2051 -0.1209  0.5387
 4800SOL    HW125859   0.286   1.026   6.348  1.4215  1.6865  1.0830
 4800SOL    HW225860   0.268   0.958   6.212  1.1088  1.0295 -2.5195
 4801SOL     OW25861   2.992   4.428   8.555  1.2113  0.2329 -0.1561
 4801SOL    HW125862   2.936   4.461   8.485 -1.2309 -1.2824  1.0884
 4801SOL    HW225863   3.056   4.498   8.564 -0.5519  1.7911  0.1978
 4802SOL     OW25864   0.731   3.344   6.916  0.2911 -0.0993 -0.3296
 4802SOL    HW125865   0.746   3.337   6.821  1.9335 -0.2515 -0.0600
 4802SOL    HW225866   0.675   3.422   6.919 -0.5146 -0.6952 -0.0552
 4803SOL     OW25867   0.471   1.830   2.485  0.0964 -0.6359  0.0425
 4803SOL    HW125868   0.557   1.823   2.445 -1.2795  0.6995 -3.1315
 4803SOL    HW225869   0.428   1.771   2.423 -1.2463  0.8569 -0.4480
 4804SOL     OW25870   4.321   1.254  10.900  0.1108 -0.0203 -0.0807
 4804SOL    HW125871   4.243   1.250  10.956 -0.8578 -0.1192 -1.4375
 4804SOL    HW225872   4.388   1.268  10.967 -0.3768  1.0195  0.1977
 4805SOL     OW25873   1.353   1.658   7.672 -0.0138 -0.0612  0.1552
 4805SOL    HW125874   1.372   1.740   7.717 -1.5711 -0.1696  1.0345
 4805SOL    HW225875   1.268   1.644   7.715  0.9482 -1.9089  1.4340
 4806SOL     OW25876   3.602   3.565   2.472 -0.4022  0.1302 -0.1581
 4806SOL    HW125877   3.602   3.509   2.394  0.8538  0.4349 -0.3853
 4806SOL    HW225878   3.692   3.596   2.480 -0.2827 -0.7716  1.9798
 4807SOL     OW25879   2.501   0.350   7.364  0.0076 -0.8089  0.5288
 4807SOL    HW125880   2.588   0.321   7.392 -1.5610 -3.1073  3.1400
 4807SOL    HW225881   2.438   0.300   7.416  2.0090 -0.0227  3.7032
 4808SOL     OW25882   4.290   1.022   3.193  0.4731 -0.2917  0.4593
 4808SOL    HW125883   4.321   0.991   3.108  0.0844 -0.5719  0.4227
 4808SOL    HW225884   4.265   0.940   3.234  1.9097 -0.2886  1.3585
 4809SOL     OW25885   3.564   0.287   0.929 -0.4086  0.0642 -0.5042
 4809SOL    HW125886   3.580   0.361   0.871  0.5997  1.5128  1.5995
 4809SOL    HW225887   3.475   0.257   0.911 -0.3171 -1.9060  2.3848
 4810SOL     OW25888   1.783   3.972   7.938  0.2402  0.6862  0.2370
 4810SOL    HW125889   1.769   3.878   7.951 -0.9587  1.3181  3.7186
 4810SOL    HW225890   1.807   3.978   7.846 -4.0136 -1.0781 -1.0201
 4811SOL     OW25891   2.378   0.954   8.547  0.2170  0.2770 -0.2670
 4811SOL    HW125892   2.397   0.948   8.641  2.9681 -0.6570 -0.8862
 4811SOL    HW225893   2.466   0.963   8.510  0.1918 -0.3173 -0.4662
 4812SOL     OW25894   3.749   2.223   8.052  0.2924  0.1405  0.2874
 4812SOL    HW125895   3.674   2.281   8.067  1.1798  1.3395  0.1167
 4812SOL    HW225896   3.715   2.149   8.102  0.8563 -1.0378 -1.0498
 4813SOL     OW25897   0.374   2.598   8.110 -0.2534  0.9257  0.3001
 4813SOL    HW125898   0.293   2.612   8.061 -1.4403 -1.6620  1.5247
 4813SOL    HW225899   0.425   2.678   8.096 -1.7227  1.3183 -2.8660
 4814SOL     OW25900   0.780   4.494   3.049 -0.0839  0.4704 -0.4686
 4814SOL    HW125901   0.736   4.535   3.124 -0.5817  2.2007 -1.7009
 4814SOL    HW225902   0.870   4.521   3.064 -0.3841  0.6885  0.9945
 4815SOL     OW25903   0.014   1.121   7.858 -0.5930  0.0369 -0.6660
 4815SOL    HW125904   4.657   1.083   7.890  1.5578 -1.8707  2.6123
 4815SOL    HW225905   0.072   1.048   7.881  1.3818  1.6783 -0.4641
 4816SOL     OW25906   3.116   4.199  11.912 -0.4178  0.0108  0.0953
 4816SOL    HW125907   3.076   4.167  11.831 -2.0342 -1.2209  1.3832
 4816SOL    HW225908   3.116   4.293  11.899 -1.0568  0.0576  0.4511
 4817SOL     OW25909   3.684   0.163   1.652  0.5643 -0.0351  0.4484
 4817SOL    HW125910   3.614   0.108   1.686 -0.2979  0.4355 -0.5893
 4817SOL    HW225911   3.743   0.126   1.718 -0.7511 -0.5432  1.3492
 4818SOL     OW25912   4.549   2.766   7.909  0.6537  0.3110 -0.1162
 4818SOL    HW125913   4.541   2.741   7.817  0.1740 -1.2871  0.3768
 4818SOL    HW225914   4.601   2.697   7.949  0.1986  0.5428  0.8765
 4819SOL     OW25915   0.701   1.083  12.986 -0.4230 -0.1826 -0.4293
 4819SOL    HW125916   0.647   1.123  13.054 -2.7550 -1.0623 -1.7830
 4819SOL    HW225917   0.759   1.156  12.965 -0.5585  0.3013  0.8509
 4820SOL     OW25918   1.788   4.362   8.228  0.0901  0.4926  0.5168
 4820SOL    HW125919   1.693   4.357   8.222  0.2291 -2.0422  0.3696
 4820SOL    HW225920   1.800   4.270   8.250  0.2015  0.1711 -0.8606
 4821SOL     OW25921   2.509   1.088   5.417  0.1836  0.5005 -0.3457
 4821SOL    HW125922   2.555   1.170   5.397  0.2535  0.4915 -0.2246
 4821SOL    HW225923   2.421   1.104   5.384  0.2877  2.6148  0.3687
 4822SOL     OW25924   4.495   0.469   6.310  0.2290 -0.2653  0.1300
 4822SOL    HW125925   4.420   0.426   6.351 -0.7864 -0.5414 -2.0480
 4822SOL    HW225926   4.551   0.487   6.386  0.6962 -2.3891  0.2992
 4823SOL     OW25927   0.760   3.881   3.254  0.4983 -0.2131 -0.1950
 4823SOL    HW125928   0.810   3.855   3.177 -1.6833 -0.5796 -1.4940
 4823SOL    HW225929   0.707   3.804   3.274  2.2466 -0.7574  2.4096
 4824SOL     OW25930   0.547   1.223   1.560  0.1584  0.0409  0.0551
 4824SOL    HW125931   0.636   1.258   1.569 -0.9009  2.7448 -0.2004
 4824SOL    HW225932   0.566   1.129   1.567  0.5461  0.1264  0.1532
 4825SOL     OW25933   1.574   0.229  12.155 -0.0628  0.3185 -0.2649
 4825SOL    HW125934   1.613   0.304  12.199  1.1650 -1.0836  1.0677
 4825SOL    HW225935   1.564   0.164  12.225 -1.1465  0.4159 -0.3309
 4826SOL     OW25936   4.319   2.219   0.923 -0.0265  0.2635 -0.2685
 4826SOL    HW125937   4.331   2.216   0.828  0.2710  0.6638 -0.2465
 4826SOL    HW225938   4.306   2.310   0.950 -1.5867  0.3990 -1.4867
 4827SOL     OW25939   1.020   2.662   1.709  0.2842 -0.3440 -0.0108
 4827SOL    HW125940   1.065   2.671   1.625  0.6629 -1.2163  0.0973
 4827SOL    HW225941   0.999   2.568   1.705  3.3430 -0.9752 -1.1780
 4828SOL     OW25942   3.273   0.449  12.124  0.5441 -0.5653  0.7736
 4828SOL    HW125943   3.333   0.498  12.179  0.1724  0.2306  0.4604
 4828SOL    HW225944   3.186   0.489  12.130  1.6615  2.1168 -1.3001
 4829SOL     OW25945   2.382   2.464  13.208  0.1748  0.3404  0.2314
 4829SOL    HW125946   2.431   2.500  13.133 -1.8352  1.6173 -0.4617
 4829SOL    HW225947   2.431   2.509  13.276  1.5921  0.3365 -0.7893
 4830SOL     OW25948   3.984   1.462   8.605  0.0309  0.1329 -0.5635
 4830SOL    HW125949   4.060   1.518   8.619  0.3958 -0.6075  0.3693
 4830SOL    HW225950   3.979   1.423   8.693  2.4930 -0.8617 -0.8850
 4831SOL     OW25951   0.599   3.612   4.705  0.1355 -0.9669 -0.8560
 4831SOL    HW125952   0.673   3.560   4.674 -0.4915  0.1744 -4.2241
 4831SOL    HW225953   0.538   3.539   4.717 -1.4916  0.6436  0.6993
 4832SOL     OW25954   1.154   1.834   0.757  0.3753 -0.1726  0.4638
 4832SOL    HW125955   1.208   1.901   0.799  1.6371 -1.7316  1.2963
 4832SOL    HW225956   1.170   1.755   0.808  2.5080  0.2860  0.4872
 4833SOL     OW25957   4.251   4.362   4.029  0.0541 -0.2929  0.2566
 4833SOL    HW125958   4.305   4.285   4.047  0.4735 -0.0536  0.0076
 4833SOL    HW225959   4.324   4.424   4.031 -1.0503  1.0840 -2.6733
 4834SOL     OW25960   4.696   1.792   6.488  0.2800 -0.4162  0.6873
 4834SOL    HW125961   0.049   1.846   6.477  0.4061 -1.0270 -1.4070
 4834SOL    HW225962   4.623   1.853   6.493 -0.0701 -0.8046  0.2479
 4835SOL     OW25963   4.059   3.973  16.762 -0.2813  0.6061 -0.6155
 4835SOL    HW125964   4.143   4.019  16.758  0.9996 -1.7947 -1.2319
 4835SOL    HW225965   4.088   3.885  16.738 -0.7888  0.0283  0.8972
 4836SOL     OW25966   4.070   4.502   7.361  0.0960 -0.7010 -0.1299
 4836SOL    HW125967   4.110   4.470   7.280  0.3513 -1.4056  0.2793
 4836SOL    HW225968   4.124   4.471   7.434  0.6100 -0.2253 -0.3168
 4837SOL     OW25969   3.609   0.788   6.972  0.3259 -0.4029 -0.2733
 4837SOL    HW125970   3.701   0.791   6.999  0.4703  0.9934 -0.8983
 4837SOL    HW225971   3.594   0.880   6.993  2.4222  0.1487 -1.1581
 4838SOL     OW25972   2.134   0.467  16.582  0.0206  0.4480 -0.3367
 4838SOL    HW125973   2.221   0.434  16.604 -0.7357 -0.8768  0.7017
 4838SOL    HW225974   2.087   0.423  16.653  0.4420  0.6220  0.0588
 4839SOL     OW25975   3.954   2.930  12.939 -0.5081 -0.5577 -0.1201
 4839SOL    HW125976   4.000   2.980  13.006  0.3601 -1.7853  0.2064
 4839SOL    HW225977   3.990   2.843  12.958 -0.7508 -0.6973 -0.3015
 4840SOL     OW25978   2.074   0.488  15.270 -0.2407  0.7728  0.0080
 4840SOL    HW125979   2.050   0.490  15.363  0.4465  3.1596  0.1269
 4840SOL    HW225980   2.148   0.427  15.271  0.6880  1.9120 -0.3995
 4841SOL     OW25981   2.301   0.674   3.760  0.6525  0.6026  0.0248
 4841SOL    HW125982   2.311   0.769   3.748  0.9316  0.4867 -0.6581
 4841SOL    HW225983   2.323   0.642   3.672 -3.3540  0.2027 -0.8074
 4842SOL     OW25984   0.930   1.983   7.403 -0.1567  0.2072 -0.6814
 4842SOL    HW125985   0.863   1.917   7.419  0.4230 -0.2411 -0.0918
 4842SOL    HW225986   0.978   1.945   7.330  2.0413  4.0156 -1.2475
 4843SOL     OW25987   4.176   2.441   3.353  0.3954 -0.6501 -0.0703
 4843SOL    HW125988   4.183   2.468   3.445  2.0695  2.1471 -1.0000
 4843SOL    HW225989   4.086   2.471   3.338  0.1870 -0.7164  1.0195
 4844SOL     OW25990   3.765   3.918  15.836  0.3131 -0.0308  0.0191
 4844SOL    HW125991   3.761   4.011  15.812  1.0268 -0.6503 -2.5251
 4844SOL    HW225992   3.857   3.900  15.815  0.9028  1.0237  1.7407
 4845SOL     OW25993   2.040   1.730  17.059  0.3769 -0.6242 -0.3598
 4845SOL    HW125994   2.037   1.695  17.147  0.3220  0.5510  0.1081
 4845SOL    HW225995   2.020   1.658  16.999 -4.1922  0.0953  0.3146
 4846SOL     OW25996   0.533   0.077   6.760 -0.1471 -0.3325  0.0825
 4846SOL    HW125997   0.605   0.125   6.720 -0.3387 -1.1789 -1.3026
 4846SOL    HW225998   0.574   0.063   6.845 -1.4048  1.9131  1.0695
 4847SOL     OW25999   2.904   0.339   8.442 -0.1078  0.2786  0.0503
 4847SOL    HW126000   2.910   0.244   8.442  0.9810  0.3461 -0.3974
 4847SOL    HW226001   2.848   0.351   8.519  0.3561 -1.4494  0.6537
 4848SOL     OW26002   2.754   2.087   1.560 -0.6328 -0.2279  0.5913
 4848SOL    HW126003   2.796   2.090   1.645 -1.7599 -0.5779  1.1641
 4848SOL    HW226004   2.697   2.010   1.567 -1.2731  0.1227 -0.6755
 4849SOL     OW26005   4.061   2.223   3.859 -0.2691  0.2980  0.2069
 4849SOL    HW126006   4.008   2.301   3.844 -1.1152 -0.1535  0.8369
 4849SOL    HW226007   4.099   2.208   3.773  1.7905 -0.3308  1.2300
 4850SOL     OW26008   1.351   4.311  12.797 -0.2819 -0.8118 -0.5371
 4850SOL    HW126009   1.405   4.335  12.722 -0.6456 -1.5878 -1.0447
 4850SOL    HW226010   1.264   4.345  12.778 -0.6244 -2.3452 -1.7283
 4851SOL     OW26011   1.591   3.080   1.411 -0.0135 -0.2299  0.2093
 4851SOL    HW126012   1.628   3.166   1.391 -0.2007  0.1805  1.5911
 4851SOL    HW226013   1.498   3.093   1.394 -0.3463 -0.8973  1.4993
 4852SOL     OW26014   0.064   1.382   7.954 -0.5638 -0.4805  0.3351
 4852SOL    HW126015   0.049   1.298   7.910  0.6706 -1.6828  2.1835
 4852SOL    HW226016   4.702   1.400   7.989  0.3495 -0.9073  2.8236
 4853SOL     OW26017   0.692   0.964   5.434 -0.0817  0.6880  0.0024
 4853SOL    HW126018   0.653   1.019   5.501  0.2992  0.3423  0.5117
 4853SOL    HW226019   0.660   1.003   5.353 -0.9447 -2.9206 -1.4063
 4854SOL     OW26020   4.720   3.138   4.235  0.3037 -0.1444  0.8177
 4854SOL    HW126021   0.005   3.221   4.189  3.2950 -1.1135 -0.2291
 4854SOL    HW226022   0.056   3.079   4.191 -1.3276  1.1497 -3.1746
 4855SOL     OW26023   1.069   1.626   4.924 -0.2458  0.0120 -0.0567
 4855SOL    HW126024   1.024   1.541   4.921  0.0701 -0.1413 -0.4964
 4855SOL    HW226025   1.150   1.619   4.873 -1.1983 -0.8270 -1.4341
 4856SOL     OW26026   3.411   0.028   0.238 -0.1492 -0.2869 -0.1814
 4856SOL    HW126027   3.393   0.122   0.241 -2.5991 -0.7813  0.8762
 4856SOL    HW226028   3.441   0.010   0.149 -0.1020  0.6937 -0.3638
 4857SOL     OW26029   3.292   2.002  12.612  0.4567  0.0621 -0.5546
 4857SOL    HW126030   3.330   2.085  12.642 -0.6645  1.1227 -2.0712
 4857SOL    HW226031   3.219   2.025  12.555  0.3282  1.7272  0.2847
 4858SOL     OW26032   4.365   2.574   3.992 -0.6763  0.6779 -0.4247
 4858SOL    HW126033   4.279   2.560   4.032 -1.2030  1.1014 -1.3978
 4858SOL    HW226034   4.401   2.625   4.064 -0.9120  2.2690 -1.4320
 4859SOL     OW26035   3.159   0.789   4.161 -0.4397 -0.4594 -0.3582
 4859SOL    HW126036   3.095   0.830   4.220 -0.2575 -2.2140  1.0716
 4859SOL    HW226037   3.102   0.766   4.088  0.8358 -1.5303 -1.0126
 4860SOL     OW26038   1.343   3.883   4.749  0.5919 -0.5089  0.2197
 4860SOL    HW126039   1.428   3.896   4.706  0.9946  0.3462  1.2812
 4860SOL    HW226040   1.366   3.880   4.842  0.1916 -0.3155  0.3231
 4861SOL     OW26041   1.534   4.522   3.439  0.2619 -0.0805  0.9332
 4861SOL    HW126042   1.629   4.510   3.438  0.1376 -1.0976  1.6166
 4861SOL    HW226043   1.518   4.493   3.529 -1.0601 -0.4297  0.5778
 4862SOL     OW26044   2.601   0.535   3.790 -0.0863 -0.2240 -0.5639
 4862SOL    HW126045   2.544   0.560   3.717 -2.2547 -0.1727  1.1291
 4862SOL    HW226046   2.596   0.605   3.856  0.0194 -0.9740  0.2436
 4863SOL     OW26047   1.013   4.028   6.493  0.0517  0.1597 -0.5340
 4863SOL    HW126048   0.923   4.049   6.518  1.1750  4.1210  0.2615
 4863SOL    HW226049   1.008   3.996   6.403 -0.6833  0.4288 -0.5835
 4864SOL     OW26050   1.409   1.566   6.248  0.5996  0.3623 -0.1000
 4864SOL    HW126051   1.436   1.599   6.333  1.5028  0.9748 -0.6252
 4864SOL    HW226052   1.384   1.479   6.278 -1.6231  0.8452 -0.4970
 4865SOL     OW26053   2.253   4.426   7.236  0.2847 -0.5901  0.3433
 4865SOL    HW126054   2.237   4.396   7.325  1.7332  1.1056  1.1824
 4865SOL    HW226055   2.328   4.483   7.250 -1.2017  1.2330  0.9072
 4866SOL     OW26056   1.299   2.373  12.068  0.0089  0.0717 -0.9034
 4866SOL    HW126057   1.361   2.358  12.139 -0.4098 -1.5202 -0.8843
 4866SOL    HW226058   1.215   2.360  12.112 -0.1451 -0.1816 -1.2770
 4867SOL     OW26059   3.087   3.737  14.370 -0.4463 -0.0494 -0.0751
 4867SOL    HW126060   3.023   3.726  14.441  2.0847  1.6945  2.4888
 4867SOL    HW226061   3.166   3.764  14.418  0.0946 -2.0092  0.1074
 4868SOL     OW26062   2.266   4.117   6.687  0.1295  0.0927 -0.8353
 4868SOL    HW126063   2.325   4.153   6.755 -0.7051 -0.5272  0.2133
 4868SOL    HW226064   2.316   4.145   6.610  2.1927 -0.1884  0.3744
 4869SOL     OW26065   0.518   3.312   4.663  0.6257  0.2011 -0.1527
 4869SOL    HW126066   0.550   3.327   4.574 -1.1647  0.6771 -0.7187
 4869SOL    HW226067   0.423   3.301   4.658  0.5211  0.8862  0.2286
 4870SOL     OW26068   1.765   2.144   5.473  0.0223  0.7466  0.3584
 4870SOL    HW126069   1.810   2.199   5.537  2.0842  0.0102 -0.4498
 4870SOL    HW226070   1.675   2.161   5.500 -0.0954  1.8090 -0.6711
 4871SOL     OW26071   2.428   2.272   9.970 -0.0306 -0.2567  0.2620
 4871SOL    HW126072   2.338   2.297   9.992 -0.6159  0.1571 -2.6663
 4871SOL    HW226073   2.446   2.211  10.042  1.1012  0.6303  0.7205
 4872SOL     OW26074   1.896   3.825   7.349 -0.0188  0.1676 -0.1681
 4872SOL    HW126075   1.935   3.787   7.271 -2.7003 -0.7524 -1.0242
 4872SOL    HW226076   1.968   3.881   7.380 -1.7500  1.0138  2.3318
 4873SOL     OW26077   0.357   0.522   1.845 -0.6977  0.1598  0.3787
 4873SOL    HW126078   0.408   0.520   1.764 -1.2250 -0.3458  0.0668
 4873SOL    HW226079   0.436   0.512   1.898 -1.3199  0.4663  1.3742
 4874SOL     OW26080   3.088   4.613   3.673 -0.0278  0.0223  0.1347
 4874SOL    HW126081   3.152   4.615   3.744 -1.6705 -0.9829  1.6493
 4874SOL    HW226082   3.006   4.571   3.701 -0.3116 -0.0403 -0.7956
 4875SOL     OW26083   1.545   3.747   0.014 -0.0730  0.1851 -0.0704
 4875SOL    HW126084   1.572   3.803  17.644 -1.4507 -0.6486 -1.2211
 4875SOL    HW226085   1.470   3.716  17.666 -0.0901  2.1649 -1.2660
 4876SOL     OW26086   2.275   4.254   0.580 -0.7713  0.3791  0.3429
 4876SOL    HW126087   2.284   4.306   0.660  1.0537  0.2732  0.2105
 4876SOL    HW226088   2.328   4.179   0.608 -2.0057 -1.4503 -2.2074
 4877SOL     OW26089   0.196   1.671   8.888  0.3066  0.3014  0.3776
 4877SOL    HW126090   0.152   1.598   8.932  0.9168  0.0362  0.5472
 4877SOL    HW226091   0.286   1.639   8.889  0.5677  1.0104 -0.7205
 4878SOL     OW26092   0.145   2.865   0.912 -0.8204  0.3772  0.6416
 4878SOL    HW126093   0.167   2.855   0.819 -0.2902 -1.4719  0.9588
 4878SOL    HW226094   0.227   2.868   0.961 -1.4083  0.2197  1.6366
 4879SOL     OW26095   3.323   2.317   1.261  0.3581  0.5302 -0.1817
 4879SOL    HW126096   3.228   2.308   1.250  0.1321  3.0394 -0.0968
 4879SOL    HW226097   3.356   2.366   1.186  0.4683 -0.7272 -0.9586
 4880SOL     OW26098   2.256   4.130  14.552  0.4928  0.4710 -0.2737
 4880SOL    HW126099   2.303   4.168  14.477 -2.0409  2.7304 -0.6985
 4880SOL    HW226100   2.223   4.054  14.505 -1.4181  0.4090  1.1931
 4881SOL     OW26101   3.300   3.105   9.837  0.1662 -0.1818 -0.2242
 4881SOL    HW126102   3.285   3.099   9.743  2.7895  0.0638 -0.6567
 4881SOL    HW226103   3.332   3.194   9.847 -0.2814 -0.1209  0.6498
 4882SOL     OW26104   1.720   2.340   9.537 -0.0240  0.5853 -0.0743
 4882SOL    HW126105   1.658   2.411   9.547 -1.7631 -1.2136  1.9092
 4882SOL    HW226106   1.801   2.392   9.534 -0.3224  1.0806  0.7031
 4883SOL     OW26107   1.644   1.822   5.850  0.1738 -0.2081 -0.0942
 4883SOL    HW126108   1.598   1.763   5.909 -0.8309 -0.2698 -0.9399
 4883SOL    HW226109   1.709   1.861   5.908  0.2660  0.1721 -0.4508
 4884SOL     OW26110   2.406   2.612   0.966  0.3744  0.0462  0.2282
 4884SOL    HW126111   2.453   2.570   0.894 -1.5954  0.1712 -1.1199
 4884SOL    HW226112   2.431   2.562   1.044  1.8516  0.8607  0.2782
 4885SOL     OW26113   1.002   0.635   7.830  0.3014  0.6502  0.2530
 4885SOL    HW126114   1.018   0.720   7.789  0.2993 -1.4430 -4.1363
 4885SOL    HW226115   0.928   0.670   7.878  0.5363  3.3908 -1.3432
 4886SOL     OW26116   1.975   3.432   0.283 -0.2526  0.1122 -0.0687
 4886SOL    HW126117   1.979   3.490   0.207 -2.4480  0.1345 -0.1817
 4886SOL    HW226118   1.941   3.492   0.350 -1.0583 -1.8758  1.2952
 4887SOL     OW26119   3.486   1.394   4.826 -0.0792 -0.1560  0.1821
 4887SOL    HW126120   3.489   1.396   4.730 -0.2515  1.7977  0.2127
 4887SOL    HW226121   3.575   1.428   4.839 -0.1911 -0.7941  2.5771
 4888SOL     OW26122   3.762   2.987  14.278 -0.8878 -0.4333  0.3955
 4888SOL    HW126123   3.797   2.905  14.244  1.3199  0.0944  1.4123
 4888SOL    HW226124   3.676   2.953  14.303 -0.4886 -1.5440  0.2353
 4889SOL     OW26125   1.986   0.804   5.404  0.7752 -0.2759 -0.8830
 4889SOL    HW126126   2.081   0.790   5.399  0.6068 -2.0670  0.7985
 4889SOL    HW226127   1.991   0.899   5.418  0.4923 -0.7122  2.2265
 4890SOL     OW26128   2.759   1.097   7.945 -0.8748  0.4824 -0.0903
 4890SOL    HW126129   2.697   1.137   7.885 -0.0003  1.3395 -0.4145
 4890SOL    HW226130   2.737   1.004   7.957  1.1817 -0.1459 -1.1578
 4891SOL     OW26131   2.029   4.251   0.497  0.6140  0.6516  0.8368
 4891SOL    HW126132   2.024   4.347   0.490 -0.4594  0.7660  3.3127
 4891SOL    HW226133   2.121   4.251   0.522  0.4429 -1.0264  1.4584
 4892SOL     OW26134   3.432   4.337   9.971 -0.3798  0.6986 -0.1437
 4892SOL    HW126135   3.438   4.287  10.052 -0.0458  1.2179  0.1542
 4892SOL    HW226136   3.507   4.297   9.926  0.6451  2.1330  0.2735
 4893SOL     OW26137   1.214   2.911   1.978 -0.3854 -0.0399 -0.3594
 4893SOL    HW126138   1.216   2.976   1.908 -0.0218  1.4170  1.0118
 4893SOL    HW226139   1.204   2.969   2.053  1.3178  0.3285 -0.4163
 4894SOL     OW26140   0.821   0.153  17.064 -0.3734  0.0427  0.0934
 4894SOL    HW126141   0.804   0.241  17.098  1.8331 -0.0396  1.3949
 4894SOL    HW226142   0.916   0.151  17.070 -0.2253 -0.0874 -2.6086
 4895SOL     OW26143   0.988   2.328   1.439 -0.3486 -0.2501  0.1529
 4895SOL    HW126144   1.065   2.277   1.414  1.3986  2.3657  0.2218
 4895SOL    HW226145   0.918   2.267   1.416 -1.6053  1.0655  0.4850
 4896SOL     OW26146   2.523   3.176  16.337  0.0079  0.1073 -0.5363
 4896SOL    HW126147   2.571   3.251  16.303  1.3661 -1.0040 -1.0546
 4896SOL    HW226148   2.599   3.130  16.370  0.8291  1.6577 -0.2685
 4897SOL     OW26149   4.150   4.365   7.594  0.1785 -0.1381  0.0125
 4897SOL    HW126150   4.086   4.405   7.652 -2.3392 -0.9100 -2.2456
 4897SOL    HW226151   4.089   4.306   7.551 -1.9622  0.6113  2.0498
 4898SOL     OW26152   1.031   0.509   7.559  0.4425 -0.0508 -0.2645
 4898SOL    HW126153   1.111   0.512   7.611 -0.9069 -0.3447  1.8537
 4898SOL    HW226154   0.967   0.543   7.621  0.8368 -0.0939  0.1648
 4899SOL     OW26155   4.228   0.106   4.165 -0.0341 -0.1043  0.2728
 4899SOL    HW126156   4.313   0.080   4.201 -0.2344  0.0978  0.8947
 4899SOL    HW226157   4.248   0.199   4.150 -0.1927 -0.1992 -0.4915
 4900SOL     OW26158   0.035   2.615   1.559  0.1282  0.2351  0.0679
 4900SOL    HW126159   0.124   2.643   1.578  1.0211 -1.9638 -0.9721
 4900SOL    HW226160   0.017   2.652   1.473 -2.2550 -0.5899  0.2106
 4901SOL     OW26161   0.487   1.834   5.046  0.1751 -0.4860 -0.5472
 4901SOL    HW126162   0.392   1.828   5.047  0.3621 -2.7415  2.2811
 4901SOL    HW226163   0.509   1.741   5.038 -0.7422 -0.8912  1.8240
 4902SOL     OW26164   1.056   4.382  11.598 -0.0139 -0.2258 -0.8830
 4902SOL    HW126165   0.969   4.412  11.571  0.1180  2.5576  1.7711
 4902SOL    HW226166   1.121   4.428  11.545  2.1896 -1.4878  0.7284
 4903SOL     OW26167   3.125   1.925   7.414 -0.3711  0.1285  0.3051
 4903SOL    HW126168   3.053   1.932   7.476 -0.0213  0.7068  0.6469
 4903SOL    HW226169   3.176   1.998   7.448  1.2277  0.4974 -2.8785
 4904SOL     OW26170   2.502   2.679   6.024 -0.3509  0.5340 -0.6174
 4904SOL    HW126171   2.573   2.619   6.003 -2.8633 -2.5271 -0.3318
 4904SOL    HW226172   2.544   2.747   6.077 -0.3983  0.4269 -0.4403
 4905SOL     OW26173   3.714   3.598   4.970 -0.0264  1.3898 -0.1295
 4905SOL    HW126174   3.642   3.644   4.928 -4.0091 -1.8866  3.1616
 4905SOL    HW226175   3.693   3.599   5.064 -1.7851  3.5764 -0.5584
 4906SOL     OW26176   1.093   0.753   5.601  0.0427 -0.3036  0.3733
 4906SOL    HW126177   1.071   0.837   5.559  0.3495 -0.8746 -0.9472
 4906SOL    HW226178   1.185   0.767   5.624 -0.5183  1.4380  1.5994
 4907SOL     OW26179   1.329   3.877   5.047  0.0776 -0.3318  0.1064
 4907SOL    HW126180   1.240   3.893   5.014  1.2985  2.1238 -1.9732
 4907SOL    HW226181   1.322   3.853   5.139  0.0074  1.6093  0.6025
 4908SOL     OW26182   4.690   0.680   0.729  0.4279  0.6561  0.1241
 4908SOL    HW126183   4.696   0.691   0.824  2.1231 -1.3176  0.2376
 4908SOL    HW226184   0.052   0.643   0.716  0.5280  1.0626 -0.3625
 4909SOL     OW26185   4.688   1.966   2.183  0.1223  0.2488 -0.0400
 4909SOL    HW126186   4.632   2.029   2.139 -0.9927  0.6882  2.0266
 4909SOL    HW226187   4.623   1.900   2.208 -0.4803  1.1562  0.7814
 4910SOL     OW26188   2.562   0.220  17.009 -0.1518  0.3158 -0.3281
 4910SOL    HW126189   2.484   0.229  17.063  0.0042 -0.8589  0.0906
 4910SOL    HW226190   2.608   0.153  17.058  0.5486  1.2681  0.3154
 4911SOL     OW26191   3.269   4.379   1.462 -0.3134 -0.5041 -0.2136
 4911SOL    HW126192   3.259   4.296   1.415  1.1090 -0.1287 -1.1663
 4911SOL    HW226193   3.358   4.368   1.495 -1.1888  0.2823  2.4629
 4912SOL     OW26194   4.616   1.183   2.155 -0.2532 -0.1317 -0.0211
 4912SOL    HW126195   4.670   1.252   2.118  1.6266 -0.1687  2.6323
 4912SOL    HW226196   4.545   1.239   2.187  0.6206  1.1353 -0.3209
 4913SOL     OW26197   1.574   0.760   0.580  0.6067  0.2974  0.8529
 4913SOL    HW126198   1.668   0.772   0.569  0.7312 -0.7393  0.7761
 4913SOL    HW226199   1.536   0.840   0.617  0.1090  0.5913 -0.2886
 4914SOL     OW26200   1.901   3.564   2.087 -0.0797 -0.1814  0.0185
 4914SOL    HW126201   1.835   3.506   2.124 -0.1365 -2.8107 -4.1974
 4914SOL    HW226202   1.917   3.529   1.999  1.9448 -1.5337  0.9237
 4915SOL     OW26203   1.309   2.659  10.923  0.4826  0.2877  0.4735
 4915SOL    HW126204   1.292   2.627  10.835  0.7422 -1.7206  1.1461
 4915SOL    HW226205   1.397   2.626  10.942  0.8607  2.0353  1.8325
 4916SOL     OW26206   1.405   3.757   5.292  0.6521  0.0859 -0.3459
 4916SOL    HW126207   1.342   3.718   5.352 -0.5425  5.2038  1.7096
 4916SOL    HW226208   1.462   3.680   5.288  0.8740  0.2568 -0.4757
 4917SOL     OW26209   1.190   0.660   9.105  0.0852  0.1034 -0.2950
 4917SOL    HW126210   1.230   0.624   9.025  0.9164 -0.4016  0.3468
 4917SOL    HW226211   1.262   0.692   9.160 -0.2797  0.5793 -0.0973
 4918SOL     OW26212   1.327   2.063   1.630  0.4641  0.2751  0.0880
 4918SOL    HW126213   1.377   1.981   1.626  0.3260  0.1667  0.5648
 4918SOL    HW226214   1.272   2.065   1.709  1.6736  0.6447  0.9274
 4919SOL     OW26215   1.240   0.399   0.774 -0.1013 -0.4516 -0.8608
 4919SOL    HW126216   1.201   0.361   0.695  1.7198  0.8618 -2.4025
 4919SOL    HW226217   1.305   0.332   0.796  1.0161  0.9442  0.1159
 4920SOL     OW26218   1.892   3.817  10.952 -0.0725 -0.2307  0.7099
 4920SOL    HW126219   1.941   3.747  10.995 -1.1721  0.6950  3.4493
 4920SOL    HW226220   1.962   3.854  10.898  1.4357 -2.5161  1.1027
 4921SOL     OW26221   1.157   1.558   8.646  0.0434  0.0295 -0.5051
 4921SOL    HW126222   1.235   1.571   8.592 -0.8815  0.2271 -1.7931
 4921SOL    HW226223   1.200   1.515   8.720 -1.7959 -0.7799  0.1094
 4922SOL     OW26224   0.843   0.017  10.079  0.3298  0.3492 -0.4639
 4922SOL    HW126225   0.912   0.051  10.136 -0.0006  1.0876 -0.5000
 4922SOL    HW226226   0.859   0.065   9.998  0.1278 -1.5753 -1.6231
 4923SOL     OW26227   1.325   0.513   6.275  0.1450 -0.0272 -0.1498
 4923SOL    HW126228   1.391   0.444   6.264 -0.3291 -0.3728 -0.8357
 4923SOL    HW226229   1.339   0.528   6.368 -0.1348 -2.1782  0.2410
 4924SOL     OW26230   2.606   4.331   4.357 -0.1795 -0.0465  0.1461
 4924SOL    HW126231   2.650   4.353   4.275  3.1753 -0.8426  1.7620
 4924SOL    HW226232   2.556   4.253   4.333 -1.7759  1.6267 -2.0623
 4925SOL     OW26233   0.582   3.159   3.720  0.2630  0.7665 -0.1922
 4925SOL    HW126234   0.497   3.197   3.740 -0.6602 -0.8705 -1.0740
 4925SOL    HW226235   0.639   3.233   3.743  1.3971 -0.6659  1.6118
 4926SOL     OW26236   4.657   2.137   2.437 -0.0091 -0.2136 -0.1876
 4926SOL    HW126237   4.700   2.071   2.383 -1.1603 -1.0822 -0.0307
 4926SOL    HW226238   4.618   2.078   2.502  0.7784 -0.1489  0.3552
 4927SOL     OW26239   0.681   3.843   4.830  0.0681  0.2055 -0.0131
 4927SOL    HW126240   0.660   3.756   4.796  4.1923 -0.3709 -1.0732
 4927SOL    HW226241   0.727   3.814   4.909 -0.0080  0.0868 -0.0115
 4928SOL     OW26242   1.603   1.558   9.425 -0.4980 -0.5360 -0.0977
 4928SOL    HW126243   1.585   1.542   9.332  0.2873  0.7954 -0.4818
 4928SOL    HW226244   1.525   1.608   9.449 -0.6376  0.0812 -1.8353
 4929SOL     OW26245   1.425   2.319   0.334  1.1917  0.3031 -0.4843
 4929SOL    HW126246   1.382   2.284   0.256 -0.2251  0.7710  0.0761
 4929SOL    HW226247   1.469   2.400   0.308 -1.1812  1.6889 -0.1892
 4930SOL     OW26248   3.350   1.839   4.915  0.0089 -0.4440 -0.1808
 4930SOL    HW126249   3.300   1.762   4.887  0.4038 -0.2905 -1.3038
 4930SOL    HW226250   3.317   1.904   4.852  0.1889  0.0178  0.1987
 4931SOL     OW26251   0.381   2.936   2.666 -0.4899 -0.2205  0.4864
 4931SOL    HW126252   0.421   2.992   2.732 -0.1884  0.0660  0.0560
 4931SOL    HW226253   0.388   2.988   2.586 -1.1786  1.4549  1.5173
 4932SOL     OW26254   2.730   3.457   2.932  0.9790 -0.0441  0.3995
 4932SOL    HW126255   2.662   3.507   2.887 -1.1051 -0.9926  2.5571
 4932SOL    HW226256   2.722   3.373   2.886 -0.8210  1.0154 -1.2180
 4933SOL     OW26257   3.911   3.551   6.346 -0.0615 -0.2552 -0.1293
 4933SOL    HW126258   3.906   3.475   6.289  1.6943  0.4247 -1.1901
 4933SOL    HW226259   3.820   3.579   6.337  0.1148  0.7839  1.2581
 4934SOL     OW26260   0.778   0.451  13.306 -0.0922  0.5972 -0.2263
 4934SOL    HW126261   0.856   0.499  13.332 -0.3463  0.5474  0.6290
 4934SOL    HW226262   0.718   0.520  13.336 -0.7789 -0.2816  0.4565
 4935SOL     OW26263   2.930   4.432   6.164 -0.2408  0.1885 -0.4280
 4935SOL    HW126264   2.864   4.482   6.212 -0.7375  1.2648 -2.2629
 4935SOL    HW226265   2.981   4.384   6.230  0.0612  1.3814  0.2152
 4936SOL     OW26266   4.086   2.444   1.362 -0.0580 -0.3314 -0.2743
 4936SOL    HW126267   4.093   2.398   1.278 -1.1005 -0.1855 -0.4315
 4936SOL    HW226268   4.016   2.405   1.414 -0.0375 -0.3731 -0.2778
 4937SOL     OW26269   4.188   1.857   5.571 -0.1350 -0.0699  0.6747
 4937SOL    HW126270   4.153   1.885   5.656 -2.0317 -0.3103 -0.0299
 4937SOL    HW226271   4.112   1.803   5.549 -0.5727  0.7069  0.3060
 4938SOL     OW26272   1.678   1.782   8.332  0.0051  0.0477 -0.1275
 4938SOL    HW126273   1.657   1.874   8.343 -1.5372 -0.2994 -0.0613
 4938SOL    HW226274   1.726   1.765   8.413  1.9759  2.5373 -0.7998
 4939SOL     OW26275   2.504   1.979   3.878  0.5795  0.2524  0.6675
 4939SOL    HW126276   2.508   1.897   3.829 -2.0960  0.1397  0.6337
 4939SOL    HW226277   2.595   1.987   3.906  0.6439  1.6153  0.0881
 4940SOL     OW26278   3.989   2.626   9.222  0.2047  0.4897  0.8653
 4940SOL    HW126279   4.075   2.662   9.201  0.1254 -0.6670 -1.4073
 4940SOL    HW226280   3.943   2.697   9.267  0.4051  0.3803  1.2467
 4941SOL     OW26281   3.222   3.728   8.080 -0.1917  0.7650  0.6047
 4941SOL    HW126282   3.255   3.644   8.048 -0.2921  0.8346  0.3239
 4941SOL    HW226283   3.283   3.787   8.037 -0.3626  1.0780  0.7913
 4942SOL     OW26284   3.270   3.840   3.214  0.8401  0.0785  0.3150
 4942SOL    HW126285   3.232   3.818   3.298  0.8221 -0.0590  0.2698
 4942SOL    HW226286   3.217   3.804   3.143 -0.4218  0.7749  0.9172
 4943SOL     OW26287   2.924   3.206   8.125  0.4534 -0.4053 -0.1623
 4943SOL    HW126288   2.832   3.204   8.152  0.7784 -1.3982  0.8651
 4943SOL    HW226289   2.900   3.177   8.037  1.2539 -0.7401 -0.2695
 4944SOL     OW26290   2.809   1.243   5.230 -0.0090  0.3935 -0.0239
 4944SOL    HW126291   2.806   1.173   5.295 -1.0275 -0.8368 -1.3809
 4944SOL    HW226292   2.847   1.195   5.156  2.9902  1.0862  1.0944
 4945SOL     OW26293   3.596   2.085   5.927  0.1742 -0.3360  0.1067
 4945SOL    HW126294   3.530   2.018   5.911 -0.3535  0.1966  0.0315
 4945SOL    HW226295   3.650   2.053   6.000  1.3112  2.1908  0.3832
 4946SOL     OW26296   1.784   0.886  16.778 -0.1034  0.1114 -0.6648
 4946SOL    HW126297   1.826   0.958  16.730  2.3075 -0.7763  0.0943
 4946SOL    HW226298   1.697   0.883  16.739  0.2686  1.5043 -1.5916
 4947SOL     OW26299   3.353   0.037  13.270 -0.5223 -0.1828  0.0435
 4947SOL    HW126300   3.273   0.077  13.237 -2.0315 -0.4455  3.3264
 4947SOL    HW226301   3.421   0.070  13.211  0.1245  0.0363  0.9045
 4948SOL     OW26302   3.482   0.787   8.800 -0.1107  0.0504 -0.4104
 4948SOL    HW126303   3.389   0.781   8.824  0.3713 -2.0742  0.9194
 4948SOL    HW226304   3.482   0.883   8.794  2.2338  0.2309  2.5576
 4949SOL     OW26305   1.135   3.003   5.651  0.0520 -0.6599 -0.1565
 4949SOL    HW126306   1.043   2.988   5.629 -0.1425  1.1090 -0.6101
 4949SOL    HW226307   1.151   2.930   5.710 -2.4885 -0.3768  0.8602
 4950SOL     OW26308   4.282   0.153   8.792 -0.0404 -0.1216  0.1125
 4950SOL    HW126309   4.218   0.122   8.728 -0.7153  2.7089 -0.5964
 4950SOL    HW226310   4.300   0.075   8.844  0.2487 -1.0510 -1.3863
 4951SOL     OW26311   0.348   4.194  16.549 -0.1818  0.3435 -0.1559
 4951SOL    HW126312   0.368   4.158  16.635  1.6641  0.0173 -0.7276
 4951SOL    HW226313   0.415   4.166  16.488 -1.4208 -2.3772 -0.2615
 4952SOL     OW26314   4.473   1.888   3.284  0.3011 -0.0622 -0.2377
 4952SOL    HW126315   4.563   1.914   3.305 -0.5531  1.2174  1.8905
 4952SOL    HW226316   4.442   1.957   3.226 -1.4765  0.0447  0.8451
 4953SOL     OW26317   2.797   1.004   8.557  0.0784 -0.0500  0.8882
 4953SOL    HW126318   2.717   1.046   8.588  0.9732  2.1480  0.2341
 4953SOL    HW226319   2.805   1.057   8.478  0.3681 -2.8608 -0.9658
 4954SOL     OW26320   0.788   0.638   4.430 -0.2962  0.4566  0.6012
 4954SOL    HW126321   0.870   0.675   4.460  0.2584 -0.8691  0.7155
 4954SOL    HW226322   0.747   0.631   4.516  1.3046 -2.1275  1.1374
 4955SOL     OW26323   0.155   4.631   5.693 -0.0193  0.1426  0.5841
 4955SOL    HW126324   0.099   4.626   5.616  0.1088  1.5813  0.3988
 4955SOL    HW226325   0.139   4.720   5.724  0.2076 -0.1216  1.4463
 4956SOL     OW26326   1.071   1.230   0.950  0.3683  0.4805  0.4468
 4956SOL    HW126327   1.076   1.313   0.904  2.2602  0.4421  0.5883
 4956SOL    HW226328   1.118   1.244   1.032  0.3959 -2.4450  0.9496
 4957SOL     OW26329   1.043   0.018   4.485  0.0596 -0.1847  0.1404
 4957SOL    HW126330   1.034   0.095   4.542  0.4686  0.9504 -1.3190
 4957SOL    HW226331   0.952   4.716   4.491 -0.1108  0.8656  2.6852
 4958SOL     OW26332   1.626   3.202   6.839 -0.1855 -0.2453 -0.0913
 4958SOL    HW126333   1.593   3.195   6.749 -1.4662 -0.1905  0.3875
 4958SOL    HW226334   1.667   3.288   6.834  0.2914 -0.3772  1.5480
 4959SOL     OW26335   3.039   4.334   7.362  0.2015 -0.5995 -0.0591
 4959SOL    HW126336   3.109   4.400   7.360 -0.8018  0.4123 -1.2559
 4959SOL    HW226337   2.993   4.344   7.446 -0.5825 -0.8151 -0.4722
 4960SOL     OW26338   3.127   3.385   2.944 -0.1581  0.0552  0.1821
 4960SOL    HW126339   3.095   3.298   2.919  1.9460 -0.7237  0.1856
 4960SOL    HW226340   3.214   3.377   2.904 -1.0784 -0.2442 -1.7955
 4961SOL     OW26341   0.503   1.189   0.693  0.8007  0.3629  0.5836
 4961SOL    HW126342   0.581   1.201   0.747 -0.1136 -2.4230  2.4617
 4961SOL    HW226343   0.494   1.274   0.649  1.6239  0.7037  1.0709
 4962SOL     OW26344   1.341   2.117   4.602  0.1567  0.3010  0.0552
 4962SOL    HW126345   1.327   2.025   4.580 -3.3507  1.2659 -1.6548
 4962SOL    HW226346   1.299   2.114   4.688  1.0354 -0.7421  0.4552
 4963SOL     OW26347   1.037   0.498   8.171 -0.5498 -0.1405  0.4953
 4963SOL    HW126348   0.988   0.488   8.089  1.3056 -0.9884 -0.5169
 4963SOL    HW226349   0.997   0.443   8.238  0.9998 -2.8006 -0.7416
 4964SOL     OW26350   3.554   3.706  13.084 -0.3758 -0.5383 -0.1217
 4964SOL    HW126351   3.562   3.787  13.133 -0.5785  0.0350 -1.0300
 4964SOL    HW226352   3.619   3.659  13.135 -0.1751  1.0070  1.0381
 4965SOL     OW26353   1.824   4.155   8.502 -0.1051 -0.0860 -1.2250
 4965SOL    HW126354   1.743   4.110   8.522  1.8375 -2.7043  0.7073
 4965SOL    HW226355   1.831   4.105   8.421 -0.8167 -1.3670 -0.4920
 4966SOL     OW26356   4.183   4.596   7.919  0.3594 -0.3503  0.1873
 4966SOL    HW126357   4.116   4.560   7.861 -0.7807  0.8068  0.7808
 4966SOL    HW226358   4.133   4.655   7.975  0.8716 -0.3558  0.6500
 4967SOL     OW26359   3.848   3.536   1.686  0.3854 -0.2056 -0.1336
 4967SOL    HW126360   3.907   3.602   1.724 -0.9808  0.3068  1.1040
 4967SOL    HW226361   3.773   3.567   1.737 -0.3263 -1.9364 -0.1375
 4968SOL     OW26362   3.115   2.738  11.358  0.1836 -0.4940  0.5117
 4968SOL    HW126363   3.071   2.819  11.386 -2.6543 -1.8000 -0.2718
 4968SOL    HW226364   3.083   2.682  11.429 -1.9624  0.6427  0.4591
 4969SOL     OW26365   0.739   0.484   6.848 -0.3784  0.0251  0.6533
 4969SOL    HW126366   0.729   0.467   6.941 -0.5111 -4.7216 -0.2353
 4969SOL    HW226367   0.670   0.548   6.832 -0.8758 -0.5878  0.3462
 4970SOL     OW26368   2.489   2.916   0.934  0.0310 -0.1769  0.6076
 4970SOL    HW126369   2.525   2.855   0.999 -1.5105 -0.3667  1.2903
 4970SOL    HW226370   2.463   2.987   0.993  2.3485  0.8763  0.3881
 4971SOL     OW26371   1.742   0.892   7.224 -0.0260  0.3270 -0.3596
 4971SOL    HW126372   1.817   0.882   7.283  0.4194  1.2853 -0.7753
 4971SOL    HW226373   1.734   0.987   7.223 -2.7813  0.0887 -2.6273
 4972SOL     OW26374   2.643   3.153   8.610 -0.4600  0.6383 -0.4061
 4972SOL    HW126375   2.711   3.197   8.559  1.2742 -2.9014 -1.1925
 4972SOL    HW226376   2.649   3.207   8.689 -0.6730 -1.1675  0.8405
 4973SOL     OW26377   2.295   0.831   8.257  0.5478  0.8155  0.3390
 4973SOL    HW126378   2.367   0.875   8.302  0.5736  0.8514  0.2621
 4973SOL    HW226379   2.222   0.844   8.317  0.5353  2.5878 -0.0720
 4974SOL     OW26380   1.942   3.832   3.312 -0.0887  0.4366 -0.2602
 4974SOL    HW126381   1.912   3.915   3.351  1.6860  1.1387 -0.3864
 4974SOL    HW226382   1.868   3.811   3.256 -0.0629 -2.0665  0.6472
 4975SOL     OW26383   1.712   4.581   2.405 -0.4278 -0.0361  0.1192
 4975SOL    HW126384   1.629   4.582   2.358 -0.8092  2.4382  0.8162
 4975SOL    HW226385   1.699   4.505   2.461  0.1603 -0.9185 -0.9563
 4976SOL     OW26386   1.741   1.022   4.332 -0.7430  0.1110 -0.0223
 4976SOL    HW126387   1.793   1.066   4.399  0.9863 -2.1059  0.0678
 4976SOL    HW226388   1.668   0.985   4.382 -1.1067  0.7146 -0.1031
 4977SOL     OW26389   1.775   0.369   4.774 -0.5498 -0.4713  0.2989
 4977SOL    HW126390   1.785   0.464   4.765  0.8893 -0.7496 -1.1173
 4977SOL    HW226391   1.681   0.356   4.787 -0.5134  0.7681  1.7789
 4978SOL     OW26392   1.099   2.476  16.299 -0.8108  0.0930  0.0041
 4978SOL    HW126393   1.080   2.500  16.390  0.4813  2.0551 -0.2372
 4978SOL    HW226394   1.095   2.381  16.292  1.0377 -0.0551  0.7486
 4979SOL     OW26395   4.542   1.977   4.949  0.5201  0.0913  0.0745
 4979SOL    HW126396   4.522   1.917   5.021 -2.8198  0.5463 -0.4448
 4979SOL    HW226397   4.629   2.006   4.975  1.7154 -2.7008 -0.8291
 4980SOL     OW26398   0.024   3.917   6.527 -0.4005  0.0056  0.0718
 4980SOL    HW126399   0.083   3.940   6.455  0.8082 -0.3307  0.9453
 4980SOL    HW226400   4.669   3.952   6.489 -0.3036  1.4149  1.1763
 4981SOL     OW26401   3.367   3.741   1.317  0.0272  0.1086 -0.1584
 4981SOL    HW126402   3.450   3.716   1.358  0.9885 -0.3689 -2.4025
 4981SOL    HW226403   3.373   3.708   1.227  3.1411  0.8692 -0.1974
 4982SOL     OW26404   3.882   3.106   2.828 -0.1021 -0.2121 -0.1235
 4982SOL    HW126405   3.797   3.064   2.844 -1.6464  2.5777 -0.8855
 4982SOL    HW226406   3.860   3.187   2.875  1.4314  0.2983 -0.2871
 4983SOL     OW26407   0.180   4.395  17.421 -0.2280  0.5942  0.0753
 4983SOL    HW126408   0.272   4.422  17.427  0.3130 -1.2280  0.0123
 4983SOL    HW226409   0.149   4.485  17.429 -1.6228  0.0516  0.7219
 4984SOL     OW26410   3.450   1.844   5.995 -0.5619  0.4841  0.2970
 4984SOL    HW126411   3.517   1.787   5.958  0.3513  2.5415 -1.2300
 4984SOL    HW226412   3.364   1.801   5.991 -0.7109  0.8333 -0.2113
 4985SOL     OW26413   1.414   4.601   1.158  0.5537 -0.0178  0.3961
 4985SOL    HW126414   1.501   4.588   1.197  1.3964 -0.9634 -1.8006
 4985SOL    HW226415   1.428   4.538   1.088 -3.3880  1.8122 -1.9879
 4986SOL     OW26416   0.402   1.308   9.205 -0.0210 -0.0239 -0.7050
 4986SOL    HW126417   0.446   1.272   9.282  1.0975 -0.2325 -1.4392
 4986SOL    HW226418   0.479   1.332   9.153 -0.7089  0.2222 -1.6202
 4987SOL     OW26419   1.585   0.046   2.738 -0.3379  0.0022  0.0209
 4987SOL    HW126420   1.523   4.716   2.787 -0.8436 -0.7159 -1.4345
 4987SOL    HW226421   1.667   0.013   2.775 -0.2356  0.3461  0.0955
 4988SOL     OW26422   2.117   0.739  16.582 -0.1497 -0.1831  0.2644
 4988SOL    HW126423   2.208   0.745  16.610 -0.8101  0.2559  2.3106
 4988SOL    HW226424   2.126   0.643  16.581 -1.1620 -0.2746 -0.3460
 4989SOL     OW26425   2.094   1.493  16.136 -0.7029  0.3156 -0.3955
 4989SOL    HW126426   2.005   1.480  16.169 -0.4940 -1.6532 -0.5791
 4989SOL    HW226427   2.099   1.415  16.081  1.3394  0.8673 -1.0096
 4990SOL     OW26428   2.647   3.206  14.945 -0.2091  0.1661  0.2213
 4990SOL    HW126429   2.730   3.207  14.898  0.5260  1.1542  1.5709
 4990SOL    HW226430   2.650   3.287  14.995 -0.8183  0.9561 -1.0345
 4991SOL     OW26431   0.264   1.469   7.759 -0.1803  0.1755 -0.2437
 4991SOL    HW126432   0.193   1.450   7.820  0.4170  0.3210  0.4920
 4991SOL    HW226433   0.325   1.396   7.772 -1.2247 -0.5486  0.5569
 4992SOL     OW26434   4.003   1.959   3.625 -0.2832 -0.0594  0.2107
 4992SOL    HW126435   3.984   1.886   3.684  0.0353  0.7709  1.3396
 4992SOL    HW226436   4.078   1.926   3.576 -1.7658 -0.4851 -1.8214
 4993SOL     OW26437   2.846   0.230   4.183  0.0580 -0.1736  0.3301
 4993SOL    HW126438   2.888   0.181   4.254  2.1340  0.3581 -0.5357
 4993SOL    HW226439   2.839   0.152   4.126  1.0581  0.2027 -0.3195
 4994SOL     OW26440   1.814   2.598   2.654  0.3792  0.0761  0.1557
 4994SOL    HW126441   1.864   2.572   2.730 -1.1163  0.4811  1.2814
 4994SOL    HW226442   1.725   2.588   2.688 -1.2903  0.4967 -4.0304
 4995SOL     OW26443   3.689   1.181   5.723 -0.3985  0.3813  0.3611
 4995SOL    HW126444   3.749   1.255   5.735  1.2024 -0.6528 -1.2736
 4995SOL    HW226445   3.724   1.138   5.646 -3.2894  0.9016 -1.2624
 4996SOL     OW26446   4.044   2.022   7.520  0.0570 -0.2305  0.4565
 4996SOL    HW126447   3.965   2.077   7.516  0.6364  0.5899  0.2426
 4996SOL    HW226448   4.088   2.044   7.438  1.7977 -0.8254  1.2425
 4997SOL     OW26449   4.548   1.907   3.710 -0.1289 -0.4563 -0.1288
 4997SOL    HW126450   4.516   1.978   3.654  0.8629 -2.2618 -2.9763
 4997SOL    HW226451   4.639   1.926   3.688 -0.3428 -1.0295 -1.4979
 4998SOL     OW26452   2.342   0.947   3.688 -0.4612  0.0319 -0.4900
 4998SOL    HW126453   2.413   1.011   3.681 -2.1253  2.0113  0.7455
 4998SOL    HW226454   2.385   0.880   3.635 -0.4415 -2.2381  2.3460
 4999SOL     OW26455   0.903   1.396  10.333 -0.0247  0.6128 -0.3003
 4999SOL    HW126456   0.912   1.343  10.412 -0.8774 -0.6625 -1.0466
 4999SOL    HW226457   0.912   1.486  10.363  1.1466  0.6424 -0.7245
 5000SOL     OW26458   1.998   3.730  16.914  0.3739  0.7190 -0.3001
 5000SOL    HW126459   2.067   3.691  16.861  0.3886 -0.0858  0.3060
 5000SOL    HW226460   1.991   3.818  16.876 -1.9048  0.6962  0.0650
 5001SOL     OW26461   2.924   2.552   8.422 -0.2740  0.0986 -0.5444
 5001SOL    HW126462   2.836   2.576   8.451  1.2191  3.5972  1.1103
 5001SOL    HW226463   2.908   2.571   8.330 -0.2580  0.9887 -0.3673
 5002SOL     OW26464   2.682   1.848   4.201  0.2702 -0.1866  0.0922
 5002SOL    HW126465   2.722   1.874   4.119  1.9122  0.0825  0.9730
 5002SOL    HW226466   2.601   1.899   4.205  0.1021 -0.6076  2.0384
 5003SOL     OW26467   2.273   4.100  11.902  0.1715  0.6975  0.0163
 5003SOL    HW126468   2.315   4.094  11.988  2.0799 -0.9113 -1.0427
 5003SOL    HW226469   2.319   4.176  11.867  1.0316  0.0789 -0.1809
 5004SOL     OW26470   2.892   2.249   8.418 -0.6861  0.0261  0.1092
 5004SOL    HW126471   2.874   2.213   8.504  1.2587  0.8463  0.8808
 5004SOL    HW226472   2.897   2.343   8.436 -2.7159  0.1125  0.1499
 5005SOL     OW26473   2.676   2.213   8.188 -0.8156 -0.2382  0.2124
 5005SOL    HW126474   2.661   2.119   8.196  1.3650 -0.5773  0.3020
 5005SOL    HW226475   2.635   2.254   8.264  0.3868  0.0992  0.6736
 5006SOL     OW26476   1.743   4.566   0.620  0.2602  0.1610 -0.3930
 5006SOL    HW126477   1.649   4.564   0.600  0.6194 -0.6712 -2.0130
 5006SOL    HW226478   1.753   4.661   0.607  1.8514  0.1572  0.8329
 5007SOL     OW26479   3.360   0.403   7.178 -0.3375 -0.2159  0.0768
 5007SOL    HW126480   3.408   0.320   7.173  0.4541  0.1329  1.8893
 5007SOL    HW226481   3.387   0.458   7.104 -0.4296 -0.0014  0.2026
 5008SOL     OW26482   1.795   1.658   6.335 -0.9156  1.6820  0.0357
 5008SOL    HW126483   1.793   1.637   6.242 -0.8107 -1.0405  0.6531
 5008SOL    HW226484   1.869   1.606   6.366 -0.6301  1.1035 -1.6457
 5009SOL     OW26485   3.175   2.117   4.759  0.4902 -0.2846  0.5729
 5009SOL    HW126486   3.212   2.197   4.722  0.1900 -0.6837 -0.6091
 5009SOL    HW226487   3.180   2.063   4.680  0.9180 -0.2013  0.5448
 5010SOL     OW26488   1.354   1.105   5.794  0.6418 -0.0104  0.2549
 5010SOL    HW126489   1.323   1.133   5.708  1.7555  0.5007  0.0223
 5010SOL    HW226490   1.269   1.068   5.816  0.2570  0.3734 -0.6040
 5011SOL     OW26491   0.661   0.818   7.404  0.4052 -0.5293  0.0551
 5011SOL    HW126492   0.647   0.761   7.328 -2.2461  0.1530  0.0269
 5011SOL    HW226493   0.576   0.863   7.407  1.0895  0.6932  0.7838
 5012SOL     OW26494   0.549   3.510   7.650 -0.8363  0.1379  0.6066
 5012SOL    HW126495   0.578   3.419   7.653  1.3759  0.8103  0.1849
 5012SOL    HW226496   0.628   3.557   7.621 -1.3788 -1.6999 -3.7174
 5013SOL     OW26497   4.157   2.477   9.836 -0.1680  0.3769 -0.2305
 5013SOL    HW126498   4.170   2.503   9.927 -1.8981  2.0637 -0.4726
 5013SOL    HW226499   4.251   2.467   9.820 -0.0904 -0.8583  1.0591
 5014SOL     OW26500   2.813   0.796   3.783  0.1844 -0.5759  0.2588
 5014SOL    HW126501   2.806   0.781   3.688 -2.3963  0.0085  0.3354
 5014SOL    HW226502   2.857   0.880   3.773  0.4061 -1.1650 -3.7437
 5015SOL     OW26503   1.738   0.183   4.554  0.2023  0.2480 -0.2807
 5015SOL    HW126504   1.722   0.107   4.610  1.2231  0.6874  0.6115
 5015SOL    HW226505   1.773   0.251   4.612  3.2428 -2.0439  0.6091
 5016SOL     OW26506   3.841   1.675  11.970 -0.2118  0.1220  0.1989
 5016SOL    HW126507   3.773   1.714  12.024 -0.1989  2.0173 -1.1750
 5016SOL    HW226508   3.909   1.684  12.037  0.5453  1.8366 -0.7947
 5017SOL     OW26509   3.305   1.445   8.867  0.6769 -0.5134  0.2825
 5017SOL    HW126510   3.394   1.410   8.870  0.6263 -0.7032 -0.4575
 5017SOL    HW226511   3.322   1.538   8.885 -3.3265 -0.0252  1.6071
 5018SOL     OW26512   1.853   3.592   7.691 -0.1511 -0.0090 -0.3181
 5018SOL    HW126513   1.797   3.556   7.759 -0.2098 -0.2385 -0.4907
 5018SOL    HW226514   1.793   3.605   7.618 -1.4228  0.4990  0.8155
 5019SOL     OW26515   4.185   0.221  11.611  0.1168 -0.5907  0.3413
 5019SOL    HW126516   4.250   0.150  11.617  0.3838 -0.3659  0.1025
 5019SOL    HW226517   4.188   0.256  11.700 -1.7674  0.3334  0.0386
 5020SOL     OW26518   2.450   4.597   2.117 -0.3959  0.1745  0.3530
 5020SOL    HW126519   2.543   4.616   2.131 -0.4500 -1.9226  3.4101
 5020SOL    HW226520   2.459   4.502   2.121  2.6357  0.4426 -0.3661
 5021SOL     OW26521   2.964   2.065   9.779 -0.5166  0.2204 -0.6289
 5021SOL    HW126522   2.883   2.026   9.746 -1.1888  0.3921  0.8179
 5021SOL    HW226523   2.934   2.088   9.867 -2.5952 -2.9306 -0.5109
 5022SOL     OW26524   0.768   4.070   3.511  0.5251 -0.5300  0.0768
 5022SOL    HW126525   0.810   4.059   3.425 -0.1155  1.0581 -0.4380
 5022SOL    HW226526   0.844   4.067   3.568 -0.5576 -0.8811  1.4884
 5023SOL     OW26527   0.274   3.803  10.100 -0.5128  0.1752  0.7228
 5023SOL    HW126528   0.348   3.754  10.135  1.5790  3.6799  1.2605
 5023SOL    HW226529   0.209   3.819  10.168 -1.1017  0.2793  0.1389
 5024SOL     OW26530   3.399   0.747   6.013  0.0469  0.2727 -0.0061
 5024SOL    HW126531   3.306   0.738   5.994  0.3029 -0.9769 -0.7060
 5024SOL    HW226532   3.413   0.811   5.943  0.0695 -2.2857 -2.3567
 5025SOL     OW26533   2.780   3.636  17.602 -0.1454  0.1532  0.1275
 5025SOL    HW126534   2.704   3.578  17.596 -1.9398  2.4394  0.5585
 5025SOL    HW226535   2.795   3.638  17.697 -0.4762 -3.0785  0.2477
 5026SOL     OW26536   2.862   0.245   5.727  1.0111 -0.1813 -0.4293
 5026SOL    HW126537   2.853   0.217   5.636 -0.9664  2.3134 -0.9934
 5026SOL    HW226538   2.948   0.287   5.720  0.4671  0.9926 -0.1464
 5027SOL     OW26539   3.092   0.697   7.130 -0.0307 -0.3388 -0.1568
 5027SOL    HW126540   3.146   0.729   7.058  2.6268 -1.6479  1.2631
 5027SOL    HW226541   3.144   0.710   7.209  1.0264 -0.8393 -0.7789
 5028SOL     OW26542   3.888   3.649   6.934  0.2702 -0.4834  0.0766
 5028SOL    HW126543   3.798   3.669   6.959  0.5192  1.2002 -0.4240
 5028SOL    HW226544   3.928   3.703   7.002 -1.7107  0.0298  0.8431
 5029SOL     OW26545   2.564   1.175   8.590  0.2579 -0.3565 -0.5271
 5029SOL    HW126546   2.550   1.225   8.671 -3.4805 -0.9286 -0.8250
 5029SOL    HW226547   2.516   1.227   8.526 -0.5936 -0.1633  0.2679
 5030SOL     OW26548   3.572   4.377   1.484  0.3317 -0.2254  0.1144
 5030SOL    HW126549   3.582   4.456   1.430 -3.0597  0.2755  0.2272
 5030SOL    HW226550   3.579   4.312   1.413 -2.5663  1.6276 -1.8855
 5031SOL     OW26551   1.625   1.490  15.129 -0.2609  0.0897 -0.3899
 5031SOL    HW126552   1.692   1.551  15.099  0.1122 -0.8178 -1.3800
 5031SOL    HW226553   1.553   1.509  15.069 -0.3099  2.4771  0.4093
 5032SOL     OW26554   4.634   4.067  16.991 -0.7710  0.8593  0.0049
 5032SOL    HW126555   4.549   4.108  17.005  0.3356  2.3498  2.2966
 5032SOL    HW226556   4.624   4.027  16.904 -1.4216  1.0202  0.0125
 5033SOL     OW26557   3.339   1.133   4.322  0.7076  0.1873  0.2132
 5033SOL    HW126558   3.409   1.195   4.305  0.1759  1.1221  1.3642
 5033SOL    HW226559   3.319   1.099   4.235  2.9142 -0.8098  0.1039
 5034SOL     OW26560   3.555   4.639   6.401  0.0902  0.3930 -0.3388
 5034SOL    HW126561   3.544   4.601   6.489 -0.3780 -2.5201 -1.6634
 5034SOL    HW226562   3.540   0.008   6.409  3.2982  0.7684  1.1221
 5035SOL     OW26563   0.631   0.105   3.921 -0.7585  0.0256  0.1434
 5035SOL    HW126564   0.597   0.034   3.867 -0.7165 -0.2973  0.5417
 5035SOL    HW226565   0.716   0.070   3.949 -0.5245 -0.7449 -1.5616
 5036SOL     OW26566   0.395   2.464   5.462  0.0574 -0.1555  0.0559
 5036SOL    HW126567   0.394   2.449   5.556 -0.7107  1.3303  0.2845
 5036SOL    HW226568   0.323   2.527   5.459  1.2146  1.0651 -2.1311
 5037SOL     OW26569   4.261   3.732   7.241  0.3694  0.6407 -0.2366
 5037SOL    HW126570   4.332   3.791   7.217  2.0143  0.2088  3.4856
 5037SOL    HW226571   4.277   3.714   7.334  2.6279 -0.7370 -0.8966
 5038SOL     OW26572   1.966   3.382   6.707 -0.0509  0.5472 -0.1990
 5038SOL    HW126573   1.889   3.352   6.757  0.2157  0.0224 -0.1053
 5038SOL    HW226574   2.024   3.406   6.779 -1.6653  0.6688  1.0684
 5039SOL     OW26575   4.138   0.790   5.131 -0.5443 -0.3409 -0.4575
 5039SOL    HW126576   4.224   0.814   5.097 -0.1927  0.7599  1.1937
 5039SOL    HW226577   4.111   0.717   5.077 -1.7805  0.5232 -1.0085
 5040SOL     OW26578   0.184   0.426   2.555  0.1520  0.1210 -0.6306
 5040SOL    HW126579   0.208   0.507   2.510  0.1764  1.4574  1.8107
 5040SOL    HW226580   0.241   0.366   2.507  1.5964  1.6856 -0.8830
 5041SOL     OW26581   2.523   2.645  12.261 -0.2095 -0.1419 -0.2636
 5041SOL    HW126582   2.554   2.733  12.282  0.6411 -1.0329  2.2886
 5041SOL    HW226583   2.561   2.593  12.332 -3.5693  0.4332  1.9502
 5042SOL     OW26584   3.680   0.892   6.233 -0.2601 -0.2880  0.0815
 5042SOL    HW126585   3.628   0.965   6.201  0.7124  0.5772  0.4647
 5042SOL    HW226586   3.656   0.886   6.325  2.4534 -0.4123  0.7763
 5043SOL     OW26587   1.835   1.697  15.637  0.4783 -0.2585 -0.3377
 5043SOL    HW126588   1.753   1.691  15.589  0.7413 -0.7630 -0.7286
 5043SOL    HW226589   1.848   1.792  15.637 -2.4022  0.1308 -1.3266
 5044SOL     OW26590   2.322   3.790  10.224 -0.3484 -0.0008 -0.2130
 5044SOL    HW126591   2.392   3.854  10.215 -0.9120  0.1187 -3.8234
 5044SOL    HW226592   2.264   3.809  10.298 -0.3126  3.9336 -1.1826
 5045SOL     OW26593   4.238   0.812   3.363 -0.5530  0.1018  0.3519
 5045SOL    HW126594   4.172   0.750   3.394 -1.1422  0.6640  0.2161
 5045SOL    HW226595   4.271   0.833   3.450  0.9874 -0.0339 -0.1945
 5046SOL     OW26596   0.816   0.743   7.607  0.5453 -0.1910 -0.1023
 5046SOL    HW126597   0.763   0.774   7.534  0.7334  2.9918  1.0943
 5046SOL    HW226598   0.801   0.805   7.678  0.9974 -1.7088  1.3103
 5047SOL     OW26599   4.002   1.606  12.631  0.2774 -0.0614  0.6544
 5047SOL    HW126600   4.007   1.651  12.547  1.0473 -2.0068 -0.3307
 5047SOL    HW226601   3.958   1.529  12.595  2.0856 -0.9858  0.4199
 5048SOL     OW26602   2.710   1.387  14.638  0.3711  0.6947  0.4656
 5048SOL    HW126603   2.644   1.411  14.574 -0.0473 -0.0321  0.6272
 5048SOL    HW226604   2.769   1.462  14.634 -0.6632  1.4719 -0.1939
 5049SOL     OW26605   1.174   4.506   4.528 -0.4320  0.2577 -0.0577
 5049SOL    HW126606   1.128   4.589   4.511  1.0247  1.1676  0.4656
 5049SOL    HW226607   1.113   4.477   4.596  0.2828  1.6183  1.1801
 5050SOL     OW26608   1.871   1.169   7.875 -0.6303  0.0403  0.4835
 5050SOL    HW126609   1.804   1.145   7.811 -0.0792  1.5895 -0.6757
 5050SOL    HW226610   1.942   1.202   7.820 -0.6189  1.0107  1.0769
 5051SOL     OW26611   3.106   2.416   7.884  0.0122  0.2047 -0.0369
 5051SOL    HW126612   3.031   2.475   7.895 -0.8196 -1.1309  1.5065
 5051SOL    HW226613   3.065   2.341   7.840  2.9788 -0.6729 -1.2909
 5052SOL     OW26614   1.178   1.341   9.346 -0.0901 -0.6135 -0.9315
 5052SOL    HW126615   1.082   1.341   9.343 -0.1472 -0.7412  1.0157
 5052SOL    HW226616   1.194   1.322   9.438 -1.5114 -0.4055 -0.6318
 5053SOL     OW26617   3.810   4.480   5.547 -0.4083 -0.1262 -0.3170
 5053SOL    HW126618   3.821   4.388   5.522 -1.6047 -0.5867  0.8364
 5053SOL    HW226619   3.775   4.525   5.470 -0.7217 -1.2625 -0.8412
 5054SOL     OW26620   0.769   4.691   4.466 -0.0687 -0.6318 -0.4339
 5054SOL    HW126621   0.733   0.054   4.465  2.1659  0.2583 -0.7493
 5054SOL    HW226622   0.727   4.649   4.541  0.6698 -0.1245  0.2678
 5055SOL     OW26623   3.337   1.484   4.066  0.0748 -0.9660 -0.3526
 5055SOL    HW126624   3.413   1.446   4.023  0.8803  0.5944 -0.3291
 5055SOL    HW226625   3.287   1.405   4.082  0.7612 -1.4981 -0.8231
 5056SOL     OW26626   1.895   4.448   7.537  0.5324  0.0838  0.0746
 5056SOL    HW126627   1.901   4.363   7.493  1.5631  0.7097 -0.9974
 5056SOL    HW226628   1.898   4.421   7.629  1.1653 -1.3632 -0.3670
 5057SOL     OW26629   3.464   0.886   8.468  0.0256  0.1861  0.1291
 5057SOL    HW126630   3.534   0.884   8.534 -1.8131  2.7646  2.1598
 5057SOL    HW226631   3.467   0.799   8.428 -1.2291 -1.0304  2.6949
 5058SOL     OW26632   0.620   1.019   6.232  0.4899  0.4948 -0.4617
 5058SOL    HW126633   0.528   1.043   6.245  0.3482  0.3361 -1.1693
 5058SOL    HW226634   0.625   0.942   6.289 -0.3687  0.1359 -0.8537
 5059SOL     OW26635   2.050   2.586   4.862  0.6382 -0.0402 -0.0253
 5059SOL    HW126636   2.047   2.679   4.840  0.4013 -0.5532 -2.1715
 5059SOL    HW226637   1.955   2.580   4.862  0.6483 -0.2220  0.4810
 5060SOL     OW26638   3.422   4.652  16.557 -0.0628  0.2026 -0.3832
 5060SOL    HW126639   3.484   4.587  16.591 -1.3753 -0.5612  0.5329
 5060SOL    HW226640   3.487   4.707  16.514  0.3935 -0.5045 -0.6074
 5061SOL     OW26641   4.393   3.713   3.570  0.5388  0.0434  0.2229
 5061SOL    HW126642   4.419   3.685   3.657  0.6965  0.7452  0.4030
 5061SOL    HW226643   4.301   3.687   3.569  0.8170 -0.9897  1.7757
 5062SOL     OW26644   0.979   2.490  10.602  0.2103 -0.8124  0.3330
 5062SOL    HW126645   0.883   2.484  10.594  0.1619  0.0583  0.2486
 5062SOL    HW226646   0.996   2.584  10.610  0.0710 -1.0250  3.0295
 5063SOL     OW26647   0.016   3.122   8.337 -0.3534 -0.3970 -0.1134
 5063SOL    HW126648   0.056   3.037   8.358  2.6772  1.4833  1.7995
 5063SOL    HW226649   0.052   3.146   8.252 -2.9754  0.1109 -1.0791
 5064SOL     OW26650   0.044   4.391   0.523  0.1535 -0.6175 -0.4378
 5064SOL    HW126651   0.131   4.426   0.543 -0.7007  1.9425 -1.0785
 5064SOL    HW226652   0.046   4.416   0.431 -0.7328 -1.5778 -0.7065
 5065SOL     OW26653   4.540   4.698   8.536  0.1059  0.3761  0.2188
 5065SOL    HW126654   4.478   4.643   8.488  0.4907  0.7560 -0.6891
 5065SOL    HW226655   4.598   4.629   8.571  0.1946  0.5993  0.5162
 5066SOL     OW26656   1.917   2.798  16.726 -0.0973  0.1395 -0.0959
 5066SOL    HW126657   1.940   2.727  16.786  1.1300  1.5408  1.0951
 5066SOL    HW226658   2.002   2.804  16.683  0.3050  1.9075  0.9544
 5067SOL     OW26659   4.326   2.281   0.664  0.1261 -0.1278 -0.2173
 5067SOL    HW126660   4.336   2.209   0.601  0.5071  0.0423 -0.3544
 5067SOL    HW226661   4.373   2.355   0.625  1.8262 -0.1326  1.8212
 5068SOL     OW26662   4.248   0.523   0.946  0.2361 -0.7807 -0.1502
 5068SOL    HW126663   4.249   0.520   0.851  0.8568  0.6541 -0.1935
 5068SOL    HW226664   4.240   0.616   0.968  1.0536 -1.0637  1.3669
 5069SOL     OW26665   0.533   0.519   4.925 -0.1572 -0.4852 -0.4522
 5069SOL    HW126666   0.469   0.465   4.970  1.1101  0.4236  2.4182
 5069SOL    HW226667   0.505   0.508   4.834  0.2909 -2.5454 -0.3350
 5070SOL     OW26668   0.934   1.195   8.675  0.8074 -0.3608  0.0627
 5070SOL    HW126669   0.959   1.119   8.622  0.0966 -0.0408 -0.7363
 5070SOL    HW226670   1.002   1.195   8.742  0.7712 -0.5272  0.1010
 5071SOL     OW26671   2.758   1.632   8.582  0.3411  0.1347 -0.0218
 5071SOL    HW126672   2.815   1.598   8.650  1.1679  2.3755  0.3958
 5071SOL    HW226673   2.793   1.589   8.504  0.4250 -2.1288  1.2574
 5072SOL     OW26674   3.790   1.608   7.212  0.6078 -0.2090 -0.1387
 5072SOL    HW126675   3.761   1.517   7.216  0.5969 -0.3923 -3.8087
 5072SOL    HW226676   3.735   1.625   7.135 -0.1290 -0.7640  0.2603
 5073SOL     OW26677   4.286   4.250   0.701  0.2785  0.3228 -0.3151
 5073SOL    HW126678   4.202   4.284   0.732  0.7538 -0.5866  1.9582
 5073SOL    HW226679   4.281   4.160   0.733  1.0964  0.4142  0.0648
 5074SOL     OW26680   4.541   3.690   7.413  0.3743 -0.6521 -0.2727
 5074SOL    HW126681   4.625   3.657   7.447  2.2506  2.8469 -1.4674
 5074SOL    HW226682   4.576   3.706   7.325 -0.4131  0.7485 -0.3142
 5075SOL     OW26683   2.816   0.528   7.597 -0.2285 -0.0381  0.5472
 5075SOL    HW126684   2.888   0.469   7.619  0.4706  0.5436 -0.1953
 5075SOL    HW226685   2.843   0.601   7.653 -0.1697  1.1648 -1.0653
 5076SOL     OW26686   1.925   1.219   9.389  0.5879  0.1778 -0.4079
 5076SOL    HW126687   1.904   1.310   9.406  0.4361 -0.0389  0.5813
 5076SOL    HW226688   1.939   1.226   9.295  0.1066  0.1068 -0.4851
 5077SOL     OW26689   0.723   2.788   9.680 -0.8235 -0.2201  0.8736
 5077SOL    HW126690   0.714   2.870   9.633 -0.7567 -0.1774  0.9352
 5077SOL    HW226691   0.813   2.794   9.712 -0.1253  0.0466 -1.1149
 5078SOL     OW26692   4.135   3.282   4.619 -0.6625 -0.6802  0.2675
 5078SOL    HW126693   4.135   3.330   4.536 -3.0842  0.2543  0.7963
 5078SOL    HW226694   4.181   3.202   4.595 -0.1399 -0.5564  0.8718
 5079SOL     OW26695   2.068   1.665   9.434  0.1853 -0.0673 -0.3340
 5079SOL    HW126696   2.007   1.595   9.411 -1.6763  1.3223  0.3979
 5079SOL    HW226697   2.062   1.729   9.362 -0.0369 -1.0844 -1.2169
 5080SOL     OW26698   3.694   2.584   4.036 -0.5151  0.7209  0.3426
 5080SOL    HW126699   3.672   2.494   4.012 -2.5399  0.9334  1.4248
 5080SOL    HW226700   3.779   2.575   4.078 -0.5398  0.0443  0.2369
 5081SOL     OW26701   3.460   4.226  14.377  0.4500 -0.0995 -0.0801
 5081SOL    HW126702   3.484   4.218  14.284 -1.4268 -2.1103 -0.3902
 5081SOL    HW226703   3.425   4.315  14.369  0.9408  0.2327  1.6537
 5082SOL     OW26704   3.988   4.503   1.462  0.2066 -0.2214 -0.0771
 5082SOL    HW126705   3.973   4.409   1.466 -0.4172 -0.1306 -0.3467
 5082SOL    HW226706   4.011   4.516   1.555  0.7801 -0.2211 -0.2178
 5083SOL     OW26707   0.596   0.177   4.442  0.1959 -0.1290 -0.0174
 5083SOL    HW126708   0.673   0.232   4.431  0.5650 -0.8645 -1.0904
 5083SOL    HW226709   0.545   0.209   4.367 -0.2675 -3.2890 -1.0460
 5084SOL     OW26710   2.470   1.125   7.854 -0.1379 -0.8329  0.1446
 5084SOL    HW126711   2.482   1.061   7.783 -0.8800  1.6536 -2.2225
 5084SOL    HW226712   2.417   1.070   7.911  0.5101 -0.7980  0.7836
 5085SOL     OW26713   0.539   0.153   8.072 -0.5773  0.2589 -0.3217
 5085SOL    HW126714   0.559   0.097   7.997 -0.1563  2.3995 -1.8210
 5085SOL    HW226715   0.468   0.113   8.122 -0.3103 -0.4445 -0.5034
 5086SOL     OW26716   2.107   0.418  13.593 -0.1070 -0.2070 -0.0312
 5086SOL    HW126717   2.139   0.347  13.648  1.0437  0.9450  0.7818
 5086SOL    HW226718   2.047   0.476  13.640  1.0147  1.0850 -0.1803
 5087SOL     OW26719   3.735   1.746   9.265  0.5099 -1.0427  0.3791
 5087SOL    HW126720   3.786   1.813   9.311 -1.6740 -0.2762  1.6553
 5087SOL    HW226721   3.733   1.682   9.336 -0.1745 -1.7637 -0.2894
 5088SOL     OW26722   1.616   2.989   8.346 -0.6092  0.4671 -0.7100
 5088SOL    HW126723   1.563   2.994   8.426  0.9807  1.5543  0.2745
 5088SOL    HW226724   1.663   2.907   8.359 -1.9785 -0.2031 -0.0054
 5089SOL     OW26725   0.500   0.967   7.935  0.5197 -0.2664 -0.0838
 5089SOL    HW126726   0.549   0.961   8.017 -0.1729  1.2012  0.4585
 5089SOL    HW226727   0.543   0.893   7.894 -2.1083 -2.4571  1.1230
 5090SOL     OW26728   3.691   1.540   6.947 -0.0641  0.6145  0.0206
 5090SOL    HW126729   3.668   1.487   6.871 -2.9253  2.9611 -0.7157
 5090SOL    HW226730   3.714   1.624   6.908  1.4781  0.0988 -0.2187
 5091SOL     OW26731   0.731   3.830   4.001 -0.4085  0.1683  0.3495
 5091SOL    HW126732   0.704   3.777   3.926  2.5230  0.9550 -1.2487
 5091SOL    HW226733   0.686   3.913   3.980  0.5252  0.6874  0.4125
 5092SOL     OW26734   1.673   2.458  17.566  0.0531 -0.2962  0.0028
 5092SOL    HW126735   1.767   2.451  17.550  0.4628  0.1807  2.1747
 5092SOL    HW226736   1.641   2.513  17.495 -2.2114 -0.6595  0.7473
 5093SOL     OW26737   1.186   0.092   4.878 -0.0681  0.3032 -0.0574
 5093SOL    HW126738   1.227   0.017   4.836 -0.6046  0.8162 -1.5118
 5093SOL    HW226739   1.265   0.126   4.920 -0.8545  1.1326  0.7478
 5094SOL     OW26740   0.430   4.503  17.439 -0.4670 -0.1278 -0.5180
 5094SOL    HW126741   0.450   4.557  17.515  0.0968 -0.7104 -0.2558
 5094SOL    HW226742   0.457   4.568  17.374  0.4094 -1.3893 -1.4301
 5095SOL     OW26743   0.696   1.920  13.401 -0.3250  0.0735  0.0575
 5095SOL    HW126744   0.678   1.945  13.310 -0.4523 -1.0923 -0.2319
 5095SOL    HW226745   0.774   1.974  13.413 -0.7096  1.0494 -1.8097
 5096SOL     OW26746   0.727   4.077   4.182  0.3928 -0.3442  0.9590
 5096SOL    HW126747   0.721   4.123   4.265 -0.0493  1.7965 -0.2474
 5096SOL    HW226748   0.796   4.015   4.205 -0.5289 -1.3876  0.9206
 5097SOL     OW26749   3.473   3.597   5.429 -0.1013 -0.0902  0.5604
 5097SOL    HW126750   3.411   3.527   5.409  0.7864 -1.0971  1.3405
 5097SOL    HW226751   3.498   3.581   5.520  0.4148 -1.0915  0.2452
 5098SOL     OW26752   4.184   4.659  11.123 -0.3345  0.4847  0.0058
 5098SOL    HW126753   4.267   4.612  11.124  0.1542  1.3714  1.2762
 5098SOL    HW226754   4.215   0.022  11.105 -0.4475  0.4735 -0.2434
 5099SOL     OW26755   1.544   1.569   5.033 -0.1565 -0.5428  0.1061
 5099SOL    HW126756   1.637   1.554   5.013 -0.3479 -1.8285  0.1839
 5099SOL    HW226757   1.529   1.508   5.106  0.5414 -0.6736  0.1402
 5100SOL     OW26758   0.582   1.664  14.612  0.1304  0.9626 -0.8720
 5100SOL    HW126759   0.585   1.570  14.630  1.5163  0.7466 -2.2189
 5100SOL    HW226760   0.672   1.689  14.591  1.3115 -2.2620  0.3310
 5101SOL     OW26761   3.857   2.020   8.387 -0.2899  0.6494  0.1367
 5101SOL    HW126762   3.829   2.037   8.477  0.3721 -1.0365  0.6739
 5101SOL    HW226763   3.921   1.950   8.403 -1.0865 -0.5866 -2.0627
 5102SOL     OW26764   1.983   3.298   1.392  0.4554 -0.0893  0.5021
 5102SOL    HW126765   1.949   3.265   1.475  3.0990  0.9738  1.9940
 5102SOL    HW226766   2.077   3.302   1.406  0.4419  1.0888  0.2480
 5103SOL     OW26767   2.663   2.791   5.081 -0.1197 -0.0977 -0.0078
 5103SOL    HW126768   2.743   2.830   5.118 -0.6872  1.9164 -0.9258
 5103SOL    HW226769   2.709   2.733   5.021  0.5422  1.6424 -1.1768
 5104SOL     OW26770   3.368   3.307  11.572  0.2567  0.0461 -0.2522
 5104SOL    HW126771   3.455   3.341  11.593 -0.2609  1.4336 -0.3742
 5104SOL    HW226772   3.347   3.375  11.508  1.5531  0.6510 -0.0290
 5105SOL     OW26773   2.971   2.091   2.413  0.2235  0.1176  0.7464
 5105SOL    HW126774   2.912   2.017   2.398  1.2602 -0.6249  0.3463
 5105SOL    HW226775   3.024   2.064   2.488 -0.8300  0.3676  1.5976
 5106SOL     OW26776   0.948   4.335   2.855 -0.1111 -0.2438  0.5376
 5106SOL    HW126777   1.041   4.340   2.877  0.1671 -0.5385 -0.6121
 5106SOL    HW226778   0.927   4.312   2.946 -0.4339 -0.0635  0.5096
 5107SOL     OW26779   2.834   4.304   2.304 -0.2436  0.0902 -0.2049
 5107SOL    HW126780   2.776   4.272   2.373  0.2278  0.2742  0.2728
 5107SOL    HW226781   2.919   4.286   2.343 -0.2089  0.9503  0.1290
 5108SOL     OW26782   1.148   1.894   3.675  0.1096  1.0046 -0.3968
 5108SOL    HW126783   1.180   1.921   3.761  0.0656 -3.1162  0.8997
 5108SOL    HW226784   1.222   1.917   3.619  0.4362  0.0974 -0.3406
 5109SOL     OW26785   2.265   1.189   4.163 -0.0857 -0.3976  0.0848
 5109SOL    HW126786   2.328   1.126   4.199  1.1052  1.5358  1.3791
 5109SOL    HW226787   2.314   1.271   4.171 -3.3873  1.3165  2.5784
 5110SOL     OW26788   0.985   2.106   8.688  0.1046  0.2073  0.1595
 5110SOL    HW126789   0.964   2.031   8.632  2.0469 -1.1977  1.3246
 5110SOL    HW226790   1.014   2.067   8.771 -0.4154  1.4207  0.9016
 5111SOL     OW26791   2.043   2.206   9.019  0.0425 -0.1095 -0.1246
 5111SOL    HW126792   1.972   2.202   9.082  0.5592  1.5351  0.5751
 5111SOL    HW226793   2.005   2.154   8.948  0.7084 -4.1418  2.4838
 5112SOL     OW26794   3.901   3.935  17.080 -0.1850  0.8909  0.0378
 5112SOL    HW126795   3.953   4.008  17.046  0.1937  2.0155  2.9985
 5112SOL    HW226796   3.885   3.877  17.006  1.0337  0.2511  0.2576
 5113SOL     OW26797   1.316   1.316  13.541 -0.0123 -0.0597  0.2887
 5113SOL    HW126798   1.409   1.335  13.523 -0.7848  1.4802 -2.0382
 5113SOL    HW226799   1.308   1.383  13.608  2.2098 -0.2671  0.7802
 5114SOL     OW26800   4.452   3.645   3.843 -0.1095  0.3453 -0.3970
 5114SOL    HW126801   4.525   3.707   3.844 -0.1883  0.4652 -1.5784
 5114SOL    HW226802   4.401   3.665   3.922 -1.4160 -4.8515  0.0702
 5115SOL     OW26803   0.459   1.138  13.679  0.5433 -0.1489  0.6440
 5115SOL    HW126804   0.434   1.230  13.680 -1.9997 -0.8448  0.5282
 5115SOL    HW226805   0.493   1.132  13.769 -0.0597  0.6334  0.9243
 5116SOL     OW26806   1.962   2.271   0.406 -0.0892 -0.4538  0.3390
 5116SOL    HW126807   2.027   2.205   0.382  1.8056  1.5037  0.1033
 5116SOL    HW226808   2.019   2.348   0.408  1.3759 -1.5546  0.1525
 5117SOL     OW26809   1.276   2.970   3.910  0.0983 -0.2631 -0.2785
 5117SOL    HW126810   1.303   3.017   3.831  0.3992 -1.9516 -1.1961
 5117SOL    HW226811   1.326   2.888   3.904  0.1907 -0.2443  0.3005
 5118SOL     OW26812   1.992   4.025   4.085 -0.0573 -0.0667 -0.1265
 5118SOL    HW126813   1.912   3.984   4.052 -0.8217 -0.3593  2.1008
 5118SOL    HW226814   1.979   4.015   4.179  0.8050  3.3609  0.3384
 5119SOL     OW26815   0.345   0.417   5.160  0.3196 -0.0488  0.7701
 5119SOL    HW126816   0.295   0.477   5.216  3.3940  4.0936 -1.0209
 5119SOL    HW226817   0.418   0.388   5.215 -0.0084 -1.7195  0.3269
 5120SOL     OW26818   0.165   0.851  12.384 -0.2255 -0.3685 -0.5826
 5120SOL    HW126819   0.155   0.940  12.417  4.9999  0.0080 -0.0281
 5120SOL    HW226820   0.158   0.863  12.289  0.2429  1.7622 -0.3532
 5121SOL     OW26821   3.628   4.444   3.351  0.3759  0.9632  0.0991
 5121SOL    HW126822   3.651   4.368   3.297 -1.9871  0.5622 -0.3429
 5121SOL    HW226823   3.698   4.438   3.416  1.1242 -1.7079 -0.9368
 5122SOL     OW26824   1.521   4.597   7.880  0.6271  0.7435  0.4060
 5122SOL    HW126825   1.493   4.671   7.826  1.4851  1.0523  0.3705
 5122SOL    HW226826   1.440   4.546   7.877  1.1273 -0.1062  1.4491
 5123SOL     OW26827   1.348   2.012   6.779  0.0552 -0.0890  0.0089
 5123SOL    HW126828   1.352   2.047   6.869  0.8053 -0.4203  0.1075
 5123SOL    HW226829   1.341   2.095   6.732  0.3053 -0.1634 -0.1641
 5124SOL     OW26830   1.563   0.324   4.405  0.0612  0.1385  0.0608
 5124SOL    HW126831   1.608   0.404   4.430 -0.1139  0.5371 -0.9088
 5124SOL    HW226832   1.631   0.263   4.434 -0.6305  0.1672  1.7980
 5125SOL     OW26833   1.624   2.857  12.066 -0.4386 -0.4503 -0.2633
 5125SOL    HW126834   1.550   2.915  12.049  0.9606  0.9417 -1.6607
 5125SOL    HW226835   1.692   2.923  12.081 -1.1824 -0.2864  2.3403
 5126SOL     OW26836   0.616   3.247   7.644  0.0072 -0.3636  0.4888
 5126SOL    HW126837   0.575   3.161   7.657 -0.6596 -0.1561 -0.2540
 5126SOL    HW226838   0.706   3.222   7.664  0.4140  0.4575 -0.3103
 5127SOL     OW26839   3.077   3.450   9.045 -0.2375  0.0485  0.1616
 5127SOL    HW126840   3.139   3.431   9.115 -1.7513  0.0112  1.4968
 5127SOL    HW226841   3.024   3.372   9.028 -0.0663  0.2240 -1.1723
 5128SOL     OW26842   4.081   1.011  13.494 -0.7414  0.7229  0.2403
 5128SOL    HW126843   3.986   1.007  13.497 -0.8345  0.6840 -3.1444
 5128SOL    HW226844   4.106   0.962  13.416  0.9393  2.3677 -0.2670
 5129SOL     OW26845   4.463   2.072  15.580 -0.0773  0.5489 -0.9532
 5129SOL    HW126846   4.502   2.128  15.647 -1.5578 -2.7466  2.7000
 5129SOL    HW226847   4.447   2.132  15.507  3.7568  0.1710 -2.0934
 5130SOL     OW26848   1.778   0.773   5.180 -0.0514 -0.3228  0.6137
 5130SOL    HW126849   1.702   0.823   5.207 -0.6377 -0.7065 -0.3512
 5130SOL    HW226850   1.819   0.783   5.266 -0.6104  3.3721  0.4346
 5131SOL     OW26851   4.076   4.328   9.273  0.0198 -0.1480  0.3368
 5131SOL    HW126852   4.088   4.357   9.183  0.1104  2.2518  1.1240
 5131SOL    HW226853   4.031   4.406   9.305 -0.9397 -1.3817  2.0054
 5132SOL     OW26854   2.994   2.893   4.016  0.0293 -0.0987  0.8715
 5132SOL    HW126855   2.955   2.827   4.073  1.6894 -0.0570  2.0340
 5132SOL    HW226856   2.939   2.889   3.937  1.5863 -0.2965 -0.1890
 5133SOL     OW26857   1.701   1.082  11.936  0.8141  0.4195 -0.3309
 5133SOL    HW126858   1.794   1.102  11.953  1.2351 -1.7252 -0.1088
 5133SOL    HW226859   1.708   1.089  11.841 -4.6158  1.4535 -0.6624
 5134SOL     OW26860   0.856   0.421   0.815  0.2317 -0.1540  0.5334
 5134SOL    HW126861   0.826   0.433   0.725  1.7788  0.6794  0.1311
 5134SOL    HW226862   0.820   0.335   0.838 -0.3677  0.6015  2.3953
 5135SOL     OW26863   0.472   4.550   0.381 -0.1566  0.0413 -0.0564
 5135SOL    HW126864   0.560   4.573   0.350  0.0706  0.4864  0.9202
 5135SOL    HW226865   0.436   4.529   0.295 -1.2758 -1.5635  0.8064
 5136SOL     OW26866   1.092   3.321   3.349 -0.4072  0.1488 -0.2310
 5136SOL    HW126867   1.076   3.415   3.343  1.0868  0.3872 -0.6619
 5136SOL    HW226868   1.182   3.315   3.315 -0.2709  1.5462 -0.1135
 5137SOL     OW26869   2.011   2.187   6.405  0.4221 -0.4358  0.2960
 5137SOL    HW126870   1.980   2.254   6.344 -0.9597 -1.4317 -0.0979
 5137SOL    HW226871   1.943   2.178   6.472  1.0693  3.1890  1.4541
 5138SOL     OW26872   1.670   2.129   4.133  0.1501  0.2238 -0.7257
 5138SOL    HW126873   1.670   2.125   4.229 -0.7985  0.0470 -0.7300
 5138SOL    HW226874   1.575   2.143   4.123  0.1243 -0.7038 -1.8199
 5139SOL     OW26875   1.553   0.877  12.663 -0.0266  0.2901 -0.2667
 5139SOL    HW126876   1.479   0.906  12.609  0.7049  1.6225 -0.5464
 5139SOL    HW226877   1.515   0.908  12.746 -1.0563  1.7961 -1.2864
 5140SOL     OW26878   2.878   2.703   8.190  1.1770 -0.2815  0.4888
 5140SOL    HW126879   2.883   2.779   8.248 -1.4292 -0.3102  0.7480
 5140SOL    HW226880   2.783   2.707   8.179  1.0000 -0.5918  1.8380
 5141SOL     OW26881   3.357   3.612  14.825  0.3845 -0.0806 -0.0494
 5141SOL    HW126882   3.326   3.560  14.751  3.1419 -2.7420  0.6931
 5141SOL    HW226883   3.277   3.640  14.871 -0.8640 -1.2267 -1.5101
 5142SOL     OW26884   0.197   1.938  16.080  0.2426 -0.6027 -0.4262
 5142SOL    HW126885   0.217   1.847  16.101 -0.9861 -1.0551 -1.1638
 5142SOL    HW226886   0.162   1.904  15.997  0.2243 -1.2889 -0.1365
 5143SOL     OW26887   2.279   0.953   1.776 -0.1859 -0.2931  0.0635
 5143SOL    HW126888   2.223   0.945   1.699  0.1025  0.0295 -0.1785
 5143SOL    HW226889   2.286   1.047   1.788 -1.3302 -0.1050 -0.6640
 5144SOL     OW26890   1.954   1.372   5.836 -0.2839 -0.0190 -0.2798
 5144SOL    HW126891   1.908   1.455   5.825 -0.5984  0.2881  3.1616
 5144SOL    HW226892   2.000   1.391   5.918 -0.4453  0.5408 -0.3158
 5145SOL     OW26893   4.261   1.931   3.551 -0.4329  0.7458  0.2625
 5145SOL    HW126894   4.329   1.991   3.520 -0.4983  0.2608 -0.8334
 5145SOL    HW226895   4.309   1.875   3.611 -1.7500  0.8007  1.3852
 5146SOL     OW26896   4.109   0.129   3.548  0.4852 -0.0604  0.3958
 5146SOL    HW126897   4.115   0.049   3.600 -0.0088  0.0660  0.6502
 5146SOL    HW226898   4.082   0.194   3.613 -0.5966  0.0662 -0.1862
 5147SOL     OW26899   2.019   2.460  17.213  0.0018 -0.0178 -0.5271
 5147SOL    HW126900   2.035   2.461  17.307 -2.3723 -0.2778 -0.1189
 5147SOL    HW226901   2.106   2.471  17.174  0.8667 -2.3819  0.7313
 5148SOL     OW26902   4.044   2.211   5.920  0.3757  0.3365 -0.4522
 5148SOL    HW126903   4.085   2.225   6.006 -2.5494 -0.2586  1.0625
 5148SOL    HW226904   3.969   2.270   5.931  0.3087  0.3101 -0.7750
 5149SOL     OW26905   4.469   1.324   3.515 -0.7474 -0.2958 -0.7154
 5149SOL    HW126906   4.478   1.277   3.432 -0.4596  0.3444 -1.0454
 5149SOL    HW226907   4.558   1.329   3.550 -0.8287 -1.8679 -0.2811
 5150SOL     OW26908   4.681   3.696   2.925 -0.2448 -0.4044 -0.0771
 5150SOL    HW126909   4.588   3.676   2.927 -0.8228  2.1691 -0.3693
 5150SOL    HW226910   4.677   3.785   2.960 -1.1682 -0.7098  0.5813
 5151SOL     OW26911   0.751   2.101   3.513  0.1358 -0.0324 -0.4094
 5151SOL    HW126912   0.742   2.153   3.593  0.0453 -0.3035 -0.2438
 5151SOL    HW226913   0.846   2.089   3.513  0.3992  2.0963 -0.2857
 5152SOL     OW26914   1.038   0.490   0.986  0.0165 -0.1533 -1.2214
 5152SOL    HW126915   0.957   0.464   0.940 -1.1386 -1.7266  1.6596
 5152SOL    HW226916   1.102   0.487   0.915  2.1857 -0.6559  0.7883
 5153SOL     OW26917   1.319   4.179   3.680 -0.0368 -0.0502 -0.5552
 5153SOL    HW126918   1.394   4.163   3.622  0.8617 -1.8643  1.1105
 5153SOL    HW226919   1.360   4.135   3.755 -0.5778 -0.2054 -0.3536
 5154SOL     OW26920   1.557   4.369  11.259 -0.1027  0.2621 -0.0929
 5154SOL    HW126921   1.559   4.421  11.179 -0.9724 -0.9906 -0.9345
 5154SOL    HW226922   1.633   4.317  11.233  1.2161  3.2781 -2.2555
 5155SOL     OW26923   1.318   4.266   8.658 -0.0867 -0.5028 -0.0155
 5155SOL    HW126924   1.366   4.338   8.617  0.5443 -0.5959  0.5591
 5155SOL    HW226925   1.352   4.270   8.748  1.4099 -0.2183 -0.5975
 5156SOL     OW26926   1.772   0.791  11.817  0.8116  0.4137  0.1089
 5156SOL    HW126927   1.841   0.792  11.884 -0.8580 -4.0560  1.8686
 5156SOL    HW226928   1.711   0.732  11.861  0.0048  0.5263 -0.8715
 5157SOL     OW26929   1.501   1.547   1.968 -0.0303 -0.3632  0.2257
 5157SOL    HW126930   1.580   1.538   2.021  0.8675  0.4589 -0.9727
 5157SOL    HW226931   1.525   1.615   1.905  0.3518 -0.1038  0.6516
 5158SOL     OW26932   4.573   1.119   2.466 -0.1872 -0.4233  0.1417
 5158SOL    HW126933   4.497   1.145   2.414  0.4274 -1.1364 -1.1112
 5158SOL    HW226934   4.543   1.030   2.488 -1.0953 -0.0026  0.6042
 5159SOL     OW26935   0.324   4.415   4.432 -0.1811 -0.0827 -0.4984
 5159SOL    HW126936   0.369   4.337   4.398  0.3821  0.8214 -1.8255
 5159SOL    HW226937   0.327   4.404   4.527 -0.7977  0.4583 -0.4148
 5160SOL     OW26938   0.114   3.659  16.181  0.3356  0.3125 -0.0019
 5160SOL    HW126939   0.141   3.596  16.114 -1.3354 -1.5646  1.0713
 5160SOL    HW226940   0.026   3.689  16.158 -0.0254 -0.3277  0.5180
 5161SOL     OW26941   0.862   0.688   9.348  0.0170  0.5403  0.3246
 5161SOL    HW126942   0.868   0.783   9.360 -0.1216  0.8743 -2.1560
 5161SOL    HW226943   0.829   0.652   9.430 -1.6978 -0.5345 -0.8167
 5162SOL     OW26944   4.674   0.671   2.906  0.2107 -0.2604  0.3341
 5162SOL    HW126945   0.019   0.721   2.865 -0.9049  0.6234 -0.5166
 5162SOL    HW226946   4.670   0.590   2.856  1.0815 -1.1700  1.7284
 5163SOL     OW26947   3.858   4.330  16.716  0.0986 -0.0753  0.5093
 5163SOL    HW126948   3.879   4.372  16.633  0.6460  1.1363  1.2713
 5163SOL    HW226949   3.826   4.404  16.767  1.7012  1.3842 -0.6007
 5164SOL     OW26950   4.122   2.829   6.866  0.1520 -0.0505  0.5764
 5164SOL    HW126951   4.150   2.856   6.779  0.9216 -0.2553  0.7647
 5164SOL    HW226952   4.180   2.869   6.930 -0.1229 -0.6950  1.2252
 5165SOL     OW26953   0.219   1.894  12.653  0.0861 -0.0362 -0.2963
 5165SOL    HW126954   0.277   1.850  12.714  0.9700 -0.0111 -1.1301
 5165SOL    HW226955   0.201   1.830  12.584  0.1320 -1.3801  0.9501
 5166SOL     OW26956   4.425   1.395   7.042 -0.3042  0.2055  0.5485
 5166SOL    HW126957   4.480   1.325   7.076 -0.9033 -0.1399  0.8154
 5166SOL    HW226958   4.346   1.375   7.093 -0.5537 -0.6741 -0.2050
 5167SOL     OW26959   4.512   1.115   3.326 -0.7387  0.3618  1.1288
 5167SOL    HW126960   4.560   1.142   3.247  0.0238 -3.0198  0.4473
 5167SOL    HW226961   4.430   1.097   3.279  0.0147 -0.3788  0.0798
 5168SOL     OW26962   4.089   1.228  17.485  0.4072 -0.0984 -0.0466
 5168SOL    HW126963   4.069   1.314  17.448 -2.2355 -0.8345 -0.3489
 5168SOL    HW226964   4.184   1.215  17.477  0.5488  0.4281  0.7619
 5169SOL     OW26965   4.703   3.313   5.241  0.4944  0.4014 -0.1132
 5169SOL    HW126966   4.705   3.220   5.217  1.4974  0.2701  0.5037
 5169SOL    HW226967   4.608   3.321   5.238  0.6538  1.6399 -2.2600
 5170SOL     OW26968   1.731   0.319  16.795 -0.1763 -0.2399 -0.3955
 5170SOL    HW126969   1.747   0.226  16.779  1.0192  0.0897 -1.0613
 5170SOL    HW226970   1.672   0.317  16.871  0.7454  0.6429  0.3358
 5171SOL     OW26971   0.627   1.740   0.804  0.2983 -0.0076  0.0026
 5171SOL    HW126972   0.554   1.801   0.813  2.3329  2.4891 -0.5511
 5171SOL    HW226973   0.581   1.658   0.783 -1.1006  1.4142 -2.4310
 5172SOL     OW26974   2.937   1.567   7.210 -0.0519 -0.1838  0.1036
 5172SOL    HW126975   2.994   1.490   7.201 -2.1739 -1.6658 -0.6459
 5172SOL    HW226976   2.900   1.574   7.122 -2.3499  1.0198  1.1814
 5173SOL     OW26977   1.874   4.570   4.047 -0.4722 -0.0419 -0.1249
 5173SOL    HW126978   1.862   4.540   4.138 -1.4128  2.5022  0.5849
 5173SOL    HW226979   1.919   4.653   4.064 -0.5410 -0.3534  1.6240
 5174SOL     OW26980   3.679   0.069   1.942  0.5886 -0.1188  0.6482
 5174SOL    HW126981   3.644   0.158   1.941 -0.5532 -0.5796 -1.3765
 5174SOL    HW226982   3.752   0.064   2.004 -0.3663  0.4948  1.8118
 5175SOL     OW26983   3.427   0.891   4.586  0.3658  0.2067  0.5129
 5175SOL    HW126984   3.483   0.869   4.512  0.2020 -0.4350  0.5757
 5175SOL    HW226985   3.413   0.983   4.567 -0.3008  0.2973  1.4557
 5176SOL     OW26986   0.859   2.544   2.930  0.1462 -0.3516  0.0135
 5176SOL    HW126987   0.883   2.451   2.935  2.2218  0.3621  3.0164
 5176SOL    HW226988   0.781   2.537   2.875  0.2643 -1.3102 -0.0244
 5177SOL     OW26989   1.252   1.521   5.184  0.1414 -0.0429  0.4662
 5177SOL    HW126990   1.241   1.433   5.148 -1.3260  1.1030 -1.8911
 5177SOL    HW226991   1.284   1.557   5.102 -1.3877  1.0140  0.3365
 5178SOL     OW26992   4.098   3.247   2.958  0.1435  0.1606  0.1966
 5178SOL    HW126993   4.013   3.288   2.976  0.7940  1.8840 -0.6181
 5178SOL    HW226994   4.072   3.167   2.914 -0.4381  0.0796  0.6763
 5179SOL     OW26995   0.731   1.340   5.691  0.0286 -0.0527 -0.2146
 5179SOL    HW126996   0.696   1.269   5.745 -0.3539 -1.1616 -1.9191
 5179SOL    HW226997   0.643   1.368   5.665 -0.5730 -0.8099  0.9952
 5180SOL     OW26998   0.326   4.247   7.595  0.1613 -0.0880 -0.1008
 5180SOL    HW126999   0.377   4.230   7.515 -0.1675 -2.0711  0.1130
 5180SOL    HW227000   0.391   4.221   7.660 -1.0366 -2.6475  0.0777
 5181SOL     OW27001   0.480   3.420   7.997 -0.1376 -0.5031 -0.1623
 5181SOL    HW127002   0.572   3.409   7.973 -0.3303  0.8277 -1.4738
 5181SOL    HW227003   0.479   3.513   8.020 -1.1007 -0.7811  0.8986
 5182SOL     OW27004   1.676   3.069   2.077 -0.0271 -0.4359 -0.1930
 5182SOL    HW127005   1.605   3.006   2.092  0.9969 -2.5517 -4.3801
 5182SOL    HW227006   1.640   3.123   2.006 -2.1110 -1.5498  0.0269
 5183SOL     OW27007   3.700   3.120   5.135  0.1759 -0.1913 -0.3581
 5183SOL    HW127008   3.621   3.161   5.169  1.7467  1.9964  0.6075
 5183SOL    HW227009   3.657   3.058   5.076 -2.4133  1.7310 -0.4526
 5184SOL     OW27010   0.665   3.768   5.503  0.0635 -0.5384  0.2937
 5184SOL    HW127011   0.651   3.862   5.488 -2.0559 -1.0295 -0.7868
 5184SOL    HW227012   0.603   3.736   5.437 -0.4506 -0.8759  0.9504
 5185SOL     OW27013   4.605   0.863   5.907 -0.5376 -0.1518 -0.2993
 5185SOL    HW127014   4.591   0.812   5.827  1.1117 -2.8726  1.1628
 5185SOL    HW227015   4.534   0.828   5.959  0.8247  0.3113  1.8579
 5186SOL     OW27016   0.470   4.570   5.106 -0.2367 -0.8059 -0.7220
 5186SOL    HW127017   0.537   4.628   5.070 -1.5669 -0.2040 -2.2358
 5186SOL    HW227018   0.463   4.496   5.045 -0.1875 -2.1965  0.9485
 5187SOL     OW27019   2.295   3.856   6.373  0.2159  0.3090  0.1484
 5187SOL    HW127020   2.318   3.875   6.282  0.4382  1.8175  0.5286
 5187SOL    HW227021   2.351   3.912   6.427  0.0964  1.5706 -1.0453
 5188SOL     OW27022   1.384   2.507   3.658 -0.1580 -0.0419  0.4397
 5188SOL    HW127023   1.393   2.575   3.725  1.5829 -0.2853  0.4498
 5188SOL    HW227024   1.456   2.535   3.602  0.4070 -1.1498  0.6124
 5189SOL     OW27025   2.083   2.286   8.684  0.2975  0.4278 -0.4612
 5189SOL    HW127026   2.107   2.287   8.591  2.5141  1.5771  0.1369
 5189SOL    HW227027   2.004   2.338   8.693 -0.4436 -0.5826 -1.0592
 5190SOL     OW27028   4.630   2.846   8.550 -0.0111 -0.0147  0.2117
 5190SOL    HW127029   4.712   2.847   8.500 -1.5620 -0.1260 -2.3135
 5190SOL    HW227030   4.618   2.752   8.543  2.0725 -0.1435 -1.6941
 5191SOL     OW27031   4.581   0.852  12.949  1.2304  0.2112  0.1225
 5191SOL    HW127032   4.675   0.834  12.945  0.9215 -0.8826 -2.6430
 5191SOL    HW227033   4.578   0.925  13.011  2.6552  1.0119 -0.7775
 5192SOL     OW27034   3.528   2.006   4.135  0.2979 -0.2113  0.1622
 5192SOL    HW127035   3.509   1.942   4.067 -0.9520  0.0690  0.2466
 5192SOL    HW227036   3.624   2.008   4.137  0.3257 -2.0321  0.2069
 5193SOL     OW27037   4.024   4.038   8.401  0.1043  0.1764  0.0628
 5193SOL    HW127038   4.078   4.061   8.325  1.2086  1.4224  1.2135
 5193SOL    HW227039   4.029   3.943   8.391  0.2627 -0.0733  2.3519
 5194SOL     OW27040   1.681   2.245   7.290  0.2021 -0.0611 -0.4996
 5194SOL    HW127041   1.733   2.219   7.213  0.1876 -1.1651 -0.1457
 5194SOL    HW227042   1.607   2.292   7.252  0.1752 -0.0463 -0.4279
 5195SOL     OW27043   0.039   2.549   0.903 -0.3122 -0.1318 -0.3818
 5195SOL    HW127044   4.686   2.502   0.873  0.0476 -0.8110 -0.2602
 5195SOL    HW227045   0.012   2.629   0.858  0.2534 -1.4882 -3.1281
 5196SOL     OW27046   2.391   4.219   9.264 -0.7848  0.4283  0.3831
 5196SOL    HW127047   2.351   4.222   9.177 -1.7861 -1.0558  0.7873
 5196SOL    HW227048   2.325   4.172   9.316 -1.9401  2.6421  0.9562
 5197SOL     OW27049   0.182   2.444   2.647  0.0837 -0.6348  0.1865
 5197SOL    HW127050   0.212   2.477   2.731  1.5246  0.0420 -0.5888
 5197SOL    HW227051   0.116   2.379   2.673 -2.0247  0.9791 -1.1589
 5198SOL     OW27052   1.435   3.206   4.962 -0.8175  0.1345 -0.2145
 5198SOL    HW127053   1.384   3.128   4.982  0.2023 -0.6832 -0.8086
 5198SOL    HW227054   1.471   3.176   4.879 -0.9279  1.6037 -0.7869
 5199SOL     OW27055   1.453   1.111   3.242 -0.9421 -0.4944 -0.2995
 5199SOL    HW127056   1.452   1.049   3.315 -1.1432  0.4517  0.5089
 5199SOL    HW227057   1.483   1.193   3.283 -0.4573 -0.6213 -0.4028
 5200SOL     OW27058   2.726   4.626   7.435  0.3378 -0.1618  0.5338
 5200SOL    HW127059   2.813   4.664   7.420  1.0134 -0.4080  3.7249
 5200SOL    HW227060   2.697   4.698   7.491 -0.5918  0.0425 -0.2196
 5201SOL     OW27061   0.338   0.728   6.696  0.4350 -0.8397  0.4919
 5201SOL    HW127062   0.361   0.710   6.605  0.0621 -1.8175  0.5950
 5201SOL    HW227063   0.331   0.823   6.694  1.1842 -0.7848  0.4883
 5202SOL     OW27064   0.800   0.297   5.058  0.2479 -0.1397  0.8131
 5202SOL    HW127065   0.755   0.359   5.001 -1.7255 -0.8956  1.5677
 5202SOL    HW227066   0.892   0.322   5.047 -0.6230  2.1740 -1.3147
 5203SOL     OW27067   2.186   1.310   3.894  0.0465  0.3071 -0.4654
 5203SOL    HW127068   2.161   1.248   3.825  0.7655  2.5722 -2.7501
 5203SOL    HW227069   2.127   1.380   3.869  1.1599  0.2750 -3.1947
 5204SOL     OW27070   3.664   2.640   8.014 -0.4415  0.4370 -0.1102
 5204SOL    HW127071   3.646   2.667   8.104 -0.5452  0.0643 -0.0165
 5204SOL    HW227072   3.615   2.558   8.014 -1.0744  0.8139  0.7850
 5205SOL     OW27073   1.413   0.966   5.273 -0.2162  0.1051  0.0104
 5205SOL    HW127074   1.395   0.877   5.241 -0.9927  0.7912 -1.4943
 5205SOL    HW227075   1.324   1.000   5.281  0.4592  1.3646  1.9255
 5206SOL     OW27076   3.718   3.354   6.628 -0.4948 -0.4872 -0.1927
 5206SOL    HW127077   3.720   3.380   6.720 -0.7818  2.2873 -0.9699
 5206SOL    HW227078   3.799   3.391   6.593  0.0819 -1.7652 -0.1937
 5207SOL     OW27079   4.022   0.666  10.194 -0.1664  0.7473  0.2742
 5207SOL    HW127080   4.006   0.655  10.100 -2.3854 -0.8386  0.8333
 5207SOL    HW227081   4.041   0.576  10.219  0.6608  0.2510 -2.1100
 5208SOL     OW27082   3.895   2.338   3.244  0.2752 -0.1640  0.7309
 5208SOL    HW127083   3.938   2.293   3.171  0.3060  0.3955  0.4088
 5208SOL    HW227084   3.931   2.299   3.324  1.5208  0.1026  0.2898
 5209SOL     OW27085   0.815   4.160   4.444  0.1019  0.7324 -0.5537
 5209SOL    HW127086   0.833   4.084   4.499 -1.3172 -0.4737 -1.7490
 5209SOL    HW227087   0.905   4.192   4.442  0.7899 -1.4118 -3.0702
 5210SOL     OW27088   2.938   0.498  16.135  0.4216 -0.0527  0.0232
 5210SOL    HW127089   2.932   0.588  16.104  0.6598  0.3685  1.2101
 5210SOL    HW227090   2.850   0.488  16.170 -0.1009  0.7580 -1.0966
 5211SOL     OW27091   2.121   3.925  10.351 -0.1295 -0.2548 -0.1365
 5211SOL    HW127092   2.108   3.945  10.259 -1.9900  0.2638  0.2375
 5211SOL    HW227093   2.043   3.874  10.372 -0.7171  0.7577  0.1031
 5212SOL     OW27094   2.096   1.776  11.155  0.8255  0.0043  0.0185
 5212SOL    HW127095   2.142   1.695  11.129  0.2147  0.2837 -1.9057
 5212SOL    HW227096   2.005   1.750  11.169  0.7181  0.0382 -0.6100
 5213SOL     OW27097   4.642   2.007  13.794 -0.8078 -0.0107  0.1471
 5213SOL    HW127098   4.623   1.997  13.701  0.5691  0.0577 -0.1357
 5213SOL    HW227099   4.707   2.075  13.774 -1.5114  0.0371 -1.8984
 5214SOL     OW27100   0.399   0.848   9.830  0.0141 -0.2859 -0.0443
 5214SOL    HW127101   0.345   0.814   9.759 -0.7085  0.3408  0.1962
 5214SOL    HW227102   0.343   0.903   9.885 -0.8582 -0.6915 -0.5362
 5215SOL     OW27103   0.450   4.641   5.677  0.7839 -0.7010  0.3730
 5215SOL    HW127104   0.360   4.659   5.705 -0.1732 -0.0319 -3.0811
 5215SOL    HW227105   0.443   4.599   5.592  2.3907  0.3962 -0.2990
 5216SOL     OW27106   2.031   4.352  10.209 -0.4856 -0.1277 -0.5594
 5216SOL    HW127107   1.975   4.295  10.156 -2.5529  3.7733 -2.6229
 5216SOL    HW227108   2.013   4.313  10.295  1.1548 -1.5065 -0.8447
 5217SOL     OW27109   0.768   1.378   0.685  0.0641  1.0094 -0.5648
 5217SOL    HW127110   0.683   1.382   0.642 -0.4657 -1.9510  0.2242
 5217SOL    HW227111   0.760   1.310   0.752 -0.9450  0.9330 -0.7632
 5218SOL     OW27112   2.108   4.283   3.912  0.1968 -0.3995  0.2735
 5218SOL    HW127113   2.020   4.320   3.907  1.0083  1.3453 -0.9751
 5218SOL    HW227114   2.083   4.221   3.981  0.0116 -0.0190  0.5530
 5219SOL     OW27115   0.199   0.417  12.894 -0.0654  0.5491  0.4385
 5219SOL    HW127116   0.216   0.504  12.858  1.9150 -0.4214 -0.9672
 5219SOL    HW227117   0.249   0.419  12.976  1.8045  0.7665 -0.6980
 5220SOL     OW27118   0.416   4.264   3.642  0.3359  0.3711 -0.7147
 5220SOL    HW127119   0.478   4.311   3.586  0.9374  1.3898  0.7994
 5220SOL    HW227120   0.368   4.221   3.571 -2.4625 -1.0150  2.0108
 5221SOL     OW27121   4.271   2.337   9.012  0.0254 -0.3609  0.4124
 5221SOL    HW127122   4.270   2.316   9.105 -2.0648 -1.5452  0.1255
 5221SOL    HW227123   4.229   2.263   8.968 -2.3653  1.3599 -0.2094
 5222SOL     OW27124   0.502   0.767   1.568  0.8623  0.3083 -0.1292
 5222SOL    HW127125   0.434   0.828   1.539  0.2373 -0.3616 -0.0750
 5222SOL    HW227126   0.512   0.705   1.497 -0.0327  0.9959 -0.8579
 5223SOL     OW27127   1.430   4.005   1.235 -0.4516 -0.2300  0.5290
 5223SOL    HW127128   1.383   3.976   1.313 -0.9712  2.9448  1.3839
 5223SOL    HW227129   1.363   4.023   1.170 -0.3631  0.1779  0.5483
 5224SOL     OW27130   2.837   0.959   6.427  0.5285 -0.4701  0.0473
 5224SOL    HW127131   2.916   0.910   6.405  1.9358  1.8414 -0.0049
 5224SOL    HW227132   2.771   0.903   6.385 -1.1722  1.3828  0.2363
 5225SOL     OW27133   4.520   1.929   8.989 -0.2781 -0.4916  0.7121
 5225SOL    HW127134   4.610   1.900   9.006 -0.5404 -1.8041 -0.1577
 5225SOL    HW227135   4.498   1.972   9.072 -1.3167  0.7145 -0.1861
 5226SOL     OW27136   0.516   3.004   6.305  0.7090  0.1035  0.2533
 5226SOL    HW127137   0.490   2.935   6.366  1.3486  0.5372  1.0266
 5226SOL    HW227138   0.534   3.085   6.354  1.3733  1.6088 -2.5057
 5227SOL     OW27139   1.789   3.888   2.574  0.2538  0.0612 -0.1873
 5227SOL    HW127140   1.883   3.875   2.587  0.2565  1.9521  1.6456
 5227SOL    HW227141   1.790   3.971   2.526 -0.8877  0.3190  0.2176
 5228SOL     OW27142   1.825   0.633   8.531 -0.3944 -0.0458  0.1474
 5228SOL    HW127143   1.825   0.714   8.582 -0.0978 -1.1994  1.9861
 5228SOL    HW227144   1.890   0.581   8.580 -0.3997  0.5053  0.7431
 5229SOL     OW27145   0.562   3.762   0.984  0.2745 -0.2518  0.1782
 5229SOL    HW127146   0.490   3.798   0.932  0.5143  0.5202  0.3765
 5229SOL    HW227147   0.557   3.806   1.069  0.9894 -1.0608  0.6437
 5230SOL     OW27148   0.656   1.249   0.393  0.1625 -0.1743 -0.7400
 5230SOL    HW127149   0.610   1.304   0.457  2.9326  1.4872 -0.1558
 5230SOL    HW227150   0.705   1.192   0.453 -1.0700  0.3550  0.7874
 5231SOL     OW27151   2.375   1.575   3.041 -0.3224 -0.3384  0.3660
 5231SOL    HW127152   2.461   1.543   3.017  0.3782  0.1685  2.1981
 5231SOL    HW227153   2.364   1.522   3.119  2.0152 -1.1736  0.1153
 5232SOL     OW27154   1.069   0.232   3.553  0.3337 -0.3163 -0.1889
 5232SOL    HW127155   1.005   0.275   3.609  0.3781  0.5154 -0.7875
 5232SOL    HW227156   1.119   0.175   3.612 -0.1460 -1.3101 -0.7300
 5233SOL     OW27157   1.380   3.334   3.872 -0.5865 -0.5137  0.2312
 5233SOL    HW127158   1.409   3.355   3.961 -0.1328 -1.5176  0.3287
 5233SOL    HW227159   1.453   3.280   3.840 -0.1989  1.2978 -1.8489
 5234SOL     OW27160   0.746   0.677  15.130  0.2787  0.5238 -0.4165
 5234SOL    HW127161   0.669   0.657  15.076 -0.4876  0.4413  0.7229
 5234SOL    HW227162   0.811   0.631  15.076  0.9033 -0.2105  0.9819
 5235SOL     OW27163   4.576   3.942  17.384  0.1622 -0.2361  0.8925
 5235SOL    HW127164   4.606   3.872  17.442  0.0682 -1.8027 -0.9338
 5235SOL    HW227165   4.532   3.995  17.450  2.0613  0.7330  1.3556
 5236SOL     OW27166   0.039   1.390  12.572 -0.2122  0.4092  0.4970
 5236SOL    HW127167   4.690   1.349  12.617  0.2683  0.3699  1.2552
 5236SOL    HW227168   0.118   1.381  12.625  0.3999  2.3348 -0.0929
 5237SOL     OW27169   2.940   0.610   4.899  0.1679 -0.4145 -0.4421
 5237SOL    HW127170   2.845   0.599   4.894  0.1610 -0.3350 -0.4891
 5237SOL    HW227171   2.967   0.519   4.909  0.4084 -0.4969 -1.7750
 5238SOL     OW27172   1.903   2.538   5.895  0.4936  0.0105 -0.1162
 5238SOL    HW127173   1.817   2.532   5.937 -0.0539  2.2932 -0.8894
 5238SOL    HW227174   1.948   2.597   5.956 -0.3513 -0.2680  0.7711
 5239SOL     OW27175   1.657   2.940   1.052 -0.0408 -0.5000  0.0733
 5239SOL    HW127176   1.568   2.937   1.086  0.0780  1.0403  0.5240
 5239SOL    HW227177   1.676   3.033   1.065  0.3272 -0.1967 -2.6182
 5240SOL     OW27178   2.029   4.277   1.327 -0.6145  0.0032  0.3675
 5240SOL    HW127179   2.090   4.309   1.393  0.7308 -0.9364 -0.4122
 5240SOL    HW227180   1.996   4.358   1.289 -0.9539 -0.3610 -0.1219
 5241SOL     OW27181   3.533   3.629   5.705 -0.1695  0.2246  0.6027
 5241SOL    HW127182   3.485   3.551   5.730 -1.1212 -0.1277 -2.3242
 5241SOL    HW227183   3.613   3.621   5.758  0.5629 -0.2405 -0.5689
 5242SOL     OW27184   1.361   2.735   2.269 -0.4896  1.0526 -0.0637
 5242SOL    HW127185   1.279   2.783   2.268  0.2029  2.2384  0.1539
 5242SOL    HW227186   1.366   2.696   2.357 -0.9520 -3.4572 -2.0184
 5243SOL     OW27187   3.974   2.346  16.295  0.1804  0.0851  0.0665
 5243SOL    HW127188   4.052   2.336  16.240 -0.3193 -0.3865 -0.5569
 5243SOL    HW227189   3.973   2.442  16.301 -1.1313 -0.0214  1.5659
 5244SOL     OW27190   0.708   0.595   0.271  0.0373 -1.0932 -0.6693
 5244SOL    HW127191   0.628   0.549   0.246 -1.9432  1.7473  0.4580
 5244SOL    HW227192   0.720   0.640   0.188 -1.6351  0.7198  0.0841
 5245SOL     OW27193   2.352   4.111   3.932 -0.2143 -0.2030 -0.1517
 5245SOL    HW127194   2.311   4.025   3.927  0.7999 -0.6132 -1.3471
 5245SOL    HW227195   2.279   4.166   3.904 -0.8132 -0.3567  1.0838
 5246SOL     OW27196   3.404   2.158   3.172 -0.0436 -0.1235  0.5222
 5246SOL    HW127197   3.364   2.216   3.106  1.2598  0.2932  0.1100
 5246SOL    HW227198   3.479   2.208   3.202  2.2063 -3.1217 -0.1509
 5247SOL     OW27199   2.453   3.757  15.183  0.0033 -0.3873  0.0161
 5247SOL    HW127200   2.383   3.767  15.248 -1.4394 -0.5393 -1.5298
 5247SOL    HW227201   2.450   3.662  15.179 -0.8502 -0.3280 -0.8214
 5248SOL     OW27202   3.121   0.717   3.170 -0.5804  0.0263  0.1090
 5248SOL    HW127203   3.073   0.691   3.091  0.0876 -0.6930 -0.0592
 5248SOL    HW227204   3.042   0.712   3.224  0.7160 -3.7751  1.6055
 5249SOL     OW27205   3.122   1.651  10.866  0.2124 -0.2816 -0.2386
 5249SOL    HW127206   3.211   1.686  10.863 -0.3963  1.2900 -0.0724
 5249SOL    HW227207   3.065   1.726  10.884  0.6155  0.2445 -1.1374
 5250SOL     OW27208   1.718   1.742   5.378 -0.1531 -0.6775 -0.3472
 5250SOL    HW127209   1.659   1.792   5.435 -0.5305 -1.6193  0.0932
 5250SOL    HW227210   1.655   1.708   5.314 -0.6696 -1.5650  0.6356
 5251SOL     OW27211   2.699   3.920   6.589 -0.0185  0.3410  0.2202
 5251SOL    HW127212   2.747   3.843   6.556  0.4347 -0.0570  1.7885
 5251SOL    HW227213   2.770   3.984   6.594 -1.2211  1.6328  0.7236
 5252SOL     OW27214   1.639   1.985   6.392  0.0066  0.2666  0.0775
 5252SOL    HW127215   1.563   1.982   6.334  1.4145 -1.0977 -1.6619
 5252SOL    HW227216   1.607   1.947   6.474  1.5944 -2.0062 -0.3684
 5253SOL     OW27217   0.246   1.465   7.274 -0.1215 -0.1295 -0.2525
 5253SOL    HW127218   0.340   1.479   7.266  0.3870 -1.1885  4.0417
 5253SOL    HW227219   0.238   1.504   7.361 -0.3340  1.2720 -0.9052
 5254SOL     OW27220   0.998   1.609   8.044 -0.1811 -0.1101 -0.3122
 5254SOL    HW127221   0.961   1.697   8.050 -1.3344 -0.7832  2.4760
 5254SOL    HW227222   1.077   1.621   8.097  0.2863 -2.5040 -0.4774
 5255SOL     OW27223   3.089   1.484   4.799 -0.3332  0.7455 -0.3525
 5255SOL    HW127224   3.125   1.436   4.874 -0.1244  1.5470  0.0555
 5255SOL    HW227225   3.078   1.564   4.851 -1.9192 -0.0728  0.5680
 5256SOL     OW27226   2.451   4.238   6.839  0.2493  0.0361 -0.2141
 5256SOL    HW127227   2.478   4.317   6.885 -3.2379  1.7032 -1.0608
 5256SOL    HW227228   2.502   4.169   6.881 -1.2846 -0.8842  0.1569
 5257SOL     OW27229   3.319   2.854   4.778 -0.2360 -0.3564  0.2555
 5257SOL    HW127230   3.240   2.804   4.754  1.7427 -3.6689  0.5868
 5257SOL    HW227231   3.284   2.922   4.835  1.0982  2.4467 -2.3135
 5258SOL     OW27232   3.493   1.310   8.568 -0.0088 -0.0141 -0.1042
 5258SOL    HW127233   3.483   1.387   8.512 -0.6442 -0.2348 -0.2996
 5258SOL    HW227234   3.405   1.275   8.555  0.2755 -0.8740  0.3122
 5259SOL     OW27235   4.643   2.452   7.242 -0.3978  0.0836  0.1574
 5259SOL    HW127236   4.679   2.534   7.276 -1.6890  1.0646 -0.8556
 5259SOL    HW227237   4.629   2.478   7.151  0.5497  1.0994  0.2921
 5260SOL     OW27238   3.189   1.719   6.023 -0.0395  0.0153 -0.4674
 5260SOL    HW127239   3.117   1.748   5.968 -0.9785  0.8313  1.2127
 5260SOL    HW227240   3.169   1.765   6.105  0.9443  1.2608 -0.9277
 5261SOL     OW27241   0.827   4.052   5.565  0.6291  0.0709 -0.0126
 5261SOL    HW127242   0.862   3.965   5.550 -1.0512 -0.4745 -0.7793
 5261SOL    HW227243   0.862   4.106   5.494  1.3109  0.8819  0.9318
 5262SOL     OW27244   4.587   4.413   8.468  0.0812  0.2334  0.1703
 5262SOL    HW127245   4.633   4.340   8.509  0.9266  0.6577 -0.0412
 5262SOL    HW227246   4.509   4.422   8.522  0.0430 -0.0137  0.1568
 5263SOL     OW27247   2.579   2.513  17.261 -0.1070 -0.4798 -0.2164
 5263SOL    HW127248   2.562   2.423  17.232 -0.2114  0.2202 -2.3542
 5263SOL    HW227249   2.671   2.518  17.235 -0.2572  0.5992 -0.5478
 5264SOL     OW27250   0.987   4.178  10.891 -0.0762 -0.3320  0.2590
 5264SOL    HW127251   0.966   4.092  10.928 -1.4271  0.1036  0.4996
 5264SOL    HW227252   1.072   4.197  10.930 -0.3880 -1.5476  1.5054
 5265SOL     OW27253   1.231   0.272   5.554  0.2270  0.1823  0.4171
 5265SOL    HW127254   1.167   0.249   5.487 -0.6265  2.4927  0.4195
 5265SOL    HW227255   1.309   0.236   5.512 -0.1954  1.2665 -1.3038
 5266SOL     OW27256   1.324   2.932   7.195 -0.4274 -0.8151 -0.7037
 5266SOL    HW127257   1.313   2.916   7.288  3.0876 -0.2105 -0.1889
 5266SOL    HW227258   1.305   2.848   7.154  2.6029 -1.7326 -0.1546
 5267SOL     OW27259   0.342   4.044   4.471 -0.4070 -0.3172  0.5411
 5267SOL    HW127260   0.385   4.086   4.396  0.9195  0.9316  2.0202
 5267SOL    HW227261   0.322   3.959   4.431  0.2357 -0.3998  0.4054
 5268SOL     OW27262   2.018   3.491  11.838 -0.5265 -0.3916  0.1125
 5268SOL    HW127263   1.962   3.569  11.841 -0.1139 -0.0789 -0.3539
 5268SOL    HW227264   2.046   3.483  11.746  2.6044  0.3376  1.0117
 5269SOL     OW27265   1.501   2.100   5.588 -0.3694 -0.3559 -0.3056
 5269SOL    HW127266   1.420   2.090   5.540 -0.1528  0.1806 -0.7816
 5269SOL    HW227267   1.530   2.009   5.591 -0.0769 -0.2841 -0.8960
 5270SOL     OW27268   1.700   2.952  12.387 -0.1433  0.4157 -0.0917
 5270SOL    HW127269   1.756   2.874  12.383  1.3340  1.4492  0.4134
 5270SOL    HW227270   1.725   2.986  12.301 -0.7305  3.3663  0.9193
 5271SOL     OW27271   1.477   0.397   6.811  0.8655  0.6182 -0.8215
 5271SOL    HW127272   1.535   0.442   6.872 -0.9406 -0.5167  1.7379
 5271SOL    HW227273   1.458   0.472   6.754  1.6339  0.9210 -0.6905
 5272SOL     OW27274   4.263   0.818   0.401 -0.0481  0.1726 -0.0749
 5272SOL    HW127275   4.352   0.821   0.369  0.7837 -0.3294  2.1589
 5272SOL    HW227276   4.232   0.909   0.403 -3.2605 -0.8565 -1.6727
 5273SOL     OW27277   1.307   0.136   5.922  0.4043  0.0094  0.1071
 5273SOL    HW127278   1.218   0.165   5.901  0.8496  1.9448  0.8440
 5273SOL    HW227279   1.363   0.210   5.898  0.9383 -0.3047  0.3980
 5274SOL     OW27280   4.527   3.167   5.794  0.7393 -0.2142  0.1406
 5274SOL    HW127281   4.521   3.247   5.847  0.0077  0.7582 -1.4056
 5274SOL    HW227282   4.515   3.211   5.710 -0.0934  0.5235  0.6395
 5275SOL     OW27283   1.335   1.021   7.512  0.4634 -0.1757 -0.8027
 5275SOL    HW127284   1.275   1.050   7.581 -0.0975  1.0600 -1.7931
 5275SOL    HW227285   1.277   1.045   7.439  0.3659  1.3829 -0.2263
 5276SOL     OW27286   2.871   3.981   5.958  0.2302 -0.0028 -0.0337
 5276SOL    HW127287   2.814   4.015   5.889  0.7255 -3.2148 -2.0299
 5276SOL    HW227288   2.873   3.887   5.941 -0.8927 -0.1647  0.7329
 5277SOL     OW27289   4.477   3.484   1.826 -0.3246  0.1346  0.4829
 5277SOL    HW127290   4.542   3.546   1.858 -1.7001  1.6985  0.2149
 5277SOL    HW227291   4.482   3.422   1.899  1.9624 -0.8294 -0.4830
 5278SOL     OW27292   3.106   0.044  16.023  0.1414 -0.4895 -0.5739
 5278SOL    HW127293   3.048   0.047  16.099 -0.2930  0.5611 -0.9309
 5278SOL    HW227294   3.111   0.132  15.984  2.6956 -0.7239 -0.7519
 5279SOL     OW27295   0.161   2.518   9.192  0.5431 -0.1686 -0.1842
 5279SOL    HW127296   0.227   2.524   9.261 -2.5499 -0.9034  2.8193
 5279SOL    HW227297   0.147   2.607   9.160  2.6548  0.8727  1.7438
 5280SOL     OW27298   2.869   0.989   5.750 -0.2896  0.3986 -0.0804
 5280SOL    HW127299   2.776   0.977   5.734  0.4291 -4.7304 -0.2662
 5280SOL    HW227300   2.879   1.015   5.841  0.3890  2.7416 -0.8196
 5281SOL     OW27301   2.745   3.974  17.232  0.5158 -0.1251 -0.2930
 5281SOL    HW127302   2.751   3.883  17.262 -0.1760 -0.1451 -0.2276
 5281SOL    HW227303   2.837   3.979  17.204 -0.0739 -2.3306 -2.6346
 5282SOL     OW27304   0.312   2.501   0.913 -0.0627 -0.2139 -0.3299
 5282SOL    HW127305   0.340   2.506   0.822 -0.5628  0.5434 -0.4425
 5282SOL    HW227306   0.218   2.511   0.905  0.0452  2.2953  1.2493
 5283SOL     OW27307   3.065   3.512  12.385  0.0268 -0.3700 -0.0952
 5283SOL    HW127308   2.976   3.481  12.372  0.6808 -2.8687  1.4085
 5283SOL    HW227309   3.111   3.478  12.307 -0.4460  0.3321 -0.6783
 5284SOL     OW27310   0.749   0.216   6.678  0.7849 -0.3225  0.5179
 5284SOL    HW127311   0.783   0.253   6.760 -0.8808 -0.0989  1.0946
 5284SOL    HW227312   0.820   0.253   6.624  0.6660  0.3653  0.8297
 5285SOL     OW27313   1.691   2.102   6.823  0.3510 -0.8096 -0.3368
 5285SOL    HW127314   1.709   2.103   6.917 -0.1078 -0.1200 -0.2632
 5285SOL    HW227315   1.783   2.112   6.796 -0.3062  2.0671 -1.5484
 5286SOL     OW27316   2.868   0.711   8.551 -0.1185  0.0634 -0.5657
 5286SOL    HW127317   2.951   0.692   8.593 -0.4139  0.1739  0.0645
 5286SOL    HW227318   2.869   0.803   8.524  1.4645  0.5278  1.0608
 5287SOL     OW27319   0.226   4.617   5.192 -0.2865  0.8417 -0.2958
 5287SOL    HW127320   0.317   4.597   5.169  0.4984  1.1214  2.6084
 5287SOL    HW227321   0.233   4.651   5.281 -1.9765  2.0799 -0.6274
 5288SOL     OW27322   0.310   4.426  11.240 -0.2297 -0.1344 -0.5711
 5288SOL    HW127323   0.377   4.462  11.181  1.1996  0.1157  1.1821
 5288SOL    HW227324   0.313   4.332  11.225  0.8873  0.1729 -2.2622
 5289SOL     OW27325   1.336   3.611   7.011 -0.2694  0.3381  0.4700
 5289SOL    HW127326   1.381   3.529   7.031 -0.7088  0.1051  0.5005
 5289SOL    HW227327   1.394   3.646   6.943  0.0282  2.5370  1.8512
 5290SOL     OW27328   1.804   1.387   1.824  0.1199 -0.3446  0.0244
 5290SOL    HW127329   1.767   1.320   1.880  1.2308 -2.6285 -1.9565
 5290SOL    HW227330   1.749   1.375   1.746 -1.3842 -3.2065  1.5459
 5291SOL     OW27331   3.992   0.627  11.332  0.1283  0.1167  0.7879
 5291SOL    HW127332   3.935   0.688  11.284  1.1511 -0.0817 -0.6652
 5291SOL    HW227333   4.051   0.686  11.378  1.1561 -0.6303  0.4067
 5292SOL     OW27334   0.640   3.323   7.364 -0.3562  0.2985 -0.2101
 5292SOL    HW127335   0.633   3.328   7.460 -0.5358  1.6020 -0.2855
 5292SOL    HW227336   0.685   3.244   7.334 -1.6322 -1.3252  2.1071
 5293SOL     OW27337   3.572   1.493   3.407  0.1650 -0.2097  0.0501
 5293SOL    HW127338   3.499   1.433   3.424 -1.4957  1.9451  0.6373
 5293SOL    HW227339   3.535   1.534   3.328  0.4128 -2.1243 -1.0630
 5294SOL     OW27340   2.747   1.273  15.715 -0.0838  0.3062 -0.6604
 5294SOL    HW127341   2.842   1.273  15.712 -0.1584 -1.5691 -2.5150
 5294SOL    HW227342   2.744   1.240  15.805  1.4728 -2.0988 -1.4810
 5295SOL     OW27343   3.843   3.431   6.033  0.5204 -0.3708 -0.1897
 5295SOL    HW127344   3.796   3.500   5.988  0.6011  0.3859  0.8771
 5295SOL    HW227345   3.827   3.356   5.976  2.6635 -0.8635 -0.1735
 5296SOL     OW27346   1.448   0.155   6.625 -0.0433 -0.4316  0.1233
 5296SOL    HW127347   1.536   0.194   6.625 -0.5427  0.6698  2.0138
 5296SOL    HW227348   1.473   0.063   6.613  2.9538  0.3886 -0.1493
 5297SOL     OW27349   4.332   0.231   0.876 -0.0616 -0.3893 -0.4335
 5297SOL    HW127350   4.396   0.300   0.892 -1.5369  0.7638  0.5066
 5297SOL    HW227351   4.373   0.149   0.902  1.5143  1.1449  1.9327
 5298SOL     OW27352   0.678   4.038  13.414  0.1282 -0.2780 -0.0080
 5298SOL    HW127353   0.727   3.982  13.354 -1.5362 -0.7071 -0.9663
 5298SOL    HW227354   0.620   3.976  13.459  1.1752 -1.6203 -0.5024
 5299SOL     OW27355   1.806   3.672   0.639  0.5682 -0.1567  0.0246
 5299SOL    HW127356   1.736   3.705   0.583 -0.4787 -2.2941  0.0291
 5299SOL    HW227357   1.798   3.577   0.629  1.2959 -0.2369  0.2258
 5300SOL     OW27358   2.437   3.086   8.159 -0.2180  0.1558 -0.0947
 5300SOL    HW127359   2.422   3.072   8.252 -0.1683  1.2874  0.0768
 5300SOL    HW227360   2.408   3.001   8.125 -2.2658  0.7936  0.0567
 5301SOL     OW27361   2.383   0.412  15.303  0.3001 -0.0177 -0.0897
 5301SOL    HW127362   2.451   0.347  15.287 -0.0063 -0.0818 -1.1673
 5301SOL    HW227363   2.396   0.472  15.229  0.3672  0.3431  0.2158
 5302SOL     OW27364   3.822   2.357   1.493 -0.2044 -0.6739  0.4732
 5302SOL    HW127365   3.788   2.400   1.571 -4.9756  0.9904 -2.5277
 5302SOL    HW227366   3.768   2.380   1.418  0.3913  0.8337  0.5046
 5303SOL     OW27367   3.396   1.353   8.151  0.2586 -0.0837  0.1242
 5303SOL    HW127368   3.477   1.309   8.126  1.6316  2.3599  0.2823
 5303SOL    HW227369   3.425   1.391   8.234  2.6777  0.0524 -0.7876
 5304SOL     OW27370   3.808   4.553   8.505  0.2376  0.5951  0.2219
 5304SOL    HW127371   3.754   4.599   8.441  0.4339  1.2029  0.4974
 5304SOL    HW227372   3.873   4.504   8.454  0.3312  0.3734  0.5523
 5305SOL     OW27373   4.216   2.653   9.449  0.3784 -0.1596  0.7594
 5305SOL    HW127374   4.167   2.730   9.478  1.0513  1.0397 -1.2178
 5305SOL    HW227375   4.226   2.671   9.355 -0.6309 -2.7926  0.1633
 5306SOL     OW27376   1.669   2.271   5.024 -0.1561 -0.4281 -0.5508
 5306SOL    HW127377   1.659   2.307   4.936  3.1989  1.6428 -0.0886
 5306SOL    HW227378   1.682   2.353   5.072 -0.3203 -1.4608  1.2564
 5307SOL     OW27379   4.272   0.631   9.569 -0.2212 -0.5119  0.3060
 5307SOL    HW127380   4.211   0.702   9.547 -0.3541 -0.5743  0.4693
 5307SOL    HW227381   4.244   0.565   9.506 -0.6365 -0.0043 -0.0405
 5308SOL     OW27382   1.309   4.512  13.536  0.0815  0.2541 -0.0779
 5308SOL    HW127383   1.300   4.589  13.481  1.2590 -0.0598 -0.7078
 5308SOL    HW227384   1.220   4.482  13.557  0.5824 -0.1467  1.4612
 5309SOL     OW27385   4.591   2.904   6.133  0.6195 -0.3120 -0.5728
 5309SOL    HW127386   4.523   2.964   6.101  1.9314 -0.0195 -2.8546
 5309SOL    HW227387   4.585   2.930   6.224  0.3688  0.0804 -0.7023
 5310SOL     OW27388   0.654   0.983   5.008  0.5686 -0.3798  0.0581
 5310SOL    HW127389   0.618   0.907   5.054  0.8662  1.1038  2.7547
 5310SOL    HW227390   0.581   1.046   5.005  0.6310 -0.4348 -2.4807
 5311SOL     OW27391   3.757   2.769   5.298  0.1206  0.2489  0.0030
 5311SOL    HW127392   3.767   2.803   5.209 -0.6050  2.3860  0.7433
 5311SOL    HW227393   3.746   2.847   5.352 -0.1827  1.2473 -1.5091
 5312SOL     OW27394   1.418   2.000   8.333 -0.2358  0.5099  0.1687
 5312SOL    HW127395   1.343   1.997   8.393 -1.3050  0.1833 -1.1945
 5312SOL    HW227396   1.484   2.052   8.378  1.2048  1.0522 -2.6332
 5313SOL     OW27397   0.268   2.838   6.794 -0.5185 -0.1365 -0.0404
 5313SOL    HW127398   0.270   2.910   6.857 -1.8124 -0.0081 -0.1612
 5313SOL    HW227399   0.327   2.873   6.727 -0.5418  0.8384  0.4533
 5314SOL     OW27400   2.842   4.672   3.095 -0.0031  0.2727 -0.1251
 5314SOL    HW127401   2.797   4.620   3.161 -1.9846  0.8248 -1.0164
 5314SOL    HW227402   2.830   4.616   3.018 -1.3001  1.0390 -0.4965
 5315SOL     OW27403   2.672   2.814   6.198 -0.5592 -0.1365  0.2305
 5315SOL    HW127404   2.719   2.898   6.197 -1.1181  0.1735 -0.0909
 5315SOL    HW227405   2.603   2.834   6.262 -2.9661  0.2763 -2.5053
 5316SOL     OW27406   0.450   2.456  14.298  0.4862 -0.3224  0.5844
 5316SOL    HW127407   0.524   2.512  14.275 -1.2480  2.4654  1.7612
 5316SOL    HW227408   0.382   2.516  14.327  0.3408  0.5511 -1.5677
 5317SOL     OW27409   3.066   2.441   5.446  0.4818  0.6311  0.5689
 5317SOL    HW127410   3.152   2.477   5.424  0.3419  1.1238  0.8374
 5317SOL    HW227411   3.048   2.473   5.534 -0.6767 -0.3086  0.6733
 5318SOL     OW27412   1.419   0.482   7.287 -0.7101  0.2273  0.2131
 5318SOL    HW127413   1.480   0.477   7.360  0.2180 -2.2469 -0.7208
 5318SOL    HW227414   1.372   0.560   7.318 -2.3688 -0.1787 -1.2827
 5319SOL     OW27415   0.825   1.686  13.617  0.1642 -0.6238  0.5547
 5319SOL    HW127416   0.838   1.779  13.634  0.1045 -0.8151  1.6113
 5319SOL    HW227417   0.745   1.683  13.564 -0.0999  0.8211  0.8957
 5320SOL     OW27418   3.979   0.976   6.794 -0.3237 -0.3897  0.5919
 5320SOL    HW127419   3.895   0.964   6.749 -1.0556  2.0394  1.3128
 5320SOL    HW227420   4.041   0.980   6.721 -1.6572 -0.2660 -0.5326
 5321SOL     OW27421   3.671   1.133   4.556  0.4506  0.5487  0.3147
 5321SOL    HW127422   3.719   1.083   4.622  2.8247 -0.0190 -1.8866
 5321SOL    HW227423   3.724   1.211   4.539  0.0848  0.9255  0.8836
 5322SOL     OW27424   0.522   2.021   6.310  0.3076 -0.1101 -0.2259
 5322SOL    HW127425   0.552   2.092   6.254 -2.0472 -0.3318 -1.7563
 5322SOL    HW227426   0.604   1.995   6.353  0.8382 -0.1842 -1.2793
 5323SOL     OW27427   2.892   0.462   9.565  0.3143  0.0284 -0.6148
 5323SOL    HW127428   2.942   0.434   9.642 -1.4144 -1.1614  0.0694
 5323SOL    HW227429   2.820   0.510   9.606  0.8594  0.3352  0.0002
 5324SOL     OW27430   4.690   3.963   2.609 -0.7941  0.1248  0.7151
 5324SOL    HW127431   4.678   3.951   2.514 -0.2374  2.3930  0.3631
 5324SOL    HW227432   0.057   3.987   2.615 -0.8543  0.6661 -0.5969
 5325SOL     OW27433   0.281   2.103   8.592 -0.2091  0.3279 -0.2653
 5325SOL    HW127434   0.347   2.060   8.647 -0.4281  0.4817  0.1201
 5325SOL    HW227435   0.214   2.118   8.660  0.2226  0.4511  0.1317
 5326SOL     OW27436   4.458   2.691   2.446  0.1899  0.6954  0.1955
 5326SOL    HW127437   4.544   2.710   2.484 -0.6850  0.6768  2.1997
 5326SOL    HW227438   4.400   2.753   2.491 -0.4617  0.0760  0.2091
 5327SOL     OW27439   1.905   3.713   4.900  0.0044 -0.0549 -0.2268
 5327SOL    HW127440   1.935   3.629   4.866 -0.3691  0.5079 -1.9001
 5327SOL    HW227441   1.937   3.768   4.829 -1.6751  0.0831 -0.8801
 5328SOL     OW27442   3.011   3.388  15.653 -0.1056  0.2211 -0.2699
 5328SOL    HW127443   3.084   3.398  15.591 -0.2906  0.1446 -0.5009
 5328SOL    HW227444   2.970   3.309  15.616 -0.7413  0.0550  0.8042
 5329SOL     OW27445   1.194   2.255   4.213 -0.5860  0.4444  0.1674
 5329SOL    HW127446   1.210   2.165   4.241  0.5326  0.7664  0.5655
 5329SOL    HW227447   1.276   2.279   4.170 -2.0584  0.0934 -2.8653
 5330SOL     OW27448   2.414   1.512   8.376  0.2624  0.3944  0.1113
 5330SOL    HW127449   2.417   1.449   8.304 -0.9909  0.5397 -0.0706
 5330SOL    HW227450   2.487   1.571   8.365  1.4952 -0.7704  1.9272
 5331SOL     OW27451   0.722   2.521   7.810  0.3094 -0.0346 -0.3940
 5331SOL    HW127452   0.675   2.496   7.731 -0.6624  2.2001 -0.5243
 5331SOL    HW227453   0.661   2.495   7.880  2.5272 -0.6248  1.3442
 5332SOL     OW27454   1.325   2.098   4.911 -0.2331 -0.0862  0.5951
 5332SOL    HW127455   1.410   2.057   4.907 -1.3698 -2.1169 -2.3547
 5332SOL    HW227456   1.281   2.020   4.943 -1.0132 -0.1434 -0.6181
 5333SOL     OW27457   1.533   1.727   4.816 -0.4253 -0.0159  0.0960
 5333SOL    HW127458   1.488   1.719   4.900  1.6479 -1.4460  1.0879
 5333SOL    HW227459   1.621   1.760   4.837 -0.0076 -0.4038 -1.0418
 5334SOL     OW27460   2.800   0.842   1.527  0.7202 -0.1677 -0.0615
 5334SOL    HW127461   2.847   0.763   1.551  0.8952  0.0178  0.2068
 5334SOL    HW227462   2.766   0.810   1.443 -0.8467  1.6444 -0.1303
 5335SOL     OW27463   3.150   3.095   1.345  0.0096 -0.2328 -0.1241
 5335SOL    HW127464   3.127   3.018   1.396  2.8554  1.2594  3.4321
 5335SOL    HW227465   3.232   3.122   1.387  0.4466  0.2442 -1.2777
 5336SOL     OW27466   1.280   1.833   6.312  0.1226 -0.3358 -0.4442
 5336SOL    HW127467   1.248   1.767   6.251  0.3968  0.9733 -1.9802
 5336SOL    HW227468   1.354   1.790   6.355 -0.5755 -1.7057 -0.6134
 5337SOL     OW27469   1.673   3.994   2.315  0.5171  0.4081 -0.8396
 5337SOL    HW127470   1.744   4.055   2.334 -1.0089  1.0939  2.5800
 5337SOL    HW227471   1.710   3.935   2.249 -0.5110 -2.2332  0.9720
 5338SOL     OW27472   2.239   0.497   7.183 -0.2538  0.1797 -0.8455
 5338SOL    HW127473   2.318   0.460   7.143 -0.9526 -2.3387  0.0961
 5338SOL    HW227474   2.198   0.415   7.209  2.0249 -1.1909 -1.6297
 5339SOL     OW27475   2.398   1.235  11.031 -0.2698 -0.1892 -0.3131
 5339SOL    HW127476   2.336   1.288  10.981 -0.3965 -1.0098 -1.0155
 5339SOL    HW227477   2.335   1.164  11.040 -0.3683 -0.0620  0.0281
 5340SOL     OW27478   1.270   4.217   6.280  0.0330 -0.4513  0.3976
 5340SOL    HW127479   1.320   4.289   6.319 -0.7193  0.9738 -1.3263
 5340SOL    HW227480   1.182   4.252   6.267 -1.1005 -1.9393  4.1020
 5341SOL     OW27481   0.061   4.142  17.468  0.0316  0.0437 -0.4341
 5341SOL    HW127482   0.062   4.113  17.377 -1.9270 -1.6605  0.1002
 5341SOL    HW227483   0.098   4.229  17.449  2.2985 -0.5029  1.4403
 5342SOL     OW27484   2.190   4.398   7.770 -0.1158  0.1699  0.6501
 5342SOL    HW127485   2.107   4.394   7.817 -0.2348 -1.8201  0.3084
 5342SOL    HW227486   2.241   4.329   7.812  0.5922  0.9833  1.1195
 5343SOL     OW27487   1.816   3.519   3.639 -0.6555  0.4952  0.7890
 5343SOL    HW127488   1.802   3.538   3.547  1.9662 -2.0433 -0.1174
 5343SOL    HW227489   1.729   3.498   3.672 -1.1660  1.6813  0.2075
 5344SOL     OW27490   4.594   2.875   7.249  0.1807 -0.2271 -0.3312
 5344SOL    HW127491   4.561   2.905   7.164 -0.0788  0.1006 -0.1151
 5344SOL    HW227492   4.658   2.943   7.270 -2.1292  1.6443  0.6718
 5345SOL     OW27493   1.521   0.981   7.871  0.4780 -0.4283 -0.1174
 5345SOL    HW127494   1.590   0.960   7.934  2.0198  0.9420 -1.3597
 5345SOL    HW227495   1.568   1.048   7.820 -0.1756  1.2655  1.4872
 5346SOL     OW27496   1.951   3.420  17.188  0.4938 -0.3339  0.2230
 5346SOL    HW127497   2.028   3.449  17.237  0.0777  0.6905  0.2657
 5346SOL    HW227498   1.995   3.395  17.106  0.7159 -3.5647  1.3137
 5347SOL     OW27499   3.681   1.446  14.816 -0.2160  0.0379 -0.5093
 5347SOL    HW127500   3.698   1.465  14.908 -0.3870 -0.7586 -0.3153
 5347SOL    HW227501   3.628   1.521  14.790 -1.3926 -0.9821 -1.0459
 5348SOL     OW27502   2.814   2.743  17.071  0.3893 -0.1087  0.1386
 5348SOL    HW127503   2.900   2.708  17.047 -0.1098 -0.2098 -1.4891
 5348SOL    HW227504   2.752   2.683  17.031  0.0216 -1.3297  2.5576
 5349SOL     OW27505   1.077   0.377   5.074  1.6037 -0.3016  0.2296
 5349SOL    HW127506   1.041   0.460   5.107  1.8185 -0.8003  1.7088
 5349SOL    HW227507   1.168   0.402   5.060  1.1554  0.8425 -0.6422
 5350SOL     OW27508   0.975   3.086   4.427  0.1296  0.1536 -0.0863
 5350SOL    HW127509   0.932   3.001   4.434  2.5631 -0.9129  1.6129
 5350SOL    HW227510   1.055   3.065   4.380  0.0366  1.2482 -0.7503
 5351SOL     OW27511   3.509   3.228   5.315  0.3139 -0.2879 -0.2798
 5351SOL    HW127512   3.513   3.265   5.403 -2.1198 -0.3680 -0.1394
 5351SOL    HW227513   3.429   3.271   5.286 -0.1817  0.1766  1.7436
 5352SOL     OW27514   2.224   1.087   9.119  0.1927  0.2629 -0.5521
 5352SOL    HW127515   2.162   1.159   9.130  1.1010  0.5439  2.7886
 5352SOL    HW227516   2.170   1.008   9.114  0.0822  0.2373  1.1231
 5353SOL     OW27517   0.928   1.352   9.117  0.2141 -0.2597 -0.2338
 5353SOL    HW127518   0.850   1.298   9.105  0.0435 -0.1566  0.4190
 5353SOL    HW227519   0.923   1.368   9.211  2.4997  1.0770 -0.3309
 5354SOL     OW27520   3.448   4.600  12.189 -0.1862 -0.5519  0.0073
 5354SOL    HW127521   3.415   4.570  12.273  0.5037 -0.1762  0.4120
 5354SOL    HW227522   3.406   4.686  12.181 -2.0197 -1.3471  1.1601
 5355SOL     OW27523   0.649   3.996  17.537  0.0398  0.2334 -0.0362
 5355SOL    HW127524   0.611   3.993  17.625 -0.0431 -2.4935 -0.1822
 5355SOL    HW227525   0.639   4.091  17.530  1.2561  0.5273  1.9256
 5356SOL     OW27526   3.882   3.598  17.540 -0.0226 -0.5878  0.1077
 5356SOL    HW127527   3.922   3.666  17.486 -1.1467 -0.1686 -0.2026
 5356SOL    HW227528   3.807   3.643  17.578  1.1047 -0.0508  1.7004
 5357SOL     OW27529   1.074   3.562  16.764 -0.2380  0.3537 -0.0401
 5357SOL    HW127530   1.136   3.627  16.731 -0.2628  1.5951  2.4252
 5357SOL    HW227531   1.005   3.601  16.817 -0.3431  1.3010 -0.8703
 5358SOL     OW27532   0.193   0.817   9.652 -0.0635 -0.1362 -0.2691
 5358SOL    HW127533   0.132   0.871   9.702  2.1442 -0.1160  2.3963
 5358SOL    HW227534   0.188   0.858   9.566  0.2736 -0.6863 -0.5530
 5359SOL     OW27535   3.563   1.680  14.701 -0.0566 -0.0749 -0.4265
 5359SOL    HW127536   3.559   1.775  14.714  0.6253 -0.1398  0.3106
 5359SOL    HW227537   3.613   1.666  14.620  0.9473 -1.5793  0.4500
 5360SOL     OW27538   0.074   3.553   6.611  0.1775 -0.5182 -0.0341
 5360SOL    HW127539   0.142   3.597   6.559 -0.3866  1.4595  0.9299
 5360SOL    HW227540   0.006   3.578   6.549  0.0687 -0.0910  0.2622
 5361SOL     OW27541   2.663   4.718   8.049  0.4607  0.1991 -0.6598
 5361SOL    HW127542   2.652   4.687   8.139 -0.5774 -1.4803 -1.3672
 5361SOL    HW227543   2.698   0.081   8.060  0.6415 -0.1661  1.5397
 5362SOL     OW27544   1.163   3.964   5.791  0.5225  0.2071  0.0861
 5362SOL    HW127545   1.227   4.032   5.812  1.0195 -0.2748  0.1304
 5362SOL    HW227546   1.144   3.926   5.877  2.7107  1.6850  1.2106
 5363SOL     OW27547   2.859   1.530   6.708 -0.2853  0.0064  0.2863
 5363SOL    HW127548   2.858   1.514   6.614 -1.2947  1.2049  0.0874
 5363SOL    HW227549   2.869   1.441   6.742 -2.6744  0.2192  1.5001
 5364SOL     OW27550   3.997   2.194   8.175  0.7306 -0.4714 -0.6826
 5364SOL    HW127551   3.913   2.212   8.132  1.1413  1.1834 -0.8012
 5364SOL    HW227552   3.991   2.102   8.201  1.0674 -0.0597  0.8645
 5365SOL     OW27553   4.716   0.636  12.565 -0.4210  0.2083  0.1692
 5365SOL    HW127554   0.014   0.670  12.478  3.4186 -3.1377 -0.0850
 5365SOL    HW227555   4.652   0.698  12.599  0.1056  0.7454  0.1733
 5366SOL     OW27556   4.239   1.443   2.461 -0.2891 -0.8959  0.1081
 5366SOL    HW127557   4.300   1.493   2.516  0.4445 -2.1849  0.4497
 5366SOL    HW227558   4.196   1.511   2.409  0.6026  0.4156  1.0593
 5367SOL     OW27559   4.465   2.269  16.101  0.3614 -1.0385  0.2537
 5367SOL    HW127560   4.455   2.175  16.090 -2.9031 -0.8006  1.1596
 5367SOL    HW227561   4.556   2.268  16.132  0.2404  0.0012  0.6335
 5368SOL     OW27562   3.439   3.222  14.863 -0.3388 -0.2630 -0.2035
 5368SOL    HW127563   3.406   3.258  14.781  0.4136  1.6959  0.3533
 5368SOL    HW227564   3.406   3.292  14.921  1.2156 -0.0950  0.4753
 5369SOL     OW27565   0.730   1.223   5.937  0.0903 -0.1857  0.3601
 5369SOL    HW127566   0.748   1.129   5.943  0.3207 -0.3092 -2.1594
 5369SOL    HW227567   0.685   1.244   6.019  1.3009  1.4638  0.5868
 5370SOL     OW27568   4.104   4.253  13.378 -0.3408  0.1742 -0.1477
 5370SOL    HW127569   4.069   4.168  13.350  1.9353 -0.3971 -1.2904
 5370SOL    HW227570   4.149   4.216  13.454 -1.6811  0.2146  0.6574
 5371SOL     OW27571   4.130   4.240   0.929  0.2940  0.1545 -0.4496
 5371SOL    HW127572   4.169   4.158   0.958  2.4273  1.9237  1.6806
 5371SOL    HW227573   4.184   4.297   0.984 -2.8076  2.4186  0.2706
 5372SOL     OW27574   4.079   0.772   2.614 -0.1860  0.3185  0.3612
 5372SOL    HW127575   3.993   0.763   2.656 -0.2424 -0.1134  0.1625
 5372SOL    HW227576   4.110   0.681   2.608  0.9691  0.5798  2.4752
 5373SOL     OW27577   4.674   0.488   2.704  0.4226 -0.1216  0.6773
 5373SOL    HW127578   4.609   0.465   2.638  0.9292 -1.8092  0.7519
 5373SOL    HW227579   0.033   0.485   2.658 -1.5461 -0.1997 -2.8853
 5374SOL     OW27580   0.121   2.838   3.748  0.1343 -0.2385 -0.2341
 5374SOL    HW127581   0.165   2.914   3.709  1.2510 -0.1018  1.2886
 5374SOL    HW227582   0.172   2.769   3.705  0.3061 -0.7445  0.7693
 5375SOL     OW27583   4.195   3.028   4.033 -0.0002 -0.3573 -0.6075
 5375SOL    HW127584   4.147   2.947   4.017  0.9515 -0.6610 -1.9854
 5375SOL    HW227585   4.286   3.001   4.046  0.6079  2.3498  0.6519
 5376SOL     OW27586   4.631   2.120  15.887  0.3257  0.3995 -0.4100
 5376SOL    HW127587   4.575   2.195  15.908 -0.7079 -0.0094 -1.7179
 5376SOL    HW227588   4.695   2.168  15.833  2.2171 -0.0005  1.4797
 5377SOL     OW27589   3.760   0.459  15.452 -0.2927  0.3195 -0.0614
 5377SOL    HW127590   3.677   0.505  15.446  0.8397  2.3773  0.3526
 5377SOL    HW227591   3.816   0.512  15.509 -0.5653  0.7248 -0.1743
 5378SOL     OW27592   4.407   2.643   2.194  0.2647 -0.9853 -0.1900
 5378SOL    HW127593   4.495   2.622   2.163  1.0272  0.4075  1.0392
 5378SOL    HW227594   4.417   2.662   2.287 -0.7795 -1.7931  0.0821
 5379SOL     OW27595   3.633   1.499   4.099  0.1215 -0.2177  0.1782
 5379SOL    HW127596   3.626   1.581   4.050  0.4776 -0.6815 -0.6461
 5379SOL    HW227597   3.649   1.440   4.025  0.2560 -0.2139  0.2038
 5380SOL     OW27598   3.110   2.249   7.503  0.4812 -0.4237  0.2751
 5380SOL    HW127599   3.201   2.278   7.496 -0.0612  0.8471 -1.5475
 5380SOL    HW227600   3.083   2.264   7.593 -2.3204 -1.2186 -0.4309
 5381SOL     OW27601   1.266   4.017   8.586  0.5846 -0.5872 -0.6772
 5381SOL    HW127602   1.284   4.110   8.605 -0.1890 -1.0783  2.4473
 5381SOL    HW227603   1.314   3.982   8.661  1.8777  0.1613 -1.1533
 5382SOL     OW27604   2.686   0.803   7.950  0.0403  0.0810 -0.0542
 5382SOL    HW127605   2.767   0.757   7.968  0.3741  0.3016 -0.9943
 5382SOL    HW227606   2.666   0.788   7.857 -1.0226  1.8291 -0.1201
 5383SOL     OW27607   1.412   4.303  12.282  0.0141  0.4878 -0.4227
 5383SOL    HW127608   1.321   4.305  12.312 -1.0051  4.3745 -3.6984
 5383SOL    HW227609   1.460   4.317  12.363 -0.0080 -0.3475 -0.2688
 5384SOL     OW27610   3.875   0.774   6.989 -0.0530 -0.0816  0.3171
 5384SOL    HW127611   3.929   0.842   6.949 -0.6046 -0.3745 -0.9240
 5384SOL    HW227612   3.855   0.718   6.915  0.9421 -1.5847  1.1818
 5385SOL     OW27613   3.450   0.565   6.981 -0.2197 -0.0799 -0.1705
 5385SOL    HW127614   3.499   0.531   6.906  0.3371 -0.5271  0.3987
 5385SOL    HW227615   3.499   0.646   6.987 -0.9649  0.5044 -2.0179
 5386SOL     OW27616   2.336   3.311   3.967  0.0704 -0.4975 -0.1514
 5386SOL    HW127617   2.295   3.380   3.915  1.6439  0.5193 -0.0320
 5386SOL    HW227618   2.425   3.343   3.957  0.0396 -0.6295 -0.8977
 5387SOL     OW27619   2.105   2.560   7.346  0.0258  0.3351 -0.0031
 5387SOL    HW127620   2.130   2.525   7.260  1.7390 -0.1746  0.7163
 5387SOL    HW227621   2.010   2.567   7.332  0.2947 -0.7553 -2.3996
 5388SOL     OW27622   3.025   1.606  12.873 -0.1691 -0.1311 -0.3932
 5388SOL    HW127623   2.968   1.543  12.829 -1.4101  0.4738  0.3452
 5388SOL    HW227624   3.066   1.650  12.799  1.8068 -0.4642  0.5164
 5389SOL     OW27625   4.459   0.806   3.004 -0.0434  0.0724  0.2480
 5389SOL    HW127626   4.535   0.759   2.969 -0.8074 -1.9955  1.3913
 5389SOL    HW227627   4.456   0.766   3.091  0.4015  0.7680  0.5890
 5390SOL     OW27628   3.934   4.147  10.616 -0.4506 -0.5182  0.0882
 5390SOL    HW127629   4.023   4.175  10.635 -0.3884 -1.3302  0.9601
 5390SOL    HW227630   3.941   4.055  10.642 -0.8464 -1.2190 -2.2515
 5391SOL     OW27631   3.322   2.146   6.087  0.0794  0.0751  0.0275
 5391SOL    HW127632   3.310   2.092   6.008 -0.5002 -1.2037  0.9795
 5391SOL    HW227633   3.392   2.206   6.061 -0.3460  1.7084  2.6033
 5392SOL     OW27634   3.371   3.409   6.286 -0.1838  0.4191 -0.2215
 5392SOL    HW127635   3.396   3.440   6.373 -0.0513 -1.0897  0.2925
 5392SOL    HW227636   3.459   3.380   6.261  0.7961  2.9912  0.2894
 5393SOL     OW27637   1.645   4.513   4.899  0.3488  0.7162 -0.8853
 5393SOL    HW127638   1.560   4.468   4.893  0.2761  0.8800 -1.1078
 5393SOL    HW227639   1.631   4.590   4.953  0.7673  1.0159 -1.2071
 5394SOL     OW27640   0.655   2.891  14.928 -0.0120  0.2628  0.5445
 5394SOL    HW127641   0.616   2.806  14.908 -0.4088  1.3149 -3.2215
 5394SOL    HW227642   0.733   2.854  14.968 -0.6012 -2.2680 -0.6481
 5395SOL     OW27643   2.292   1.547   7.716  0.4637  0.4589 -0.6368
 5395SOL    HW127644   2.363   1.527   7.654 -1.3552 -1.3988 -2.1416
 5395SOL    HW227645   2.342   1.578   7.790  1.2469 -1.3569 -0.4050
 5396SOL     OW27646   3.018   0.697   2.580  0.1723 -0.2917 -0.7343
 5396SOL    HW127647   3.106   0.684   2.614 -0.4644 -0.1517  0.9987
 5396SOL    HW227648   3.035   0.661   2.493 -0.4753 -2.5695  0.0634
 5397SOL     OW27649   2.939   1.616   6.460  0.1587 -0.6627  0.2503
 5397SOL    HW127650   2.887   1.600   6.381  0.9722  1.1595 -0.6694
 5397SOL    HW227651   2.960   1.707   6.436  0.2189 -0.4414  1.1248
 5398SOL     OW27652   1.726   3.052  12.638 -0.2768 -0.6260 -0.4967
 5398SOL    HW127653   1.732   2.969  12.685 -2.6293 -0.9791 -0.8492
 5398SOL    HW227654   1.730   3.033  12.545  2.8320  2.6962 -1.0744
 5399SOL     OW27655   0.111   0.526   0.107  0.6094 -0.2352 -0.4766
 5399SOL    HW127656   0.031   0.474   0.105 -0.4242  1.4003 -1.4553
 5399SOL    HW227657   0.182   0.475   0.067  0.9590 -0.5619  0.5477
 5400SOL     OW27658   1.365   4.335   1.336  0.1699  0.0354  0.9400
 5400SOL    HW127659   1.302   4.284   1.388 -1.6386  0.8824 -0.3829
 5400SOL    HW227660   1.311   4.379   1.269  1.6309  2.3303  1.3031
 5401SOL     OW27661   0.617   2.320  15.987  0.2028  1.0298  0.4106
 5401SOL    HW127662   0.654   2.401  16.023 -0.9969  1.8666 -0.2657
 5401SOL    HW227663   0.695   2.268  15.964  0.4351  0.3240  2.8177
 5402SOL     OW27664   4.607   0.769   9.968  0.2652 -0.3851  0.5247
 5402SOL    HW127665   4.696   0.747   9.996 -0.0108 -0.5987  1.2291
 5402SOL    HW227666   4.548   0.698   9.992 -0.1932 -0.3797 -0.6178
 5403SOL     OW27667   4.078   3.409   6.145  0.6640  0.2967  0.0462
 5403SOL    HW127668   4.000   3.449   6.105  0.0020  1.1109  2.1142
 5403SOL    HW227669   4.108   3.483   6.198  0.5058  1.6850 -1.7999
 5404SOL     OW27670   1.180   0.791  11.349 -0.0096 -0.1865 -0.3139
 5404SOL    HW127671   1.225   0.856  11.295  0.8425  0.3284  1.0267
 5404SOL    HW227672   1.136   0.857  11.403 -1.3601  2.2755 -4.4676
 5405SOL     OW27673   3.540   3.013   8.465 -0.8372 -0.2919  0.1890
 5405SOL    HW127674   3.468   2.982   8.520 -0.0207 -0.2180  1.3024
 5405SOL    HW227675   3.510   3.099   8.436 -1.2069 -0.9490 -1.3718
 5406SOL     OW27676   4.224   1.727   6.833 -0.4351 -0.3109 -0.0558
 5406SOL    HW127677   4.155   1.664   6.851 -0.3919 -0.0112  1.2028
 5406SOL    HW227678   4.208   1.743   6.740 -1.6110  1.3938  0.4255
 5407SOL     OW27679   1.616   3.407  10.812  0.2956  0.3510  0.3090
 5407SOL    HW127680   1.670   3.350  10.757 -2.6631 -1.4807 -0.7074
 5407SOL    HW227681   1.649   3.487  10.771  2.3262 -0.5992  0.1171
 5408SOL     OW27682   0.208   0.038   3.038 -0.4451 -0.4642  0.1850
 5408SOL    HW127683   0.136   4.713   3.076 -0.9311  0.6995  0.8212
 5408SOL    HW227684   0.205   0.116   3.095 -0.0207 -0.3151  0.0078
 5409SOL     OW27685   2.976   0.182  17.353  0.2492  0.0433 -0.3235
 5409SOL    HW127686   2.900   0.126  17.369 -0.5334  1.7037  1.8249
 5409SOL    HW227687   3.003   0.207  17.441  0.3252  4.6312 -1.6463
 5410SOL     OW27688   3.208   1.508  13.787 -0.2243 -0.2822 -0.1873
 5410SOL    HW127689   3.270   1.455  13.837 -0.4838  0.2204  0.6682
 5410SOL    HW227690   3.129   1.489  13.838  0.9115  1.4132  2.1984
 5411SOL     OW27691   1.786   4.625   4.687 -0.2577 -0.1729  0.1689
 5411SOL    HW127692   1.742   4.584   4.762 -1.6856  1.6804  0.3336
 5411SOL    HW227693   1.850   4.686   4.723 -1.4632  1.4014 -0.3751
 5412SOL     OW27694   1.890   4.108   4.910  0.1801  0.7712  0.3764
 5412SOL    HW127695   1.927   4.087   4.995 -0.8561 -0.8499  0.4210
 5412SOL    HW227696   1.902   4.203   4.903 -1.2911  0.8737 -0.8029
 5413SOL     OW27697   0.553   2.021  13.630  0.8303 -0.1774 -0.1671
 5413SOL    HW127698   0.525   2.012  13.539  0.3985  0.4459 -0.0947
 5413SOL    HW227699   0.491   1.960  13.669 -1.6643  1.0467 -2.2673
 5414SOL     OW27700   0.509   2.729   9.822  0.2250 -0.3740 -0.0936
 5414SOL    HW127701   0.433   2.737   9.765  1.0353  1.8045 -0.8905
 5414SOL    HW227702   0.590   2.749   9.775 -0.2112 -0.0104 -0.6903
 5415SOL     OW27703   1.102   3.638   8.257 -0.1770  0.4552  0.1925
 5415SOL    HW127704   1.160   3.714   8.262 -0.5105  0.6379  1.3350
 5415SOL    HW227705   1.090   3.622   8.351 -0.3358 -1.1369 -0.0960
 5416SOL     OW27706   1.094   0.343   2.887 -0.0163 -0.0859 -0.1218
 5416SOL    HW127707   1.085   0.429   2.847  1.3045 -0.4382 -1.1643
 5416SOL    HW227708   1.092   0.282   2.813  0.3620  1.0704 -1.0710
 5417SOL     OW27709   0.997   2.771  17.545  0.0939  0.1772  0.1990
 5417SOL    HW127710   1.074   2.826  17.529  0.6198 -1.5775 -3.2442
 5417SOL    HW227711   0.932   2.841  17.558 -2.0719 -1.3561 -2.3834
 5418SOL     OW27712   2.940   2.208   7.739 -0.7240  0.1377 -0.1271
 5418SOL    HW127713   2.848   2.199   7.763 -0.3122 -0.7774  1.0457
 5418SOL    HW227714   2.961   2.117   7.721  0.2076  0.6378 -1.6015
 5419SOL     OW27715   2.304   0.767  14.924 -0.2269 -0.2493 -0.3218
 5419SOL    HW127716   2.209   0.777  14.925 -0.2073  0.1903 -1.9948
 5419SOL    HW227717   2.322   0.771  15.018 -0.4985  1.9495 -0.3510
 5420SOL     OW27718   0.496   3.507   9.445 -0.0945  0.0869  0.4147
 5420SOL    HW127719   0.423   3.523   9.505 -1.7348  0.5790 -1.7099
 5420SOL    HW227720   0.453   3.464   9.371 -1.5167 -0.7587  1.7287
 5421SOL     OW27721   2.495   2.922   6.378  0.3286  0.1706  0.6202
 5421SOL    HW127722   2.426   2.933   6.444 -0.5994 -0.4515 -0.2424
 5421SOL    HW227723   2.490   3.013   6.349 -1.2608  0.1688  0.8721
 5422SOL     OW27724   3.272   1.691   7.427  0.1079 -0.0353  0.7330
 5422SOL    HW127725   3.224   1.774   7.429 -0.8944 -0.6108  0.2149
 5422SOL    HW227726   3.351   1.733   7.462  0.2332 -0.3102  0.7787
 5423SOL     OW27727   4.584   1.647   8.414 -0.8037 -0.1750  0.1433
 5423SOL    HW127728   4.613   1.603   8.334 -1.8401 -1.1913  0.3247
 5423SOL    HW227729   4.497   1.612   8.428 -1.5376  1.4676 -0.3467
 5424SOL     OW27730   0.294   2.602   2.882  0.1840 -0.0577  0.1594
 5424SOL    HW127731   0.345   2.578   2.959  2.0205 -0.0919 -1.0605
 5424SOL    HW227732   0.353   2.589   2.807 -3.2569  3.6053 -3.1175
 5425SOL     OW27733   3.080   2.962   9.632 -0.5192  0.4261  0.4638
 5425SOL    HW127734   3.147   3.006   9.581 -0.6578  0.0522 -0.0412
 5425SOL    HW227735   3.015   2.945   9.564 -2.3391  1.3948  1.9679
 5426SOL     OW27736   1.999   0.547   4.241 -0.5516 -0.5648 -0.2051
 5426SOL    HW127737   1.979   0.542   4.335 -1.8947 -1.3028 -0.5297
 5426SOL    HW227738   1.991   0.641   4.226 -0.0184 -1.1469 -4.0010
 5427SOL     OW27739   2.223   3.754   7.738 -0.5841  0.0598 -0.5318
 5427SOL    HW127740   2.288   3.823   7.723  2.8712 -3.0168  0.2929
 5427SOL    HW227741   2.252   3.728   7.826 -0.9603  3.2988  0.5637
 5428SOL     OW27742   1.697   0.499   4.210  0.2119 -0.2010 -0.7634
 5428SOL    HW127743   1.712   0.409   4.182 -1.2382 -0.4281 -0.7928
 5428SOL    HW227744   1.788   0.527   4.208  0.0264  0.3092 -1.8733
 5429SOL     OW27745   2.564   2.213  12.552 -0.0170  0.1871 -0.3504
 5429SOL    HW127746   2.494   2.221  12.617  1.6009 -2.4800  1.6835
 5429SOL    HW227747   2.507   2.211  12.475 -1.8268 -2.1242  1.0543
 5430SOL     OW27748   1.451   2.438  16.313  0.0620  0.2333 -0.5160
 5430SOL    HW127749   1.428   2.474  16.227  2.1240  3.1344  0.1433
 5430SOL    HW227750   1.412   2.512  16.359  0.8138  0.6368 -0.5359
 5431SOL     OW27751   2.570   1.885  11.686  0.4058 -0.1276 -0.5220
 5431SOL    HW127752   2.535   1.913  11.601 -3.0890 -1.0634  0.6422
 5431SOL    HW227753   2.589   1.795  11.659 -0.5306 -0.6550  0.6063
 5432SOL     OW27754   2.812   0.765  10.823 -0.3382  0.6721  0.6084
 5432SOL    HW127755   2.877   0.731  10.761  1.4614  1.4266  2.1169
 5432SOL    HW227756   2.815   0.860  10.816  0.6768  0.6600  0.9712
 5433SOL     OW27757   2.729   2.518   2.107  0.1972  0.1875  0.1158
 5433SOL    HW127758   2.728   2.445   2.045  3.8732  0.4918 -0.2467
 5433SOL    HW227759   2.794   2.482   2.167 -2.8760 -0.9285  2.7993
 5434SOL     OW27760   0.199   2.313   8.297  0.1163  0.3479 -0.0187
 5434SOL    HW127761   0.253   2.234   8.294 -0.7114 -0.1581 -1.7596
 5434SOL    HW227762   0.216   2.345   8.209  1.9656  1.1559  0.6272
 5435SOL     OW27763   2.618   3.683   6.151  0.2019  0.4100  0.3471
 5435SOL    HW127764   2.531   3.714   6.126  1.6165  0.0998 -4.9738
 5435SOL    HW227765   2.614   3.709   6.243 -0.1753  0.8170  0.2153
 5436SOL     OW27766   1.273   2.478   2.172  0.0139  0.1139 -0.1059
 5436SOL    HW127767   1.177   2.470   2.177  0.0560  0.5433  1.3548
 5436SOL    HW227768   1.287   2.568   2.200  2.6453 -0.5956  0.8785
 5437SOL     OW27769   3.731   1.523   9.457  0.3162 -0.0522 -0.3365
 5437SOL    HW127770   3.793   1.456   9.485  1.8124  2.1880  1.6949
 5437SOL    HW227771   3.659   1.495   9.512 -1.2178 -0.8998 -2.7973
 5438SOL     OW27772   0.596   3.562   6.176  0.0211 -0.4583  0.6378
 5438SOL    HW127773   0.557   3.482   6.141  1.4734 -1.1019  0.4674
 5438SOL    HW227774   0.520   3.614   6.200 -0.0137 -0.0900 -0.2728
 5439SOL     OW27775   3.440   2.387   4.955  0.3496  0.6324  0.2870
 5439SOL    HW127776   3.491   2.321   4.909  1.0502  0.7716  0.8617
 5439SOL    HW227777   3.441   2.459   4.892  1.2394 -0.1058 -0.5387
 5440SOL     OW27778   2.975   1.018   5.077  0.3383  0.0294 -0.5086
 5440SOL    HW127779   3.058   1.026   5.123  0.5656 -1.1501 -0.7129
 5440SOL    HW227780   3.001   1.042   4.988 -0.1688 -0.1952 -0.7189
 5441SOL     OW27781   0.984   1.199   1.817 -0.1209  0.7129  0.3693
 5441SOL    HW127782   1.010   1.230   1.904 -2.4598 -0.4457  1.4793
 5441SOL    HW227783   1.052   1.239   1.762 -0.8619  0.4203 -0.7632
 5442SOL     OW27784   3.449   0.406   8.035  0.2175 -0.6213 -0.1768
 5442SOL    HW127785   3.383   0.463   8.075 -0.1069 -2.2771  1.6167
 5442SOL    HW227786   3.422   0.323   8.073  0.3386 -1.0249 -0.9846
 5443SOL     OW27787   4.365   1.862  17.222  0.1646 -0.8888 -0.5938
 5443SOL    HW127788   4.436   1.839  17.281 -1.6321 -0.1664  1.8457
 5443SOL    HW227789   4.304   1.788  17.229  0.5080 -0.8599  2.8726
 5444SOL     OW27790   1.181   2.696   6.648 -0.0236 -0.4444 -0.0259
 5444SOL    HW127791   1.230   2.707   6.729 -1.6096  0.9092  0.7579
 5444SOL    HW227792   1.225   2.617   6.616 -1.6888 -0.6632 -1.8120
 5445SOL     OW27793   4.646   3.657   1.932  0.3789  0.6415 -0.0626
 5445SOL    HW127794   4.696   3.720   1.880 -0.0360  0.6350 -0.4647
 5445SOL    HW227795   4.721   3.623   1.981 -0.1235 -1.0459 -0.4603
 5446SOL     OW27796   1.116   3.282   7.945  0.0682  0.2020 -0.0947
 5446SOL    HW127797   1.087   3.373   7.940  0.5297  0.3789  0.4400
 5446SOL    HW227798   1.206   3.286   7.914 -0.3462 -1.9042 -1.6137
 5447SOL     OW27799   4.108   4.488   0.436  0.1939  0.3763 -0.3061
 5447SOL    HW127800   4.119   4.397   0.463 -0.6883  0.3974  0.1364
 5447SOL    HW227801   4.168   4.491   0.362  1.1639 -0.9627  0.4195
 5448SOL     OW27802   4.306   0.769  16.419 -0.1586 -0.1536  0.5339
 5448SOL    HW127803   4.228   0.738  16.374 -0.7118 -1.9935  2.7550
 5448SOL    HW227804   4.317   0.704  16.489  2.0251 -0.0638  0.2852
 5449SOL     OW27805   3.534   0.538  17.429  0.5859  0.4932 -0.4868
 5449SOL    HW127806   3.604   0.600  17.452  0.0504  1.0821 -0.4511
 5449SOL    HW227807   3.473   0.591  17.379 -1.0738  0.0489  1.0576
 5450SOL     OW27808   4.450   4.461   0.443  0.4650  0.2383  0.1227
 5450SOL    HW127809   4.539   4.485   0.418  0.7601  0.2213  1.1765
 5450SOL    HW227810   4.449   4.368   0.423 -1.0552  0.2871 -0.0715
 5451SOL     OW27811   0.580   2.455   8.038 -0.0515  0.1559  0.4775
 5451SOL    HW127812   0.618   2.446   8.125  0.2893  0.8288  0.3920
 5451SOL    HW227813   0.490   2.486   8.052 -0.3359  0.3429 -1.6376
 5452SOL     OW27814   3.975   3.901   4.353  0.2011  0.3310 -0.6294
 5452SOL    HW127815   3.894   3.924   4.397  0.4393  0.4832 -0.2694
 5452SOL    HW227816   4.018   3.985   4.337 -0.3690  0.5736 -0.8964
 5453SOL     OW27817   3.172   2.926  14.598 -0.7526 -0.5095 -0.5881
 5453SOL    HW127818   3.160   2.973  14.516 -1.2787 -2.7192 -1.7687
 5453SOL    HW227819   3.266   2.933  14.613 -0.8594 -1.5594  0.5680
 5454SOL     OW27820   2.822   3.190   7.291 -0.0091 -0.2153 -0.6829
 5454SOL    HW127821   2.795   3.250   7.222  0.0163 -0.8449 -1.2331
 5454SOL    HW227822   2.769   3.115   7.265 -0.5759 -0.5917  1.4810
 5455SOL     OW27823   1.875   3.804  10.377 -0.1021  0.3313  0.7488
 5455SOL    HW127824   1.860   3.717  10.413 -0.7800  0.2100  0.1643
 5455SOL    HW227825   1.796   3.813  10.324 -0.3998 -0.5823  1.0422
 5456SOL     OW27826   0.294   1.566  16.653  0.0471 -0.2035  0.1965
 5456SOL    HW127827   0.231   1.584  16.722 -1.2662 -1.2821 -0.7425
 5456SOL    HW227828   0.360   1.525  16.709  0.8774  1.0820  0.1746
 5457SOL     OW27829   1.420   3.837  10.523 -0.3352  0.0107  0.8351
 5457SOL    HW127830   1.347   3.796  10.569 -2.4631  0.3787 -2.2296
 5457SOL    HW227831   1.479   3.851  10.596  1.1642  3.9389 -1.1396
 5458SOL     OW27832   3.948   3.947  15.319 -0.0589  0.0795  0.5214
 5458SOL    HW127833   3.863   3.915  15.349 -0.9211  3.3663  1.5447
 5458SOL    HW227834   3.955   3.918  15.228  6.0958  0.3318  0.9430
 5459SOL     OW27835   4.244   2.636   7.845  0.0441 -0.2805  0.2410
 5459SOL    HW127836   4.185   2.706   7.873 -1.2413 -0.5349 -1.8286
 5459SOL    HW227837   4.276   2.619   7.933  0.0573 -1.6634 -0.0337
 5460SOL     OW27838   2.876   1.055   3.747  0.6057  0.1971 -0.2722
 5460SOL    HW127839   2.890   1.061   3.652  2.0698  1.3766  0.0351
 5460SOL    HW227840   2.920   1.128   3.789 -2.9028  1.8019  0.6620
 5461SOL     OW27841   0.757   2.396  17.698 -0.0884 -0.3026 -0.1676
 5461SOL    HW127842   0.752   2.315   0.044  2.9172 -1.5124 -1.8542
 5461SOL    HW227843   0.833   2.369  17.646  0.6677 -0.3211  0.9419
 5462SOL     OW27844   4.394   3.103   6.090 -0.4146  0.2494 -0.2180
 5462SOL    HW127845   4.405   3.191   6.126  0.7534  0.7895 -1.8520
 5462SOL    HW227846   4.302   3.087   6.110 -0.3929  1.9824  1.2621
 5463SOL     OW27847   4.454   0.278   9.108  0.1590 -0.1138 -0.3052
 5463SOL    HW127848   4.541   0.260   9.073 -0.3319  2.1262 -2.7021
 5463SOL    HW227849   4.404   0.296   9.028  0.5723 -0.2629 -0.5968
 5464SOL     OW27850   3.521   3.837   2.273 -0.1493  0.2718 -1.0833
 5464SOL    HW127851   3.588   3.845   2.341 -0.2833 -0.1180 -0.9076
 5464SOL    HW227852   3.477   3.922   2.284  0.7259  0.8322 -1.9078
 5465SOL     OW27853   2.074   2.903   7.035  0.0976  0.6160 -0.0364
 5465SOL    HW127854   1.985   2.938   7.040 -0.3423 -0.8697  2.7592
 5465SOL    HW227855   2.111   2.952   7.109  0.3117 -0.8353  0.8259
 5466SOL     OW27856   2.384   4.030   5.267 -0.2600 -0.1046 -0.0240
 5466SOL    HW127857   2.302   3.986   5.288  0.6053  0.7707  5.3616
 5466SOL    HW227858   2.375   4.000   5.177 -2.1683  0.8076 -0.1335
 5467SOL     OW27859   4.259   0.594  15.811 -0.3017  0.5730  0.3772
 5467SOL    HW127860   4.231   0.677  15.849  1.4533  0.6307  1.5510
 5467SOL    HW227861   4.352   0.595  15.834 -0.5669  0.0473  1.4519
 5468SOL     OW27862   3.364   2.654   3.293 -0.0778  0.4755 -0.5919
 5468SOL    HW127863   3.282   2.605   3.291 -0.5531  1.2527 -0.1755
 5468SOL    HW227864   3.413   2.616   3.220  0.2299 -0.5969  0.1823
 5469SOL     OW27865   1.765   3.465   1.578 -0.2857  0.4649  0.0159
 5469SOL    HW127866   1.822   3.525   1.530 -0.9015  0.6463 -0.4958
 5469SOL    HW227867   1.744   3.533   1.642 -1.5393  0.2692 -0.1794
 5470SOL     OW27868   0.995   2.511   4.822  0.2342 -0.1235 -0.1831
 5470SOL    HW127869   1.056   2.499   4.894  1.2569  1.7965 -0.7165
 5470SOL    HW227870   0.933   2.441   4.842 -1.1865  1.6447  1.5953
 5471SOL     OW27871   2.164   2.581  15.409 -0.3532 -0.1218 -0.0442
 5471SOL    HW127872   2.239   2.599  15.353 -1.1549 -1.9283 -1.6892
 5471SOL    HW227873   2.087   2.578  15.352  1.1768  1.0724 -2.1642
 5472SOL     OW27874   1.455   2.528   2.475 -0.2775  0.1741 -0.1341
 5472SOL    HW127875   1.532   2.544   2.421  0.8974 -0.2907  1.3931
 5472SOL    HW227876   1.483   2.488   2.558  0.6004 -0.0045 -0.5101
 5473SOL     OW27877   4.094   0.224   6.430 -0.2214  0.5004  0.1268
 5473SOL    HW127878   4.066   0.216   6.521  0.7413  0.6733  0.4376
 5473SOL    HW227879   4.111   0.134   6.400 -2.3075  0.0637  0.2026
 5474SOL     OW27880   4.392   0.067   7.927  0.0651 -0.1182 -0.7036
 5474SOL    HW127881   4.327   4.722   7.918  1.9975 -2.0593  0.5193
 5474SOL    HW227882   4.348   0.136   7.877  0.6878  0.4291 -0.4931
 5475SOL     OW27883   1.956   2.636   1.557 -0.3093 -0.8927 -0.0448
 5475SOL    HW127884   1.948   2.682   1.474 -1.0198 -2.0490 -0.6248
 5475SOL    HW227885   2.040   2.590   1.554  0.6037  0.6011  2.0711
 5476SOL     OW27886   1.600   1.067  11.265 -1.1799  0.0864 -0.1192
 5476SOL    HW127887   1.513   1.027  11.259 -2.5541  3.0952  0.0678
 5476SOL    HW227888   1.582   1.085  11.358 -0.9603 -1.8980  0.3289
 5477SOL     OW27889   0.520   2.022  14.850 -0.1728 -0.2678  0.0748
 5477SOL    HW127890   0.520   2.118  14.844 -0.3244 -0.3296 -0.8062
 5477SOL    HW227891   0.426   2.004  14.851 -0.0185 -1.1279 -1.3443
 5478SOL     OW27892   0.788   2.796   1.129 -0.1450 -0.0227  0.0581
 5478SOL    HW127893   0.815   2.752   1.048 -0.6350  0.0017 -0.1183
 5478SOL    HW227894   0.739   2.873   1.100  0.1106  0.1941  0.2003
 5479SOL     OW27895   0.128   0.253   6.885 -0.7172 -0.1762 -0.0938
 5479SOL    HW127896   0.129   0.209   6.970 -1.1146 -1.1956 -0.6146
 5479SOL    HW227897   0.219   0.236   6.863 -0.4711 -0.1198  0.9060
 5480SOL     OW27898   0.617   0.052  13.298  0.3689 -0.0625 -0.2668
 5480SOL    HW127899   0.643   4.707  13.357 -0.5690  0.7370  1.0913
 5480SOL    HW227900   0.590   4.723  13.224 -0.7661  2.8655 -1.9991
 5481SOL     OW27901   2.588   2.586   6.506  0.2424  0.5506 -0.1162
 5481SOL    HW127902   2.610   2.615   6.417  0.3188  1.4052  0.1727
 5481SOL    HW227903   2.498   2.616   6.519  0.4154  0.9209  0.2428
 5482SOL     OW27904   2.185   0.439   1.847 -0.5173  0.6598 -0.1044
 5482SOL    HW127905   2.140   0.357   1.826  0.9739 -0.4237  0.9355
 5482SOL    HW227906   2.136   0.465   1.925 -2.1718 -0.6705 -0.7092
 5483SOL     OW27907   4.171   4.629   6.107  0.1983 -0.6124  0.0065
 5483SOL    HW127908   4.233   4.637   6.034  1.0519 -2.4667  0.5386
 5483SOL    HW227909   4.094   4.623   6.051 -0.5196  2.5010  0.6374
 5484SOL     OW27910   3.587   1.748   3.969  0.9082 -0.1029 -0.4176
 5484SOL    HW127911   3.604   1.799   3.890 -0.8200  0.1790 -0.6204
 5484SOL    HW227912   3.525   1.683   3.936 -0.6801  0.7170  0.9576
 5485SOL     OW27913   1.913   1.950  15.634 -0.1926  0.0223 -0.4758
 5485SOL    HW127914   1.957   1.973  15.552 -2.5058 -0.5597 -1.8777
 5485SOL    HW227915   1.964   1.995  15.701  1.0262 -0.6460 -0.9518
 5486SOL     OW27916   3.660   3.786   0.456 -0.4334 -0.0187 -0.2459
 5486SOL    HW127917   3.718   3.713   0.436 -0.4472 -0.2967  0.7335
 5486SOL    HW227918   3.710   3.853   0.409 -0.6043  0.5726  0.4267
 5487SOL     OW27919   3.040   4.017  13.250  0.0528  0.3697  0.9119
 5487SOL    HW127920   2.987   4.089  13.217 -0.8659 -0.9015 -0.3607
 5487SOL    HW227921   3.020   3.935  13.206 -0.0797  1.3133 -0.7748
 5488SOL     OW27922   1.893   3.636   6.135  0.0376 -0.1253  0.3405
 5488SOL    HW127923   1.955   3.707   6.154  0.3146 -0.8003  2.0435
 5488SOL    HW227924   1.962   3.576   6.108  0.4542  1.1586 -1.4215
 5489SOL     OW27925   1.059   1.017   4.231 -0.5484 -0.1499  0.5007
 5489SOL    HW127926   1.103   0.933   4.218 -2.0574 -1.2955  2.7442
 5489SOL    HW227927   0.994   1.011   4.161 -1.1949  0.2256  1.0727
 5490SOL     OW27928   3.747   2.340   4.225  0.2817  0.1134  0.7236
 5490SOL    HW127929   3.748   2.273   4.293  1.0355 -2.3101 -1.6728
 5490SOL    HW227930   3.837   2.371   4.234  1.0635 -2.0092  0.1452
 5491SOL     OW27931   4.300   0.364  16.674  0.1342 -0.1937 -0.1284
 5491SOL    HW127932   4.266   0.285  16.633  0.5234 -0.3114 -0.2241
 5491SOL    HW227933   4.338   0.323  16.752 -1.2188  2.4480  1.9143
 5492SOL     OW27934   0.250   0.192   3.695  0.2696 -0.0968  0.3512
 5492SOL    HW127935   0.291   0.253   3.634 -0.7197  0.3628  0.1415
 5492SOL    HW227936   0.252   0.224   3.785  0.8291 -4.2748  1.8273
 5493SOL     OW27937   3.202   1.947   4.040  0.0950 -0.7617  0.5913
 5493SOL    HW127938   3.194   1.867   3.989  1.4437 -0.5898  0.1005
 5493SOL    HW227939   3.245   1.910   4.117  1.3093 -1.4502 -0.4211
 5494SOL     OW27940   4.575   2.508   5.740  0.6704  0.7016 -0.1851
 5494SOL    HW127941   4.645   2.570   5.758 -1.0056  2.7157 -0.6670
 5494SOL    HW227942   4.613   2.421   5.752  1.5849  1.4056  1.9386
 5495SOL     OW27943   2.447   4.182   5.786 -0.5780 -0.4012 -0.1319
 5495SOL    HW127944   2.475   4.199   5.695  0.4843  0.5328  0.3577
 5495SOL    HW227945   2.356   4.210   5.784 -0.6214 -0.5520 -0.2349
 5496SOL     OW27946   0.780   3.988   8.913 -0.4670 -0.4531 -0.1397
 5496SOL    HW127947   0.745   4.068   8.951  2.0810  1.6932 -2.3997
 5496SOL    HW227948   0.716   3.977   8.843 -0.6513 -1.5258  0.1808
 5497SOL     OW27949   3.546   1.881  12.511 -0.8324  0.6544 -0.2044
 5497SOL    HW127950   3.596   1.958  12.485 -1.1157  0.8175 -0.2632
 5497SOL    HW227951   3.458   1.918  12.517 -0.6665  0.8604  1.0674
 5498SOL     OW27952   1.405   3.877   3.361  0.2844  0.6788 -0.1063
 5498SOL    HW127953   1.422   3.830   3.280 -0.5756 -0.5025  0.3980
 5498SOL    HW227954   1.368   3.960   3.330 -2.9247 -0.6534  0.1649
 5499SOL     OW27955   3.958   1.828   5.028 -0.1377 -0.1131  0.1893
 5499SOL    HW127956   3.910   1.835   5.111 -0.2987  0.6919  0.0287
 5499SOL    HW227957   3.893   1.865   4.968  0.0383 -1.1768 -0.6659
 5500SOL     OW27958   0.544   1.644   5.856 -0.3131 -0.0858 -0.7828
 5500SOL    HW127959   0.488   1.674   5.928  0.8467  0.1618  0.0312
 5500SOL    HW227960   0.533   1.550   5.867 -1.6221  0.3110  1.3446
 5501SOL     OW27961   3.880   4.718   2.317 -0.2150  0.0645 -0.4992
 5501SOL    HW127962   3.796   4.679   2.341 -0.6390  0.1160 -1.8749
 5501SOL    HW227963   3.943   4.655   2.351 -0.2577  0.1965 -0.1748
 5502SOL     OW27964   2.423   1.695  12.585 -0.2624 -0.1430 -0.1421
 5502SOL    HW127965   2.449   1.706  12.493  0.8137 -1.4011  0.0214
 5502SOL    HW227966   2.466   1.613  12.608 -1.4825 -1.2299 -1.6963
 5503SOL     OW27967   1.123   4.246  12.079 -0.3464  0.8431  0.0123
 5503SOL    HW127968   1.111   4.240  11.984  1.7949  0.7457 -0.2399
 5503SOL    HW227969   1.178   4.323  12.084  0.2058  0.4694 -0.3423
 5504SOL     OW27970   4.294   3.465  14.548  0.2118  0.2301  0.1253
 5504SOL    HW127971   4.380   3.487  14.513  0.1098  0.6496  0.1473
 5504SOL    HW227972   4.228   3.491  14.484  1.2829  0.4687 -0.8709
 5505SOL     OW27973   3.934   2.518   9.690  0.2561  0.6901 -0.5225
 5505SOL    HW127974   4.024   2.517   9.721  0.6417  1.2183 -1.6373
 5505SOL    HW227975   3.923   2.427   9.664 -2.5525  0.8665  0.0269
 5506SOL     OW27976   1.115   1.344   2.007  0.0039  0.2028 -0.2346
 5506SOL    HW127977   1.183   1.398   1.967 -0.3962  0.9874  0.1554
 5506SOL    HW227978   1.137   1.368   2.097  0.1882 -0.5659 -0.0687
 5507SOL     OW27979   0.210   0.682   5.174  1.0825  0.0797  0.3615
 5507SOL    HW127980   0.206   0.735   5.254 -0.7082 -0.4236  0.6019
 5507SOL    HW227981   0.296   0.693   5.135  0.6895  0.5506 -0.3652
 5508SOL     OW27982   0.141   3.852   7.859 -0.3468  0.1760  0.1713
 5508SOL    HW127983   0.129   3.910   7.783  0.8491 -0.2295 -0.3185
 5508SOL    HW227984   0.151   3.918   7.928  0.8761 -0.0826  0.2440
 5509SOL     OW27985   2.336   0.424   9.466 -0.4860 -0.3201 -0.1551
 5509SOL    HW127986   2.425   0.390   9.470 -0.3906  0.0359  0.9090
 5509SOL    HW227987   2.300   0.386   9.386 -1.6693  0.8612 -0.2023
 5510SOL     OW27988   0.945   3.373   0.349 -0.2433 -0.3433  0.0073
 5510SOL    HW127989   0.882   3.371   0.420  0.7641  0.4729  0.9320
 5510SOL    HW227990   0.894   3.338   0.276 -0.1717 -0.9956  0.2688
 5511SOL     OW27991   0.679   3.102   0.989  0.4989 -0.1763  0.0253
 5511SOL    HW127992   0.664   3.113   0.896  0.5158 -0.4868 -0.0136
 5511SOL    HW227993   0.757   3.156   1.000  1.9711 -2.1924 -0.4857
 5512SOL     OW27994   2.709   2.286   9.934  0.6038  0.1059 -0.2042
 5512SOL    HW127995   2.706   2.254  10.024  0.6452  1.1309  0.1639
 5512SOL    HW227996   2.615   2.289   9.914  0.0370  1.4738  2.7704
 5513SOL     OW27997   1.035   2.853   8.076  0.3046 -0.0646 -0.1026
 5513SOL    HW127998   0.992   2.894   8.001  1.9202  0.4751 -0.7277
 5513SOL    HW227999   0.982   2.774   8.059 -0.1476  0.0675  0.6925
 5514SOL     OW28000   3.999   4.306   5.913  0.1958  0.4342 -0.4939
 5514SOL    HW128001   3.926   4.357   5.878 -1.2743 -1.7193 -0.5587
 5514SOL    HW228002   3.994   4.337   6.004 -2.2675 -1.9197  0.1816
 5515SOL     OW28003   3.169   1.405  13.217  0.0365  0.1468  0.5149
 5515SOL    HW128004   3.199   1.494  13.197 -0.7203  0.5433  1.1483
 5515SOL    HW228005   3.152   1.414  13.311 -1.1341 -0.1121  0.3251
 5516SOL     OW28006   2.507   2.433   8.949 -0.1552 -0.0624  0.3471
 5516SOL    HW128007   2.505   2.361   9.013 -0.0597  1.2761  1.8668
 5516SOL    HW228008   2.413   2.425   8.932  0.4604 -3.8455 -1.2799
 5517SOL     OW28009   2.242   0.533   4.430  0.6382 -0.0880 -0.5202
 5517SOL    HW128010   2.284   0.451   4.459  0.0965 -0.2740 -0.2618
 5517SOL    HW228011   2.316   0.584   4.398  0.3380  0.0278 -1.0216
 5518SOL     OW28012   4.521   3.355   2.710  0.3345  0.4959 -0.7793
 5518SOL    HW128013   4.590   3.308   2.756 -1.8272  0.6245  2.6314
 5518SOL    HW228014   4.499   3.428   2.768  1.4873 -0.0801  0.3757
 5519SOL     OW28015   4.324   3.334   8.774 -0.5560 -0.0227  0.3742
 5519SOL    HW128016   4.249   3.372   8.729  0.1188  0.3295 -0.4469
 5519SOL    HW228017   4.290   3.273   8.840 -3.7586  0.4880 -0.8040
 5520SOL     OW28018   4.529   3.952  15.941 -0.7591 -0.1298 -0.0691
 5520SOL    HW128019   4.442   3.913  15.953 -1.1066  0.4086 -0.8039
 5520SOL    HW228020   4.516   4.010  15.866  0.6146  1.9523  1.3172
 5521SOL     OW28021   2.086   3.551   7.281  0.0688  0.0887  0.2453
 5521SOL    HW128022   2.174   3.587   7.266 -0.0985 -0.2271 -1.5931
 5521SOL    HW228023   2.078   3.566   7.375  0.1717 -0.4544  0.3418
 5522SOL     OW28024   0.344   3.679   3.133 -0.3841 -0.2557  0.2351
 5522SOL    HW128025   0.345   3.588   3.162  2.2595  0.1988  1.6016
 5522SOL    HW228026   0.431   3.683   3.093 -0.0970 -2.2392  0.6327
 5523SOL     OW28027   2.605   2.623   7.592 -0.3469  0.2061  0.6252
 5523SOL    HW128028   2.700   2.629   7.603 -0.4020  1.4247  0.5220
 5523SOL    HW228029   2.577   2.697   7.647 -2.5498  0.1596 -0.4272
 5524SOL     OW28030   4.236   3.353   3.516  0.1651  0.6093 -0.2274
 5524SOL    HW128031   4.151   3.312   3.530  0.4165  0.6480  1.3155
 5524SOL    HW228032   4.268   3.357   3.606 -0.7300 -0.0297  0.1192
 5525SOL     OW28033   1.721   1.198   2.003  0.9818 -0.1638 -0.2339
 5525SOL    HW128034   1.681   1.188   2.090 -0.9904  0.7973 -1.0219
 5525SOL    HW228035   1.659   1.140   1.960  0.4610  0.2733 -0.0922
 5526SOL     OW28036   3.230   3.508  14.585  0.2713  0.3970  0.0282
 5526SOL    HW128037   3.157   3.567  14.570  0.4798 -0.0350 -2.7041
 5526SOL    HW228038   3.295   3.538  14.521 -0.0936 -0.8620 -0.9249
 5527SOL     OW28039   0.244   0.914   7.929 -0.0395 -0.4229 -0.0117
 5527SOL    HW128040   0.265   0.884   8.017 -0.1721  0.2957  0.2657
 5527SOL    HW228041   0.327   0.962   7.920 -0.9167  1.2893  1.1386
 5528SOL     OW28042   3.502   2.729   2.292  0.3622 -0.0294 -0.6885
 5528SOL    HW128043   3.517   2.644   2.250  2.1447 -0.4343  0.7699
 5528SOL    HW228044   3.580   2.776   2.262 -0.1781  2.4971  1.9012
 5529SOL     OW28045   2.704   3.374   7.475 -0.5297  0.1170 -0.4520
 5529SOL    HW128046   2.646   3.323   7.531 -0.3070  1.0357  0.5988
 5529SOL    HW228047   2.730   3.304   7.415 -1.9092  0.2339 -1.1781
 5530SOL     OW28048   0.955   4.481   7.230  0.0707 -0.0510  0.2378
 5530SOL    HW128049   0.975   4.451   7.141 -0.8136  0.0141  0.0211
 5530SOL    HW228050   0.896   4.413   7.263  1.9929 -1.5273  0.6606
 5531SOL     OW28051   0.382   2.157   7.670 -0.1818 -0.3202  0.1880
 5531SOL    HW128052   0.438   2.109   7.732 -0.2942  1.5908  1.7786
 5531SOL    HW228053   0.302   2.166   7.722  0.6952  2.1276  1.1079
 5532SOL     OW28054   1.448   2.327  12.932 -0.3265  0.0484  0.0760
 5532SOL    HW128055   1.438   2.254  12.872  0.5329 -0.0663  0.0666
 5532SOL    HW228056   1.409   2.294  13.013  0.1750  2.0984  1.1557
 5533SOL     OW28057   2.860   2.108   1.257  0.4585 -0.4077  1.0700
 5533SOL    HW128058   2.826   2.140   1.341 -1.3312  1.2678 -0.2977
 5533SOL    HW228059   2.928   2.046   1.285  0.8978 -0.9127 -1.0841
 5534SOL     OW28060   4.222   0.547   6.105  0.4959 -0.1481 -0.3102
 5534SOL    HW128061   4.127   0.553   6.111  0.5146  1.0422 -1.0313
 5534SOL    HW228062   4.232   0.566   6.012 -0.8940  1.2607 -0.1739
 5535SOL     OW28063   0.794   0.359   4.392 -0.2813 -0.3641  0.2266
 5535SOL    HW128064   0.807   0.454   4.394 -0.3790 -0.3583  0.5205
 5535SOL    HW228065   0.826   0.341   4.303  1.1291  1.3564  0.3948
 5536SOL     OW28066   3.944   2.843   4.007 -0.7435  0.0536 -0.1566
 5536SOL    HW128067   3.895   2.857   3.927  0.3991 -0.0695 -0.8808
 5536SOL    HW228068   3.873   2.836   4.071 -0.8112 -0.7577 -0.3176
 5537SOL     OW28069   3.836   4.384   6.924  0.5000 -0.1428  0.3150
 5537SOL    HW128070   3.894   4.310   6.907  0.0984 -0.4374  0.2290
 5537SOL    HW228071   3.755   4.339   6.902  0.4934  0.5428 -1.0473
 5538SOL     OW28072   2.535   1.534   1.989  0.1243  0.0453 -0.1801
 5538SOL    HW128073   2.623   1.510   2.019  1.0644  3.5788 -0.1288
 5538SOL    HW228074   2.489   1.450   1.981  2.3391 -1.2270  0.3530
 5539SOL     OW28075   1.850   0.294   4.032 -0.1941 -0.1261  0.1737
 5539SOL    HW128076   1.938   0.309   4.067  1.2145 -0.1608 -3.3479
 5539SOL    HW228077   1.841   0.198   4.033  1.0414 -0.2435 -0.1331
 5540SOL     OW28078   3.833   3.632   2.845 -0.0457 -0.3491  0.7067
 5540SOL    HW128079   3.809   3.698   2.910 -0.9468 -0.8328  0.8662
 5540SOL    HW228080   3.872   3.683   2.774  0.2042  1.6381  2.2653
 5541SOL     OW28081   1.067   1.205  12.772  0.0298 -0.4905  0.4470
 5541SOL    HW128082   1.056   1.264  12.698  1.6562  2.5231  2.6028
 5541SOL    HW228083   1.020   1.250  12.842 -0.4483 -0.6556  0.2275
 5542SOL     OW28084   1.631   2.664   7.011  0.0397 -0.8737 -0.0245
 5542SOL    HW128085   1.624   2.738   6.950 -0.1699 -0.8206  0.0654
 5542SOL    HW228086   1.579   2.698   7.084 -0.1254  1.1606 -1.0838
 5543SOL     OW28087   2.169   3.653   6.505 -0.0805 -0.6898  0.4721
 5543SOL    HW128088   2.191   3.688   6.592 -3.4665  1.8131  0.2951
 5543SOL    HW228089   2.215   3.707   6.442 -0.5614 -1.2198 -0.3245
 5544SOL     OW28090   2.297   1.906   6.598  0.2236 -0.8568  0.1289
 5544SOL    HW128091   2.330   1.887   6.510  0.9160  1.0734 -0.0291
 5544SOL    HW228092   2.377   1.906   6.650 -1.2329 -0.4400  2.3681
 5545SOL     OW28093   3.971   3.687   0.632  0.2495 -0.8386 -0.1047
 5545SOL    HW128094   3.895   3.704   0.687 -0.1203 -1.6759 -0.3591
 5545SOL    HW228095   4.020   3.767   0.653 -1.1156 -0.8043  2.8447
 5546SOL     OW28096   0.039   1.166   9.312  0.3371  0.0540 -0.0667
 5546SOL    HW128097   4.705   1.148   9.385  1.2370  1.2433  0.9663
 5546SOL    HW228098   4.714   1.229   9.260  1.3504 -0.5446 -1.7429
 5547SOL     OW28099   2.732   4.342  10.883  0.0832  0.1825 -0.8485
 5547SOL    HW128100   2.771   4.429  10.876  2.3968 -0.7590  0.3415
 5547SOL    HW228101   2.740   4.326  10.977 -0.0419  1.2196 -0.6578
 5548SOL     OW28102   1.857   4.222   4.362  0.2782 -0.2762  0.1237
 5548SOL    HW128103   1.874   4.217   4.456 -0.0156  1.9291  0.2910
 5548SOL    HW228104   1.774   4.175   4.356 -0.3407  0.9240 -0.5779
 5549SOL     OW28105   2.690   2.612   5.406  0.3563  0.3744  0.1855
 5549SOL    HW128106   2.623   2.674   5.376 -0.3905 -0.0534  0.9700
 5549SOL    HW228107   2.630   2.543   5.434  2.4167 -0.9881  1.2954
 5550SOL     OW28108   4.028   4.423  14.081  0.1022 -0.2661 -0.3565
 5550SOL    HW128109   4.084   4.473  14.021  0.4309 -0.8901 -0.5765
 5550SOL    HW228110   4.010   4.346  14.027  0.2155 -0.2492 -0.4203
 5551SOL     OW28111   1.359   0.776   5.615  0.3107  0.6200  0.0068
 5551SOL    HW128112   1.363   0.686   5.582  0.2086  0.0350  1.5800
 5551SOL    HW228113   1.442   0.815   5.584  2.6601 -4.1523  0.3100
 5552SOL     OW28114   3.968   1.578  10.299  0.6737 -0.2054  0.1905
 5552SOL    HW128115   4.046   1.521  10.303 -1.1980 -2.8402 -1.1298
 5552SOL    HW228116   3.910   1.538  10.364 -0.2459 -1.7599 -1.5966
 5553SOL     OW28117   0.767   3.346   7.911  0.0636 -0.4491  0.4432
 5553SOL    HW128118   0.817   3.404   7.969  0.7269 -1.6398  1.0757
 5553SOL    HW228119   0.781   3.379   7.822  0.2010 -0.0131  0.6239
 5554SOL     OW28120   0.436   3.096   0.371 -0.1857 -0.3743  0.5865
 5554SOL    HW128121   0.436   3.183   0.332  2.4886  0.8150  3.1806
 5554SOL    HW228122   0.371   3.104   0.441 -0.6698  0.7191  0.0087
 5555SOL     OW28123   1.356   0.880   8.719  0.1831  0.3685  0.0266
 5555SOL    HW128124   1.405   0.798   8.723 -0.9778 -0.3072  0.2023
 5555SOL    HW228125   1.386   0.934   8.793  1.7020 -1.1798  0.5524
 5556SOL     OW28126   0.865   2.581   1.405 -0.1980  0.1934 -0.6491
 5556SOL    HW128127   0.810   2.546   1.335 -0.9479  2.0284 -0.9688
 5556SOL    HW228128   0.905   2.497   1.430  0.0138 -0.0251 -1.7521
 5557SOL     OW28129   2.399   3.862   6.118  0.2641  0.0234  0.1464
 5557SOL    HW128130   2.351   3.890   6.040 -0.0152  1.0454  0.6794
 5557SOL    HW228131   2.480   3.913   6.114  1.0172 -1.3675 -1.9880
 5558SOL     OW28132   3.876   4.345  11.461 -0.3434  0.1162  0.2466
 5558SOL    HW128133   3.832   4.412  11.408 -1.7863 -0.9006  0.1440
 5558SOL    HW228134   3.832   4.266  11.430  0.3035  0.1589 -0.7681
 5559SOL     OW28135   3.751   4.267   3.160 -0.1067 -0.3396 -0.4765
 5559SOL    HW128136   3.708   4.331   3.103 -0.3707  0.8807  1.0715
 5559SOL    HW228137   3.843   4.292   3.164  0.0734 -1.1448  0.3648
 5560SOL     OW28138   0.208   4.024   6.349 -0.0665  0.0128 -0.0003
 5560SOL    HW128139   0.231   4.116   6.356 -0.5301 -0.0013  1.9137
 5560SOL    HW228140   0.257   4.006   6.269 -0.8387 -1.9444 -0.0514
 5561SOL     OW28141   3.452   2.947   5.274 -0.1473 -0.0609 -0.8706
 5561SOL    HW128142   3.472   3.040   5.275  0.1644 -0.1090 -2.8304
 5561SOL    HW228143   3.368   2.943   5.319  0.1060 -1.6660 -0.5392
 5562SOL     OW28144   1.849   2.253   3.707  0.0102  0.0194 -0.4989
 5562SOL    HW128145   1.872   2.341   3.740 -2.0924  0.6589 -0.7911
 5562SOL    HW228146   1.867   2.203   3.787  0.3953 -0.3779 -0.8386
 5563SOL     OW28147   1.205   3.882   6.598  0.0080  0.2023 -0.0184
 5563SOL    HW128148   1.193   3.807   6.539  1.5564 -0.2183  0.2137
 5563SOL    HW228149   1.137   3.939   6.562 -1.1997 -1.1580  0.0941
 5564SOL     OW28150   0.401   4.452   0.116  0.0168  0.4051  0.4700
 5564SOL    HW128151   0.438   4.512   0.051 -1.7469 -0.7467 -1.5668
 5564SOL    HW228152   0.315   4.441   0.076  0.3821 -2.2339  0.4282
 5565SOL     OW28153   1.054   4.204   7.051  0.0626 -0.1262 -0.2316
 5565SOL    HW128154   1.107   4.233   6.977 -1.5682  3.1315 -0.1339
 5565SOL    HW228155   0.967   4.215   7.012 -1.2333 -1.4905  2.2680
 5566SOL     OW28156   0.926   1.474   1.328  0.6656  0.1616  0.4303
 5566SOL    HW128157   0.919   1.567   1.305  0.2436  0.0839  0.2413
 5566SOL    HW228158   0.985   1.427   1.269  0.8874  1.2278 -0.1883
 5567SOL     OW28159   3.555   1.902   3.762  0.0346  0.4754  0.6818
 5567SOL    HW128160   3.460   1.914   3.758 -0.0849 -0.5618  0.3002
 5567SOL    HW228161   3.581   1.855   3.683  2.7615  1.0030  1.2662
 5568SOL     OW28162   4.581   4.171   2.747 -0.2356  0.2047  0.6274
 5568SOL    HW128163   4.527   4.128   2.814 -0.7115 -0.5344 -0.2261
 5568SOL    HW228164   4.611   4.096   2.694  0.3951  0.6742  0.3224
 5569SOL     OW28165   3.281   0.379   7.722  0.0438 -0.1038 -0.2785
 5569SOL    HW128166   3.300   0.368   7.629 -0.1689 -0.8411 -0.2287
 5569SOL    HW228167   3.315   0.468   7.736 -4.5690  1.8221 -1.1539
 5570SOL     OW28168   2.391   0.568   2.520 -0.3922 -0.0694  0.0070
 5570SOL    HW128169   2.399   0.567   2.425  1.1172  2.3553  0.1197
 5570SOL    HW228170   2.396   0.479   2.555 -0.7716 -1.2126 -2.8950
 5571SOL     OW28171   4.495   0.762   0.026  0.0500  0.2694 -0.8358
 5571SOL    HW128172   4.585   0.741   0.004  0.7620  3.0610 -0.5647
 5571SOL    HW228173   4.510   0.813   0.106 -0.5137 -0.4087 -0.2985
 5572SOL     OW28174   4.058   4.395   3.835 -0.4451 -0.0301  0.4408
 5572SOL    HW128175   4.029   4.304   3.826  0.8023 -0.4915  0.9526
 5572SOL    HW228176   4.136   4.379   3.889  0.0542  1.6119  0.2078
 5573SOL     OW28177   4.136   2.730  12.367 -0.4727  0.1951 -0.4134
 5573SOL    HW128178   4.155   2.751  12.458 -0.8022  0.2284 -0.3500
 5573SOL    HW228179   4.202   2.665  12.346 -0.1747 -0.1699  1.6759
 5574SOL     OW28180   0.053   4.156   7.037 -0.5596  0.1735  0.5153
 5574SOL    HW128181   0.014   4.222   6.979 -0.0728  0.5358  0.6031
 5574SOL    HW228182   0.101   4.214   7.095 -0.6987  0.2712  0.5320
 5575SOL     OW28183   2.716   1.615   5.346 -0.1538 -0.3874  0.5858
 5575SOL    HW128184   2.663   1.664   5.407  0.3462 -0.8682  1.4119
 5575SOL    HW228185   2.655   1.546   5.320  0.9214 -1.3686  0.6435
 5576SOL     OW28186   1.443   3.779   6.425  0.6299 -0.1881 -0.1547
 5576SOL    HW128187   1.462   3.855   6.479 -0.2635  0.2365 -0.4409
 5576SOL    HW228188   1.397   3.815   6.349  1.2161  1.2445  0.1780
 5577SOL     OW28189   3.499   0.475  10.549  0.0923 -0.0280 -0.6843
 5577SOL    HW128190   3.588   0.440  10.551 -0.2603 -0.6680  2.2487
 5577SOL    HW228191   3.512   0.556  10.599 -1.6649  1.0841 -1.9937
 5578SOL     OW28192   3.148   4.651   6.442 -0.1995  0.1719 -0.0883
 5578SOL    HW128193   3.140   4.678   6.534  0.3740 -2.2650  0.6622
 5578SOL    HW228194   3.063   4.670   6.403  0.1809  0.1713 -0.9104
 5579SOL     OW28195   4.152   0.549   0.434  0.5258  0.1904 -0.3517
 5579SOL    HW128196   4.210   0.507   0.498 -0.3630 -2.5005 -1.3305
 5579SOL    HW228197   4.201   0.629   0.414 -0.1270  0.3392 -1.3259
 5580SOL     OW28198   1.152   4.703   3.376 -0.1613  0.7883  0.1579
 5580SOL    HW128199   1.067   4.723   3.415 -0.0214 -0.2720  1.0211
 5580SOL    HW228200   1.185   4.638   3.438 -0.8494 -1.1960 -1.5724
 5581SOL     OW28201   0.928   4.688   9.363 -0.3476 -0.4943  0.0144
 5581SOL    HW128202   0.945   0.048   9.403  1.1794  0.8406 -3.5131
 5581SOL    HW228203   1.021   4.668   9.369 -0.0883  0.2115 -1.6394
 5582SOL     OW28204   0.306   0.966   2.957  0.1756  0.1935  0.4979
 5582SOL    HW128205   0.254   1.046   2.948  1.8517  1.1985 -0.2973
 5582SOL    HW228206   0.392   1.006   2.969  0.5971 -0.8400  0.8624
 5583SOL     OW28207   1.049   3.993   3.001  0.4498  0.2248 -0.3011
 5583SOL    HW128208   0.984   4.063   2.990 -1.5108 -2.0067 -2.8755
 5583SOL    HW228209   1.136   4.030   2.987  0.2874 -0.4729 -3.2162
 5584SOL     OW28210   3.476   2.063  11.915  0.4943  0.3108  0.0724
 5584SOL    HW128211   3.393   2.022  11.940  0.7038 -0.1218  0.0730
 5584SOL    HW228212   3.513   2.069  12.003 -0.7729  0.2189  0.6133
 5585SOL     OW28213   0.106   1.508  16.446  0.5085  0.7461  0.0581
 5585SOL    HW128214   0.076   1.423  16.478  1.2829 -0.0855 -1.4262
 5585SOL    HW228215   0.191   1.521  16.490  0.0502 -1.5681  1.5747
 5586SOL     OW28216   4.503   0.665  15.963  0.2598 -0.8433  0.0241
 5586SOL    HW128217   4.555   0.599  16.009  0.8280  0.5684  1.4451
 5586SOL    HW228218   4.516   0.732  16.031  1.2474 -0.6757 -0.3356
 5587SOL     OW28219   1.616   1.075   6.867 -0.1853 -0.0628  0.4198
 5587SOL    HW128220   1.545   1.034   6.818  1.5787  0.5529 -2.6018
 5587SOL    HW228221   1.571   1.150   6.907 -0.1409 -0.1763  0.6864
 5588SOL     OW28222   4.036   2.784  11.609 -0.3717  0.1182 -0.0267
 5588SOL    HW128223   4.109   2.763  11.551 -0.0182  0.4242  0.3118
 5588SOL    HW228224   4.076   2.783  11.696 -1.5788  0.1749  0.5287
 5589SOL     OW28225   2.822   1.759   8.062  0.0710 -0.2222  0.3960
 5589SOL    HW128226   2.855   1.750   8.151 -1.7154  0.9549  1.1882
 5589SOL    HW228227   2.875   1.692   8.020 -0.2269 -1.6425  2.2959
 5590SOL     OW28228   0.430   2.919  15.401 -0.2584 -0.2097 -0.1991
 5590SOL    HW128229   0.435   2.836  15.354  1.1897  0.5185 -1.3088
 5590SOL    HW228230   0.465   2.980  15.337  2.9478 -2.2612 -0.3859
 5591SOL     OW28231   4.340   1.411   7.630  0.1405  0.9262 -0.3217
 5591SOL    HW128232   4.396   1.390   7.555 -1.9376  0.7845 -1.8147
 5591SOL    HW228233   4.368   1.499   7.655  0.0847  1.3096 -1.6605
 5592SOL     OW28234   2.976   1.975   5.282  0.3013 -0.4606  0.5251
 5592SOL    HW128235   2.890   1.976   5.240  2.0548  3.1576 -3.0564
 5592SOL    HW228236   3.036   1.967   5.208 -0.3715 -0.3035 -0.0370
 5593SOL     OW28237   0.535   1.729   6.999  0.0911  0.3509  0.3576
 5593SOL    HW128238   0.445   1.721   7.032 -0.7437 -0.8538 -2.1574
 5593SOL    HW228239   0.591   1.738   7.076  1.2731  0.9353 -0.5854
 5594SOL     OW28240   2.144   3.052   1.016 -0.0902 -0.2366 -0.0736
 5594SOL    HW128241   2.171   2.964   1.042  0.2787  0.3011  1.3703
 5594SOL    HW228242   2.083   3.085   1.082  0.0581  0.8237 -0.4648
 5595SOL     OW28243   0.488   3.510  13.475  0.3428 -0.3469 -0.6719
 5595SOL    HW128244   0.566   3.535  13.426  0.1328  1.4232 -0.0947
 5595SOL    HW228245   0.437   3.591  13.465  2.4719  0.8115 -2.0651
 5596SOL     OW28246   1.136   1.397  10.974 -0.4565 -0.5091 -0.6192
 5596SOL    HW128247   1.220   1.425  10.938 -1.2475 -1.6062 -3.2701
 5596SOL    HW228248   1.095   1.483  10.963 -2.2482 -1.1790  0.6988
 5597SOL     OW28249   1.245   1.628   1.880 -0.1503 -0.1174 -0.6491
 5597SOL    HW128250   1.332   1.588   1.881  1.1924  2.8345  1.9703
 5597SOL    HW228251   1.264   1.718   1.904  0.9268 -0.4468 -0.2684
 5598SOL     OW28252   3.556   0.035   5.200  0.0276 -0.6652  0.7749
 5598SOL    HW128253   3.618   0.055   5.130  1.5989  1.5759  2.8008
 5598SOL    HW228254   3.610   0.064   5.273 -0.8056 -1.1158  1.5727
 5599SOL     OW28255   1.379   2.971   5.499 -0.1233  0.2144 -0.3261
 5599SOL    HW128256   1.323   3.033   5.546 -0.1696  0.6714 -0.9954
 5599SOL    HW228257   1.341   2.891   5.536  1.6858  0.7401  2.7265
 5600SOL     OW28258   4.139   0.407   4.330  0.0661 -0.6763 -0.1756
 5600SOL    HW128259   4.089   0.385   4.251  0.0674 -0.6967 -0.1709
 5600SOL    HW228260   4.140   0.325   4.380 -0.7053 -0.3150  0.4341
 5601SOL     OW28261   2.382   1.445   4.025 -0.6698 -0.2478  0.0695
 5601SOL    HW128262   2.315   1.513   4.036  1.9258  2.2371  0.7192
 5601SOL    HW228263   2.329   1.385   3.972  1.3077 -0.8963 -1.1856
 5602SOL     OW28264   4.259   0.660   2.887  0.2125 -0.1143  0.2498
 5602SOL    HW128265   4.337   0.681   2.939  1.7568 -0.6677 -1.8269
 5602SOL    HW228266   4.200   0.733   2.902  0.7283  0.3762 -0.1096
 5603SOL     OW28267   4.360   4.132   6.724  0.1722 -0.2716  0.0888
 5603SOL    HW128268   4.420   4.099   6.791  2.3078  0.0722 -1.6361
 5603SOL    HW228269   4.307   4.195   6.772  0.9448  0.5819 -0.1636
 5604SOL     OW28270   1.800   3.013   7.012 -0.6058  0.2428  0.3649
 5604SOL    HW128271   1.771   3.103   7.029  0.2174  0.3404  1.2452
 5604SOL    HW228272   1.717   2.992   6.970  0.4801 -1.4421 -0.9609
 5605SOL     OW28273   2.011   2.197   1.596  0.4782 -0.3509 -0.0556
 5605SOL    HW128274   2.070   2.129   1.564  2.1091  0.8210  0.4499
 5605SOL    HW228275   1.956   2.213   1.519  1.9009  0.1388 -0.9712
 5606SOL     OW28276   1.044   4.564   5.827  0.0797  0.1515  0.4421
 5606SOL    HW128277   1.029   4.657   5.808  0.3160 -0.2052 -1.5285
 5606SOL    HW228278   1.112   4.574   5.893  0.3467  2.9914 -0.2718
 5607SOL     OW28279   2.624   4.494   1.134  0.4001 -0.1577  0.2271
 5607SOL    HW128280   2.656   4.540   1.057  0.2827 -1.5979 -0.6876
 5607SOL    HW228281   2.699   4.506   1.192 -0.2632 -1.5364  1.3891
 5608SOL     OW28282   2.996   3.748  13.428  0.1066  0.4426  0.6610
 5608SOL    HW128283   3.081   3.790  13.438  0.8878 -0.8313 -0.5796
 5608SOL    HW228284   2.972   3.741  13.520 -0.2579  3.6796  0.8171
 5609SOL     OW28285   3.998   1.721   3.031  0.1708  0.0062 -0.1337
 5609SOL    HW128286   4.032   1.712   3.120 -0.4439 -1.4817 -0.0451
 5609SOL    HW228287   4.060   1.785   2.996 -0.0943  0.5773  0.4319
 5610SOL     OW28288   3.063   3.871   7.878  0.0608 -0.3714  0.1670
 5610SOL    HW128289   3.127   3.827   7.822  0.4487  1.1481 -0.5665
 5610SOL    HW228290   3.040   3.796   7.932 -0.0873 -1.3399 -1.2334
 5611SOL     OW28291   3.213   1.766   8.795  0.8562  0.7961  0.7360
 5611SOL    HW128292   3.130   1.813   8.784  0.2116 -0.4711  0.1455
 5611SOL    HW228293   3.267   1.809   8.728  2.7477  1.5083  2.7091
 5612SOL     OW28294   2.025   1.834   2.795  0.7926 -0.1688  0.3279
 5612SOL    HW128295   1.965   1.803   2.864  1.9034 -2.2132  0.3923
 5612SOL    HW228296   1.969   1.838   2.718  0.2338  1.4717  0.8306
 5613SOL     OW28297   0.099   0.074   4.434 -0.2974  0.1039  0.5921
 5613SOL    HW128298   0.177   0.104   4.387 -0.6498 -1.2302 -0.8527
 5613SOL    HW228299   0.075   0.159   4.471 -0.2256 -0.0690  1.0257
 5614SOL     OW28300   4.464   1.218  12.934  0.3952 -0.1128  0.1495
 5614SOL    HW128301   4.535   1.244  12.993 -1.1611  1.6918  1.2378
 5614SOL    HW228302   4.389   1.225  12.993 -0.9191 -0.3452 -1.4900
 5615SOL     OW28303   1.776   2.432   4.630 -0.5403  0.1265 -0.5762
 5615SOL    HW128304   1.871   2.421   4.639 -0.6575  0.1923  0.6671
 5615SOL    HW228305   1.771   2.495   4.559 -0.5026  0.8797  0.0910
 5616SOL     OW28306   2.036   2.204  11.598  0.2394  0.1790 -0.6214
 5616SOL    HW128307   1.954   2.154  11.603 -0.5422  2.0478  4.8620
 5616SOL    HW228308   2.049   2.226  11.690 -0.6927  3.4630 -1.2796
 5617SOL     OW28309   1.569   2.812   4.824 -0.3146 -0.0517 -0.3520
 5617SOL    HW128310   1.523   2.731   4.846 -0.8111  0.5768  0.9019
 5617SOL    HW228311   1.499   2.871   4.851 -1.0450 -1.1766  0.2246
 5618SOL     OW28312   3.269   4.629  13.732 -0.2783  0.5684  0.1014
 5618SOL    HW128313   3.296   4.703  13.677 -3.6855  0.1587 -2.1135
 5618SOL    HW228314   3.198   4.676  13.777  0.0403  1.6425 -0.5086
 5619SOL     OW28315   4.132   2.905   7.454 -0.3531 -0.0274  0.3261
 5619SOL    HW128316   4.226   2.891   7.442 -1.0201 -0.9748 -3.7609
 5619SOL    HW228317   4.100   2.815   7.456 -2.1607  0.6287  1.3709
 5620SOL     OW28318   0.500   4.582  17.051  0.1650 -0.0076  0.3845
 5620SOL    HW128319   0.569   4.626  17.002  0.9496 -0.6777  0.8888
 5620SOL    HW228320   0.506   4.632  17.133 -1.3225  2.0391 -0.7741
 5621SOL     OW28321   1.084   3.793   0.755 -0.2393  1.0018  0.1875
 5621SOL    HW128322   1.077   3.863   0.691  1.1541  0.1501 -0.9135
 5621SOL    HW228323   1.011   3.814   0.814 -2.1552 -0.0722 -1.7927
 5622SOL     OW28324   0.986   1.215   6.980  0.0591 -0.1259 -0.2826
 5622SOL    HW128325   1.076   1.200   7.009  0.6951  1.6275 -1.4173
 5622SOL    HW228326   0.967   1.132   6.936 -1.3971  1.1937 -2.1436
 5623SOL     OW28327   3.320   2.980   7.392  0.4412 -0.2663 -0.2825
 5623SOL    HW128328   3.372   2.900   7.386  0.7897 -0.0900  0.4799
 5623SOL    HW228329   3.234   2.947   7.418  0.4024 -1.3264 -1.7136
 5624SOL     OW28330   4.426   1.940  16.859  0.5793  0.2310 -0.5100
 5624SOL    HW128331   4.386   1.994  16.790  2.1476 -0.6676 -2.1069
 5624SOL    HW228332   4.351   1.905  16.906  0.7065  0.6700  0.0259
 5625SOL     OW28333   0.189   0.904   4.301  0.0514  0.0933  0.2180
 5625SOL    HW128334   0.245   0.885   4.226 -0.5248 -1.6911  0.2433
 5625SOL    HW228335   0.213   0.997   4.305  1.0269 -0.0945 -1.1442
 5626SOL     OW28336   1.837   2.845   2.061 -0.0573 -0.4195  0.0088
 5626SOL    HW128337   1.778   2.918   2.079  1.3141  0.1786  2.0215
 5626SOL    HW228338   1.777   2.785   2.016 -0.4608 -0.4219  0.5496
 5627SOL     OW28339   0.699   1.891   4.709  0.6177  0.0907  0.6201
 5627SOL    HW128340   0.720   1.965   4.652  1.6446 -2.1346 -1.8498
 5627SOL    HW228341   0.718   1.813   4.657 -2.5381 -0.4006  0.2148
 5628SOL     OW28342   1.540   1.261   4.976 -0.4521  0.3358  0.0006
 5628SOL    HW128343   1.569   1.170   4.990 -1.2156  0.3949  2.0617
 5628SOL    HW228344   1.587   1.304   5.048 -2.0717  1.4861  0.3757
 5629SOL     OW28345   3.895   3.433   7.382 -0.0450 -0.4016  0.5574
 5629SOL    HW128346   3.939   3.435   7.297 -0.1175 -0.5236  0.5164
 5629SOL    HW228347   3.965   3.424   7.446  0.4780 -1.0253 -0.0922
 5630SOL     OW28348   3.778   2.861  16.370 -0.3095 -0.2247 -0.1483
 5630SOL    HW128349   3.867   2.852  16.403  0.4620 -0.2833 -2.1917
 5630SOL    HW228350   3.738   2.886  16.453 -2.0083 -1.9712 -0.4414
 5631SOL     OW28351   4.258   4.174   6.049 -0.1393  0.5304  0.5655
 5631SOL    HW128352   4.220   4.234   6.112 -0.0385  1.4000 -0.1934
 5631SOL    HW228353   4.187   4.141   5.994 -0.0097  0.5215  0.4024
 5632SOL     OW28354   0.748   0.043   5.941 -0.4614 -0.1189 -0.2286
 5632SOL    HW128355   0.792   0.060   5.858  0.3839 -2.0232 -0.1648
 5632SOL    HW228356   0.674   0.103   5.952  1.5222  2.4744 -0.9284
 5633SOL     OW28357   3.972   0.410   8.674  0.2643  0.1623 -0.0305
 5633SOL    HW128358   3.921   0.331   8.689 -0.0944  0.5540  0.8198
 5633SOL    HW228359   3.990   0.430   8.766 -1.4642 -1.6059  0.6677
 5634SOL     OW28360   1.191   3.663  11.355  0.1073  0.2430 -0.1730
 5634SOL    HW128361   1.153   3.727  11.295  0.3420  0.4823 -0.0697
 5634SOL    HW228362   1.265   3.633  11.302 -0.5435 -1.0688 -0.3448
 5635SOL     OW28363   4.098   4.135   2.840  0.1271 -0.3279 -0.1695
 5635SOL    HW128364   4.107   4.160   2.748 -2.3162  0.5088 -0.1906
 5635SOL    HW228365   4.125   4.213   2.888 -0.7874 -0.6360  0.8376
 5636SOL     OW28366   1.970   0.214   2.531  0.0685 -0.0963  0.6292
 5636SOL    HW128367   1.882   0.176   2.527  0.1553 -0.1610 -0.7459
 5636SOL    HW228368   2.008   0.171   2.608 -0.3042  2.8156  2.4440
 5637SOL     OW28369   2.833   3.926   3.821 -0.1875 -0.1062  0.0789
 5637SOL    HW128370   2.792   4.004   3.858  1.5464  1.4378 -1.3061
 5637SOL    HW228371   2.765   3.880   3.771 -1.0621  1.0850  0.1643
 5638SOL     OW28372   1.301   1.368  14.227 -0.1707  0.5370 -0.0573
 5638SOL    HW128373   1.279   1.406  14.312  0.6247 -0.0888  0.4290
 5638SOL    HW228374   1.221   1.394  14.182 -1.8561 -3.6941  0.4834
 5639SOL     OW28375   0.279   1.818  12.068 -0.6907  0.2294 -0.1453
 5639SOL    HW128376   0.224   1.892  12.042 -0.0172  0.3268 -1.2921
 5639SOL    HW228377   0.289   1.790  11.977  1.8658 -1.4838  0.6433
 5640SOL     OW28378   0.860   2.523   6.779  0.1601 -0.1773  0.2550
 5640SOL    HW128379   0.809   2.492   6.854  0.6913  0.2537  0.7911
 5640SOL    HW228380   0.951   2.531   6.808 -0.5099 -0.9963  2.5476
 5641SOL     OW28381   1.205   3.178  11.300 -0.1713 -0.0389  0.5614
 5641SOL    HW128382   1.187   3.180  11.394 -0.2623 -1.4654  0.5720
 5641SOL    HW228383   1.179   3.087  11.282 -0.1812  0.2523 -0.9061
 5642SOL     OW28384   4.312   0.295   7.241 -0.0760 -0.2039  0.1513
 5642SOL    HW128385   4.399   0.326   7.215 -1.0241  4.1084  2.0609
 5642SOL    HW228386   4.336   0.252   7.322 -1.1739 -1.3374 -0.1231
 5643SOL     OW28387   0.692   0.270  14.879 -0.5628 -0.5718  0.2923
 5643SOL    HW128388   0.708   0.347  14.933  0.2383 -0.8092  0.3960
 5643SOL    HW228389   0.597   0.265  14.889 -0.8919  0.7544 -2.2462
 5644SOL     OW28390   1.586   2.014   2.121 -0.5148  0.2686  0.0170
 5644SOL    HW128391   1.553   2.095   2.160 -0.2299  0.4617 -0.1472
 5644SOL    HW228392   1.673   2.040   2.091 -0.4488 -1.4774 -1.3174
 5645SOL     OW28393   1.537   3.839   8.975  0.2168  0.4075  0.1069
 5645SOL    HW128394   1.542   3.921   9.025  0.4257  1.6533 -1.9673
 5645SOL    HW228395   1.492   3.783   9.039 -2.2587  2.1919 -0.1014
 5646SOL     OW28396   2.164   4.655   5.041 -0.1357 -0.3355 -0.2395
 5646SOL    HW128397   2.151   4.665   5.136  2.9758 -0.8702  0.2493
 5646SOL    HW228398   2.214   0.006   5.012 -0.7254  0.0113 -0.3386
 5647SOL     OW28399   4.392   2.745   5.468 -0.2119  0.1418  0.0021
 5647SOL    HW128400   4.395   2.785   5.382  0.6995  1.2595  0.5542
 5647SOL    HW228401   4.450   2.796   5.525  1.1992 -2.0368  0.5358
 5648SOL     OW28402   1.489   4.043   8.285  0.2536 -0.0451  0.4854
 5648SOL    HW128403   1.442   3.981   8.229  2.1620  0.1625 -1.3139
 5648SOL    HW228404   1.575   4.054   8.246  0.0052 -0.8462 -0.2930
 5649SOL     OW28405   2.634   3.892   3.066  0.0790 -0.3825  0.3127
 5649SOL    HW128406   2.621   3.880   2.972 -1.9411  2.0301  0.2753
 5649SOL    HW228407   2.644   3.807   3.108  1.1083 -0.4284 -0.0175
 5650SOL     OW28408   0.599   1.977   7.532  0.3058  0.6429 -0.1008
 5650SOL    HW128409   0.603   1.941   7.621 -0.4002  2.6040  0.7324
 5650SOL    HW228410   0.625   1.902   7.479  2.7365  0.5048  1.2915
 5651SOL     OW28411   2.755   2.838   9.753 -0.4630 -0.5251 -0.3238
 5651SOL    HW128412   2.728   2.878   9.836  0.4587 -1.5033  0.4550
 5651SOL    HW228413   2.705   2.880   9.684  1.4869 -1.3101 -2.1984
 5652SOL     OW28414   4.629   0.835   4.355  0.1255 -0.1463 -0.2698
 5652SOL    HW128415   4.588   0.867   4.274  0.1323  1.2865  0.2905
 5652SOL    HW228416   4.718   0.841   4.321 -0.2540 -0.7247 -1.3758
 5653SOL     OW28417   3.290   2.727   9.780  0.2272  0.0212  0.1822
 5653SOL    HW128418   3.325   2.799   9.832  1.7990 -1.0549  0.6181
 5653SOL    HW228419   3.197   2.735   9.801  0.0056  1.5312 -1.3830
 5654SOL     OW28420   2.316   4.098   4.786  0.8015  0.0358  0.1108
 5654SOL    HW128421   2.353   4.167   4.731  0.5434  0.4513  0.4545
 5654SOL    HW228422   2.248   4.068   4.726  0.0234  0.8745  0.5728
 5655SOL     OW28423   0.244   2.889  11.197  0.8711  0.3782  0.2866
 5655SOL    HW128424   0.283   2.849  11.119 -0.3798  0.9748 -0.6485
 5655SOL    HW228425   0.231   2.812  11.253 -0.7835 -0.3724 -1.1355
 5656SOL     OW28426   0.659   0.563  12.286  0.2106  0.4479 -0.2434
 5656SOL    HW128427   0.660   0.642  12.233  0.7404  0.2389 -0.5428
 5656SOL    HW228428   0.565   0.546  12.290  0.4684 -1.5256 -2.5027
 5657SOL     OW28429   3.039   3.981   0.917  0.7555  0.4147  0.3487
 5657SOL    HW128430   2.954   3.938   0.929  2.8753 -3.7152  0.6346
 5657SOL    HW228431   3.036   4.003   0.824  0.1170 -0.5228  0.1452
 5658SOL     OW28432   1.712   3.662  10.744  0.5574 -0.1392 -0.4251
 5658SOL    HW128433   1.652   3.730  10.776 -0.8711 -0.7999 -1.7003
 5658SOL    HW228434   1.798   3.703  10.733  0.6067  0.1886  1.2452
 5659SOL     OW28435   3.124   3.120   1.827  0.3813  0.2704 -0.8506
 5659SOL    HW128436   3.120   3.210   1.859 -1.1026 -0.5691  1.3102
 5659SOL    HW228437   3.045   3.085   1.869 -0.2721 -0.4706 -2.7314
 5660SOL     OW28438   3.414   3.875   5.371  0.3621  0.3883 -0.4711
 5660SOL    HW128439   3.421   3.783   5.348 -1.0568 -0.1050  1.1140
 5660SOL    HW228440   3.329   3.877   5.414  1.0285  1.7554  0.8109
 5661SOL     OW28441   1.278   2.312   3.250  0.0038 -0.9008 -0.2938
 5661SOL    HW128442   1.252   2.235   3.199 -2.4360 -0.2839  0.0303
 5661SOL    HW228443   1.365   2.288   3.283  0.1040 -1.0816 -0.6778
 5662SOL     OW28444   3.690   2.282   7.112 -0.2534  0.0775 -0.2587
 5662SOL    HW128445   3.623   2.346   7.137 -0.9484 -0.6223 -0.3203
 5662SOL    HW228446   3.689   2.212   7.177 -2.0182  1.0874  0.8401
 5663SOL     OW28447   1.920   0.673  15.612 -1.0297  0.1877  0.5662
 5663SOL    HW128448   1.856   0.718  15.668 -0.5000  0.6829  0.7710
 5663SOL    HW228449   1.959   0.745  15.562 -0.9689 -1.1700 -1.3279
 5664SOL     OW28450   2.853   2.551   7.906 -0.4269  0.2157 -0.4079
 5664SOL    HW128451   2.798   2.496   7.848 -1.3434 -2.1084  2.6521
 5664SOL    HW228452   2.829   2.639   7.879 -1.4391  0.2464  0.5917
 5665SOL     OW28453   1.917   0.051   1.622 -0.3819  0.4366  0.1283
 5665SOL    HW128454   1.873   0.060   1.706  2.0026  0.0068  1.4329
 5665SOL    HW228455   1.874   0.120   1.571  0.0143  0.7930  0.2737
 5666SOL     OW28456   4.240   4.289   1.295 -0.1888 -0.4364 -0.0418
 5666SOL    HW128457   4.310   4.223   1.293 -0.6816 -0.9225 -0.9143
 5666SOL    HW228458   4.265   4.340   1.219  0.5174 -0.9553 -0.1604
 5667SOL     OW28459   3.127   1.388   7.198  0.2808 -0.4874 -0.0126
 5667SOL    HW128460   3.196   1.368   7.136 -0.5236  1.5161 -1.5218
 5667SOL    HW228461   3.186   1.389   7.274  1.6647 -1.3311 -1.0820
 5668SOL     OW28462   3.831   1.181  12.678  0.0202 -0.2998 -0.1174
 5668SOL    HW128463   3.822   1.233  12.758  1.4446 -1.4763  0.8053
 5668SOL    HW228464   3.761   1.214  12.622 -0.2501  0.1925  0.5079
 5669SOL     OW28465   2.797   4.382  15.791  0.2683  0.6516  0.2462
 5669SOL    HW128466   2.838   4.438  15.725  1.3371 -0.3126  0.1021
 5669SOL    HW228467   2.832   4.422  15.871  1.7097 -1.0086  0.4344
 5670SOL     OW28468   1.896   3.189   0.318 -0.6292 -0.2844 -0.3990
 5670SOL    HW128469   1.923   3.270   0.274 -0.9627  0.3771  0.5905
 5670SOL    HW228470   1.848   3.150   0.245  0.7766  1.2664 -2.1495
 5671SOL     OW28471   1.688   2.543   5.115 -0.4175  0.1935 -0.0080
 5671SOL    HW128472   1.756   2.568   5.177  0.7916 -2.2027 -0.3645
 5671SOL    HW228473   1.731   2.568   5.033 -2.4505 -0.0851 -1.1510
 5672SOL     OW28474   4.283   2.559   2.931 -0.4433 -1.0006  0.1157
 5672SOL    HW128475   4.297   2.587   3.021  3.0769 -2.8359  0.1320
 5672SOL    HW228476   4.343   2.624   2.893 -0.6099 -1.4566 -0.9331
 5673SOL     OW28477   1.498   4.298  14.995 -0.4051  0.4413  0.1917
 5673SOL    HW128478   1.430   4.333  15.054  0.1885 -0.1380  1.2218
 5673SOL    HW228479   1.472   4.206  14.997  0.5405  0.1807  0.3623
 5674SOL     OW28480   4.628   4.566   1.969 -0.1646  0.0559 -0.1646
 5674SOL    HW128481   4.573   4.573   1.891  0.0568  1.6345 -0.1700
 5674SOL    HW228482   4.712   4.592   1.931 -1.2365  2.1596 -1.0908
 5675SOL     OW28483   3.696   1.431  17.059  0.7512  0.0290  0.6678
 5675SOL    HW128484   3.638   1.381  17.117 -1.5956  0.8571 -0.9810
 5675SOL    HW228485   3.656   1.517  17.059  0.4981 -0.1134 -3.6058
 5676SOL     OW28486   3.185   0.270   6.672  0.3773 -0.1723  0.1586
 5676SOL    HW128487   3.225   0.218   6.742  2.1949  0.8472 -0.1332
 5676SOL    HW228488   3.100   0.225   6.678 -0.4875  1.5756  1.3137
 5677SOL     OW28489   3.968   2.657  16.704 -0.5767 -0.3704  0.1835
 5677SOL    HW128490   3.961   2.742  16.747  2.6536 -0.6162  1.1546
 5677SOL    HW228491   3.879   2.629  16.727  0.0733 -1.0077  1.9188
 5678SOL     OW28492   4.564   3.819  16.532  0.0264 -0.1007 -0.2360
 5678SOL    HW128493   4.498   3.801  16.465  3.2317  1.9402 -3.9148
 5678SOL    HW228494   4.634   3.778  16.482 -0.0746  0.6227 -0.9743
 5679SOL     OW28495   3.228   2.702   0.174  0.2161  0.2256  0.5952
 5679SOL    HW128496   3.317   2.693   0.210 -0.0641 -0.2570  1.1650
 5679SOL    HW228497   3.219   2.796   0.182  1.0437  0.3205  0.4935
 5680SOL     OW28498   2.128   1.107   3.690 -0.7885  0.2402  0.3581
 5680SOL    HW128499   2.118   1.157   3.609  2.7911 -1.4808 -1.1675
 5680SOL    HW228500   2.208   1.058   3.672 -0.0708  2.0204 -1.2419
 5681SOL     OW28501   2.521   2.991   4.919 -0.2304 -0.2790 -0.2563
 5681SOL    HW128502   2.565   2.915   4.956  1.2554  0.2123 -1.0214
 5681SOL    HW228503   2.504   2.955   4.832  0.0579 -3.7499  1.1145
 5682SOL     OW28504   3.964   2.621   1.178  0.0711 -0.3545  0.0502
 5682SOL    HW128505   3.995   2.554   1.117  0.9300  0.3559 -0.2967
 5682SOL    HW228506   4.013   2.584   1.251  2.0466  2.4194  0.1474
 5683SOL     OW28507   2.379   2.257  12.768  0.3571 -0.1126 -0.0234
 5683SOL    HW128508   2.314   2.322  12.794 -0.5543 -0.8131 -0.5602
 5683SOL    HW228509   2.458   2.291  12.809 -0.9773  3.4469 -0.4127
 5684SOL     OW28510   1.725   2.128  11.811 -0.2143  0.1924 -0.8641
 5684SOL    HW128511   1.695   2.147  11.722 -1.2911  2.8499  0.0417
 5684SOL    HW228512   1.680   2.207  11.843  0.1431  0.1869 -0.3636
 5685SOL     OW28513   2.538   2.310   7.383 -0.0795 -0.6382 -0.1625
 5685SOL    HW128514   2.448   2.325   7.412  0.7014  1.4467  1.1702
 5685SOL    HW228515   2.593   2.326   7.460  1.6465 -0.8467 -1.3442
 5686SOL     OW28516   2.693   4.566   3.343  0.3120  0.4021 -0.0627
 5686SOL    HW128517   2.676   4.528   3.429 -0.2983 -0.1218 -0.4126
 5686SOL    HW228518   2.643   4.647   3.345 -1.6216 -0.7073 -2.7679
 5687SOL     OW28519   3.438   3.485   4.153 -1.0665  0.4198 -0.4791
 5687SOL    HW128520   3.359   3.434   4.139 -1.8209  1.5893 -0.4983
 5687SOL    HW228521   3.499   3.422   4.192 -1.8251  0.6514  1.1028
 5688SOL     OW28522   3.487   2.379   5.790 -0.0212 -0.0949 -0.5267
 5688SOL    HW128523   3.551   2.425   5.734  1.8597 -0.7545  1.0860
 5688SOL    HW228524   3.406   2.391   5.740 -0.6907 -0.7707  0.4090
 5689SOL     OW28525   1.504   1.351   5.891  0.4575  0.0683 -0.0079
 5689SOL    HW128526   1.452   1.275   5.865  2.6726 -0.8818 -1.6697
 5689SOL    HW228527   1.581   1.340   5.834  0.9194  1.5935  0.3288
 5690SOL     OW28528   4.651   3.385   0.673 -0.0640 -0.4368  0.3386
 5690SOL    HW128529   4.564   3.417   0.699 -0.6047 -0.4087 -1.5440
 5690SOL    HW228530   4.633   3.360   0.583  2.1849  0.0178 -0.2223
 5691SOL     OW28531   2.615   1.566   3.610  0.2312  0.7589 -0.7096
 5691SOL    HW128532   2.580   1.654   3.623 -1.8529  0.0902 -1.9080
 5691SOL    HW228533   2.558   1.512   3.665  3.0479 -2.2929 -0.7433
 5692SOL     OW28534   2.055   0.024  13.198  0.0524 -0.0588  0.4478
 5692SOL    HW128535   2.058   0.099  13.139  0.0662 -0.6030 -0.2489
 5692SOL    HW228536   2.043   0.072  13.279  0.4569  1.2459 -0.2682
 5693SOL     OW28537   4.241   1.646   3.880 -0.2863  0.3904 -0.4650
 5693SOL    HW128538   4.146   1.655   3.871 -0.5795  0.0803  2.1877
 5693SOL    HW228539   4.272   1.594   3.806 -1.1567  2.0828 -2.0209
 5694SOL     OW28540   3.518   2.733  15.698  0.7180  0.0642  0.2692
 5694SOL    HW128541   3.603   2.774  15.682  1.1866 -0.6106  1.0375
 5694SOL    HW228542   3.472   2.803  15.745 -0.4339 -0.4697 -0.0714
 5695SOL     OW28543   4.085   2.393   5.505 -0.6554 -0.6145 -0.0252
 5695SOL    HW128544   4.179   2.395   5.521 -0.4588  1.5870 -1.5324
 5695SOL    HW228545   4.062   2.308   5.544  2.4068 -1.1220  0.6971
 5696SOL     OW28546   3.861   3.575   4.584  0.3286  0.5571  0.1669
 5696SOL    HW128547   3.806   3.509   4.540  2.0959  0.1357 -1.4108
 5696SOL    HW228548   3.884   3.539   4.670  0.2448 -2.9149 -1.2611
 5697SOL     OW28549   2.243   3.686   5.790 -0.0914  0.4951 -0.2591
 5697SOL    HW128550   2.250   3.774   5.828  3.0874  0.5631 -0.9901
 5697SOL    HW228551   2.199   3.647   5.866 -0.1329  0.2692 -0.3991
 5698SOL     OW28552   1.901   2.114   2.755 -0.6923  0.0355 -0.1016
 5698SOL    HW128553   1.874   2.184   2.696 -2.1826 -2.4097 -2.3381
 5698SOL    HW228554   1.866   2.037   2.710  0.0526  0.5703 -1.6175
 5699SOL     OW28555   3.925   0.610  16.749  0.3955  0.1709  0.0962
 5699SOL    HW128556   3.859   0.656  16.800 -0.3582  0.9244 -1.5622
 5699SOL    HW228557   3.963   0.693  16.719  0.1818 -0.7560 -2.7807
 5700SOL     OW28558   4.038   3.040   4.272 -0.3898 -0.1671  0.0895
 5700SOL    HW128559   4.086   3.016   4.193  0.8969  1.8653  0.2651
 5700SOL    HW228560   3.951   3.067   4.242 -0.3734 -0.6455 -0.3729
 5701SOL     OW28561   2.637   1.889  15.095  0.1204  0.0213  0.0455
 5701SOL    HW128562   2.707   1.900  15.031 -1.7510  1.8660 -1.6571
 5701SOL    HW228563   2.582   1.962  15.070 -3.0236 -2.6118 -0.7444
 5702SOL     OW28564   4.575   3.238   4.620 -0.0523  0.0526 -0.3513
 5702SOL    HW128565   4.500   3.182   4.639  1.1533 -1.4612 -0.1073
 5702SOL    HW228566   4.555   3.255   4.528 -0.0460  1.5733 -0.0699
 5703SOL     OW28567   4.354   2.445   5.474  0.0881  0.1006 -0.0723
 5703SOL    HW128568   4.441   2.406   5.481 -0.0629 -0.3558 -0.7286
 5703SOL    HW228569   4.370   2.524   5.525 -1.2544  0.6178 -0.4701
 5704SOL     OW28570   0.310   0.095   9.375 -0.3335 -0.0375 -0.0409
 5704SOL    HW128571   0.286   0.012   9.333 -1.6886  1.1271 -1.5952
 5704SOL    HW228572   0.381   0.118   9.315  0.1076  2.0228  1.2862
 5705SOL     OW28573   3.671   4.214   5.864  0.5532  0.2282  0.1516
 5705SOL    HW128574   3.642   4.144   5.923  0.9168  0.3688  0.4928
 5705SOL    HW228575   3.639   4.175   5.782  1.1869 -0.3491  0.1736
 5706SOL     OW28576   4.540   4.507   2.765  0.1984 -0.1537 -0.3964
 5706SOL    HW128577   4.552   4.595   2.728 -1.7378  0.3480  0.1776
 5706SOL    HW228578   4.473   4.526   2.830  1.2236 -1.7906  1.1202
 5707SOL     OW28579   1.472   2.072   9.173 -0.1739 -0.0371 -0.2609
 5707SOL    HW128580   1.503   1.981   9.172  1.4021  0.4955  0.0166
 5707SOL    HW228581   1.513   2.103   9.254 -0.1919  0.5835 -0.4930
 5708SOL     OW28582   4.290   4.096   2.595  0.4858  0.6905 -0.3175
 5708SOL    HW128583   4.360   4.034   2.611  0.2051  0.7911  1.3126
 5708SOL    HW228584   4.260   4.058   2.512  1.4697  1.4592 -1.0260
 5709SOL     OW28585   0.751   4.236  10.782 -0.2118 -0.1170 -0.1234
 5709SOL    HW128586   0.777   4.172  10.716 -0.4627 -0.7577  0.4027
 5709SOL    HW228587   0.831   4.237  10.833  0.2075 -2.9843 -0.7523
 5710SOL     OW28588   2.508   2.838   7.723 -0.3675 -0.0038 -0.2582
 5710SOL    HW128589   2.447   2.808   7.790  1.0933  1.2657  1.6521
 5710SOL    HW228590   2.500   2.933   7.727  1.7283  0.0989  2.0206
 5711SOL     OW28591   2.282   0.701   6.160  0.1262 -0.4932 -0.1532
 5711SOL    HW128592   2.214   0.640   6.130 -1.9847  1.6056  0.2839
 5711SOL    HW228593   2.245   0.710   6.249  2.1492 -2.0609  0.8387
 5712SOL     OW28594   2.359   3.910  14.953  0.0508 -0.4165 -0.2978
 5712SOL    HW128595   2.274   3.875  14.981 -0.1337 -0.7159 -1.2249
 5712SOL    HW228596   2.406   3.862  15.021 -0.4798  2.2250  1.9141
 5713SOL     OW28597   2.387   2.542   0.653  0.5450 -0.2809  0.5716
 5713SOL    HW128598   2.380   2.452   0.619  2.0702 -0.2343  0.1556
 5713SOL    HW228599   2.482   2.547   0.658  0.4213 -0.5070  2.9474
 5714SOL     OW28600   2.786   1.892   8.685 -0.0671  0.2890  1.0248
 5714SOL    HW128601   2.771   1.804   8.651  1.9882  0.8485 -1.3366
 5714SOL    HW228602   2.698   1.926   8.664  0.4402  0.0296 -1.5404
 5715SOL     OW28603   0.318   0.769   7.675 -0.4913  0.3097 -0.1446
 5715SOL    HW128604   0.349   0.678   7.674  0.9413  0.8078 -1.5994
 5715SOL    HW228605   0.277   0.787   7.760  1.2730 -2.8397  1.3774
 5716SOL     OW28606   3.642   3.205   1.069  0.0487  0.1694  0.8214
 5716SOL    HW128607   3.709   3.240   1.128 -1.1260  1.6214  1.3030
 5716SOL    HW228608   3.573   3.173   1.127  1.4500  0.6303  2.7791
 5717SOL     OW28609   1.482   4.146   7.955 -0.0905 -0.3453  0.5024
 5717SOL    HW128610   1.561   4.116   7.912  1.4416  1.8741  1.7290
 5717SOL    HW228611   1.443   4.060   7.971 -1.3716  0.1596  0.0798
 5718SOL     OW28612   0.713   2.003   7.072 -0.2788  0.1575  0.1720
 5718SOL    HW128613   0.706   2.027   6.980  0.9670  1.1183  0.3196
 5718SOL    HW228614   0.800   2.041   7.086  0.5984 -1.9105  0.3829
 5719SOL     OW28615   2.863   1.169   4.568 -0.0995  0.3119 -0.1944
 5719SOL    HW128616   2.827   1.209   4.489 -0.9381  1.2793  0.6872
 5719SOL    HW228617   2.943   1.130   4.532 -0.1527  0.9592 -0.9917
 5720SOL     OW28618   1.583   0.536   3.666 -0.2726 -0.4349 -0.3490
 5720SOL    HW128619   1.520   0.506   3.732  0.4084 -0.3911  0.3160
 5720SOL    HW228620   1.668   0.537   3.709 -0.6935 -2.4509  0.5469
 5721SOL     OW28621   0.176   0.546   9.539 -0.5674 -0.1253  0.1476
 5721SOL    HW128622   0.153   0.477   9.600 -1.0986 -0.1593 -0.0973
 5721SOL    HW228623   0.188   0.630   9.583 -0.9281 -0.6941  1.3120
 5722SOL     OW28624   1.839   2.193   9.212  0.4492  0.5599 -0.3735
 5722SOL    HW128625   1.779   2.262   9.240 -0.3349 -0.5974  0.7633
 5722SOL    HW228626   1.899   2.200   9.287  1.0727 -3.0773 -0.5717
 5723SOL     OW28627   1.785   3.930   0.234  0.0117  0.4687  0.0883
 5723SOL    HW128628   1.744   3.844   0.247  0.1404  0.4837  0.6102
 5723SOL    HW228629   1.731   3.970   0.165 -3.0508 -1.5923  1.2688
 5724SOL     OW28630   1.239   2.318   5.789 -0.3512  0.0420 -0.3932
 5724SOL    HW128631   1.197   2.390   5.743 -1.0430 -0.0960  0.0228
 5724SOL    HW228632   1.211   2.241   5.738  1.4567 -0.5867 -0.4329
 5725SOL     OW28633   2.526   4.186   0.278 -0.4310  0.3571 -0.4057
 5725SOL    HW128634   2.527   4.278   0.306  0.1145 -0.6468  2.7599
 5725SOL    HW228635   2.601   4.191   0.219 -0.1607  0.5966 -0.0384
 5726SOL     OW28636   0.585   3.690   4.223  0.2177 -0.5309 -0.2631
 5726SOL    HW128637   0.559   3.601   4.200 -0.5908 -0.4983  0.5278
 5726SOL    HW228638   0.619   3.720   4.138 -0.6177  3.2442  0.7154
 5727SOL     OW28639   4.545   0.595   4.448  0.3318 -0.0996  0.0262
 5727SOL    HW128640   4.584   0.576   4.533  1.3008  1.8557  0.0411
 5727SOL    HW228641   4.563   0.688   4.430 -1.5489 -0.0400 -1.5190
 5728SOL     OW28642   3.909   0.501   6.143 -0.4021 -0.2846  0.7994
 5728SOL    HW128643   3.884   0.414   6.175 -2.4752 -0.2112 -0.5817
 5728SOL    HW228644   3.828   0.522   6.096  0.6901  1.6986 -0.2080
 5729SOL     OW28645   4.374   0.928   9.853 -0.4271  0.7241  0.0212
 5729SOL    HW128646   4.367   0.998   9.918 -0.7036 -2.1497  3.0915
 5729SOL    HW228647   4.414   0.855   9.899 -0.4571  0.5227 -0.2706
 5730SOL     OW28648   2.522   4.689   8.661 -0.0993 -0.0468 -0.2404
 5730SOL    HW128649   2.525   4.694   8.566 -1.0824 -3.5067 -0.4537
 5730SOL    HW228650   2.533   4.595   8.679 -0.6127 -0.1419 -0.4234
 5731SOL     OW28651   3.801   2.188   5.019  0.2309  0.1167 -0.7348
 5731SOL    HW128652   3.822   2.095   5.006 -0.8987 -0.7024  3.1226
 5731SOL    HW228653   3.716   2.175   5.062  0.6819 -1.8499 -0.4385
 5732SOL     OW28654   3.656   0.612  13.381  0.4249 -0.0848  0.1787
 5732SOL    HW128655   3.609   0.539  13.422  0.7861 -1.8207 -2.5125
 5732SOL    HW228656   3.655   0.679  13.449 -3.4187  0.5778 -0.5611
 5733SOL     OW28657   1.156   0.617   3.509  0.2591  0.6217 -0.4407
 5733SOL    HW128658   1.150   0.545   3.572 -0.7779  0.6107 -0.5445
 5733SOL    HW228659   1.250   0.623   3.492 -0.2848  4.6721 -2.0603
 5734SOL     OW28660   0.617   2.919  10.831  0.2488 -0.3561 -0.1374
 5734SOL    HW128661   0.554   2.869  10.780 -0.4873  0.2320  0.1898
 5734SOL    HW228662   0.693   2.909  10.774  0.6970  1.2767  0.1717
 5735SOL     OW28663   1.341   1.090   0.484  0.0936 -0.6183 -0.2278
 5735SOL    HW128664   1.423   1.136   0.502 -2.3165  3.2313  0.9119
 5735SOL    HW228665   1.337   1.042   0.566 -1.0927  1.8152  1.1453
 5736SOL     OW28666   4.214   3.995   9.791 -0.0148 -0.1407  0.3892
 5736SOL    HW128667   4.271   4.043   9.852 -0.9883  3.6978 -1.6927
 5736SOL    HW228668   4.229   3.906   9.822 -1.1956  0.0456  1.4729
 5737SOL     OW28669   3.191   2.232   4.327 -0.6124  0.1084 -0.0772
 5737SOL    HW128670   3.238   2.251   4.246  0.3883 -0.5317  0.3485
 5737SOL    HW228671   3.257   2.208   4.393  1.4326  3.3243 -0.9619
 5738SOL     OW28672   1.030   0.610  15.293 -0.1820 -0.2511  0.2672
 5738SOL    HW128673   1.108   0.555  15.302  0.4341  0.8204  1.5050
 5738SOL    HW228674   0.991   0.605  15.380 -1.1521  0.6341 -0.1209
 5739SOL     OW28675   4.463   3.861   1.662  0.1602  0.6223  0.5284
 5739SOL    HW128676   4.546   3.843   1.619 -0.2499 -1.7511  0.7132
 5739SOL    HW228677   4.431   3.929   1.603  1.2523 -0.3811 -1.2108
 5740SOL     OW28678   2.858   3.114  14.516  0.6028 -0.3610  0.1520
 5740SOL    HW128679   2.924   3.173  14.480 -1.8975  1.9741 -0.6146
 5740SOL    HW228680   2.847   3.063  14.435 -3.3932  1.7422 -0.6278
 5741SOL     OW28681   0.129   4.555  10.636 -0.2048 -0.5617 -0.3501
 5741SOL    HW128682   0.217   4.568  10.602  0.4227  0.6812  1.7945
 5741SOL    HW228683   0.155   4.512  10.717  1.1736 -3.1724 -2.1579
 5742SOL     OW28684   2.395   2.116  15.700 -0.3566 -0.0630  0.4863
 5742SOL    HW128685   2.389   2.211  15.705 -0.7774 -0.0740  0.1085
 5742SOL    HW228686   2.426   2.094  15.788  2.3743 -0.3162 -0.5180
 5743SOL     OW28687   1.630   3.321   4.531  0.0851  0.3275 -0.0461
 5743SOL    HW128688   1.636   3.393   4.469  3.0302 -1.3030 -1.6652
 5743SOL    HW228689   1.565   3.270   4.483  3.3073 -2.9445 -0.9379
 5744SOL     OW28690   2.664   0.649  15.901 -0.3281 -0.0195  0.0039
 5744SOL    HW128691   2.730   0.594  15.858  0.1133 -0.2222  0.9232
 5744SOL    HW228692   2.707   0.657  15.986 -2.3567 -1.1640  1.1510
 5745SOL     OW28693   1.271   4.257   8.151  0.2969 -0.0309 -0.4209
 5745SOL    HW128694   1.326   4.197   8.100  0.6265 -0.4239  0.4024
 5745SOL    HW228695   1.213   4.195   8.194 -1.3814  2.7001  1.2276
 5746SOL     OW28696   2.635   3.500  10.045 -0.8200 -0.9920 -0.1598
 5746SOL    HW128697   2.549   3.535  10.024  0.7786  2.3805 -1.0033
 5746SOL    HW228698   2.667   3.498   9.955 -0.2442  2.6348 -0.0286
 5747SOL     OW28699   0.398   3.115   7.924 -0.5073 -0.3110 -0.0092
 5747SOL    HW128700   0.313   3.113   7.879  0.1863 -0.3265 -1.3075
 5747SOL    HW228701   0.413   3.209   7.927 -1.7840 -0.0240 -2.4201
 5748SOL     OW28702   1.074   2.748  10.656 -0.1914 -0.2719 -0.0950
 5748SOL    HW128703   1.138   2.680  10.675  2.0875  1.6193 -0.9033
 5748SOL    HW228704   1.132   2.824  10.660 -1.5680  0.8776 -1.5091
 5749SOL     OW28705   3.814   2.824   9.984  0.6769  0.5847  0.3632
 5749SOL    HW128706   3.824   2.731   9.963 -0.6040  0.2077  1.3887
 5749SOL    HW228707   3.880   2.840  10.052  0.4866 -0.6768  0.8582
 5750SOL     OW28708   2.336   2.415   2.251  0.6092  0.4330 -0.3529
 5750SOL    HW128709   2.284   2.455   2.321 -1.6673 -1.5638 -0.9172
 5750SOL    HW228710   2.337   2.490   2.191  0.2490 -0.9094 -2.0456
 5751SOL     OW28711   0.538   1.396   9.932 -0.2111  0.1449 -0.4401
 5751SOL    HW128712   0.543   1.464   9.865 -0.7845  2.0001  1.4141
 5751SOL    HW228713   0.616   1.423   9.982 -0.2009 -2.3217  0.8578
 5752SOL     OW28714   4.195   2.067   6.996 -0.5141 -0.0936  0.4028
 5752SOL    HW128715   4.138   1.990   6.998  0.6482 -0.9179  1.6624
 5752SOL    HW228716   4.281   2.031   7.015 -1.2586 -1.5215  1.0391
 5753SOL     OW28717   4.232   2.192  14.490  0.3474 -0.1011 -0.7538
 5753SOL    HW128718   4.228   2.286  14.472 -1.1509  0.2314  1.2336
 5753SOL    HW228719   4.146   2.175  14.453 -0.7315 -1.1601  2.2305
 5754SOL     OW28720   4.194   0.713   5.866 -0.2096 -0.1429 -0.4110
 5754SOL    HW128721   4.130   0.781   5.888  0.8535 -0.3266  3.2352
 5754SOL    HW228722   4.170   0.686   5.777 -0.1383 -0.5317 -0.3148
 5755SOL     OW28723   4.162   1.973   2.151  0.6624 -0.1612 -0.3247
 5755SOL    HW128724   4.123   1.891   2.121  1.3386 -0.1052 -1.3504
 5755SOL    HW228725   4.151   2.027   2.072  0.1798 -0.4315 -0.4419
 5756SOL     OW28726   0.985   2.363   1.714  0.3771  0.1110 -0.8164
 5756SOL    HW128727   1.021   2.339   1.628  0.8408 -2.0732 -0.0032
 5756SOL    HW228728   1.063   2.382   1.765  1.6130 -2.8756 -1.5898
 5757SOL     OW28729   2.003   0.288   5.018 -0.1324 -0.6492 -0.6036
 5757SOL    HW128730   1.975   0.370   4.980  1.7824 -0.1827 -1.0234
 5757SOL    HW228731   1.997   0.312   5.111  3.3636 -1.3663 -0.1831
 5758SOL     OW28732   1.085   1.079   9.122 -0.4704  0.2807 -0.0872
 5758SOL    HW128733   1.014   1.134   9.157  0.6280 -0.0950  2.7564
 5758SOL    HW228734   1.032   1.017   9.072 -0.7693  0.4337  0.0411
 5759SOL     OW28735   3.211   2.679   9.341  0.2602  0.2489  0.3338
 5759SOL    HW128736   3.212   2.640   9.428 -0.8757 -0.5125 -0.0043
 5759SOL    HW228737   3.127   2.655   9.302  0.4225 -1.2182  0.9085
 5760SOL     OW28738   3.601   3.807   3.932  0.0527 -0.0450  0.5338
 5760SOL    HW128739   3.572   3.864   4.003 -0.9745 -0.0281  0.1020
 5760SOL    HW228740   3.521   3.793   3.882 -0.0731  0.9114  0.4692
 5761SOL     OW28741   0.220   0.988  15.133  0.9583 -0.4023  0.3462
 5761SOL    HW128742   0.206   1.061  15.193  0.3956  1.1598 -1.7099
 5761SOL    HW228743   0.259   0.928  15.197  0.4279  0.2093  1.2573
 5762SOL     OW28744   2.305   0.409  14.422 -0.4295  0.5036 -0.2539
 5762SOL    HW128745   2.328   0.325  14.461  1.2432  1.2299  0.2853
 5762SOL    HW228746   2.251   0.371  14.353 -1.2808  0.4928  0.4148
 5763SOL     OW28747   1.937   1.688   4.347  0.2824 -0.0893 -0.0613
 5763SOL    HW128748   1.892   1.746   4.409 -0.4279 -1.9281  1.1532
 5763SOL    HW228749   1.955   1.756   4.283 -0.3001  0.4867  0.3833
 5764SOL     OW28750   1.950   1.016  12.735  0.0848  0.1853 -0.8281
 5764SOL    HW128751   1.943   1.008  12.640  0.1088 -0.5205 -0.7684
 5764SOL    HW228752   1.932   1.109  12.750 -1.1342  0.0801 -1.6950
 5765SOL     OW28753   3.420   1.252   9.349  0.1191  1.1157  0.2204
 5765SOL    HW128754   3.510   1.283   9.337 -0.6884  2.8030 -1.4658
 5765SOL    HW228755   3.421   1.192   9.274 -0.1456  1.3105  0.0611
 5766SOL     OW28756   2.951   4.109   4.843  0.2074  0.2367  0.3389
 5766SOL    HW128757   2.974   4.016   4.834  1.1332  0.3127  1.8639
 5766SOL    HW228758   2.880   4.104   4.907  2.2609  0.4330  2.6481
 5767SOL     OW28759   2.103   0.672   6.380  0.1380  0.5035 -0.3640
 5767SOL    HW128760   2.072   0.731   6.311 -3.4043 -0.8938 -0.0029
 5767SOL    HW228761   2.025   0.661   6.435 -0.2231  0.3031 -0.9132
 5768SOL     OW28762   0.849   2.221   7.249 -0.2394  0.3327  0.2390
 5768SOL    HW128763   0.862   2.134   7.288 -1.3942  0.3855  0.7426
 5768SOL    HW228764   0.754   2.222   7.240 -0.2149  1.0449  0.0707
 5769SOL     OW28765   2.083   3.428   1.144 -0.3025  0.4975 -0.3324
 5769SOL    HW128766   2.055   3.519   1.148  1.8066  1.1794 -1.2594
 5769SOL    HW228767   2.031   3.393   1.216 -0.5142  2.1312  0.3067
 5770SOL     OW28768   3.697   1.091   5.982  0.1459  0.1813  0.2327
 5770SOL    HW128769   3.625   1.122   6.038  0.2270 -0.8108  0.8851
 5770SOL    HW228770   3.672   1.130   5.898 -0.5147 -1.0239 -0.1378
 5771SOL     OW28771   4.623   3.581   6.396 -0.1685 -0.1478  0.2987
 5771SOL    HW128772   4.541   3.603   6.440 -1.0521  1.0711 -1.9687
 5771SOL    HW228773   4.615   3.635   6.317  0.7401 -0.5067 -0.0430
 5772SOL     OW28774   3.728   2.565   6.047 -0.5846 -0.1070  0.1942
 5772SOL    HW128775   3.659   2.504   6.022 -0.7572 -0.1014  0.6467
 5772SOL    HW228776   3.801   2.516   6.010  0.6553  2.6335 -0.9802
 5773SOL     OW28777   4.304   1.393   1.156  0.1893  0.1775 -0.0168
 5773SOL    HW128778   4.230   1.382   1.096 -0.4631 -2.0644  1.2113
 5773SOL    HW228779   4.310   1.488   1.165  0.1774  0.2975 -1.2314
 5774SOL     OW28780   4.444   0.953   7.583 -0.1121 -0.5872 -0.2779
 5774SOL    HW128781   4.372   1.016   7.577  0.0074 -0.3559  0.7430
 5774SOL    HW228782   4.516   1.014   7.570 -0.8676 -0.0673 -2.1170
 5775SOL     OW28783   0.346   0.581   5.584  0.9811  0.1411 -0.1553
 5775SOL    HW128784   0.268   0.531   5.611  0.9543  1.4254  2.0518
 5775SOL    HW228785   0.307   0.660   5.546 -1.6653 -0.8258  0.4796
 5776SOL     OW28786   0.311   4.276  15.852 -0.3210 -0.5062 -0.2537
 5776SOL    HW128787   0.387   4.293  15.908  1.3661 -2.2942 -2.0226
 5776SOL    HW228788   0.339   4.333  15.781 -0.4328  0.7920  0.7331
 5777SOL     OW28789   0.995   3.510   8.012 -0.1529  0.9149 -0.2935
 5777SOL    HW128790   1.021   3.539   8.100 -0.0099  0.8329 -0.3091
 5777SOL    HW228791   0.984   3.596   7.972 -2.1340  1.8203  2.2151
 5778SOL     OW28792   0.222   1.309  12.757  0.6005 -0.3661  0.0469
 5778SOL    HW128793   0.224   1.216  12.779  0.7997 -0.0791  1.2573
 5778SOL    HW228794   0.314   1.330  12.775  0.4200  1.8307 -1.6367
 5779SOL     OW28795   2.168   1.859   3.808 -0.2134 -0.3287  0.2030
 5779SOL    HW128796   2.091   1.916   3.803  0.2860  0.2179 -1.5070
 5779SOL    HW228797   2.170   1.816   3.722 -3.3610  1.8325 -0.9694
 5780SOL     OW28798   4.438   1.625   4.956  0.0138  0.0079  0.6091
 5780SOL    HW128799   4.406   1.671   5.033  0.3422  0.7843  0.2872
 5780SOL    HW228800   4.389   1.660   4.881  1.9978  0.3936 -0.5059
 5781SOL     OW28801   4.294   0.484   0.656  0.3944 -0.0733  0.0787
 5781SOL    HW128802   4.383   0.451   0.643  1.5470  2.2658  2.2203
 5781SOL    HW228803   4.248   0.401   0.672  2.1376 -0.5715  2.3440
 5782SOL     OW28804   4.582   4.077   6.376  0.0398 -0.0612  0.3004
 5782SOL    HW128805   4.604   4.136   6.304  3.2749 -0.7503  0.7176
 5782SOL    HW228806   4.576   4.143   6.446 -0.9128  0.1673  0.0053
 5783SOL     OW28807   3.588   2.983  11.258 -0.4344 -0.2931  0.3951
 5783SOL    HW128808   3.634   3.020  11.333 -0.8201 -0.5366  0.7565
 5783SOL    HW228809   3.551   3.066  11.230 -1.3441 -0.1830  1.9161
 5784SOL     OW28810   1.347   3.306   5.278  0.0940 -0.6588  0.1945
 5784SOL    HW128811   1.252   3.290   5.286 -0.1764  0.5087 -0.7923
 5784SOL    HW228812   1.383   3.294   5.366  0.9090 -0.7019 -0.1520
 5785SOL     OW28813   3.121   2.026  13.544  0.0713 -0.8432  0.2229
 5785SOL    HW128814   3.111   2.089  13.472  0.3216 -0.9356  0.1071
 5785SOL    HW228815   3.035   1.987  13.561  0.1582  0.5577  3.8099
 5786SOL     OW28816   0.430   3.746   8.842  0.3814  0.4112  0.0157
 5786SOL    HW128817   0.433   3.668   8.898  0.7874 -0.9851 -1.9258
 5786SOL    HW228818   0.385   3.802   8.905 -1.6559  0.8323 -1.8139
 5787SOL     OW28819   2.393   3.198   6.655 -0.1124 -0.2084 -0.4180
 5787SOL    HW128820   2.486   3.200   6.633  0.2600  1.3782  1.3296
 5787SOL    HW228821   2.382   3.150   6.737  1.0892 -0.9620 -0.6973
 5788SOL     OW28822   1.723   1.071   7.652  0.5815 -0.7831 -0.4368
 5788SOL    HW128823   1.775   1.132   7.600 -1.7424  0.9627 -0.7396
 5788SOL    HW228824   1.678   1.026   7.580  2.0023 -1.0382 -1.1594
 5789SOL     OW28825   1.733   0.024   3.359 -0.0107 -0.6708 -0.4241
 5789SOL    HW128826   1.706   0.107   3.399  1.5447 -1.1632  1.6507
 5789SOL    HW228827   1.728   4.703   3.442  1.5883 -0.9261 -0.4770
 5790SOL     OW28828   4.350   1.565  16.871  0.1673  0.1420  0.0952
 5790SOL    HW128829   4.289   1.582  16.943  0.9859  1.2498  0.5260
 5790SOL    HW228830   4.298   1.604  16.801  0.5789 -1.4580 -1.0933
 5791SOL     OW28831   2.706   0.871   7.565  0.1090  0.4793 -0.0914
 5791SOL    HW128832   2.652   0.827   7.631  0.6650 -0.0896 -0.0163
 5791SOL    HW228833   2.671   0.826   7.488  0.8808  0.3906 -0.3849
 5792SOL     OW28834   1.592   1.804  10.107  0.0624  0.3575  0.1059
 5792SOL    HW128835   1.572   1.882  10.054 -1.3236 -0.1095 -0.0695
 5792SOL    HW228836   1.555   1.828  10.192 -0.2466 -0.6521  0.2601
 5793SOL     OW28837   3.155   3.621  17.071 -0.1759 -0.4334 -0.2156
 5793SOL    HW128838   3.158   3.671  17.153  0.8693 -1.8603  0.6303
 5793SOL    HW228839   3.094   3.556  17.103 -0.2656 -0.8910 -1.3253
 5794SOL     OW28840   1.562   3.481   2.872  0.3041 -0.0140  0.3851
 5794SOL    HW128841   1.519   3.497   2.788 -1.6923 -2.0183  1.0233
 5794SOL    HW228842   1.641   3.530   2.850 -0.8624  2.3233  1.4954
 5795SOL     OW28843   3.683   0.044   2.582  0.5900 -0.0007 -0.0123
 5795SOL    HW128844   3.686   0.126   2.534  1.1590 -0.0886 -0.1197
 5795SOL    HW228845   3.741   0.059   2.657  0.7522 -4.2518  0.7268
 5796SOL     OW28846   3.986   0.298  15.196 -0.4456 -0.1452 -0.7551
 5796SOL    HW128847   4.036   0.344  15.129  0.4876  2.8326  2.0087
 5796SOL    HW228848   4.030   0.313  15.280 -0.1484 -0.4662 -0.8491
 5797SOL     OW28849   1.979   2.937   4.057 -0.3346  0.3049  0.8022
 5797SOL    HW128850   2.009   3.005   3.996 -1.1506 -0.0801 -0.0207
 5797SOL    HW228851   2.050   2.938   4.121  1.5387 -0.8480 -1.2652
 5798SOL     OW28852   0.185   3.838   3.283  0.1193  0.7024  0.6485
 5798SOL    HW128853   0.271   3.872   3.310 -0.2953  0.3170  2.3889
 5798SOL    HW228854   0.222   3.770   3.227 -3.7327 -0.1240 -0.8773
 5799SOL     OW28855   1.162   4.487   2.669  0.0395  0.0344 -0.1434
 5799SOL    HW128856   1.237   4.431   2.646  1.1758  1.1957  0.7492
 5799SOL    HW228857   1.168   4.558   2.605  0.5049  0.9272  0.8871
 5800SOL     OW28858   4.001   2.299   5.246  0.7739  0.2620 -0.0242
 5800SOL    HW128859   4.000   2.335   5.334 -0.3733 -0.9398  0.4563
 5800SOL    HW228860   3.930   2.235   5.253  2.0056 -1.2466 -1.1998
 5801SOL     OW28861   3.837   1.441   3.528  0.0051 -0.3382 -0.0613
 5801SOL    HW128862   3.754   1.437   3.481  0.7405  2.8859 -1.5886
 5801SOL    HW228863   3.892   1.383   3.475 -0.9735 -0.7054 -0.6653
 5802SOL     OW28864   2.928   0.758  16.040 -0.3045  0.0493  0.2912
 5802SOL    HW128865   2.845   0.801  16.061 -1.3067 -1.2008 -1.1207
 5802SOL    HW228866   2.986   0.796  16.106  0.4709 -0.6625  0.0206
 5803SOL     OW28867   3.038   4.129  10.694 -0.1013  0.3878  0.5754
 5803SOL    HW128868   3.117   4.183  10.697 -0.3560  0.8026 -0.0406
 5803SOL    HW228869   3.028   4.131  10.598 -0.5269  1.3650  0.6470
 5804SOL     OW28870   0.584   0.020  10.646  0.1876 -0.0304  0.1997
 5804SOL    HW128871   0.528   4.720  10.720 -0.9536  0.6344 -0.4456
 5804SOL    HW228872   0.634   4.665  10.630 -0.8982 -0.9739  1.4870
 5805SOL     OW28873   2.267   2.669   5.873  0.0539  0.7469  0.2763
 5805SOL    HW128874   2.226   2.687   5.957  1.9090  0.2212  1.2930
 5805SOL    HW228875   2.357   2.674   5.904 -0.2292 -1.2984  1.4542
 5806SOL     OW28876   2.108   0.460  14.618  0.2629  0.3236 -0.0485
 5806SOL    HW128877   2.032   0.430  14.567  0.1736 -2.2903  1.6327
 5806SOL    HW228878   2.175   0.453  14.549  0.9419 -0.1782  0.6662
 5807SOL     OW28879   4.114   3.704   3.629 -0.8528 -0.2554 -0.1163
 5807SOL    HW128880   4.050   3.641   3.595  0.2392 -1.0469 -0.7254
 5807SOL    HW228881   4.108   3.687   3.723 -2.9227  0.6451 -0.0771
 5808SOL     OW28882   4.264   0.010   5.694 -0.1118 -0.1434 -0.4430
 5808SOL    HW128883   4.172   0.029   5.709 -0.1799 -2.3703  1.9030
 5808SOL    HW228884   4.251   4.695   5.608  0.2808 -0.7835 -0.2089
 5809SOL     OW28885   4.263   1.983   6.646 -0.5910  0.3356  0.1282
 5809SOL    HW128886   4.270   1.945   6.733  1.1546 -0.9308 -0.5621
 5809SOL    HW228887   4.170   1.965   6.631 -1.2505  1.7589  2.4028
 5810SOL     OW28888   0.413   2.371   1.134  0.0973  0.3012  0.4036
 5810SOL    HW128889   0.378   2.404   1.051  0.4857 -1.2052 -0.3563
 5810SOL    HW228890   0.382   2.436   1.197  1.6777  2.0397 -0.5929
 5811SOL     OW28891   1.430   3.335   9.327 -0.0708 -0.1915 -0.3320
 5811SOL    HW128892   1.483   3.273   9.376  1.3593  1.3806  0.1016
 5811SOL    HW228893   1.343   3.301   9.348  0.4372 -0.1488  1.8692
 5812SOL     OW28894   4.612   0.627   7.164  0.0963 -0.3122  0.4624
 5812SOL    HW128895   4.663   0.677   7.099 -2.2769  0.6430 -0.6484
 5812SOL    HW228896   4.655   0.674   7.236  0.2849 -1.7699  1.3020
 5813SOL     OW28897   1.393   3.814   9.691 -0.1693  0.2597  0.3278
 5813SOL    HW128898   1.467   3.772   9.647  0.7410  0.6476  1.4861
 5813SOL    HW228899   1.340   3.849   9.620  2.4052 -0.4523 -1.9506
 5814SOL     OW28900   3.466   0.448   4.362  0.0541  0.5730  0.0502
 5814SOL    HW128901   3.507   0.523   4.405  2.8547  0.5861 -2.6925
 5814SOL    HW228902   3.395   0.498   4.323 -0.9714  0.3592  1.6091
 5815SOL     OW28903   4.150   3.608   8.324 -0.3633 -0.2199  0.1473
 5815SOL    HW128904   4.209   3.550   8.275 -1.3449 -1.7337  0.7567
 5815SOL    HW228905   4.215   3.651   8.380 -0.2487 -1.0707  0.6670
 5816SOL     OW28906   1.590   2.835   6.583 -0.2941 -0.4884 -0.2513
 5816SOL    HW128907   1.595   2.868   6.493  1.8500  0.4144  0.2064
 5816SOL    HW228908   1.621   2.744   6.581  0.1110 -0.3420 -0.7664
 5817SOL     OW28909   2.427   2.176   5.873  0.0185  0.1537 -0.8275
 5817SOL    HW128910   2.518   2.206   5.867  0.3181 -0.7564 -0.8460
 5817SOL    HW228911   2.378   2.241   5.823 -0.9637 -0.6408 -0.9033
 5818SOL     OW28912   1.099   1.655   7.764 -0.1961  0.3641  0.3874
 5818SOL    HW128913   1.067   1.745   7.764  2.0965  1.1782  0.4109
 5818SOL    HW228914   1.054   1.626   7.843 -0.7164  0.2800  0.0573
 5819SOL     OW28915   4.460   0.220   6.622 -0.0528  0.5853  0.7019
 5819SOL    HW128916   4.517   0.160   6.670 -0.1482  0.8198  1.1048
 5819SOL    HW228917   4.481   0.193   6.532  2.2821  0.5656  1.2354
 5820SOL     OW28918   4.081   1.119   8.559 -0.5409 -0.3351  0.0880
 5820SOL    HW128919   4.011   1.079   8.610 -1.9743 -0.1979 -1.7847
 5820SOL    HW228920   4.147   1.145   8.624 -1.2667  1.6681  0.0188
 5821SOL     OW28921   2.527   4.546   3.662 -1.0141  0.4140 -0.0532
 5821SOL    HW128922   2.505   4.481   3.595  2.9106  0.7102 -1.6104
 5821SOL    HW228923   2.495   4.629   3.625  1.3319  1.3293 -0.0303
 5822SOL     OW28924   4.481   4.245   0.120 -0.2150  0.2095  0.3613
 5822SOL    HW128925   4.414   4.206   0.064  0.0989  0.9149 -0.5064
 5822SOL    HW228926   4.441   4.219   0.203 -2.5110  2.1078 -0.1629
 5823SOL     OW28927   1.147   4.696   0.107  0.9758  0.4153  0.0936
 5823SOL    HW128928   1.144   0.036   0.177  0.0021  0.7639 -0.2614
 5823SOL    HW228929   1.241   4.682   0.102  0.6338 -1.7500 -0.3199
 5824SOL     OW28930   1.082   0.506   4.616  0.2264 -0.2404 -0.4819
 5824SOL    HW128931   1.095   0.595   4.651 -1.2789 -0.3561  0.3496
 5824SOL    HW228932   1.167   0.487   4.576 -0.1164 -0.1087 -1.2687
 5825SOL     OW28933   2.463   2.103  11.817 -0.1076 -0.4376 -0.1699
 5825SOL    HW128934   2.499   2.021  11.784 -3.4938 -0.4888 -3.7146
 5825SOL    HW228935   2.425   2.063  11.894 -0.0015 -1.7679 -0.8069
 5826SOL     OW28936   4.122   0.265   7.488 -0.5187  0.3080  0.2119
 5826SOL    HW128937   4.076   0.196   7.440  2.7610  0.0422 -2.5939
 5826SOL    HW228938   4.063   0.339   7.476 -0.5972 -0.1204 -2.1252
 5827SOL     OW28939   2.876   3.244  14.770  0.8409  0.2369 -0.1739
 5827SOL    HW128940   2.870   3.199  14.686 -0.6610 -1.0384  0.6040
 5827SOL    HW228941   2.956   3.296  14.780  1.1375 -0.5131  1.4100
 5828SOL     OW28942   1.314   0.168   4.658 -0.3697 -0.2641  0.5105
 5828SOL    HW128943   1.333   0.075   4.650  0.5125  0.0136 -0.6940
 5828SOL    HW228944   1.236   0.174   4.713 -1.3515  0.1351 -0.9246
 5829SOL     OW28945   4.222   0.261   7.770  0.3611  0.0154 -0.2752
 5829SOL    HW128946   4.160   0.289   7.837  2.3576  1.9180  0.7518
 5829SOL    HW228947   4.175   0.300   7.696  2.0756  0.2046 -1.2524
 5830SOL     OW28948   1.116   0.259   0.563  0.1545  0.3211  0.1322
 5830SOL    HW128949   1.115   0.208   0.482 -2.1712 -2.1647  1.7416
 5830SOL    HW228950   1.046   0.223   0.617 -0.1686  0.1680 -0.3929
 5831SOL     OW28951   1.238   2.966   6.097 -0.5755  0.0782  0.0380
 5831SOL    HW128952   1.229   3.045   6.045  2.5275 -2.1095 -3.8379
 5831SOL    HW228953   1.224   3.005   6.183  0.3491  0.8960 -0.1822
 5832SOL     OW28954   0.693   0.593   9.160  0.2283  0.4598  0.2312
 5832SOL    HW128955   0.744   0.643   9.224 -1.4821  0.8843  1.2622
 5832SOL    HW228956   0.739   0.614   9.078  0.8341 -0.2592  0.3883
 5833SOL     OW28957   1.446   4.044   4.506 -0.2776  0.0106 -0.2189
 5833SOL    HW128958   1.530   4.017   4.544 -0.7690 -1.2656 -0.0541
 5833SOL    HW228959   1.428   4.124   4.554 -0.9703 -0.3971  0.1868
 5834SOL     OW28960   1.976   3.692   7.920 -0.1305 -0.3363  0.4786
 5834SOL    HW128961   1.918   3.627   7.960  2.1915 -2.1460  0.8948
 5834SOL    HW228962   1.978   3.652   7.833 -0.8796  0.1533  0.2399
 5835SOL     OW28963   2.958   2.683   1.347 -0.7674  0.0382  0.0055
 5835SOL    HW128964   2.929   2.675   1.256 -0.5821  1.1938 -0.1588
 5835SOL    HW228965   2.879   2.658   1.395 -0.1792  0.2160  1.0626
 5836SOL     OW28966   3.007   3.793   8.744  0.6216  0.0133  0.3518
 5836SOL    HW128967   3.098   3.770   8.765  0.6890  0.0106  0.0521
 5836SOL    HW228968   2.972   3.838   8.821 -0.2840  0.6909 -0.4652
 5837SOL     OW28969   3.150   2.933   0.283 -0.3197  0.7945 -0.1184
 5837SOL    HW128970   3.183   2.912   0.370  1.4706 -0.1977 -1.0197
 5837SOL    HW228971   3.111   3.017   0.308  0.6644  1.5104 -0.9573
 5838SOL     OW28972   2.067   0.472  15.541 -0.5961  0.1556  0.4277
 5838SOL    HW128973   2.005   0.537  15.574  0.0462  1.0769 -0.1874
 5838SOL    HW228974   2.057   0.407  15.611  1.1887 -1.5494 -0.8782
 5839SOL     OW28975   2.025   0.236   3.318  0.4945  0.2419 -0.3235
 5839SOL    HW128976   1.983   0.183   3.250 -0.6016 -1.4349  1.6659
 5839SOL    HW228977   1.950   0.284   3.352 -1.1900 -1.2351 -1.9220
 5840SOL     OW28978   4.277   1.028  15.885 -0.2856  0.4450 -0.2314
 5840SOL    HW128979   4.279   1.124  15.881 -0.2783  0.4726  0.4356
 5840SOL    HW228980   4.233   1.010  15.802 -0.3002 -3.4276  0.6125
 5841SOL     OW28981   2.420   4.342   3.161 -0.5144  0.0328 -0.2978
 5841SOL    HW128982   2.457   4.396   3.091 -0.1770  0.6989  0.3953
 5841SOL    HW228983   2.482   4.270   3.173 -0.0513  0.1287 -2.1697
 5842SOL     OW28984   2.604   3.477   3.659 -0.1607 -0.1526  0.0202
 5842SOL    HW128985   2.531   3.417   3.647 -0.6399  0.4774 -0.1728
 5842SOL    HW228986   2.576   3.559   3.620 -0.9360  0.3445  1.6156
 5843SOL     OW28987   2.041   1.613  10.722 -0.3550 -0.1325  0.0980
 5843SOL    HW128988   2.026   1.523  10.692 -1.1296  0.2398 -0.6366
 5843SOL    HW228989   2.105   1.642  10.658  1.0921 -3.2045  0.1370
 5844SOL     OW28990   0.993   0.089   8.072 -0.3132  0.5015 -0.1919
 5844SOL    HW128991   0.956   0.113   7.987  0.9748 -1.1420 -1.2217
 5844SOL    HW228992   0.981   0.170   8.122  1.0750  2.1340 -2.4468
 5845SOL     OW28993   0.512   1.618   6.330 -0.4307 -0.4784 -0.0498
 5845SOL    HW128994   0.426   1.577   6.340  0.4138 -2.2980 -0.1611
 5845SOL    HW228995   0.478   1.706   6.321  0.1103 -0.2611  0.0335
 5846SOL     OW28996   0.100   3.595   2.117  0.7626 -0.0192 -0.1383
 5846SOL    HW128997   0.162   3.669   2.120  0.5584  0.1709 -0.5573
 5846SOL    HW228998   0.111   3.561   2.205  0.3186 -0.0742 -0.1048
 5847SOL     OW28999   2.710   4.685   2.201 -0.3516  0.0560 -0.5406
 5847SOL    HW129000   2.729   4.648   2.287 -2.5965 -0.6977 -0.3751
 5847SOL    HW229001   2.756   4.622   2.145  2.6897  1.9305 -0.1066
 5848SOL     OW29002   0.539   0.910   1.310  0.2829  0.3774  0.2285
 5848SOL    HW129003   0.467   0.907   1.246  2.4455 -2.2042 -2.0582
 5848SOL    HW229004   0.485   0.919   1.389  1.1072  1.4195  0.6661
 5849SOL     OW29005   4.170   1.163   9.333  0.1382  0.0907  0.1873
 5849SOL    HW129006   4.243   1.130   9.280 -1.6823 -0.1954 -2.1189
 5849SOL    HW229007   4.215   1.228   9.387  0.8682 -0.2131 -0.0523
 5850SOL     OW29008   1.800   3.583   5.554  0.2921  0.1492  0.1597
 5850SOL    HW129009   1.757   3.643   5.493 -1.7842 -1.2996  0.2097
 5850SOL    HW229010   1.855   3.642   5.605 -2.6480  2.2483  0.9653
 5851SOL     OW29011   0.827   3.480   4.639  0.0618 -0.1596  0.2787
 5851SOL    HW129012   0.873   3.430   4.706  0.6530 -0.6406 -0.4813
 5851SOL    HW229013   0.830   3.425   4.560  0.0039 -0.1399  0.2628
 5852SOL     OW29014   1.155   2.941   3.616  0.8079  0.5158 -0.6509
 5852SOL    HW129015   1.149   2.878   3.545  1.6180  2.2231 -2.2329
 5852SOL    HW229016   1.244   2.976   3.607  0.0831  2.3765 -0.5512
 5853SOL     OW29017   4.375   4.107   5.175 -0.2375 -0.0668  0.1057
 5853SOL    HW129018   4.312   4.070   5.114  1.0783  0.6634 -1.6756
 5853SOL    HW229019   4.441   4.038   5.180  0.4455  0.5339 -0.6425
 5854SOL     OW29020   2.471   0.768   1.065 -0.0858  0.1356 -0.0895
 5854SOL    HW129021   2.447   0.804   1.150  0.2166  1.1627 -0.4394
 5854SOL    HW229022   2.543   0.824   1.035 -1.6227  1.0848 -2.0839
 5855SOL     OW29023   1.048   4.140   8.284  0.0977  0.3556 -0.3145
 5855SOL    HW129024   1.014   4.059   8.322  1.9375  0.5186  1.6504
 5855SOL    HW229025   1.035   4.197   8.359  1.6932 -0.4098  0.5462
 5856SOL     OW29026   0.450   1.228  12.426 -0.7819  0.0895  0.8475
 5856SOL    HW129027   0.493   1.185  12.500 -1.6482  2.0191  2.4509
 5856SOL    HW229028   0.362   1.191  12.438 -0.6338 -0.3870  0.4781
 5857SOL     OW29029   2.010   4.169   0.885 -0.6721  0.0531  0.0211
 5857SOL    HW129030   1.962   4.115   0.947 -0.1006 -2.2174 -1.5275
 5857SOL    HW229031   1.944   4.165   0.816 -0.9915  0.1837  0.3197
 5858SOL     OW29032   4.521   4.332  10.050 -0.2934  0.1473  0.3540
 5858SOL    HW129033   4.616   4.324  10.052 -0.2471  0.1932 -1.4618
 5858SOL    HW229034   4.496   4.285  10.130  0.8313 -1.0709 -0.0063
 5859SOL     OW29035   1.520   0.103   6.900 -0.0070  0.0384  0.2086
 5859SOL    HW129036   1.488   0.168   6.837  0.8951 -0.9665 -1.2822
 5859SOL    HW229037   1.511   0.157   6.978  0.2696 -0.5156  0.6221
 5860SOL     OW29038   4.037   0.049   7.315 -0.8237  0.7633  0.2741
 5860SOL    HW129039   4.027   4.680   7.331 -0.7144  0.3406 -2.1524
 5860SOL    HW229040   4.025   0.044   7.220  0.2265  0.5442  0.1503
 5861SOL     OW29041   0.989   1.931  13.207  0.5160  0.0747 -0.2024
 5861SOL    HW129042   0.956   1.980  13.282 -1.5707 -0.6031 -0.6692
 5861SOL    HW229043   1.026   2.000  13.152  0.4868  0.6321  0.4757
 5862SOL     OW29044   3.700   4.209   1.200  0.5031 -0.5025 -0.2238
 5862SOL    HW129045   3.736   4.157   1.128  0.9284 -1.0390  0.3684
 5862SOL    HW229046   3.671   4.289   1.158  3.3389 -0.8708 -2.9014
 5863SOL     OW29047   2.361   3.999   2.219  0.0822  0.5125  0.5450
 5863SOL    HW129048   2.345   3.934   2.150  1.6208  0.6927  0.0196
 5863SOL    HW229049   2.456   3.993   2.211  0.3490  2.1063  2.4898
 5864SOL     OW29050   3.541   4.564   0.638 -0.3126  0.3497 -0.0019
 5864SOL    HW129051   3.631   4.573   0.606  0.4193 -2.7839  1.2013
 5864SOL    HW229052   3.534   4.469   0.627 -0.9960  0.4876 -0.8105
 5865SOL     OW29053   0.329   2.542   9.395 -0.6863  0.3216  0.0097
 5865SOL    HW129054   0.407   2.493   9.369 -1.2746 -0.7282  0.1861
 5865SOL    HW229055   0.333   2.513   9.486 -1.1755  2.7847  0.7996
 5866SOL     OW29056   2.237   1.793   6.905 -0.1154 -0.1322  0.7052
 5866SOL    HW129057   2.263   1.754   6.821 -1.5430  0.1824  0.1138
 5866SOL    HW229058   2.147   1.764   6.923  0.3570 -2.3870 -0.5422
 5867SOL     OW29059   4.265   3.142  13.010 -0.2528 -0.2317 -0.0496
 5867SOL    HW129060   4.207   3.162  12.937 -0.6552  1.6029  0.7613
 5867SOL    HW229061   4.281   3.223  13.059  0.5258 -1.6622  2.0650
 5868SOL     OW29062   1.815   1.762  17.423  0.1035  0.6866 -0.5807
 5868SOL    HW129063   1.851   1.851  17.424  1.2520  0.2345 -1.4778
 5868SOL    HW229064   1.732   1.777  17.378 -1.0015  0.6662  1.4762
 5869SOL     OW29065   1.720   2.246   1.416  0.3085 -0.3699 -0.1422
 5869SOL    HW129066   1.701   2.167   1.466 -2.1231 -1.0932 -2.2560
 5869SOL    HW229067   1.680   2.323   1.457  0.8396  0.3095 -0.9076
 5870SOL     OW29068   3.100   0.314   3.849  0.2203 -0.4818 -0.5972
 5870SOL    HW129069   3.182   0.320   3.801  0.5387  0.3714  0.0514
 5870SOL    HW229070   3.133   0.271   3.929  0.5211  1.8804  0.5483
 5871SOL     OW29071   2.197   2.510   1.524 -0.0436 -0.6110 -0.0917
 5871SOL    HW129072   2.217   2.420   1.499 -2.8569 -1.8152  1.9471
 5871SOL    HW229073   2.223   2.516   1.616  0.4776  0.2615 -0.2934
 5872SOL     OW29074   2.332   0.557  17.131 -0.1054  0.3920 -0.0774
 5872SOL    HW129075   2.272   0.585  17.061  0.6880 -2.8420 -2.0331
 5872SOL    HW229076   2.336   0.638  17.183  0.8714 -0.4654  1.1620
 5873SOL     OW29077   3.640   3.047   4.396 -0.0692  0.0580 -0.0714
 5873SOL    HW129078   3.664   3.067   4.487  0.4865  0.7891 -0.3832
 5873SOL    HW229079   3.548   3.072   4.407 -0.7373 -2.4683 -0.0354
 5874SOL     OW29080   4.501   4.591   4.466  0.5003  0.0510  0.1599
 5874SOL    HW129081   4.596   4.598   4.458  0.5930 -0.5698  0.7477
 5874SOL    HW229082   4.492   4.594   4.561 -0.0285  2.2826  0.0506
 5875SOL     OW29083   4.624   2.900   2.384 -0.1325 -0.0807 -0.6451
 5875SOL    HW129084   4.560   2.960   2.345  0.6798 -0.7946 -3.1324
 5875SOL    HW229085   4.680   2.878   2.309 -0.7723  0.2772 -1.2257
 5876SOL     OW29086   0.218   4.290   7.307  0.5949 -0.2834 -0.2483
 5876SOL    HW129087   0.302   4.267   7.268  0.7415  3.0098 -1.8854
 5876SOL    HW229088   0.235   4.279   7.400  0.8662  2.4856  0.0218
 5877SOL     OW29089   0.073   2.276   6.564 -0.0435 -0.5079 -0.0178
 5877SOL    HW129090   0.096   2.297   6.654 -3.5151 -1.3207  1.0527
 5877SOL    HW229091   4.724   2.215   6.566 -1.0836  0.7655 -0.2451
 5878SOL     OW29092   0.591   1.582   5.014  0.6600 -0.6844 -0.3907
 5878SOL    HW129093   0.625   1.525   5.083  0.0230 -0.0394  0.4513
 5878SOL    HW229094   0.666   1.613   4.965 -0.2021  1.8183 -0.1019
 5879SOL     OW29095   4.404   4.600   4.744 -0.0253 -0.2385  0.2118
 5879SOL    HW129096   4.475   4.601   4.808  0.5315 -0.1715 -0.4140
 5879SOL    HW229097   4.379   4.508   4.750 -1.3463  0.1611  0.8529
 5880SOL     OW29098   1.173   2.418  10.001 -0.5670  0.3594  0.6656
 5880SOL    HW129099   1.133   2.424  10.088 -0.3051 -0.6457  0.8655
 5880SOL    HW229100   1.099   2.410   9.941  0.9027 -0.9552 -0.9891
 5881SOL     OW29101   0.224   1.384   5.636 -0.0293 -0.0057 -0.0522
 5881SOL    HW129102   0.186   1.355   5.553 -0.7068  2.5313 -0.6227
 5881SOL    HW229103   0.158   1.444   5.673  1.6100  1.8601 -0.1685
 5882SOL     OW29104   3.166   0.150   4.068  0.1845 -0.6526 -0.3839
 5882SOL    HW129105   3.186   0.139   4.162  2.7419 -0.2395 -0.8704
 5882SOL    HW229106   3.158   0.059   4.041  1.9307 -1.3926  1.5328
 5883SOL     OW29107   1.878   3.930  11.222  0.1742 -0.6917  0.2011
 5883SOL    HW129108   1.851   3.871  11.152  0.2445 -0.7859  0.2527
 5883SOL    HW229109   1.959   3.887  11.249  0.9255  0.0126 -0.9283
 5884SOL     OW29110   2.149   0.105   2.201  0.1569 -0.2089 -0.2839
 5884SOL    HW129111   2.095   0.181   2.177 -0.2153 -1.0214 -2.0040
 5884SOL    HW229112   2.090   0.062   2.263  0.0247  2.3673  1.3806
 5885SOL     OW29113   3.016   4.480   5.301  0.1367  0.3913  0.0533
 5885SOL    HW129114   2.973   4.406   5.345  0.8323 -0.0822 -0.0605
 5885SOL    HW229115   3.059   4.535   5.367 -1.5894  0.0087  1.5193
 5886SOL     OW29116   2.105   4.462   3.401 -0.1285 -0.3247 -0.2430
 5886SOL    HW129117   2.110   4.398   3.472 -0.5910  0.9010  0.8838
 5886SOL    HW229118   2.128   4.542   3.447 -1.6037 -0.4088  0.6289
 5887SOL     OW29119   1.988   2.174   6.888 -0.1302 -0.5065  0.0731
 5887SOL    HW129120   2.050   2.149   6.818  0.3945 -0.6164  0.5794
 5887SOL    HW229121   1.990   2.101   6.950  2.2686  0.4465  1.1165
 5888SOL     OW29122   4.694   0.161   1.230 -0.0583  0.7291 -0.3798
 5888SOL    HW129123   4.658   0.095   1.289 -0.7489  1.7321  0.3230
 5888SOL    HW229124   4.632   0.233   1.243 -0.0668  0.3511  1.7099
 5889SOL     OW29125   4.153   2.153   5.648 -0.3298  0.5594  0.7698
 5889SOL    HW129126   4.235   2.133   5.693  0.4441  0.8447 -0.5347
 5889SOL    HW229127   4.099   2.172   5.725  1.0144 -0.5154  1.9761
 5890SOL     OW29128   3.997   0.811   2.978 -0.1562  0.0819  0.6234
 5890SOL    HW129129   3.934   0.786   2.911  0.3016  2.2360 -0.6061
 5890SOL    HW229130   3.934   0.832   3.047  1.0326 -0.0606  1.7653
 5891SOL     OW29131   2.494   2.191   5.552 -0.3628 -0.6247  0.5944
 5891SOL    HW129132   2.416   2.158   5.508 -0.4977 -0.0639  0.4069
 5891SOL    HW229133   2.500   2.133   5.627 -2.8927 -0.2346  1.0874
 5892SOL     OW29134   3.317   3.204   0.952  0.4093 -0.0637 -0.2997
 5892SOL    HW129135   3.395   3.254   0.977  0.1607 -1.1486  2.5763
 5892SOL    HW229136   3.335   3.176   0.862 -2.4086 -2.8622  0.0241
 5893SOL     OW29137   4.249   4.162  17.648 -0.1259  0.1070 -0.4568
 5893SOL    HW129138   4.291   4.076  17.635 -2.0864 -0.6656 -1.7418
 5893SOL    HW229139   4.166   4.137  17.609  0.4096 -0.2669 -1.3711
 5894SOL     OW29140   1.690   3.119  16.080  0.2288 -0.0587  0.0402
 5894SOL    HW129141   1.599   3.099  16.103  0.1408 -0.6494 -0.8589
 5894SOL    HW229142   1.675   3.175  16.005 -3.0464  0.1564  0.8682
 5895SOL     OW29143   0.139   1.459   9.290 -0.7528 -0.0639 -0.1166
 5895SOL    HW129144   0.107   1.431   9.204  0.6111  0.1947 -0.7254
 5895SOL    HW229145   0.224   1.415   9.283 -0.4934  0.3910  0.1190
 5896SOL     OW29146   3.221   0.958   7.566 -0.1568 -0.2850  0.4453
 5896SOL    HW129147   3.129   0.984   7.571 -0.2087 -0.6641  1.5250
 5896SOL    HW229148   3.242   0.914   7.648  0.3918 -0.9090 -0.0265
 5897SOL     OW29149   4.610   0.053   3.971  0.1628 -0.2671 -0.1374
 5897SOL    HW129150   4.590   0.071   3.879 -2.2341 -0.2701  0.3702
 5897SOL    HW229151   4.636   0.138   4.004  2.1786 -0.8729 -0.2052
 5898SOL     OW29152   0.074   1.041   5.624 -0.6476 -0.3967  0.3542
 5898SOL    HW129153   0.028   1.108   5.574  1.2741  0.4030 -0.3644
 5898SOL    HW229154   0.010   0.973   5.646 -1.6313  0.3971 -0.0489
 5899SOL     OW29155   3.369   0.058  13.547  0.4639  0.4216 -0.3675
 5899SOL    HW129156   3.436   0.001  13.583 -3.0493 -3.5204 -0.0408
 5899SOL    HW229157   3.404   0.085  13.462  0.7264  0.4788 -0.2394
 5900SOL     OW29158   2.854   1.500   8.348  0.3671 -0.2332 -0.0560
 5900SOL    HW129159   2.894   1.448   8.278 -1.7449 -0.7986 -0.8589
 5900SOL    HW229160   2.908   1.578   8.336  0.8038 -0.5966 -0.4649
 5901SOL     OW29161   0.274   4.493   6.218  0.1680  0.0519  0.1436
 5901SOL    HW129162   0.235   4.489   6.131  0.0173 -0.3329  0.2303
 5901SOL    HW229163   0.253   4.406   6.252  0.2405  0.2630  0.7380
 5902SOL     OW29164   1.384   4.027   3.903 -0.5798  0.2925 -0.4552
 5902SOL    HW129165   1.376   4.005   3.996  0.5370 -0.1617 -0.4684
 5902SOL    HW229166   1.295   4.009   3.873 -0.5102  1.2701 -1.2418
 5903SOL     OW29167   3.701   2.319   8.607 -0.1356  0.8380 -0.1405
 5903SOL    HW129168   3.677   2.339   8.516  0.1828  0.3425 -0.3372
 5903SOL    HW229169   3.694   2.224   8.606  1.1119  0.7007  4.5833
 5904SOL     OW29170   2.645   1.012  11.976 -0.1741 -0.2909 -0.1074
 5904SOL    HW129171   2.644   0.964  11.894 -1.8217 -1.6424  0.6793
 5904SOL    HW229172   2.736   1.040  11.989 -0.0104 -0.7408 -0.3155
 5905SOL     OW29173   4.278   0.397   2.786  0.0855  0.3529  0.3652
 5905SOL    HW129174   4.277   0.491   2.804  1.9327  0.3333  0.5867
 5905SOL    HW229175   4.334   0.404   2.709 -0.6399  2.4626  0.0255
 5906SOL     OW29176   0.188   2.463  13.204  0.2632  0.1523 -0.3092
 5906SOL    HW129177   0.115   2.521  13.222  0.4445 -0.5707  2.7587
 5906SOL    HW229178   0.255   2.498  13.264  0.2667 -0.6923  0.1840
 5907SOL     OW29179   1.244   0.822  15.780  0.0973  0.0467 -0.0850
 5907SOL    HW129180   1.225   0.879  15.705  0.4155 -0.6288 -0.6760
 5907SOL    HW229181   1.153   0.805  15.807 -0.0234 -0.8850 -1.0787
 5908SOL     OW29182   0.632   1.725   2.123  0.5179  0.1353 -0.1334
 5908SOL    HW129183   0.564   1.658   2.129 -1.0449  1.6731 -0.4387
 5908SOL    HW229184   0.587   1.802   2.087  0.1340 -0.3390 -0.6476
 5909SOL     OW29185   1.353   0.681   7.454 -0.3803 -0.3750 -0.1510
 5909SOL    HW129186   1.319   0.769   7.441 -3.0811 -1.6575 -1.6867
 5909SOL    HW229187   1.351   0.680   7.550  0.0694  2.2974 -0.1019
 5910SOL     OW29188   0.866   1.404   3.662 -0.1921  0.1306  0.1234
 5910SOL    HW129189   0.873   1.308   3.669  0.6589  0.1422 -0.4937
 5910SOL    HW229190   0.863   1.445   3.748  1.7880  1.3016 -0.3517
 5911SOL     OW29191   3.105   2.699   6.379 -0.3665  0.2049  0.1295
 5911SOL    HW129192   3.025   2.649   6.397  0.8484 -2.0971 -0.9282
 5911SOL    HW229193   3.159   2.631   6.420 -1.2883 -0.0973  0.8419
 5912SOL     OW29194   3.980   1.449   0.058 -0.4390  0.4415 -0.3217
 5912SOL    HW129195   3.912   1.465  17.696  0.9363  1.0485 -1.5979
 5912SOL    HW229196   4.045   1.509   0.021  1.4419 -0.7605  1.0336
 5913SOL     OW29197   0.002   1.079   4.482  0.3104 -0.1080  0.2130
 5913SOL    HW129198   4.650   1.032   4.450 -0.1652  0.1882  0.9325
 5913SOL    HW229199   4.720   1.154   4.423 -2.2336 -0.5775 -0.0772
 5914SOL     OW29200   0.127   3.268   6.701 -0.2795  0.5510  0.7631
 5914SOL    HW129201   0.112   3.204   6.632  0.3094 -0.3557  1.4865
 5914SOL    HW229202   0.083   3.344   6.663  1.4604  1.5811  0.7675
 5915SOL     OW29203   3.941   4.234  15.335  0.5749 -0.2376 -0.5795
 5915SOL    HW129204   3.987   4.222  15.418 -0.8802  1.2584  0.4513
 5915SOL    HW229205   3.948   4.144  15.302 -1.1397 -0.9149  0.9019
 5916SOL     OW29206   1.990   4.496   4.532 -0.2123 -0.1742 -0.0785
 5916SOL    HW129207   1.929   4.522   4.602 -0.1511  0.7091 -0.3623
 5916SOL    HW229208   2.059   4.560   4.546 -0.7553  0.0692  1.5262
 5917SOL     OW29209   0.644   0.829   8.157 -0.1885  0.5520  0.0132
 5917SOL    HW129210   0.732   0.800   8.133 -1.0360 -0.0092 -2.3549
 5917SOL    HW229211   0.636   0.788   8.243 -1.7190  2.2169  0.6476
 5918SOL     OW29212   3.907   1.552   6.534 -0.4620 -0.2083 -0.4165
 5918SOL    HW129213   3.874   1.557   6.445  1.2955 -0.0507 -1.0599
 5918SOL    HW229214   3.883   1.466   6.569  1.8629 -0.4521  0.5798
 5919SOL     OW29215   3.684   3.436   2.231 -0.6484  0.1438  0.2597
 5919SOL    HW129216   3.742   3.495   2.183 -0.5980 -0.2229 -0.1330
 5919SOL    HW229217   3.748   3.365   2.233 -0.3997  0.3487 -0.4342
 5920SOL     OW29218   1.879   2.273  10.934  0.0523 -0.2677  0.0312
 5920SOL    HW129219   1.922   2.350  10.971 -2.6429  0.9751  0.5785
 5920SOL    HW229220   1.788   2.304  10.938 -0.4534 -1.8643  0.7969
 5921SOL     OW29221   1.962   4.044   5.961  0.3107 -0.0097 -0.2724
 5921SOL    HW129222   1.888   4.029   5.903  0.7473 -1.6265 -0.3989
 5921SOL    HW229223   1.934   4.112   6.023  1.9711 -1.3457  1.9602
 5922SOL     OW29224   3.542   3.623   0.689  0.3051  0.0754  0.4116
 5922SOL    HW129225   3.566   3.657   0.603 -0.1799 -1.4614 -0.3121
 5922SOL    HW229226   3.475   3.688   0.709  1.7237  1.6997 -0.0645
 5923SOL     OW29227   3.556   2.522   4.346 -0.1654  0.3675  0.2336
 5923SOL    HW129228   3.540   2.457   4.414  0.5105  1.1309  1.1265
 5923SOL    HW229229   3.598   2.463   4.283  1.1286  0.0217  1.4168
 5924SOL     OW29230   0.174   3.199   8.105 -0.3256  0.0770  0.0104
 5924SOL    HW129231   0.182   3.254   8.027  0.8600 -1.5864 -1.0153
 5924SOL    HW229232   0.264   3.167   8.108 -0.9838 -1.6672  1.2404
 5925SOL     OW29233   4.501   3.137   8.718  0.2343 -0.0399 -0.3459
 5925SOL    HW129234   4.467   3.089   8.643 -1.1588  0.4906 -0.0572
 5925SOL    HW229235   4.423   3.191   8.731 -0.2013 -0.4863 -1.1578
 5926SOL     OW29236   4.700   3.818   3.933 -0.3381  0.1494  0.1036
 5926SOL    HW129237   0.030   3.885   3.893  0.7787 -0.8304  0.0070
 5926SOL    HW229238   4.698   3.838   4.026  1.5937 -0.6764  0.3216
 5927SOL     OW29239   1.618   1.928   2.406  0.3540  0.1300 -0.0723
 5927SOL    HW129240   1.598   1.945   2.314 -1.7948 -1.0534  0.1819
 5927SOL    HW229241   1.640   1.835   2.401 -0.5246 -0.1356  1.0628
 5928SOL     OW29242   3.088   3.796   3.878  0.0633  0.5163  0.4658
 5928SOL    HW129243   3.062   3.724   3.820  1.6103  1.3313 -1.2269
 5928SOL    HW229244   3.029   3.863   3.842  0.5832  1.2566  0.9929
 5929SOL     OW29245   0.352   1.826  13.567 -0.7901  0.3078  0.1803
 5929SOL    HW129246   0.265   1.866  13.558 -0.7591  0.1236 -1.0389
 5929SOL    HW229247   0.354   1.791  13.655 -0.7606  0.5163  0.2631
 5930SOL     OW29248   4.139   2.948   3.484  0.1228  0.2690 -0.9921
 5930SOL    HW129249   4.065   2.894   3.456 -1.1585  1.7790 -0.5875
 5930SOL    HW229250   4.096   3.005   3.548  0.0213 -0.8125 -0.1086
 5931SOL     OW29251   2.042   4.508   0.410 -0.0587  0.0737 -0.6039
 5931SOL    HW129252   2.115   4.482   0.354 -0.5476 -2.1648 -0.1738
 5931SOL    HW229253   2.074   4.550   0.490 -2.6596 -1.0540  1.0206
 5932SOL     OW29254   2.589   1.309   1.692  0.2336 -0.4418 -0.1946
 5932SOL    HW129255   2.642   1.229   1.690 -0.3485 -0.8592  1.0881
 5932SOL    HW229256   2.541   1.292   1.774  2.4149  0.7528  1.3368
 5933SOL     OW29257   1.065   1.783   6.719  0.8218  0.3635  0.4036
 5933SOL    HW129258   1.044   1.741   6.635 -0.2350 -0.1657  0.9291
 5933SOL    HW229259   1.026   1.868   6.703 -1.8837 -1.4625 -2.6895
 5934SOL     OW29260   4.429   2.037   2.053  0.3998 -0.6211 -0.3372
 5934SOL    HW129261   4.346   2.010   2.094  1.3745 -2.1495  0.6607
 5934SOL    HW229262   4.423   2.002   1.964 -1.2527  2.5422 -1.4771
 5935SOL     OW29263   1.124   1.253   8.412  0.1648  0.3754 -0.3123
 5935SOL    HW129264   1.216   1.279   8.424  0.1990  0.6721 -1.2116
 5935SOL    HW229265   1.130   1.158   8.423  0.4532  0.4491  0.1932
 5936SOL     OW29266   0.364   4.292   2.812  0.0264  0.1369  0.4438
 5936SOL    HW129267   0.324   4.378   2.803 -1.2494 -0.6252 -1.3795
 5936SOL    HW229268   0.447   4.297   2.858  0.7842 -0.0486 -0.8900
 5937SOL     OW29269   0.629   3.112  11.242  0.3493  0.0967  0.2114
 5937SOL    HW129270   0.606   3.113  11.149 -0.2516 -1.3971  0.3370
 5937SOL    HW229271   0.641   3.205  11.261  2.0682  0.2588 -1.7551
 5938SOL     OW29272   1.261   1.076   1.831  0.5621 -0.6306 -0.1294
 5938SOL    HW129273   1.349   1.040   1.837  0.0806 -1.6747  0.6994
 5938SOL    HW229274   1.250   1.151   1.889  0.0610 -0.4349 -0.4777
 5939SOL     OW29275   3.342   2.378   9.543 -0.5294 -0.1851 -0.3068
 5939SOL    HW129276   3.401   2.419   9.606 -0.3233 -1.5807  0.4160
 5939SOL    HW229277   3.345   2.288   9.576 -1.3061  0.1395  0.6558
 5940SOL     OW29278   1.858   3.185   3.763  0.1149 -0.2861 -0.1931
 5940SOL    HW129279   1.933   3.218   3.713 -0.0970 -1.1288 -1.0566
 5940SOL    HW229280   1.870   3.245   3.837 -0.4359  0.4544 -0.7073
 5941SOL     OW29281   3.621   3.668  14.735  0.4209 -0.1421  0.9234
 5941SOL    HW129282   3.536   3.662  14.778 -0.4755 -1.8063 -1.0942
 5941SOL    HW229283   3.604   3.732  14.666 -2.0166  1.5328  3.0704
 5942SOL     OW29284   2.675   2.492   5.885  0.1399 -0.0344 -0.3295
 5942SOL    HW129285   2.661   2.399   5.865  0.0645 -0.3390  1.1164
 5942SOL    HW229286   2.759   2.487   5.930  1.2153  1.1098 -2.2127
 5943SOL     OW29287   3.950   1.430  17.353 -0.4864 -0.5499 -0.0626
 5943SOL    HW129288   3.881   1.457  17.293  0.6563  3.0703  0.2522
 5943SOL    HW229289   3.921   1.487  17.425  0.0954 -0.2340 -0.0805
 5944SOL     OW29290   4.452   2.132  14.320  0.2764 -0.3044  0.3998
 5944SOL    HW129291   4.440   2.095  14.408 -1.5502 -0.6739 -0.0060
 5944SOL    HW229292   4.493   2.215  14.345  1.3711 -0.2957 -1.4393
 5945SOL     OW29293   2.413   0.064   7.138  0.1528 -0.1460  0.3744
 5945SOL    HW129294   2.368   0.115   7.071  1.4405  1.7860  0.9908
 5945SOL    HW229295   2.351   0.059   7.211 -1.0580  1.8888 -0.5507
 5946SOL     OW29296   2.626   2.838   2.401  0.0608 -0.5250 -0.1713
 5946SOL    HW129297   2.682   2.763   2.419 -0.2289 -1.2707 -2.3537
 5946SOL    HW229298   2.698   2.900   2.394 -0.8314  0.6907  1.3788
 5947SOL     OW29299   0.353   4.316   5.373  0.5814 -0.2153 -0.0543
 5947SOL    HW129300   0.315   4.404   5.371  2.4360  0.6199  1.7391
 5947SOL    HW229301   0.308   4.279   5.297 -1.7767  3.0596 -0.2384
 5948SOL     OW29302   3.652   0.253   1.398 -0.1707  0.2596  0.3550
 5948SOL    HW129303   3.695   0.169   1.383 -0.7627  0.1690 -0.8410
 5948SOL    HW229304   3.646   0.232   1.491  0.7640  0.9150  0.5583
 5949SOL     OW29305   2.935   2.096   4.048  0.0530 -0.4199  0.5365
 5949SOL    HW129306   3.017   2.047   4.041  0.6484  0.8151 -1.1357
 5949SOL    HW229307   2.963   2.186   4.035  0.4438 -0.5590  0.4113
 5950SOL     OW29308   1.140   1.153   8.839 -0.3922  0.4696  0.2935
 5950SOL    HW129309   1.132   1.163   8.934 -0.9748 -3.0916  0.6154
 5950SOL    HW229310   1.229   1.120   8.836  0.3720  2.5476  0.2659
 5951SOL     OW29311   2.877   2.411   5.255 -0.1462 -0.1545 -0.2161
 5951SOL    HW129312   2.821   2.482   5.287 -0.2124 -1.4468  2.5420
 5951SOL    HW229313   2.950   2.411   5.317 -0.7170  1.1427  0.4624
 5952SOL     OW29314   1.904   4.116   2.458  0.2386 -0.2330 -0.0500
 5952SOL    HW129315   1.940   4.198   2.490 -0.5111  0.6676 -1.5156
 5952SOL    HW229316   1.971   4.083   2.398  0.0164 -1.4568  0.3663
 5953SOL     OW29317   4.611   2.557   4.587 -0.6660 -0.0634  0.4114
 5953SOL    HW129318   4.568   2.524   4.508  1.3806 -0.1892 -0.6515
 5953SOL    HW229319   4.615   2.478   4.641  1.2672  0.7605  1.4687
 5954SOL     OW29320   0.546   2.792   0.446  0.2661 -0.1447 -0.2920
 5954SOL    HW129321   0.529   2.805   0.540  0.6410  1.8296 -0.5123
 5954SOL    HW229322   0.522   2.878   0.413 -1.4625 -0.5249 -0.0401
 5955SOL     OW29323   4.057   2.782  13.811 -0.5440 -0.2337 -0.1610
 5955SOL    HW129324   4.141   2.788  13.855 -0.0353  1.2052 -1.3044
 5955SOL    HW229325   4.011   2.860  13.844  0.4001 -0.3198  1.3541
 5956SOL     OW29326   2.840   3.830   4.103  0.2668 -1.1416  0.5074
 5956SOL    HW129327   2.778   3.898   4.130  0.1623 -1.7947  1.8925
 5956SOL    HW229328   2.822   3.843   4.010  1.8042 -2.1287  0.0695
 5957SOL     OW29329   1.717   1.045   3.704  0.3011 -0.3182 -0.7720
 5957SOL    HW129330   1.672   1.121   3.741 -1.2359 -0.6473 -1.9446
 5957SOL    HW229331   1.801   1.042   3.749  1.0057 -0.9265 -2.1071
 5958SOL     OW29332   3.562   2.162   9.441 -0.0778  0.5599  0.0271
 5958SOL    HW129333   3.615   2.102   9.493  1.7619  1.3266 -0.9787
 5958SOL    HW229334   3.632   2.212   9.400  0.5371 -2.1363 -2.2548
 5959SOL     OW29335   0.575   3.152   7.012  0.2575 -0.3864 -0.0020
 5959SOL    HW129336   0.645   3.198   6.964  1.4945  1.0404  3.1541
 5959SOL    HW229337   0.557   3.082   6.950  1.1506 -0.5592 -0.0673
 5960SOL     OW29338   0.386   1.630   9.204 -0.4199  0.1655  0.0345
 5960SOL    HW129339   0.425   1.551   9.167 -0.2520  0.3253 -0.1271
 5960SOL    HW229340   0.465   1.682   9.217 -1.1699  0.9959  1.2587
 5961SOL     OW29341   4.129   2.355   2.821  0.4748  0.1478 -0.3707
 5961SOL    HW129342   4.189   2.322   2.753  2.7301 -1.7287  2.5324
 5961SOL    HW229343   4.183   2.423   2.862  0.7362 -0.5240  0.3786
 5962SOL     OW29344   1.525   3.057   7.663  0.4159 -0.3424 -0.0917
 5962SOL    HW129345   1.497   2.992   7.728  1.1605  0.5549  1.1317
 5962SOL    HW229346   1.611   3.020   7.644  1.5994  2.4676 -0.1454
 5963SOL     OW29347   1.709   0.093   2.504 -0.3235 -0.3620  0.1995
 5963SOL    HW129348   1.662   0.088   2.588 -0.2695 -1.9630  0.1267
 5963SOL    HW229349   1.708   0.001   2.477  0.3123 -0.4638  0.5106
 5964SOL     OW29350   4.579   2.118   9.490  0.0102 -0.3494 -0.4466
 5964SOL    HW129351   4.615   2.204   9.469 -2.2701  0.4029 -1.3323
 5964SOL    HW229352   4.652   2.057   9.480 -0.3183 -0.6083 -1.2805
 5965SOL     OW29353   2.078   0.835  12.285 -0.3991  0.0848  0.1334
 5965SOL    HW129354   2.017   0.892  12.332 -1.6785  2.1464 -4.0275
 5965SOL    HW229355   2.026   0.755  12.285  0.1695 -0.2887 -0.3409
 5966SOL     OW29356   0.530   3.230   2.022 -0.5146 -0.0207 -0.2478
 5966SOL    HW129357   0.536   3.325   2.027  1.3130 -0.1853  0.7998
 5966SOL    HW229358   0.551   3.219   1.929 -0.0139 -0.3921 -0.0914
 5967SOL     OW29359   2.108   0.928  10.878 -0.7786 -0.0827  0.0297
 5967SOL    HW129360   2.200   0.907  10.865 -0.8936 -1.1509  0.9441
 5967SOL    HW229361   2.091   0.884  10.961 -1.2022 -2.0151 -1.0755
 5968SOL     OW29362   4.653   0.970  11.875  0.3136 -0.0864  0.5732
 5968SOL    HW129363   4.563   0.977  11.909  0.0017 -1.7630  0.0914
 5968SOL    HW229364   4.702   1.043  11.914 -1.8166  1.2872  0.7058
 5969SOL     OW29365   2.879   3.949   1.751 -0.3994  0.1912  0.1119
 5969SOL    HW129366   2.879   3.854   1.763 -1.4033  0.2910  0.8751
 5969SOL    HW229367   2.943   3.949   1.679 -0.3176  0.8781  0.1842
 5970SOL     OW29368   2.616   1.427   3.353  0.5175 -0.1721  0.1352
 5970SOL    HW129369   2.529   1.424   3.314 -0.5473 -2.7178  2.6364
 5970SOL    HW229370   2.589   1.457   3.440 -0.8426  0.8499 -0.6466
 5971SOL     OW29371   3.795   4.533   7.337  0.2079 -0.0308  0.0471
 5971SOL    HW129372   3.780   4.447   7.298  2.8164 -1.2465  1.6768
 5971SOL    HW229373   3.889   4.526   7.358  0.1102 -0.2902  0.4105
 5972SOL     OW29374   0.784   4.156  17.339 -0.5956  0.3901 -0.7002
 5972SOL    HW129375   0.715   4.217  17.365 -0.9078  0.7686 -2.3866
 5972SOL    HW229376   0.740   4.076  17.308 -1.3808  0.3733  0.4452
 5973SOL     OW29377   1.490   4.334  13.031  0.0784  0.1508  0.0807
 5973SOL    HW129378   1.514   4.425  13.016  0.2463  0.2491  0.9397
 5973SOL    HW229379   1.448   4.319  12.947 -0.3811  0.4161  0.2685
 5974SOL     OW29380   0.080   3.662   7.544  0.1089  0.7934 -0.0696
 5974SOL    HW129381   0.148   3.603   7.577  0.9574  1.6046 -0.3644
 5974SOL    HW229382   0.135   3.732   7.508 -1.0466  1.1358 -1.1826
 5975SOL     OW29383   0.618   0.595  13.015 -0.3151 -0.6052 -0.5396
 5975SOL    HW129384   0.619   0.499  13.007 -0.3809 -0.6149 -0.4291
 5975SOL    HW229385   0.694   0.627  12.965 -0.6525  1.3089  0.1882
 5976SOL     OW29386   2.370   1.401   3.263 -0.3092 -0.4917 -0.3668
 5976SOL    HW129387   2.326   1.386   3.346  2.0657 -1.2496  0.7460
 5976SOL    HW229388   2.359   1.318   3.215  2.0028  0.0687 -1.8981
 5977SOL     OW29389   4.056   0.872   5.386  0.6611  0.5212  0.4944
 5977SOL    HW129390   4.134   0.921   5.412  1.6385 -1.4056  1.2891
 5977SOL    HW229391   4.086   0.836   5.303 -2.1629 -0.6711 -0.0003
 5978SOL     OW29392   1.214   1.950   2.633  0.1788  0.4533 -0.0334
 5978SOL    HW129393   1.223   2.035   2.590 -0.7800  1.2619  1.3841
 5978SOL    HW229394   1.306   1.925   2.626  0.4435  1.0050  1.6275
 5979SOL     OW29395   3.527   0.409   8.905  0.3826  0.3001  0.3306
 5979SOL    HW129396   3.502   0.396   8.814 -1.5965 -0.3784  0.9535
 5979SOL    HW229397   3.558   0.322   8.930  1.8658  0.2773 -1.6146
 5980SOL     OW29398   0.029   0.554   3.909 -0.4691 -0.0339 -0.2123
 5980SOL    HW129399   0.058   0.528   3.821 -0.7021 -1.2152  0.0627
 5980SOL    HW229400   0.080   0.634   3.921  1.8174 -1.1523 -2.3130
 5981SOL     OW29401   3.507   1.215   7.307  0.0376 -0.0667  0.5902
 5981SOL    HW129402   3.463   1.264   7.377  2.0334  1.2383  0.9134
 5981SOL    HW229403   3.461   1.248   7.229  0.1731 -0.2459  0.4359
 5982SOL     OW29404   3.969   0.808   0.898  0.4601  0.7489 -0.0204
 5982SOL    HW129405   3.930   0.742   0.840  0.8827  0.1864  0.3417
 5982SOL    HW229406   3.889   0.858   0.913 -1.3638 -2.1176 -0.3063
 5983SOL     OW29407   1.688   3.327   4.997 -0.2277  0.0490  0.1854
 5983SOL    HW129408   1.613   3.274   4.970 -0.8498  0.8748  0.2665
 5983SOL    HW229409   1.675   3.411   4.952 -0.2603  0.0039  0.1114
 5984SOL     OW29410   3.325   3.107   1.620 -0.0318 -0.4961 -0.1107
 5984SOL    HW129411   3.236   3.112   1.656 -0.3579 -0.3033 -0.9421
 5984SOL    HW229412   3.373   3.183   1.652 -2.9343  1.8271 -1.3689
 5985SOL     OW29413   3.014   2.349   6.608  0.2101 -0.0625  0.0442
 5985SOL    HW129414   2.999   2.400   6.529  0.8468  0.7039  0.4210
 5985SOL    HW229415   2.925   2.324   6.632  0.8067 -2.8225 -0.5822
 5986SOL     OW29416   3.628   3.049  11.656 -0.4337 -0.4370  0.2894
 5986SOL    HW129417   3.681   3.066  11.578 -1.2729  1.1883  0.0696
 5986SOL    HW229418   3.564   2.987  11.622 -0.6015 -0.8276  1.3049
 5987SOL     OW29419   0.964   3.075   9.525 -0.2910 -0.3313  0.2849
 5987SOL    HW129420   0.890   3.130   9.552  0.5242  2.0568 -2.4200
 5987SOL    HW229421   0.968   3.089   9.430 -3.9124 -0.7573  0.0506
 5988SOL     OW29422   2.851   3.453   5.148  0.3218  0.1507 -0.0355
 5988SOL    HW129423   2.779   3.462   5.086  1.0457  2.7142 -0.4985
 5988SOL    HW229424   2.826   3.384   5.210 -0.5424  2.2476  1.9606
 5989SOL     OW29425   4.120   4.691   5.281 -0.1228  0.1466 -0.3175
 5989SOL    HW129426   4.101   4.685   5.375  1.7461 -0.9366 -0.0168
 5989SOL    HW229427   4.109   4.599   5.260 -0.1243 -0.0341  0.4799
 5990SOL     OW29428   2.460   0.153  15.674 -0.1115  0.5682 -0.0224
 5990SOL    HW129429   2.427   0.237  15.708 -0.1290  1.1898 -1.6006
 5990SOL    HW229430   2.469   0.105  15.756 -0.5941 -2.3140 -1.6959
 5991SOL     OW29431   1.791   2.561   5.612 -0.4003 -0.1902 -0.0850
 5991SOL    HW129432   1.818   2.611   5.689 -1.7417  0.0122  0.2536
 5991SOL    HW229433   1.702   2.594   5.598 -0.1929  0.4298  0.0534
 5992SOL     OW29434   2.179   1.551   1.855  0.4980 -0.3457 -0.8963
 5992SOL    HW129435   2.194   1.564   1.761 -0.8380 -0.5507 -1.1434
 5992SOL    HW229436   2.084   1.540   1.850  0.3557  0.0328  1.1256
 5993SOL     OW29437   3.141   2.839  15.885  0.0231  0.4051 -0.1402
 5993SOL    HW129438   3.101   2.863  15.968  1.3938 -0.3706  0.7373
 5993SOL    HW229439   3.154   2.745  15.901  0.9132  0.5888  0.1938
 5994SOL     OW29440   4.480   3.213   4.360 -0.3994 -0.4600 -0.7541
 5994SOL    HW129441   4.430   3.136   4.334 -0.0511 -0.1225 -2.4031
 5994SOL    HW229442   4.561   3.196   4.313 -0.5140  3.5712 -2.4223
 5995SOL     OW29443   3.239   2.586   5.893 -0.0763  0.4354  0.3839
 5995SOL    HW129444   3.248   2.640   5.972  1.9408  0.5959  0.0367
 5995SOL    HW229445   3.205   2.506   5.933  0.6420  0.5703  1.2534
 5996SOL     OW29446   4.309   1.041   6.316  0.2856  0.6268 -0.0987
 5996SOL    HW129447   4.274   0.964   6.359 -0.0421  0.5719 -0.4676
 5996SOL    HW229448   4.235   1.102   6.319 -1.3245 -1.4759  2.0480
 5997SOL     OW29449   1.351   0.877   3.674  0.4498  0.1561 -0.0874
 5997SOL    HW129450   1.358   0.839   3.762  1.4644  2.7522  0.9367
 5997SOL    HW229451   1.260   0.905   3.663  0.0116 -0.4068  2.0695
 5998SOL     OW29452   3.025   2.737   3.634  1.3093  0.4367  0.1928
 5998SOL    HW129453   2.968   2.763   3.562  0.6728 -3.9475 -0.8654
 5998SOL    HW229454   3.102   2.701   3.589  1.2008 -1.5801  1.6219
 5999SOL     OW29455   4.488   3.920   8.432  0.1584  0.2390  0.0777
 5999SOL    HW129456   4.570   3.873   8.416  0.5785  1.0769 -0.2366
 5999SOL    HW229457   4.480   3.989   8.366 -0.9024  0.7364  0.7237
 6000SOL     OW29458   4.487   1.890  15.795  0.6009 -0.0969 -0.3411
 6000SOL    HW129459   4.490   1.929  15.708 -0.8760 -0.2367 -0.4560
 6000SOL    HW229460   4.520   1.967  15.842  0.2199 -0.5336  0.6410
 6001SOL     OW29461   0.518   4.007  16.185  0.5157 -0.1959  0.3553
 6001SOL    HW129462   0.527   3.914  16.206  0.3375 -0.9831 -3.0666
 6001SOL    HW229463   0.447   4.006  16.122  0.9269 -0.1220 -0.1079
 6002SOL     OW29464   3.749   3.304   6.911 -0.0015  0.3765  0.4920
 6002SOL    HW129465   3.740   3.308   7.006  1.5925 -0.9156  0.7072
 6002SOL    HW229466   3.831   3.256   6.902 -0.0788  0.2364  0.5232
 6003SOL     OW29467   3.574   2.677  16.549  0.7312 -0.4794 -0.1273
 6003SOL    HW129468   3.624   2.671  16.631 -0.3849  0.8887  0.6441
 6003SOL    HW229469   3.581   2.772  16.542 -1.5763 -0.1294  2.2361
 6004SOL     OW29470   0.620   2.051   4.447 -0.9310  0.1045 -0.3209
 6004SOL    HW129471   0.635   2.133   4.401  0.5732 -0.5611 -1.0212
 6004SOL    HW229472   0.525   2.047   4.431 -1.0303  0.5714  0.1909
 6005SOL     OW29473   3.901   3.751   8.087  0.1437 -1.3243 -0.0316
 6005SOL    HW129474   3.821   3.700   8.077  0.3488 -1.5518 -0.4670
 6005SOL    HW229475   3.864   3.821   8.142  0.5457  0.1075 -1.5832
 6006SOL     OW29476   0.602   3.925   8.714 -0.1226  0.3877 -0.5984
 6006SOL    HW129477   0.635   3.872   8.641 -0.2038  1.2603 -1.2697
 6006SOL    HW229478   0.542   3.865   8.758  2.7398 -0.1596  2.5813
 6007SOL     OW29479   2.249   2.024   1.948 -0.4108  0.5988  0.0162
 6007SOL    HW129480   2.207   1.964   1.887  1.2204 -3.1773  2.6333
 6007SOL    HW229481   2.189   2.099   1.947 -0.4030  0.5847 -1.0186
 6008SOL     OW29482   2.569   3.334   6.916 -0.3060 -0.9174 -0.4126
 6008SOL    HW129483   2.496   3.273   6.925 -1.0657  0.3515  1.8524
 6008SOL    HW229484   2.620   3.292   6.846  1.2837  0.6509 -0.1998
 6009SOL     OW29485   3.237   2.629   1.313  0.4937 -0.5878 -0.0521
 6009SOL    HW129486   3.254   2.606   1.221 -0.0426 -0.7813 -0.1028
 6009SOL    HW229487   3.142   2.614   1.312  0.3936  0.0902 -0.8346
 6010SOL     OW29488   0.809   4.124  10.364 -0.4194 -0.6476  0.2159
 6010SOL    HW129489   0.880   4.119  10.300 -0.9678 -0.7479 -0.3733
 6010SOL    HW229490   0.861   4.090  10.437 -0.2038  0.2025  0.4690
 6011SOL     OW29491   3.080   3.522   3.732 -0.0436 -0.0498 -1.0143
 6011SOL    HW129492   3.103   3.489   3.646  0.3310  1.3868 -1.4665
 6011SOL    HW229493   2.988   3.497   3.735  0.1970 -0.9148 -0.5934
 6012SOL     OW29494   1.256   0.769  16.122  0.8032 -0.4002  0.6589
 6012SOL    HW129495   1.273   0.679  16.094 -0.3505 -0.7330  0.9975
 6012SOL    HW229496   1.318   0.818  16.068  1.2420  0.6308  2.0944
 6013SOL     OW29497   2.652   0.304  15.274 -0.0304  0.1990 -0.4816
 6013SOL    HW129498   2.683   0.293  15.184 -0.0627  1.9977 -0.7233
 6013SOL    HW229499   2.662   0.398  15.291  1.9697 -0.4615  1.9928
 6014SOL     OW29500   3.966   1.220   5.044  0.1279 -0.4279 -0.8860
 6014SOL    HW129501   4.043   1.206   5.099 -0.3513  0.7532  0.0630
 6014SOL    HW229502   3.905   1.159   5.085  0.3968 -0.2350 -0.2062
 6015SOL     OW29503   3.292   3.427   1.224 -0.5834 -0.0833  0.5222
 6015SOL    HW129504   3.350   3.358   1.255  1.2829  0.2715 -2.2360
 6015SOL    HW229505   3.275   3.467   1.310 -0.4171  1.1644 -0.0186
 6016SOL     OW29506   0.236   2.919  12.881 -0.3287 -0.1303 -0.0678
 6016SOL    HW129507   0.279   2.937  12.798  3.0107 -0.9297  1.4772
 6016SOL    HW229508   0.299   2.956  12.943 -0.8444 -0.0625  0.4171
 6017SOL     OW29509   1.705   4.027  17.521  0.0367 -0.1617 -0.6430
 6017SOL    HW129510   1.660   4.067  17.595  0.2730 -1.3601  0.1436
 6017SOL    HW229511   1.658   3.945  17.508 -2.1075  0.7717  1.3088
 6018SOL     OW29512   2.524   2.461   1.180 -0.5696  0.2928  0.8648
 6018SOL    HW129513   2.496   2.407   1.254 -0.6640 -2.0709 -0.8954
 6018SOL    HW229514   2.590   2.400   1.147 -0.5187  0.5440  0.5035
 6019SOL     OW29515   2.601   2.943   7.481  0.0942 -0.6938  0.0143
 6019SOL    HW129516   2.621   2.917   7.391 -0.8994  2.4363 -1.1303
 6019SOL    HW229517   2.603   2.865   7.536  1.0443  0.6391  1.8865
 6020SOL     OW29518   1.909   4.236   4.615 -0.4070  0.3623 -0.1029
 6020SOL    HW129519   1.966   4.311   4.629 -0.5101  0.2374  0.9985
 6020SOL    HW229520   1.822   4.276   4.607  0.7308  3.1397  1.3947
 6021SOL     OW29521   1.129   1.757   3.096  0.0114 -0.7702 -0.3313
 6021SOL    HW129522   1.209   1.807   3.082  0.6940 -0.9475  3.0288
 6021SOL    HW229523   1.059   1.815   3.067 -0.7905 -0.4058  2.2854
 6022SOL     OW29524   1.398   3.182   0.842 -0.2119 -0.0417 -0.1035
 6022SOL    HW129525   1.413   3.108   0.783 -0.9418  0.4106 -0.8523
 6022SOL    HW229526   1.302   3.182   0.847 -0.3088 -1.2312 -2.0738
 6023SOL     OW29527   3.856   3.250   2.236  0.7199 -0.4170 -0.1397
 6023SOL    HW129528   3.822   3.190   2.302 -0.5321 -1.9751 -2.2075
 6023SOL    HW229529   3.893   3.188   2.173 -0.8869 -0.7796 -0.7233
 6024SOL     OW29530   2.304   1.819   0.735  0.1392  0.2863 -0.0033
 6024SOL    HW129531   2.243   1.811   0.808 -0.4083 -1.6490 -0.6846
 6024SOL    HW229532   2.247   1.864   0.673  0.1203 -1.1575 -1.0176
 6025SOL     OW29533   0.128   2.885   8.348  0.3076 -0.3121  0.3803
 6025SOL    HW129534   0.145   2.803   8.303  1.2829 -0.4624  1.0272
 6025SOL    HW229535   0.203   2.883   8.407  0.0181 -1.3810  0.7108
 6026SOL     OW29536   2.549   1.699   2.250  0.3151 -0.1704 -0.2155
 6026SOL    HW129537   2.510   1.650   2.178  0.4384  0.1321 -0.4940
 6026SOL    HW229538   2.629   1.650   2.267 -0.0461 -0.4461  0.6720
 6027SOL     OW29539   3.365   2.071   1.480  0.1820  0.0361  0.0290
 6027SOL    HW129540   3.350   2.155   1.436 -0.0147 -1.2762 -2.4387
 6027SOL    HW229541   3.398   2.018   1.407 -1.9759 -0.9418 -0.2432
 6028SOL     OW29542   3.312   2.485   9.837 -0.3361  0.0356 -0.7677
 6028SOL    HW129543   3.311   2.577   9.813  2.1551  0.5044  0.9215
 6028SOL    HW229544   3.401   2.472   9.871 -2.0780 -0.8030  3.5650
 6029SOL     OW29545   0.257   3.188   4.645 -0.4452  0.1300 -0.2696
 6029SOL    HW129546   0.238   3.154   4.558  0.5866  1.0828 -0.8687
 6029SOL    HW229547   0.252   3.109   4.699 -0.3188 -1.2642 -2.3043
 6030SOL     OW29548   1.683   0.236   3.591  0.1947 -0.1225 -0.0307
 6030SOL    HW129549   1.611   0.287   3.555 -0.4554 -0.2720  1.0697
 6030SOL    HW229550   1.755   0.293   3.564 -2.1627  2.9566  0.1351
 6031SOL     OW29551   1.599   2.340   3.900 -0.0045 -0.4051  0.9870
 6031SOL    HW129552   1.554   2.274   3.848  0.7145 -0.0635 -0.0740
 6031SOL    HW229553   1.523   2.358   3.955  0.2296  3.8852 -0.0599
 6032SOL     OW29554   0.446   4.033  16.949 -0.5200  0.3023 -0.1684
 6032SOL    HW129555   0.366   3.982  16.962  0.1423 -0.4811  0.7938
 6032SOL    HW229556   0.437   4.058  16.857  2.8854 -0.2049 -0.6606
 6033SOL     OW29557   1.092   1.978   0.158 -0.2750  0.2019  0.0301
 6033SOL    HW129558   1.152   1.921   0.110  1.0609  0.1151  1.7959
 6033SOL    HW229559   1.028   1.918   0.195 -0.8782  0.7097 -0.1987
 6034SOL     OW29560   3.413   3.057   2.706  0.0634  0.3837  0.2341
 6034SOL    HW129561   3.381   2.980   2.659  0.8850  0.3336 -0.2333
 6034SOL    HW229562   3.445   3.115   2.637 -0.8889 -0.8181 -1.2199
 6035SOL     OW29563   1.522   4.019   2.990  0.2175 -0.3676 -0.3024
 6035SOL    HW129564   1.528   4.031   2.896  0.4395  1.8485 -0.0073
 6035SOL    HW229565   1.458   4.087   3.008  1.0743 -0.1500  1.9853
 6036SOL     OW29566   3.110   1.595  15.698 -0.3894  0.4503  0.1797
 6036SOL    HW129567   3.059   1.515  15.716 -1.9476  2.1823  3.5367
 6036SOL    HW229568   3.059   1.660  15.746 -2.2994 -1.2966  0.5416
 6037SOL     OW29569   1.002   1.761   9.535  0.3953  0.1291 -0.4673
 6037SOL    HW129570   1.021   1.692   9.598  0.0757 -1.4853 -2.1327
 6037SOL    HW229571   1.059   1.831   9.565 -1.3157  1.2324  0.1979
 6038SOL     OW29572   2.110   3.880   8.066  0.5583 -0.3827  0.6036
 6038SOL    HW129573   2.182   3.838   8.018 -1.0328 -1.0930 -1.1925
 6038SOL    HW229574   2.041   3.828   8.025  1.7817 -1.3130 -0.2929
 6039SOL     OW29575   1.946   3.693  14.024  0.1669  0.1758  0.8063
 6039SOL    HW129576   1.989   3.620  13.980  0.4978  0.7455  0.1946
 6039SOL    HW229577   1.855   3.668  14.009 -0.0247  1.7085 -0.5997
 6040SOL     OW29578   2.745   3.009   1.776  0.2681  0.2094 -0.0677
 6040SOL    HW129579   2.731   2.918   1.748 -0.6720  0.4824 -0.4504
 6040SOL    HW229580   2.679   3.015   1.845  1.0522  1.6979  0.5538
 6041SOL     OW29581   0.256   3.649  11.669 -0.0859 -0.2180  0.0191
 6041SOL    HW129582   0.341   3.634  11.712 -0.7986  0.6413  1.7116
 6041SOL    HW229583   0.286   3.714  11.606  0.9970  0.0253  0.7957
 6042SOL     OW29584   1.593   2.490   6.800 -0.1679 -0.8052 -0.0967
 6042SOL    HW129585   1.592   2.555   6.870  0.6657  0.1468 -0.9669
 6042SOL    HW229586   1.616   2.419   6.859  0.1819  0.7059  1.5625
 6043SOL     OW29587   4.284   2.595   8.895 -0.3460  0.7822  0.2142
 6043SOL    HW129588   4.188   2.600   8.898 -0.3977 -0.2246  0.0306
 6043SOL    HW229589   4.304   2.518   8.948  2.8001  2.1502  1.0007
 6044SOL     OW29590   2.103   2.174   8.087  0.2692  0.1606  0.4067
 6044SOL    HW129591   2.051   2.168   8.006 -2.1829 -1.1465  2.0853
 6044SOL    HW229592   2.119   2.081   8.101  0.1811 -0.1575 -1.5156
 6045SOL     OW29593   1.681   1.970   7.413 -0.5034  0.5242  0.2675
 6045SOL    HW129594   1.682   1.883   7.375  2.8302  0.8124 -0.2639
 6045SOL    HW229595   1.689   2.032   7.341  2.2953  0.4857  0.5553
 6046SOL     OW29596   4.655   0.440   8.246  0.6747 -0.2702 -0.2117
 6046SOL    HW129597   4.644   0.535   8.251  0.7160 -0.2643 -0.2383
 6046SOL    HW229598   0.024   0.439   8.256  0.5843  0.0490  0.6663
 6047SOL     OW29599   3.379   3.049  11.842  0.3488  0.2047 -0.3401
 6047SOL    HW129600   3.309   2.996  11.804  1.7822 -0.0347 -2.6509
 6047SOL    HW229601   3.455   3.030  11.787  1.3613  0.5727  0.9335
 6048SOL     OW29602   4.697   0.236   8.984  0.7090 -0.2915  0.6842
 6048SOL    HW129603   4.637   0.193   8.924  0.9312 -0.0424  0.2867
 6048SOL    HW229604   0.056   0.202   8.956  2.9397  3.6230  2.6011
 6049SOL     OW29605   1.974   1.666   0.547  0.0704  0.0931 -0.1392
 6049SOL    HW129606   1.945   1.713   0.625  0.5768 -1.3274  0.9176
 6049SOL    HW229607   2.069   1.667   0.564 -0.0777 -1.1378  0.8065
 6050SOL     OW29608   4.716   1.715   4.984  1.1304 -0.1578  0.4350
 6050SOL    HW129609   4.716   1.749   5.074  2.9926 -0.4137  0.5455
 6050SOL    HW229610   4.625   1.690   4.971  1.0305  0.5650 -0.2120
 6051SOL     OW29611   0.908   1.208  15.011  0.0518  0.4448 -0.5306
 6051SOL    HW129612   0.934   1.119  15.032  1.4099  0.6603 -1.2551
 6051SOL    HW229613   0.886   1.246  15.096 -0.0088 -0.4698 -0.1377
 6052SOL     OW29614   2.805   3.010  11.249 -0.3618 -0.1087 -0.5967
 6052SOL    HW129615   2.714   3.003  11.280 -0.2823  0.0424 -0.3256
 6052SOL    HW229616   2.797   2.952  11.173  0.8048  0.5193 -1.1945
 6053SOL     OW29617   3.594   0.774  12.533  0.2007 -0.1769  0.4187
 6053SOL    HW129618   3.545   0.692  12.528 -2.3990  1.5405 -2.4727
 6053SOL    HW229619   3.522   0.838  12.534  0.9176  0.6293  0.0386
 6054SOL     OW29620   3.113   3.834  14.657  0.1226  0.6042  0.1109
 6054SOL    HW129621   3.105   3.887  14.736  2.5269  2.6411 -0.9951
 6054SOL    HW229622   3.206   3.846  14.639  0.0897 -2.2305 -1.8372
 6055SOL     OW29623   1.762   4.694  13.480  0.5408  0.1603  0.6802
 6055SOL    HW129624   1.687   0.027  13.476 -0.7629 -1.7700 -3.2265
 6055SOL    HW229625   1.769   4.673  13.387 -3.9438 -0.5580  0.5076
 6056SOL     OW29626   4.574   0.354   3.893 -0.3660  0.6240 -0.6278
 6056SOL    HW129627   4.606   0.444   3.903  0.0889  0.3379  0.4469
 6056SOL    HW229628   4.624   0.309   3.825  2.4106  0.8719  1.2291
 6057SOL     OW29629   2.202   3.834   6.730 -0.2206  0.4241 -0.2734
 6057SOL    HW129630   2.194   3.918   6.685  2.5740  0.6070 -0.4432
 6057SOL    HW229631   2.289   3.843   6.770 -0.2623 -0.9979  0.1053
 6058SOL     OW29632   0.836   0.450   5.716  0.0216 -0.2212 -0.1387
 6058SOL    HW129633   0.752   0.490   5.739  0.0497 -0.2179 -0.0405
 6058SOL    HW229634   0.903   0.507   5.755  1.3305 -1.7098 -0.2141
 6059SOL     OW29635   0.581   3.700   3.348  0.2477  0.3115 -0.7078
 6059SOL    HW129636   0.600   3.655   3.430 -0.5690 -0.1319 -0.7584
 6059SOL    HW229637   0.583   3.624   3.290  0.9494  0.9234 -1.4772
 6060SOL     OW29638   1.492   0.681  14.638  0.0733  0.2895 -0.0313
 6060SOL    HW129639   1.524   0.732  14.713  1.2311  0.9562 -0.9717
 6060SOL    HW229640   1.456   0.759  14.596 -0.8932 -0.5419 -0.7405
 6061SOL     OW29641   4.335   3.411  17.438 -0.0978 -0.1546  0.1785
 6061SOL    HW129642   4.259   3.354  17.450  0.5268 -1.0097  0.1185
 6061SOL    HW229643   4.399   3.341  17.423  0.7155  0.3750  1.1874
 6062SOL     OW29644   3.628   3.374   5.544 -0.4262  0.2659 -0.4836
 6062SOL    HW129645   3.703   3.380   5.486 -0.3170  1.4663 -0.2043
 6062SOL    HW229646   3.636   3.453   5.597  2.2109 -0.7351  0.5716
 6063SOL     OW29647   0.226   3.354   7.901  0.0883  0.0880 -0.1103
 6063SOL    HW129648   0.313   3.388   7.921  1.5176 -2.2679 -2.3584
 6063SOL    HW229649   0.171   3.432   7.891 -1.4548 -0.8968  0.7209
 6064SOL     OW29650   0.628   2.676  11.381  0.2239 -0.3654 -0.2369
 6064SOL    HW129651   0.719   2.676  11.410  0.4864 -1.2603 -1.0743
 6064SOL    HW229652   0.622   2.608  11.314  2.1373  0.3164 -1.1208
 6065SOL     OW29653   1.112   3.639   5.036 -0.5133 -0.0188  0.3523
 6065SOL    HW129654   1.094   3.659   5.128 -2.2368  1.4002 -0.2893
 6065SOL    HW229655   1.182   3.574   5.044 -0.0306  0.6876  2.0053
 6066SOL     OW29656   4.073   3.368  17.556  0.2193  0.0474  0.4177
 6066SOL    HW129657   4.011   3.296  17.566  0.6950 -0.2920  0.9541
 6066SOL    HW229658   4.018   3.446  17.559 -0.1537 -0.2253  0.6767
 6067SOL     OW29659   2.037   2.081   3.587 -0.3691 -0.4719 -0.7177
 6067SOL    HW129660   1.968   2.015   3.576  0.6769 -1.4090 -1.7250
 6067SOL    HW229661   1.977   2.151   3.611 -0.0913  0.5766 -3.0294
 6068SOL     OW29662   0.437   2.863  14.187  0.3260  0.1913 -0.1099
 6068SOL    HW129663   0.464   2.866  14.095  1.7275 -0.3511  0.2740
 6068SOL    HW229664   0.422   2.953  14.215 -0.1005 -0.1068  0.6109
 6069SOL     OW29665   2.162   0.422   2.714 -0.4966  0.5288  0.0575
 6069SOL    HW129666   2.169   0.497   2.655 -0.9180 -0.2982 -1.0529
 6069SOL    HW229667   2.245   0.424   2.761 -0.9775 -0.4089  0.9391
 6070SOL     OW29668   0.315   3.831   1.250 -0.2893 -0.1956  0.0934
 6070SOL    HW129669   0.387   3.773   1.275  0.9251  1.0656 -0.5168
 6070SOL    HW229670   0.368   3.910   1.248  2.2288 -1.8845 -0.0467
 6071SOL     OW29671   0.989   2.571   2.171 -0.2038  0.8109  0.0638
 6071SOL    HW129672   0.944   2.641   2.218  2.6991  2.3623  0.4926
 6071SOL    HW229673   1.030   2.616   2.098 -1.3880  2.6732  0.5521
 6072SOL     OW29674   3.231   2.300   8.430 -0.3586  0.0692  0.4214
 6072SOL    HW129675   3.292   2.236   8.393  0.6953  0.3170  1.7047
 6072SOL    HW229676   3.155   2.267   8.383  0.5248  1.7644 -2.1976
 6073SOL     OW29677   2.705   1.563   2.533  0.3073  0.1933 -0.4260
 6073SOL    HW129678   2.612   1.584   2.541  0.7149  1.6782  0.3440
 6073SOL    HW229679   2.710   1.552   2.438 -1.2218  0.4386 -0.5396
 6074SOL     OW29680   3.790   3.893  11.387  0.9819  0.0624 -0.3045
 6074SOL    HW129681   3.709   3.848  11.412  1.1474  0.0147  0.1358
 6074SOL    HW229682   3.842   3.824  11.347 -1.6676 -1.8257 -0.5283
 6075SOL     OW29683   1.934   3.539  13.298  0.3984 -0.0676 -0.0410
 6075SOL    HW129684   1.989   3.556  13.374  3.3812 -0.2086 -2.2008
 6075SOL    HW229685   1.918   3.624  13.257 -2.7058 -0.3309  0.6184
 6076SOL     OW29686   1.743   4.420   0.880 -0.1754 -0.0527  0.4132
 6076SOL    HW129687   1.833   4.388   0.888  1.3121  3.5269 -1.9714
 6076SOL    HW229688   1.736   4.455   0.791  0.9923 -1.0581 -0.0783
 6077SOL     OW29689   1.281   0.021  13.335 -0.4394 -0.1820  0.6012
 6077SOL    HW129690   1.193   0.053  13.353 -0.7442 -1.4879  1.5115
 6077SOL    HW229691   1.262   4.682  13.266  1.2090 -1.1174  1.0076
 6078SOL     OW29692   1.983   4.548   1.488  0.2239 -1.0224 -0.4325
 6078SOL    HW129693   2.046   4.591   1.431  2.6948 -0.6286  2.6387
 6078SOL    HW229694   1.967   4.612   1.557 -2.3419 -0.2505 -1.7167
 6079SOL     OW29695   4.606   3.986   5.428  0.5335 -0.1259 -0.2579
 6079SOL    HW129696   4.661   4.052   5.385 -2.4160  2.2381 -0.3761
 6079SOL    HW229697   4.646   3.907   5.391 -2.8377 -1.5280 -0.8274
 6080SOL     OW29698   3.973   0.849  12.084 -0.2985  0.5545 -0.3568
 6080SOL    HW129699   3.930   0.835  12.168  2.9169  0.1920  1.1952
 6080SOL    HW229700   4.004   0.936  12.109 -0.3312  0.8500 -1.3467
 6081SOL     OW29701   0.739   0.797   0.053  0.1881 -0.2549 -0.1122
 6081SOL    HW129702   0.754   0.840  17.672 -1.6116 -1.0031 -0.8097
 6081SOL    HW229703   0.703   0.868   0.106  1.9273  1.0256 -0.6376
 6082SOL     OW29704   0.779   1.898   8.730 -0.4188  0.1835 -0.3795
 6082SOL    HW129705   0.838   1.857   8.793  1.0563  1.7312 -0.7620
 6082SOL    HW229706   0.750   1.828   8.672 -0.2742 -0.1679 -0.0241
 6083SOL     OW29707   2.084   2.159   6.036  0.4484  0.3598 -0.3926
 6083SOL    HW129708   1.989   2.154   6.044  0.7487 -2.2578  1.7460
 6083SOL    HW229709   2.094   2.250   6.062  0.4980  0.3114 -0.2418
 6084SOL     OW29710   3.210   0.646  17.634  0.1533  0.4392  0.1125
 6084SOL    HW129711   3.299   0.682  17.627  0.6746 -1.6363 -4.2513
 6084SOL    HW229712   3.231   0.571  17.578  0.9791 -2.0793  3.7904
 6085SOL     OW29713   2.913   4.172   8.894 -0.3417  0.4255 -0.1404
 6085SOL    HW129714   2.867   4.193   8.813  2.4709  2.2867 -1.2513
 6085SOL    HW229715   2.930   4.078   8.886  0.0738  0.4961 -0.0694
 6086SOL     OW29716   0.436   2.531  11.056 -0.2596  0.1984  0.4470
 6086SOL    HW129717   0.348   2.495  11.070 -1.4850  2.5366 -1.1968
 6086SOL    HW229718   0.416   2.625  11.056 -1.3284 -0.0242  0.2981
 6087SOL     OW29719   4.382   2.686   6.566 -0.1787 -0.1467  0.5233
 6087SOL    HW129720   4.296   2.650   6.584 -0.6610  0.6968 -0.0581
 6087SOL    HW229721   4.421   2.607   6.528 -1.5345 -1.0616  1.0441
 6088SOL     OW29722   3.044   0.385   4.417  0.0821  0.3796  0.4152
 6088SOL    HW129723   2.959   0.422   4.438  0.1587  0.1126  1.1743
 6088SOL    HW229724   3.090   0.457   4.373 -3.1067  1.2684 -1.4506
 6089SOL     OW29725   3.806   1.948   6.510 -0.0850  0.2309 -0.0528
 6089SOL    HW129726   3.820   2.039   6.483  0.0372 -0.2574 -1.6593
 6089SOL    HW229727   3.882   1.937   6.567  0.3309  1.1155 -0.4427
 6090SOL     OW29728   3.713   0.220  17.099  0.6528  0.1625  0.0301
 6090SOL    HW129729   3.647   0.229  17.167  2.5688 -0.3115  1.9376
 6090SOL    HW229730   3.656   0.249  17.027  0.3028 -3.3740 -1.1313
 6091SOL     OW29731   2.193   3.848   5.329 -0.6953 -0.6454 -0.1102
 6091SOL    HW129732   2.171   3.797   5.408 -0.7666  0.5697  0.6590
 6091SOL    HW229733   2.161   3.784   5.266  1.1965 -0.9970 -0.6983
 6092SOL     OW29734   2.074   0.794  16.059  0.0468 -0.0299  0.1014
 6092SOL    HW129735   2.057   0.705  16.028  0.1450  0.0924 -0.3045
 6092SOL    HW229736   2.016   0.790  16.135 -1.9080 -0.7494 -1.4104
 6093SOL     OW29737   1.864   2.730   2.319 -0.3754 -0.2378 -0.1767
 6093SOL    HW129738   1.815   2.771   2.390  0.7091 -1.1975  1.1414
 6093SOL    HW229739   1.878   2.808   2.266 -1.4784 -0.1032 -0.2537
 6094SOL     OW29740   3.239   1.987   4.539 -0.0456  0.6051  0.3160
 6094SOL    HW129741   3.293   2.030   4.473 -1.0775  2.0117  0.3837
 6094SOL    HW229742   3.273   1.898   4.542  2.0600  1.3941 -0.5007
 6095SOL     OW29743   0.817   3.312   4.407  0.1163 -0.3599  0.5280
 6095SOL    HW129744   0.863   3.230   4.419  0.1140 -0.5666 -0.8778
 6095SOL    HW229745   0.814   3.320   4.312 -1.4239  0.8070  0.6683
 6096SOL     OW29746   1.971   2.650   6.924  0.2840 -0.3792 -0.2917
 6096SOL    HW129747   1.895   2.675   6.977 -0.8988 -1.9961 -1.2458
 6096SOL    HW229748   1.947   2.596   6.848 -0.0837 -0.3317 -0.2114
 6097SOL     OW29749   2.257   3.882   7.227 -0.4911 -0.1613  0.4397
 6097SOL    HW129750   2.307   3.806   7.256  0.7989  1.7396  3.1622
 6097SOL    HW229751   2.209   3.849   7.151  0.2726  2.7940 -1.3257
 6098SOL     OW29752   4.397   4.080   1.334  0.3311  0.3702 -0.4055
 6098SOL    HW129753   4.362   3.992   1.323 -1.0122  0.4943  2.8311
 6098SOL    HW229754   4.484   4.058   1.368 -0.7431  0.3101  2.3417
 6099SOL     OW29755   0.399   2.171   3.258  0.4410 -0.1917 -0.3631
 6099SOL    HW129756   0.411   2.252   3.307  1.1332  1.1160 -2.7001
 6099SOL    HW229757   0.439   2.108   3.319  1.2477  1.9663  1.3632
 6100SOL     OW29758   0.221   1.641   6.784  0.0068 -0.3262  0.4692
 6100SOL    HW129759   0.131   1.674   6.780 -0.2117 -0.7178  2.4271
 6100SOL    HW229760   0.231   1.656   6.878  0.3192  1.4528  0.1456
 6101SOL     OW29761   3.325   2.037  16.928 -0.1904 -0.2826 -0.5391
 6101SOL    HW129762   3.344   1.992  17.011  0.4937  2.5400  0.8148
 6101SOL    HW229763   3.248   2.089  16.948  0.4218  1.9211 -3.9135
 6102SOL     OW29764   3.263   3.330   4.811 -0.6272  0.1346  0.4635
 6102SOL    HW129765   3.246   3.401   4.873  0.3531  0.1770  0.6802
 6102SOL    HW229766   3.195   3.360   4.749  0.9899  0.0946 -1.3346
 6103SOL     OW29767   3.949   1.028   7.254  0.3793 -0.7549 -0.8173
 6103SOL    HW129768   3.964   0.935   7.275 -1.4416 -0.7718  0.4068
 6103SOL    HW229769   3.864   1.040   7.296 -0.2808 -0.2001 -2.2903
 6104SOL     OW29770   3.901   4.462   0.027  0.2779 -0.6399  0.5699
 6104SOL    HW129771   3.890   4.374   0.062  4.8755 -0.5545  2.1646
 6104SOL    HW229772   3.987   4.454  17.687  0.4425 -0.2803  0.8394
 6105SOL     OW29773   2.361   3.996   8.355 -0.2570 -0.2738  0.1304
 6105SOL    HW129774   2.418   3.995   8.278 -1.9865  0.6900 -1.1621
 6105SOL    HW229775   2.312   4.077   8.348  0.0661 -0.1811 -1.1317
 6106SOL     OW29776   2.209   3.947   5.932  0.2919  0.0840 -0.0454
 6106SOL    HW129777   2.117   3.967   5.950  0.4299 -0.0225  0.7888
 6106SOL    HW229778   2.246   4.034   5.920 -1.6067  0.8541 -0.3114
 6107SOL     OW29779   1.534   2.354   0.636  0.1884  0.2199 -0.0979
 6107SOL    HW129780   1.486   2.436   0.623  1.4047  0.8096 -0.8557
 6107SOL    HW229781   1.610   2.374   0.581  0.3424  2.9384  1.1069
 6108SOL     OW29782   4.696   0.772   8.703  0.5654  0.6452 -0.0216
 6108SOL    HW129783   4.653   0.707   8.760  1.3267  1.0769  1.0496
 6108SOL    HW229784   0.003   0.845   8.756  0.5255  1.4488 -1.0981
 6109SOL     OW29785   0.052   0.981   0.356 -0.8667  0.1934 -0.5126
 6109SOL    HW129786   0.068   0.949   0.444 -1.7305 -0.6921 -0.6852
 6109SOL    HW229787   0.125   1.043   0.345 -2.3382  2.3435  1.7997
 6110SOL     OW29788   1.691   4.543   1.237 -0.3169  0.3214  0.1071
 6110SOL    HW129789   1.775   4.544   1.192  0.2423  1.3950  1.1873
 6110SOL    HW229790   1.693   4.597   1.316  0.2773  0.5890 -0.0912
 6111SOL     OW29791   2.410   1.992   3.359  0.6501 -0.4292 -0.0984
 6111SOL    HW129792   2.396   1.922   3.295  1.0178 -0.5847 -0.0107
 6111SOL    HW229793   2.491   1.957   3.395  0.0944 -1.8209 -0.2004
 6112SOL     OW29794   2.310   0.398   2.152 -0.4169 -0.4284  0.3176
 6112SOL    HW129795   2.349   0.316   2.122 -1.0824 -0.7906  0.4440
 6112SOL    HW229796   2.273   0.385   2.240 -2.9759  1.1572 -0.5353
 6113SOL     OW29797   2.956   2.229  16.056 -0.1785  0.5130  0.3063
 6113SOL    HW129798   3.044   2.261  16.075  0.0400  1.8416 -2.9847
 6113SOL    HW229799   2.942   2.246  15.963 -2.3725  1.1678  0.7617
 6114SOL     OW29800   1.448   0.104   7.713  0.7539  0.0838  0.0423
 6114SOL    HW129801   1.374   0.081   7.769 -0.0612  1.2057 -0.5757
 6114SOL    HW229802   1.438   0.199   7.704 -1.5906 -0.0671  1.0980
 6115SOL     OW29803   0.258   3.657   4.428 -0.6222 -0.1428  0.0113
 6115SOL    HW129804   0.294   3.745   4.415 -1.0509 -0.2506 -1.9042
 6115SOL    HW229805   0.332   3.609   4.393  0.2676 -0.0729  1.7881
 6116SOL     OW29806   1.575   2.616   3.486  0.3351 -0.4270  0.1139
 6116SOL    HW129807   1.646   2.558   3.458  1.4792  0.8553  0.3654
 6116SOL    HW229808   1.567   2.675   3.412 -0.4373  2.4609  2.5153
 6117SOL     OW29809   2.970   0.171   2.089  0.3795  0.4938  0.0803
 6117SOL    HW129810   2.884   0.200   2.059 -0.0998 -0.5151  0.4761
 6117SOL    HW229811   3.025   0.224   2.032  0.3981 -0.0019 -0.3624
 6118SOL     OW29812   2.077   2.849  16.989  0.2732  0.4235  0.1013
 6118SOL    HW129813   2.051   2.766  16.949  1.7918 -0.3044  0.6261
 6118SOL    HW229814   2.165   2.835  17.025  0.4821  3.5823  0.8642
 6119SOL     OW29815   3.630   2.370   8.346  0.2868  0.7057  0.1546
 6119SOL    HW129816   3.711   2.418   8.325  0.8958  1.1821  3.4280
 6119SOL    HW229817   3.560   2.423   8.308 -1.0237 -0.4892  0.9081
 6120SOL     OW29818   2.551   1.928  10.599  0.2081  0.1607 -0.5296
 6120SOL    HW129819   2.531   1.894  10.686  0.9794 -1.9736 -1.1947
 6120SOL    HW229820   2.602   2.003  10.629 -1.2050  0.2292  1.7323
 6121SOL     OW29821   4.205   2.438  11.271  0.2883  0.3316 -0.6309
 6121SOL    HW129822   4.191   2.532  11.284 -0.7896 -0.5000  4.0240
 6121SOL    HW229823   4.251   2.440  11.187 -0.2338  1.7708 -0.8902
 6122SOL     OW29824   1.344   0.647   9.950 -0.1516  0.1804  0.3478
 6122SOL    HW129825   1.285   0.699  10.004  0.7132 -0.9415  2.4111
 6122SOL    HW229826   1.423   0.672   9.999 -1.6218  3.0209  1.2814
 6123SOL     OW29827   0.362   2.049   9.516 -0.0303 -0.4773  0.1798
 6123SOL    HW129828   0.369   1.965   9.560  0.8226 -0.0074  0.9362
 6123SOL    HW229829   0.324   2.111   9.579 -0.2995 -0.9536  0.4872
 6124SOL     OW29830   0.371   1.792   5.506  0.0649  0.2331 -0.4982
 6124SOL    HW129831   0.277   1.797   5.484  0.1363  0.9630 -0.6447
 6124SOL    HW229832   0.395   1.875   5.465  1.2375  0.2339  0.2025
 6125SOL     OW29833   1.661   4.136  13.084 -0.0035  0.2373 -0.3618
 6125SOL    HW129834   1.734   4.197  13.078  0.5595 -0.4006 -0.0217
 6125SOL    HW229835   1.588   4.197  13.090 -1.0477 -0.9339 -1.0597
 6126SOL     OW29836   2.516   0.733   6.977 -0.1785 -0.3119 -0.5617
 6126SOL    HW129837   2.532   0.823   6.947  0.8513 -0.7195 -1.2273
 6126SOL    HW229838   2.458   0.741   7.053  1.1447  1.5452  0.2531
 6127SOL     OW29839   1.041   2.813   0.748  0.4194 -0.6822  0.1457
 6127SOL    HW129840   1.100   2.757   0.696 -1.1281 -0.1587 -2.1502
 6127SOL    HW229841   0.979   2.845   0.683  1.3908 -1.7027 -1.2819
 6128SOL     OW29842   2.424   4.473   1.328  0.2951  0.2608 -0.1633
 6128SOL    HW129843   2.485   4.421   1.379 -0.3948 -1.3283 -0.9742
 6128SOL    HW229844   2.460   4.449   1.242  0.4595 -1.7221  0.4650
 6129SOL     OW29845   4.246   1.626   2.749  0.1862  0.0792  0.1065
 6129SOL    HW129846   4.197   1.544   2.743 -2.1700  1.4365  0.5805
 6129SOL    HW229847   4.187   1.689   2.790  0.9997  1.1338 -0.3426
 6130SOL     OW29848   4.396   3.682  10.774  0.1723 -0.3133 -0.1679
 6130SOL    HW129849   4.458   3.701  10.844 -0.3133 -0.0876  0.2032
 6130SOL    HW229850   4.358   3.604  10.815  0.2604  0.8726  2.1685
 6131SOL     OW29851   4.167   3.900   0.664  0.1378 -0.0315  0.1682
 6131SOL    HW129852   4.185   3.965   0.732  0.1535  0.7104 -0.5448
 6131SOL    HW229853   4.241   3.839   0.666 -0.5184 -0.9592 -3.8444
 6132SOL     OW29854   1.754   4.456   6.788 -0.1429 -0.1215  0.7193
 6132SOL    HW129855   1.814   4.502   6.728  1.0272 -0.4488  1.6374
 6132SOL    HW229856   1.761   4.371   6.743  1.3563  1.0559 -1.2973
 6133SOL     OW29857   1.714   2.828  16.894 -0.0265  0.3142 -0.4907
 6133SOL    HW129858   1.773   2.808  16.822 -1.8480 -2.2407 -1.2893
 6133SOL    HW229859   1.670   2.902  16.855  0.3823  1.2678  0.8508
 6134SOL     OW29860   0.401   2.620  13.930  0.4026 -0.0956  0.2917
 6134SOL    HW129861   0.435   2.710  13.930 -0.4277  0.2133  0.5199
 6134SOL    HW229862   0.314   2.642  13.963  0.0456  0.0961 -0.7838
 6135SOL     OW29863   4.218   1.557   5.350  0.9038  0.3970 -0.0411
 6135SOL    HW129864   4.125   1.580   5.343  1.4408  2.7882  0.8066
 6135SOL    HW229865   4.232   1.521   5.263  1.1723 -0.2460  0.2710
 6136SOL     OW29866   2.802   2.413   4.996  0.2381 -0.6773  0.2354
 6136SOL    HW129867   2.895   2.429   4.977 -0.5312  0.8261 -2.2614
 6136SOL    HW229868   2.810   2.427   5.090  0.6586  2.0525 -0.2113
 6137SOL     OW29869   3.321   0.197  14.459 -0.3276  0.1695 -0.0599
 6137SOL    HW129870   3.394   0.218  14.401 -0.6375  0.0533 -0.4910
 6137SOL    HW229871   3.271   0.279  14.460 -1.1835 -0.3300 -1.4673
 6138SOL     OW29872   0.883   2.802   9.434  0.1599  0.3056 -0.0471
 6138SOL    HW129873   0.892   2.732   9.499  0.9780 -0.4048 -0.9278
 6138SOL    HW229874   0.915   2.886   9.466 -0.3382  0.6349 -0.4218
 6139SOL     OW29875   4.296   2.433  11.024 -0.7117  0.6626 -0.4340
 6139SOL    HW129876   4.269   2.384  10.946 -0.0610  0.6880 -0.6755
 6139SOL    HW229877   4.232   2.503  11.012  0.1867  1.6762  0.6277
 6140SOL     OW29878   4.693   2.289   1.698  0.1518  0.2698  0.3689
 6140SOL    HW129879   4.698   2.257   1.789 -1.0295 -2.0140 -0.3576
 6140SOL    HW229880   0.048   2.245   1.670  1.3771  1.8306  1.4348
 6141SOL     OW29881   1.038   1.178   2.928  0.1794 -0.5616 -0.0163
 6141SOL    HW129882   1.086   1.177   2.845 -0.9909  1.6734 -0.7258
 6141SOL    HW229883   1.083   1.247   2.976 -1.3036  0.5733 -0.2586
 6142SOL     OW29884   3.728   4.140  11.356 -0.0732 -0.3837  0.1028
 6142SOL    HW129885   3.759   4.051  11.373  0.9508  0.0885  0.6821
 6142SOL    HW229886   3.676   4.119  11.278  3.3533 -1.5359 -1.8445
 6143SOL     OW29887   2.974   0.022   1.119 -0.1324  0.0877 -0.3832
 6143SOL    HW129888   2.934   4.671   1.076 -1.7983  0.4649  0.4835
 6143SOL    HW229889   3.019   0.061   1.045 -1.1457 -0.4200 -1.2775
 6144SOL     OW29890   1.688   2.381   0.141  0.4990 -0.8024  0.0420
 6144SOL    HW129891   1.664   2.361   0.051 -0.7606 -0.7256  0.3575
 6144SOL    HW229892   1.705   2.475   0.140  0.7319 -0.8608 -1.2191
 6145SOL     OW29893   0.444   2.737   3.965 -0.5401 -0.1956  0.2584
 6145SOL    HW129894   0.421   2.758   3.874  1.3105 -0.6779 -0.3252
 6145SOL    HW229895   0.534   2.772   3.963 -1.3260  1.7090 -2.3980
 6146SOL     OW29896   4.575   1.500   6.674  0.1555 -0.2277 -0.3859
 6146SOL    HW129897   4.613   1.574   6.720 -2.5755  0.6803  0.3813
 6146SOL    HW229898   4.598   1.523   6.584 -2.6986  0.3435 -0.9768
 6147SOL     OW29899   3.897   2.858   3.415  0.5326 -0.1676  0.6890
 6147SOL    HW129900   3.815   2.872   3.367  0.2953 -0.5183  0.9973
 6147SOL    HW229901   3.874   2.799   3.486  0.7522 -0.4632  0.5161
 6148SOL     OW29902   0.479   1.045   8.301 -0.5439 -0.2859 -0.0259
 6148SOL    HW129903   0.575   1.044   8.302 -0.5490 -0.8365  0.2061
 6148SOL    HW229904   0.466   0.983   8.373  0.9091 -0.8770 -0.2584
 6149SOL     OW29905   2.866   1.346  17.526 -0.1630 -0.4432 -0.3003
 6149SOL    HW129906   2.918   1.359  17.605  0.1903  1.2263 -0.8001
 6149SOL    HW229907   2.865   1.251  17.529  2.7259 -0.4001  2.2724
 6150SOL     OW29908   3.630   0.664   4.448 -0.5593 -0.2656 -0.4055
 6150SOL    HW129909   3.606   0.750   4.414  0.1750 -1.3339 -3.6957
 6150SOL    HW229910   3.712   0.642   4.403 -0.6865  0.5713 -1.0444
 6151SOL     OW29911   4.312   2.587   5.809  0.0096 -0.0789  0.2100
 6151SOL    HW129912   4.310   2.649   5.737  0.6875  1.0788  1.1742
 6151SOL    HW229913   4.392   2.541   5.781  0.5192  0.4013  0.8852
 6152SOL     OW29914   4.328   3.017   2.697  0.4044  0.6207  0.5799
 6152SOL    HW129915   4.403   2.961   2.679 -1.0137 -0.6647 -1.3431
 6152SOL    HW229916   4.261   2.953   2.671  0.5861  0.5520  0.2746
 6153SOL     OW29917   4.640   2.944   0.749 -0.1720 -0.2880  0.3418
 6153SOL    HW129918   4.615   2.859   0.714 -0.6140  0.6338 -1.5626
 6153SOL    HW229919   4.718   2.917   0.797 -0.3048 -1.5289 -0.1604
 6154SOL     OW29920   3.254   0.051   9.724 -0.0700 -0.8554 -0.0917
 6154SOL    HW129921   3.291   0.136   9.750 -3.4496  0.7172 -0.5171
 6154SOL    HW229922   3.311   4.715   9.771  0.1991 -0.2032  0.4473
 6155SOL     OW29923   3.544   4.194  14.675  0.1259 -0.5092 -0.5552
 6155SOL    HW129924   3.487   4.131  14.720 -1.7573 -0.2785 -2.6172
 6155SOL    HW229925   3.505   4.198  14.588  0.5020  0.5316 -0.6821
 6156SOL     OW29926   3.945   3.566   1.237  0.0071  0.0773  0.1443
 6156SOL    HW129927   3.944   3.535   1.328 -1.3803 -0.9593 -0.2181
 6156SOL    HW229928   4.016   3.519   1.193  0.2282  0.8473 -0.3185
 6157SOL     OW29929   3.417   4.543   3.748 -0.4794 -0.2177  0.1617
 6157SOL    HW129930   3.413   4.539   3.652  0.2828  1.9771  0.0516
 6157SOL    HW229931   3.462   4.626   3.758  0.9898 -0.7867 -1.5643
 6158SOL     OW29932   0.260   1.059   5.820  0.2544  0.3859 -0.1493
 6158SOL    HW129933   0.230   0.976   5.857 -0.5688  0.3360 -0.9453
 6158SOL    HW229934   0.199   1.056   5.747 -1.6573  2.7040  1.3684
 6159SOL     OW29935   2.651   3.812  12.663  0.0378 -0.5597 -0.1853
 6159SOL    HW129936   2.623   3.892  12.618 -0.4181 -0.7884 -0.3068
 6159SOL    HW229937   2.684   3.756  12.592  2.1100 -0.0657  0.3661
 6160SOL     OW29938   3.253   4.654  16.761 -0.2231 -0.0852 -0.0803
 6160SOL    HW129939   3.250   4.558  16.764 -0.7651  0.0289  2.5214
 6160SOL    HW229940   3.326   4.671  16.701  2.0698 -2.4578  2.0065
 6161SOL     OW29941   1.191   2.677   0.567  0.2664  0.1183 -0.2009
 6161SOL    HW129942   1.238   2.740   0.512 -1.3205  2.0802  0.6963
 6161SOL    HW229943   1.124   2.641   0.509  0.4293  0.1228 -0.3946
 6162SOL     OW29944   4.589   2.959   8.908 -0.6178  0.2207 -0.8097
 6162SOL    HW129945   4.557   3.004   8.829  0.0704  1.5793 -0.3319
 6162SOL    HW229946   4.608   2.874   8.870 -0.1395  0.8476 -1.9777
 6163SOL     OW29947   4.164   1.901   2.904 -0.0951 -0.6566  0.2650
 6163SOL    HW129948   4.129   1.919   2.816  1.2908 -1.4531 -0.4456
 6163SOL    HW229949   4.244   1.953   2.904 -0.6408  0.1761  0.9405
 6164SOL     OW29950   0.750   1.911   1.541 -0.2330 -0.2418 -0.5650
 6164SOL    HW129951   0.752   2.004   1.516  0.2950 -0.8708 -2.8430
 6164SOL    HW229952   0.709   1.907   1.627  0.4109 -0.5287 -0.2705
 6165SOL     OW29953   3.211   0.111   7.462 -0.0412  0.1172 -0.2943
 6165SOL    HW129954   3.261   0.192   7.469 -0.4170  0.4442 -1.4377
 6165SOL    HW229955   3.287   0.055   7.478 -0.6594 -0.1472  1.6717
 6166SOL     OW29956   0.469   1.145   9.645 -0.1665  0.1773  0.4300
 6166SOL    HW129957   0.548   1.125   9.697  0.1377 -1.8856 -0.8278
 6166SOL    HW229958   0.400   1.111   9.701  0.2832  0.3691  1.1061
 6167SOL     OW29959   3.566   2.522   6.527  0.0870  0.0645  0.1850
 6167SOL    HW129960   3.584   2.587   6.595  1.1761  1.3179 -1.3058
 6167SOL    HW229961   3.624   2.537   6.452  0.0783 -0.9527 -0.0326
 6168SOL     OW29962   2.855   4.056   3.048  0.0935 -0.1735  0.2156
 6168SOL    HW129963   2.781   4.001   3.072 -0.4177  1.7098  2.9654
 6168SOL    HW229964   2.897   3.994   2.989 -1.2129 -1.0791  0.2586
 6169SOL     OW29965   0.427   0.676   0.351  0.0037  0.3838  0.4395
 6169SOL    HW129966   0.463   0.636   0.430 -1.1182  0.1103  0.8122
 6169SOL    HW229967   0.486   0.746   0.325  0.6904  0.0163  1.0493
 6170SOL     OW29968   1.514   3.338  11.797  0.1907  0.0660  0.1011
 6170SOL    HW129969   1.453   3.296  11.736 -0.3919  1.5781 -0.3516
 6170SOL    HW229970   1.488   3.428  11.816 -1.8634 -0.2349 -1.1828
 6171SOL     OW29971   1.048   1.905   7.186 -0.0678 -0.5559 -0.0043
 6171SOL    HW129972   1.130   1.897   7.138 -0.8841  0.6669 -1.5795
 6171SOL    HW229973   0.992   1.866   7.119  3.6825 -1.7901 -2.3556
 6172SOL     OW29974   2.648   1.211   9.944 -0.0222 -0.3420  0.0283
 6172SOL    HW129975   2.680   1.122   9.957 -0.8270 -0.5605  0.5381
 6172SOL    HW229976   2.728   1.251   9.911  2.2827 -3.3554  2.0121
 6173SOL     OW29977   0.549   1.570   3.183 -0.0610 -0.2768  0.1932
 6173SOL    HW129978   0.599   1.543   3.260  0.3481  1.0594  0.4085
 6173SOL    HW229979   0.534   1.484   3.145  0.1982  0.6226 -1.9940
 6174SOL     OW29980   1.231   3.826   1.727 -0.2053 -0.0108 -0.3230
 6174SOL    HW129981   1.282   3.879   1.789 -0.4065 -0.5362  0.2864
 6174SOL    HW229982   1.147   3.846   1.769  1.2223  1.4137  1.8740
 6175SOL     OW29983   0.016   0.416  10.149  0.3954 -0.1181 -0.1973
 6175SOL    HW129984   0.077   0.346  10.127  0.3820 -0.6867  1.6053
 6175SOL    HW229985   4.656   0.378  10.132  0.3360 -0.0535 -0.0514
 6176SOL     OW29986   0.952   3.885   2.629 -0.1068  0.0797 -0.2333
 6176SOL    HW129987   0.925   3.973   2.656  0.7295 -0.0898  1.1658
 6176SOL    HW229988   0.918   3.877   2.540 -1.1115 -0.6153  0.2094
 6177SOL     OW29989   3.954   1.683   3.516  0.1781  0.2378  0.6263
 6177SOL    HW129990   3.893   1.730   3.460  1.8374  0.0261 -1.3890
 6177SOL    HW229991   3.915   1.595   3.520  0.6628 -0.0502 -1.0543
 6178SOL     OW29992   1.972   0.921   9.107  0.5917 -0.5844 -0.6496
 6178SOL    HW129993   1.946   0.830   9.122 -3.5062  0.6468 -0.4071
 6178SOL    HW229994   1.911   0.972   9.160  0.0826 -0.8568 -0.9738
 6179SOL     OW29995   2.788   0.699   6.222  0.1125 -0.0591  0.5651
 6179SOL    HW129996   2.717   0.666   6.278  0.6691  0.8383  1.7947
 6179SOL    HW229997   2.743   0.772   6.178  0.1926 -0.0037  0.5754
 6180SOL     OW29998   0.033   0.202  12.925 -0.2426  0.3091 -0.4947
 6180SOL    HW129999   0.092   0.277  12.925  0.1633 -0.0086  1.1630
 6180SOL    HW230000   4.699   0.238  12.991  1.9427  1.1550  0.9975
 6181SOL     OW30001   4.208   1.408   7.214 -0.1356 -0.5843 -0.0925
 6181SOL    HW130002   4.113   1.424   7.218 -0.0804 -0.1762 -0.3848
 6181SOL    HW230003   4.250   1.464   7.279  1.0794  0.9669 -2.1931
 6182SOL     OW30004   2.482   2.831   7.049 -0.9794  0.3009 -0.3663
 6182SOL    HW130005   2.408   2.776   7.021 -0.1115 -1.5533  0.9991
 6182SOL    HW230006   2.545   2.836   6.977 -1.7919 -2.3808 -1.2856
 6183SOL     OW30007   4.209   2.446  14.428 -0.4100 -0.1203  0.2452
 6183SOL    HW130008   4.168   2.510  14.370 -0.9173 -0.6734 -0.0038
 6183SOL    HW230009   4.170   2.477  14.510  1.1739 -0.1550  0.9967
 6184SOL     OW30010   3.831   3.512  14.737  0.1212  0.3602  0.1443
 6184SOL    HW130011   3.760   3.574  14.719  0.6810  0.9551 -0.0023
 6184SOL    HW230012   3.785   3.436  14.702  0.2671 -1.4827  3.8743
 6185SOL     OW30013   1.454   2.836   5.243 -0.5301 -0.5718  0.0729
 6185SOL    HW130014   1.546   2.859   5.231 -0.0556 -2.2339  0.5059
 6185SOL    HW230015   1.426   2.894   5.313  2.4156  0.5337  0.3381
 6186SOL     OW30016   1.201   0.138   0.329  0.3135  0.2123 -0.2294
 6186SOL    HW130017   1.279   0.106   0.284  0.6741 -0.9162  1.1773
 6186SOL    HW230018   1.221   0.231   0.329 -1.1869  0.5300  0.4959
 6187SOL     OW30019   4.537   0.039   7.270 -0.1151  0.0919  0.2754
 6187SOL    HW130020   4.476   0.053   7.343 -0.7772  1.4488 -0.5416
 6187SOL    HW230021   4.571   0.128   7.264 -1.2832  0.4902 -0.4224
 6188SOL     OW30022   1.549   3.857   2.699 -0.0138 -0.0157  0.1987
 6188SOL    HW130023   1.526   3.948   2.714 -0.2494 -0.1151  0.4398
 6188SOL    HW230024   1.631   3.858   2.650 -0.1300  1.3940  0.0523
 6189SOL     OW30025   4.687   1.154  15.458  0.6782  0.4371 -0.5236
 6189SOL    HW130026   4.638   1.135  15.378  1.1283 -2.4960 -0.0792
 6189SOL    HW230027   0.046   1.115  15.438 -0.7528 -2.4154 -1.0067
 6190SOL     OW30028   0.165   1.823   7.811  0.2008 -0.1003  0.2932
 6190SOL    HW130029   0.255   1.844   7.785  0.1897 -0.7287 -0.2604
 6190SOL    HW230030   0.120   1.906   7.798 -1.4120 -1.1430 -0.8254
 6191SOL     OW30031   0.433   0.991   4.575 -0.1965 -0.8314 -0.0183
 6191SOL    HW130032   0.497   0.981   4.504  1.7680 -2.0547  1.9338
 6191SOL    HW230033   0.381   1.065   4.545 -1.0476 -2.8338 -3.4922
 6192SOL     OW30034   2.746   2.086  10.747 -0.2163 -0.2706  0.5110
 6192SOL    HW130035   2.780   2.162  10.795  0.5687  0.5753 -1.3711
 6192SOL    HW230036   2.830   2.055  10.714  0.0651  0.7213  0.2762
 6193SOL     OW30037   3.807   1.385   4.897  0.1836 -0.5789  0.2440
 6193SOL    HW130038   3.783   1.324   4.827  0.7100 -0.6111  0.0921
 6193SOL    HW230039   3.872   1.324   4.932  1.9124  1.1147 -0.0529
 6194SOL     OW30040   1.331   1.282   8.141  0.2635 -0.3804  0.2912
 6194SOL    HW130041   1.373   1.361   8.173  0.2554 -0.7809  1.2778
 6194SOL    HW230042   1.373   1.211   8.189 -0.7244 -0.4960  0.9928
 6195SOL     OW30043   2.530   2.127   2.593 -0.4557 -0.9558 -0.2674
 6195SOL    HW130044   2.600   2.062   2.590 -1.6468 -2.2073 -0.9499
 6195SOL    HW230045   2.486   2.114   2.510 -0.4941  1.5768 -0.6347
 6196SOL     OW30046   2.081   1.961   8.523 -0.2719 -0.0591 -0.6123
 6196SOL    HW130047   2.044   2.031   8.469  2.1275  1.8653  0.2797
 6196SOL    HW230048   2.110   1.896   8.458  0.3905  0.4252 -0.7991
 6197SOL     OW30049   0.595   1.358   7.705 -0.3704  1.0951  0.1215
 6197SOL    HW130050   0.542   1.295   7.755  1.5316 -0.8959 -0.3509
 6197SOL    HW230051   0.606   1.429   7.768  1.3131  0.0578  1.0136
 6198SOL     OW30052   3.291   0.118   7.779  0.1830  0.3017  0.1246
 6198SOL    HW130053   3.270   0.211   7.770  1.7010  0.6473  0.1832
 6198SOL    HW230054   3.200   0.089   7.773 -0.5572  2.7471 -0.5027
 6199SOL     OW30055   1.142   3.945   1.997  0.3216  0.3717 -0.6221
 6199SOL    HW130056   1.085   3.959   2.073 -0.2256  0.0816 -0.9906
 6199SOL    HW230057   1.081   3.971   1.928 -1.1636 -0.1459  0.4903
 6200SOL     OW30058   2.484   4.217   8.956 -0.6810 -0.1775  1.0396
 6200SOL    HW130059   2.535   4.296   8.975  2.1146 -1.6500 -0.4964
 6200SOL    HW230060   2.544   4.153   8.993 -1.0524 -0.8406  0.4975
 6201SOL     OW30061   4.400   2.150   1.558  0.1700 -0.1298  0.6960
 6201SOL    HW130062   4.318   2.138   1.511  1.4319  0.6817 -1.7355
 6201SOL    HW230063   4.396   2.246   1.557 -0.7339 -0.1758  0.1538
 6202SOL     OW30064   3.331   1.710  11.838  0.2892 -0.0277  0.3370
 6202SOL    HW130065   3.281   1.785  11.805  2.4349  1.6312  0.8634
 6202SOL    HW230066   3.349   1.733  11.930  2.4478  0.4349 -0.1937
 6203SOL     OW30067   3.401   3.387   2.918 -0.0028  0.4199 -0.0775
 6203SOL    HW130068   3.466   3.386   2.988  1.5275 -2.0393 -1.5231
 6203SOL    HW230069   3.445   3.450   2.861  1.1512 -0.6906 -0.4070
 6204SOL     OW30070   2.200   1.103   2.830  0.2916  0.0280  0.6874
 6204SOL    HW130071   2.158   1.018   2.812 -1.5378  0.9829  0.4157
 6204SOL    HW230072   2.123   1.155   2.853 -0.8646 -1.7409  0.8739
 6205SOL     OW30073   0.525   2.975   4.444  0.1605  0.3479  0.0591
 6205SOL    HW130074   0.464   2.923   4.392 -0.1188 -1.3643  2.0662
 6205SOL    HW230075   0.548   2.921   4.520  1.8308  1.4787  0.3705
 6206SOL     OW30076   1.712   4.557   5.639  0.7655  0.1710 -0.0036
 6206SOL    HW130077   1.717   4.463   5.623 -0.5040  0.5722 -2.8126
 6206SOL    HW230078   1.638   4.584   5.584 -0.0673 -1.4873  0.3149
 6207SOL     OW30079   4.340   4.619   7.050  0.2240 -0.0851  1.3730
 6207SOL    HW130080   4.420   4.656   7.087  2.5915 -1.7948 -2.0208
 6207SOL    HW230081   4.358   4.525   7.060  0.2242 -0.4229 -1.9854
 6208SOL     OW30082   1.514   2.058  16.534 -0.2495 -0.1569 -0.2159
 6208SOL    HW130083   1.491   1.965  16.524  1.6826 -0.4551 -1.9482
 6208SOL    HW230084   1.601   2.047  16.573 -0.9071  2.8246  2.0326
 6209SOL     OW30085   2.958   2.299   3.476 -1.0348  0.6020 -0.2408
 6209SOL    HW130086   2.901   2.229   3.443  0.8305 -1.4886  0.9840
 6209SOL    HW230087   3.032   2.246   3.504 -2.6510 -0.8832  1.2406
 6210SOL     OW30088   0.402   4.584   1.839  0.7327 -0.1691  0.2310
 6210SOL    HW130089   0.333   4.596   1.774  0.9479 -1.6893 -0.2829
 6210SOL    HW230090   0.413   4.677   1.860  1.2986  0.1216 -1.3803
 6211SOL     OW30091   2.678   0.003   7.110  0.3510 -0.4647 -0.3389
 6211SOL    HW130092   2.588   0.035   7.109  0.1939 -0.9006  0.0265
 6211SOL    HW230093   2.655   4.640   7.140  0.8895 -0.7005 -0.6207
 6212SOL     OW30094   4.054   3.601   4.318  0.3350  0.2345 -0.5626
 6212SOL    HW130095   3.990   3.558   4.261 -0.7241  0.7475  0.2350
 6212SOL    HW230096   4.120   3.531   4.316  0.2615  0.1141  0.8353
 6213SOL     OW30097   1.714   2.644  12.543 -0.2012  0.0601 -0.5685
 6213SOL    HW130098   1.649   2.642  12.473  0.1109 -0.5299 -0.8351
 6213SOL    HW230099   1.786   2.697  12.509 -1.4883  1.5396 -1.0018
 6214SOL     OW30100   1.033   0.108   5.104 -0.2202 -0.5299  0.2577
 6214SOL    HW130101   1.082   0.130   5.025  2.1693 -2.3679  1.2029
 6214SOL    HW230102   1.012   0.197   5.131  0.2190 -0.2217 -0.4277
 6215SOL     OW30103   2.985   1.715   8.268  0.1156  0.0778 -0.5817
 6215SOL    HW130104   3.044   1.772   8.318 -0.6078  1.9529 -1.8722
 6215SOL    HW230105   3.041   1.672   8.204  0.0963 -0.8526  0.0233
 6216SOL     OW30106   0.809   1.103   6.520 -0.2618  1.1847 -0.4220
 6216SOL    HW130107   0.764   1.175   6.564 -1.4734  0.2111 -0.0709
 6216SOL    HW230108   0.817   1.148   6.435  2.7063  2.5417  0.6033
 6217SOL     OW30109   2.133   4.703   5.872 -0.0378 -0.2748 -0.0316
 6217SOL    HW130110   2.203   4.656   5.918 -0.3097 -0.5934  0.0542
 6217SOL    HW230111   2.055   4.648   5.883 -1.1771  1.3361 -0.0605
 6218SOL     OW30112   1.009   1.923  15.364 -0.4405 -0.4279  0.2102
 6218SOL    HW130113   1.045   1.858  15.304 -1.5335 -0.6243 -0.2256
 6218SOL    HW230114   0.934   1.877  15.402 -1.1339  0.1270 -0.4762
 6219SOL     OW30115   3.248   0.469  14.539 -0.2518 -0.5649 -0.0070
 6219SOL    HW130116   3.182   0.505  14.598  0.2865 -1.5419  1.1821
 6219SOL    HW230117   3.219   0.523  14.465 -1.0661 -0.5979  0.2942
 6220SOL     OW30118   1.350   3.449  10.888 -1.2078 -1.0484 -0.2047
 6220SOL    HW130119   1.339   3.383  10.956 -0.0356 -0.2870  0.7152
 6220SOL    HW230120   1.436   3.437  10.849 -1.5556  1.4277 -1.7293
 6221SOL     OW30121   4.609   0.265   9.599 -0.1645  0.0193 -0.2886
 6221SOL    HW130122   4.524   0.221   9.608  1.3622 -2.4388  2.0017
 6221SOL    HW230123   4.666   0.193   9.624 -0.2589 -0.6230 -1.9127
 6222SOL     OW30124   0.144   2.682  12.691 -0.2236  0.1471  0.4177
 6222SOL    HW130125   0.143   2.658  12.784  0.7183  2.0430  0.9311
 6222SOL    HW230126   0.158   2.777  12.698 -1.2885  0.1182  3.2176
 6223SOL     OW30127   2.194   3.608   4.363  0.2811 -0.1355  0.2553
 6223SOL    HW130128   2.245   3.587   4.284  1.0117 -0.6156  0.8608
 6223SOL    HW230129   2.118   3.638   4.313 -0.4920 -1.0971  0.8830
 6224SOL     OW30130   2.846   1.850  14.935 -0.3591 -0.0561 -0.1326
 6224SOL    HW130131   2.820   1.761  14.956 -0.4239  0.1230  0.5410
 6224SOL    HW230132   2.874   1.843  14.844  0.0451  1.0237 -0.0934
 6225SOL     OW30133   2.374   0.663  16.575  0.4791  0.3417  0.3571
 6225SOL    HW130134   2.400   0.625  16.659  3.0961  1.2578 -0.0294
 6225SOL    HW230135   2.426   0.607  16.516 -0.5945  0.3478 -0.5952
 6226SOL     OW30136   3.656   2.516   5.655 -0.3274 -0.1935 -0.3528
 6226SOL    HW130137   3.649   2.456   5.581 -0.3948  0.1948 -0.6641
 6226SOL    HW230138   3.746   2.546   5.645  0.1669 -1.1864  1.1288
 6227SOL     OW30139   3.963   0.878  16.681  0.2141  0.3230  0.1644
 6227SOL    HW130140   3.913   0.958  16.700 -0.4815  0.5106 -2.4618
 6227SOL    HW230141   4.054   0.902  16.665  0.4569  0.4681  1.7756
 6228SOL     OW30142   4.076   4.168   8.030  1.3709  0.0785  0.4229
 6228SOL    HW130143   4.155   4.215   8.004  0.8065 -0.7062 -2.7921
 6228SOL    HW230144   4.016   4.239   8.005 -0.6528 -1.4507  0.9948
 6229SOL     OW30145   2.838   0.361   6.950 -0.3631  0.1336  0.3136
 6229SOL    HW130146   2.865   0.319   7.031  0.8566  0.0137 -0.1551
 6229SOL    HW230147   2.801   0.441   6.988  1.7179  0.3742  1.8055
 6230SOL     OW30148   0.696   3.136   0.423 -0.0514 -0.5866  0.4489
 6230SOL    HW130149   0.751   3.119   0.346  0.5454 -4.5555  1.7792
 6230SOL    HW230150   0.604   3.137   0.396  0.5055  1.9639 -1.3887
 6231SOL     OW30151   0.886   0.467  15.003 -0.5494 -0.3024 -0.2202
 6231SOL    HW130152   0.950   0.397  15.012  0.4294  0.5841 -0.2900
 6231SOL    HW230153   0.930   0.523  14.939  1.9046 -1.4016  0.5369
 6232SOL     OW30154   4.223   0.844  10.884  0.1895  0.5683  0.3119
 6232SOL    HW130155   4.276   0.765  10.896  0.9387  1.1023  0.4453
 6232SOL    HW230156   4.130   0.818  10.884  0.2958  0.1898  0.6811
 6233SOL     OW30157   1.160   4.614   6.707 -0.1250 -0.5254  0.1154
 6233SOL    HW130158   1.070   4.580   6.705 -0.0525 -0.7845  1.2077
 6233SOL    HW230159   1.162   4.668   6.629  0.1126 -2.6818 -1.3761
 6234SOL     OW30160   1.014   1.932   1.412  0.6232  0.5510 -0.2930
 6234SOL    HW130161   1.023   1.892   1.498  0.5339 -0.5476 -0.7908
 6234SOL    HW230162   0.933   1.887   1.385  0.8547  0.2985 -0.5655
 6235SOL     OW30163   3.513   0.030  11.102 -0.1907  0.4512  0.3412
 6235SOL    HW130164   3.515   4.661  11.119  2.1168  0.3823 -0.3177
 6235SOL    HW230165   3.591   0.061  11.148  0.6412  0.6737 -1.2122
 6236SOL     OW30166   1.787   0.635   7.248 -0.0879 -0.1896 -0.1498
 6236SOL    HW130167   1.879   0.656   7.235 -0.7328  1.3845 -2.0707
 6236SOL    HW230168   1.753   0.725   7.242  1.2028  0.2901 -0.1895
 6237SOL     OW30169   1.536   3.956  13.988  0.5005  0.3389 -0.8219
 6237SOL    HW130170   1.565   3.924  13.903 -1.0685 -1.0465 -0.8265
 6237SOL    HW230171   1.446   3.974  13.961  0.8716 -0.5719 -2.6538
 6238SOL     OW30172   4.336   4.656   0.622  0.2696  0.5486  0.2951
 6238SOL    HW130173   4.281   4.606   0.561 -1.1682  0.6637  1.4805
 6238SOL    HW230174   4.414   4.602   0.628  1.6676  2.5680  0.2058
 6239SOL     OW30175   1.408   3.753   7.601 -0.3508 -0.1526 -0.4759
 6239SOL    HW130176   1.493   3.781   7.568  0.6790 -0.6232  1.7570
 6239SOL    HW230177   1.425   3.729   7.692  3.1589 -0.1083 -1.1144
 6240SOL     OW30178   3.620   4.715   3.262  0.4776  0.5825 -0.1051
 6240SOL    HW130179   3.542   0.015   3.310 -1.9828 -1.7088 -2.8661
 6240SOL    HW230180   3.628   4.619   3.267 -0.5663  0.6550  2.6974
 6241SOL     OW30181   3.317   2.190  13.094 -0.0647  0.3244  0.1464
 6241SOL    HW130182   3.320   2.107  13.045 -1.5639 -0.4524  1.3645
 6241SOL    HW230183   3.394   2.182  13.151 -0.9334  1.5222  1.4654
 6242SOL     OW30184   0.991   0.816  15.969 -0.1989  0.1037  0.3601
 6242SOL    HW130185   1.014   0.736  16.016 -0.9760 -0.4117 -0.1398
 6242SOL    HW230186   1.037   0.886  16.016  1.1877  0.8572 -2.1423
 6243SOL     OW30187   3.893   0.151  11.524 -0.0640 -0.6176  0.3774
 6243SOL    HW130188   3.962   0.134  11.459  1.5581 -0.0549  1.9618
 6243SOL    HW230189   3.960   0.178  11.587  1.0026 -1.3778 -0.4065
 6244SOL     OW30190   1.385   2.609   4.872  0.4417 -0.1688 -0.0475
 6244SOL    HW130191   1.380   2.609   4.968  1.7936  0.8653  0.0180
 6244SOL    HW230192   1.356   2.519   4.855  0.5345  0.2910 -2.5074
 6245SOL     OW30193   2.084   1.531   6.071 -0.0390  0.7673  0.0383
 6245SOL    HW130194   2.090   1.618   6.032  2.4710 -0.6671 -2.7308
 6245SOL    HW230195   2.104   1.549   6.163  1.1609  0.4475 -0.1587
 6246SOL     OW30196   0.903   3.585   1.915  0.4020 -0.1486  0.4057
 6246SOL    HW130197   0.882   3.678   1.919  2.1837  0.2726  0.0387
 6246SOL    HW230198   0.975   3.591   1.978  0.2465  2.4885  0.3255
 6247SOL     OW30199   1.630   2.676   7.407 -0.0179 -0.2358  0.0488
 6247SOL    HW130200   1.682   2.632   7.339  2.0268  2.6521 -0.2692
 6247SOL    HW230201   1.613   2.600   7.463 -0.5245 -0.5420 -0.5132
 6248SOL     OW30202   2.231   0.426   6.379 -0.4875 -0.5363  0.3827
 6248SOL    HW130203   2.273   0.369   6.444  0.1595  0.9038  1.2266
 6248SOL    HW230204   2.201   0.500   6.431  1.0231 -0.1696  0.7504
 6249SOL     OW30205   3.729   2.097   7.792 -0.2239 -0.1893 -0.6561
 6249SOL    HW130206   3.721   2.138   7.879 -1.5752  0.1231 -0.9267
 6249SOL    HW230207   3.636   2.104   7.771 -0.2081  0.4462 -0.5134
 6250SOL     OW30208   4.242   0.916  12.574  0.3918  0.0652  0.2119
 6250SOL    HW130209   4.278   0.963  12.649 -0.2479 -0.7511  1.0216
 6250SOL    HW230210   4.148   0.931  12.577  0.4439 -0.0239  2.2091
 6251SOL     OW30211   1.133   4.553  15.393  0.1546 -0.3304 -0.3313
 6251SOL    HW130212   1.179   4.470  15.402  0.4975 -0.0432  0.5024
 6251SOL    HW230213   1.183   4.597  15.324 -3.4816  4.3326  0.0218
 6252SOL     OW30214   1.379   0.779   9.283 -0.5125 -0.2039 -0.0800
 6252SOL    HW130215   1.469   0.803   9.303 -1.2881  2.2761  0.4864
 6252SOL    HW230216   1.351   0.723   9.356  0.9431 -2.0969 -0.9643
 6253SOL     OW30217   4.192   0.993   3.965  0.0902 -0.1138  0.7052
 6253SOL    HW130218   4.138   0.923   3.927 -0.2445  0.4520  0.1501
 6253SOL    HW230219   4.279   0.969   3.931  0.1238  0.6770  0.2346
 6254SOL     OW30220   2.751   2.739   1.724  0.5108  0.1077  0.0353
 6254SOL    HW130221   2.768   2.685   1.646 -1.0625  0.2926 -0.4430
 6254SOL    HW230222   2.787   2.686   1.795  0.8514 -0.1149 -0.3043
 6255SOL     OW30223   1.777   3.663   2.853  0.1028  0.5249  0.1213
 6255SOL    HW130224   1.787   3.737   2.793 -0.7806 -0.6193 -1.4272
 6255SOL    HW230225   1.770   3.706   2.938 -0.1143  0.2804  0.2237
 6256SOL     OW30226   1.511   0.261   7.138  0.0116  0.0206  0.4624
 6256SOL    HW130227   1.556   0.338   7.173 -1.1193  0.3570  1.1735
 6256SOL    HW230228   1.423   0.298   7.128 -0.4062 -1.6942 -2.2566
 6257SOL     OW30229   0.390   4.313   5.940 -0.5505  0.3363 -0.0287
 6257SOL    HW130230   0.440   4.394   5.955  0.5830 -0.4711  0.5054
 6257SOL    HW230231   0.394   4.302   5.845 -1.5702 -2.7056  0.3113
 6258SOL     OW30232   2.534   0.294   8.488  0.0150  0.3105 -0.1058
 6258SOL    HW130233   2.453   0.247   8.507  0.2363  1.4967  3.7528
 6258SOL    HW230234   2.502   0.379   8.456  0.0478  1.2058  2.2000
 6259SOL     OW30235   4.225   3.048  17.191 -0.6182 -0.2179  0.5066
 6259SOL    HW130236   4.219   3.075  17.283 -0.6080 -0.4091  0.5639
 6259SOL    HW230237   4.141   3.005  17.177 -0.8331 -0.2758  1.9508
 6260SOL     OW30238   2.845   0.185   9.562 -0.1624 -0.0552 -0.1205
 6260SOL    HW130239   2.843   0.280   9.550  0.1275 -0.3797 -2.6547
 6260SOL    HW230240   2.896   0.158   9.486  0.8793 -0.7980  0.8272
 6261SOL     OW30241   1.492   4.419   6.276 -0.0459  0.1357  0.1693
 6261SOL    HW130242   1.571   4.471   6.289  1.6722 -2.7359  1.3579
 6261SOL    HW230243   1.442   4.458   6.347  0.2536 -2.1597  1.6534
 6262SOL     OW30244   0.905   2.249   5.428 -0.0749 -0.1276 -0.4844
 6262SOL    HW130245   0.894   2.167   5.379  0.2985  0.6961 -1.9389
 6262SOL    HW230246   0.883   2.311   5.358  1.0730  0.1535 -0.5898
 6263SOL     OW30247   4.197   3.656  17.386 -0.4155  0.3962 -0.0955
 6263SOL    HW130248   4.215   3.566  17.411  1.0172  0.3257 -1.4020
 6263SOL    HW230249   4.259   3.676  17.316 -1.8677  1.6632 -1.0265
 6264SOL     OW30250   3.524   1.180  12.714  0.4586 -0.4016  0.2363
 6264SOL    HW130251   3.456   1.247  12.724  2.0942  1.4467 -1.2434
 6264SOL    HW230252   3.591   1.205  12.778  1.0080 -0.3781 -0.3585
 6265SOL     OW30253   2.344   2.065   8.818  0.0488 -0.2036 -0.1173
 6265SOL    HW130254   2.335   2.154   8.854  0.2151 -0.0058 -0.5623
 6265SOL    HW230255   2.317   2.019   8.897  0.5198  0.4509  0.4193
 6266SOL     OW30256   1.756   1.062  15.665  0.1793 -0.1587  0.4258
 6266SOL    HW130257   1.847   1.075  15.692 -0.0107  1.7495  0.1581
 6266SOL    HW230258   1.749   1.141  15.610  1.5182 -0.9041 -0.8390
 6267SOL     OW30259   3.599   3.354   4.354 -0.1575 -0.5664 -0.4085
 6267SOL    HW130260   3.683   3.318   4.384 -0.9222 -0.8072  1.4985
 6267SOL    HW230261   3.554   3.347   4.438  2.3345 -1.0969  0.8862
 6268SOL     OW30262   4.491   2.961   3.058  0.0314 -0.1275  0.1642
 6268SOL    HW130263   4.460   3.046   3.026  0.8827 -0.6175 -1.9315
 6268SOL    HW230264   4.554   2.996   3.122 -3.7195  1.3473  3.0776
 6269SOL     OW30265   0.391   0.775  13.000 -0.2130 -0.2752 -0.2830
 6269SOL    HW130266   0.437   0.703  13.043 -2.0547 -0.8365  0.7475
 6269SOL    HW230267   0.457   0.813  12.942 -0.0568  0.4666  0.3766
 6270SOL     OW30268   0.269   3.840   2.208 -0.1593  0.1782 -0.1242
 6270SOL    HW130269   0.364   3.830   2.204 -0.1162  1.0916 -1.3225
 6270SOL    HW230270   0.267   3.913   2.269  0.0272  0.5597 -0.5770
 6271SOL     OW30271   4.493   1.981   8.335 -0.4256 -0.2251  0.1579
 6271SOL    HW130272   4.568   1.929   8.363  0.9532  2.2120  1.0756
 6271SOL    HW230273   4.539   2.065   8.336 -1.1095  0.1506  0.0090
 6272SOL     OW30274   2.829   1.752   7.679 -0.0020  0.1038  0.4934
 6272SOL    HW130275   2.755   1.812   7.685  0.7052  0.9790  0.6145
 6272SOL    HW230276   2.804   1.711   7.596 -4.0450  1.5029  1.0109
 6273SOL     OW30277   3.566   1.816   8.586  0.3861  0.0694 -0.5359
 6273SOL    HW130278   3.631   1.769   8.533  1.2930  1.6199 -0.7741
 6273SOL    HW230279   3.543   1.745   8.646  1.6973 -0.4615 -0.6778
 6274SOL     OW30280   0.494   2.720  17.680 -0.3544 -0.1301  0.3581
 6274SOL    HW130281   0.473   2.637  17.639 -2.0319  1.7658 -2.6459
 6274SOL    HW230282   0.589   2.713  17.681 -0.1958  2.0994  0.5589
 6275SOL     OW30283   4.137   2.759   1.592  0.1019 -0.2121  0.1800
 6275SOL    HW130284   4.190   2.839   1.582  0.6277 -0.5681  0.0934
 6275SOL    HW230285   4.198   2.687   1.609 -0.6712 -0.7232  0.7568
 6276SOL     OW30286   3.476   1.131   5.402 -0.6950  0.1219  0.0213
 6276SOL    HW130287   3.505   1.040   5.408 -0.9465  0.0898  0.7768
 6276SOL    HW230288   3.501   1.159   5.490 -3.0214  1.4689  0.2532
 6277SOL     OW30289   0.912   2.641   7.950 -0.1762 -1.0547  0.1449
 6277SOL    HW130290   0.899   2.719   7.896 -1.7996 -2.7426 -1.8593
 6277SOL    HW230291   0.835   2.593   7.921 -1.4563  0.2780  1.3074
 6278SOL     OW30292   1.840   1.923   6.009 -0.5983 -0.0851  0.1628
 6278SOL    HW130293   1.935   1.928   6.021 -0.3944 -1.0178 -1.0089
 6278SOL    HW230294   1.823   2.017   6.008  0.1926  0.0784  2.1351
 6279SOL     OW30295   1.422   2.375   4.089 -0.2452  0.0172  0.1477
 6279SOL    HW130296   1.454   2.345   4.174 -0.0595 -0.0750  0.0448
 6279SOL    HW230297   1.394   2.464   4.111  0.8218  0.5928 -0.8618
 6280SOL     OW30298   0.581   4.484   8.643  0.5441  0.6660 -0.3320
 6280SOL    HW130299   0.663   4.476   8.594  0.7456 -1.8789  0.4075
 6280SOL    HW230300   0.597   4.401   8.689 -1.0863 -1.0500 -2.8675
 6281SOL     OW30301   3.193   3.259  12.419 -0.3472 -0.5893  0.0103
 6281SOL    HW130302   3.150   3.327  12.471  1.4855 -0.5363  1.4591
 6281SOL    HW230303   3.201   3.297  12.332  1.5458 -2.8435 -0.7999
 6282SOL     OW30304   2.199   1.264   4.465 -0.5025  0.4030 -0.7830
 6282SOL    HW130305   2.245   1.329   4.413 -0.5020  1.3561  0.4113
 6282SOL    HW230306   2.276   1.212   4.489  0.1761  1.1309 -1.3782
 6283SOL     OW30307   4.301   3.034   8.285  0.2767 -0.6113 -0.5007
 6283SOL    HW130308   4.240   2.984   8.230 -0.0264 -1.3494  0.4919
 6283SOL    HW230309   4.378   3.016   8.231  0.2893  0.3055 -0.7918
 6284SOL     OW30310   2.103   2.582   0.713  0.1001  0.0655 -0.0432
 6284SOL    HW130311   2.074   2.616   0.797  0.9574  2.6686 -0.7971
 6284SOL    HW230312   2.192   2.555   0.735  0.1899 -0.1481 -0.6620
 6285SOL     OW30313   1.394   4.664   3.253 -0.5507 -0.0586  0.3250
 6285SOL    HW130314   1.452   4.613   3.309  0.3415  0.1578 -0.4012
 6285SOL    HW230315   1.320   4.674   3.313  0.1050  0.3160  1.0722
 6286SOL     OW30316   0.491   1.141   5.735  0.2153  0.6887  0.7533
 6286SOL    HW130317   0.472   1.206   5.668  0.0995 -0.8922 -0.7655
 6286SOL    HW230318   0.402   1.133   5.769 -1.3720  0.0570 -3.6046
 6287SOL     OW30319   1.435   1.584   0.051  0.9249  0.2930 -0.7019
 6287SOL    HW130320   1.506   1.601   0.113  0.8065  0.6531 -0.6627
 6287SOL    HW230321   1.401   1.503   0.089  1.6037 -0.3880 -1.5512
 6288SOL     OW30322   2.747   3.906   7.004  0.3895 -0.5998 -0.1040
 6288SOL    HW130323   2.820   3.848   7.023  1.1997  0.7434  0.9282
 6288SOL    HW230324   2.796   3.985   6.980  1.7524 -1.9034 -1.6342
 6289SOL     OW30325   3.741   4.469   6.243 -0.4951  0.3364  0.0674
 6289SOL    HW130326   3.666   4.458   6.302  0.1190 -0.5276  0.6628
 6289SOL    HW230327   3.703   4.536   6.185  1.5989  1.9066  0.5245
 6290SOL     OW30328   2.379   4.327   1.798 -0.0667  0.3076 -0.2149
 6290SOL    HW130329   2.316   4.316   1.870 -0.1394  1.4160 -0.0973
 6290SOL    HW230330   2.452   4.359   1.851  1.0468 -0.3776 -1.3770
 6291SOL     OW30331   4.685   0.842  16.202 -0.3612 -0.1982  0.6863
 6291SOL    HW130332   4.667   0.921  16.254 -1.1177 -0.7578  1.2841
 6291SOL    HW230333   4.647   0.779  16.263 -0.4323 -0.4819  0.3460
 6292SOL     OW30334   4.009   3.968  12.144  0.3971  0.1785 -0.2043
 6292SOL    HW130335   3.988   3.961  12.051 -0.5568  0.1786  0.0114
 6292SOL    HW230336   3.952   4.040  12.172  1.8719  1.4711 -0.5342
 6293SOL     OW30337   3.095   4.159   2.100  0.5010  0.1257 -0.0475
 6293SOL    HW130338   3.177   4.202   2.126  0.5694 -0.4547  0.7209
 6293SOL    HW230339   3.077   4.105   2.177  3.2531  1.1994  1.3494
 6294SOL     OW30340   3.836   4.225   8.465 -0.4969  0.2995  0.0608
 6294SOL    HW130341   3.817   4.210   8.557 -0.4853  0.8836  0.1591
 6294SOL    HW230342   3.897   4.154   8.443 -1.1611 -0.3802  0.4033
 6295SOL     OW30343   1.814   3.837   2.137 -0.4011  0.1732  0.4297
 6295SOL    HW130344   1.864   3.757   2.153 -0.0232  0.2892 -0.1694
 6295SOL    HW230345   1.848   3.890   2.065  1.0065  0.5846  1.3839
 6296SOL     OW30346   2.684   2.242  15.003 -0.0242  0.1749 -0.0600
 6296SOL    HW130347   2.655   2.156  14.971  0.5330  0.0713 -0.2836
 6296SOL    HW230348   2.770   2.260  14.966  0.4423  0.4217  1.1733
 6297SOL     OW30349   1.868   3.255  13.356  0.0012 -0.6830 -0.1084
 6297SOL    HW130350   1.870   3.346  13.327  0.8015  0.4708  3.4861
 6297SOL    HW230351   1.963   3.245  13.359  0.1027 -0.5032 -3.2252
 6298SOL     OW30352   0.325   2.874   8.534 -0.2897  0.2668  0.5975
 6298SOL    HW130353   0.418   2.887   8.550 -0.2664  1.3740 -0.3653
 6298SOL    HW230354   0.300   2.838   8.619  2.9740  0.2092  1.5326
 6299SOL     OW30355   3.859   4.683   3.626 -0.0882 -0.6182  0.0001
 6299SOL    HW130356   3.951   4.671   3.649 -0.2822 -1.8000  0.1614
 6299SOL    HW230357   3.846   4.591   3.602 -1.2748 -0.5019  0.2029
 6300SOL     OW30358   3.363   2.671   7.676  0.1922 -0.1775 -0.2390
 6300SOL    HW130359   3.388   2.678   7.584  0.2469  1.4768 -0.0964
 6300SOL    HW230360   3.443   2.706   7.714  0.9773 -0.8741 -1.2105
 6301SOL     OW30361   3.886   3.103  12.736  0.3157 -0.3249 -0.4461
 6301SOL    HW130362   3.902   3.035  12.801  0.6159  0.2033  0.0323
 6301SOL    HW230363   3.976   3.135  12.733  0.4793 -0.5948  1.2467
 6302SOL     OW30364   4.263   0.418  11.313 -0.6414 -0.6455  0.1260
 6302SOL    HW130365   4.184   0.452  11.271 -0.0984 -0.7233 -0.9620
 6302SOL    HW230366   4.285   0.346  11.253 -0.3189 -1.9864  1.8576
 6303SOL     OW30367   0.044   4.193  12.154  0.2613  0.1080 -0.0131
 6303SOL    HW130368   0.042   4.118  12.214 -0.4359 -0.5341 -0.8385
 6303SOL    HW230369   4.690   4.180  12.103 -0.7017  0.9732  1.2805
 6304SOL     OW30370   2.504   2.409   5.409 -0.2573  0.3075  0.2139
 6304SOL    HW130371   2.477   2.337   5.466 -1.5469 -0.0226 -0.8217
 6304SOL    HW230372   2.497   2.366   5.324  1.6312  1.6338 -0.6369
 6305SOL     OW30373   4.438   4.151  10.249  0.1883 -0.1892 -0.1809
 6305SOL    HW130374   4.406   4.062  10.262  0.5445 -0.6578 -2.4772
 6305SOL    HW230375   4.523   4.139  10.290 -0.2468 -0.9905  0.4811
 6306SOL     OW30376   3.465   0.392   0.421 -0.7155 -0.2171 -0.3319
 6306SOL    HW130377   3.451   0.480   0.386  0.1453 -0.5624 -1.5171
 6306SOL    HW230378   3.457   0.424   0.511  0.1590  1.9071 -1.0159
 6307SOL     OW30379   2.922   3.007  11.725 -0.2151  0.1008 -0.3654
 6307SOL    HW130380   2.832   2.979  11.744  0.3640 -1.6194 -0.1566
 6307SOL    HW230381   2.913   3.102  11.724  0.2222  0.1819  3.2265
 6308SOL     OW30382   4.042   3.783  12.367 -0.1860 -0.0292 -0.0214
 6308SOL    HW130383   4.112   3.724  12.339  1.6678  1.9067  0.5695
 6308SOL    HW230384   4.035   3.835  12.286 -1.0907  1.0486  0.7444
 6309SOL     OW30385   0.404   4.707   8.893 -0.0975 -0.4116  0.0439
 6309SOL    HW130386   0.380   0.057   8.839 -0.4726 -0.3679  0.2666
 6309SOL    HW230387   0.499   4.718   8.896 -0.1622 -0.1925  1.0529
 6310SOL     OW30388   0.201   3.668   9.876  0.7108 -0.2607  0.2753
 6310SOL    HW130389   0.130   3.608   9.901 -0.5498  1.4536  0.7935
 6310SOL    HW230390   0.224   3.715   9.956  1.1577 -0.5329  0.3052
 6311SOL     OW30391   4.178   4.364   6.229 -0.7742 -0.2402  0.1224
 6311SOL    HW130392   4.084   4.354   6.209 -0.2433  0.0239 -2.5956
 6311SOL    HW230393   4.199   4.449   6.190  0.8180 -0.0086  1.5149
 6312SOL     OW30394   1.111   3.104   0.324 -0.0215 -0.0964  0.0687
 6312SOL    HW130395   1.120   3.181   0.381  0.6366  0.1085 -0.3258
 6312SOL    HW230396   1.031   3.126   0.276  1.3156  1.1864 -1.5836
 6313SOL     OW30397   3.421   1.470  16.695 -0.7385 -0.0135 -0.5082
 6313SOL    HW130398   3.367   1.396  16.668 -0.3732 -0.0077 -1.2429
 6313SOL    HW230399   3.406   1.533  16.625 -0.1447 -0.8035 -1.3305
 6314SOL     OW30400   4.104   0.532   3.151  0.0008 -0.1437  0.1512
 6314SOL    HW130401   4.095   0.627   3.161 -0.7154  0.0013 -1.9099
 6314SOL    HW230402   4.093   0.503   3.242 -2.1778 -1.2500 -0.4617
 6315SOL     OW30403   3.910   2.736   2.717 -0.4868  0.5427 -0.5121
 6315SOL    HW130404   3.831   2.789   2.709  1.3491  3.1471 -1.5234
 6315SOL    HW230405   3.930   2.704   2.629  0.8856 -0.2904  0.0936
 6316SOL     OW30406   3.300   4.333   2.178  0.6897 -0.1947  0.3218
 6316SOL    HW130407   3.371   4.304   2.235  0.8773 -3.9787 -1.8548
 6316SOL    HW230408   3.262   4.407   2.224  1.8310 -0.1031  1.1158
 6317SOL     OW30409   4.419   0.372  13.751 -0.2591  0.2397  0.7835
 6317SOL    HW130410   4.353   0.418  13.805  1.3247  1.5709  1.5900
 6317SOL    HW230411   4.433   0.289  13.795 -1.5480 -0.2276  0.3057
 6318SOL     OW30412   0.244   1.210   4.554  0.3732 -0.3061 -0.0898
 6318SOL    HW130413   0.222   1.296   4.518 -1.9230  0.0119  2.0483
 6318SOL    HW230414   0.157   1.169   4.550 -0.1613  0.5995  2.5228
 6319SOL     OW30415   2.091   4.489   9.095  0.6232 -0.3735  0.2699
 6319SOL    HW130416   2.134   4.406   9.072  1.3787 -0.2728  1.3304
 6319SOL    HW230417   2.007   4.451   9.124  0.2512 -0.8321 -1.4213
 6320SOL     OW30418   0.874   1.769   6.255  0.0689 -0.2606  0.3939
 6320SOL    HW130419   0.803   1.771   6.190  1.8469 -0.8475 -1.5868
 6320SOL    HW230420   0.949   1.728   6.211 -0.2276  0.4587 -0.7933
 6321SOL     OW30421   1.967   1.756   6.918  0.1711 -0.4773 -0.0228
 6321SOL    HW130422   1.873   1.764   6.934  0.6761  0.6720  2.4373
 6321SOL    HW230423   1.963   1.733   6.826  0.9898  1.6107 -0.5807
 6322SOL     OW30424   2.380   2.837   8.033 -0.4960 -0.4906  0.0973
 6322SOL    HW130425   2.318   2.854   7.962 -0.0348 -2.3248 -0.7538
 6322SOL    HW230426   2.356   2.747   8.054 -0.2026 -1.4364 -3.5979
 6323SOL     OW30427   1.508   2.462   8.929 -0.2257 -0.0042 -0.3049
 6323SOL    HW130428   1.414   2.474   8.914 -0.7640 -1.1390  2.1770
 6323SOL    HW230429   1.530   2.509   9.009 -1.7067 -1.0280  0.7123
 6324SOL     OW30430   2.243   1.867  15.641  0.3131  0.3757 -0.5240
 6324SOL    HW130431   2.289   1.946  15.671  0.9741 -0.6150  1.0353
 6324SOL    HW230432   2.265   1.804  15.709  1.3311 -1.1528 -2.2503
 6325SOL     OW30433   2.439   3.101   7.859  0.1781 -0.2078 -0.0827
 6325SOL    HW130434   2.432   3.119   7.953  2.1468 -1.4750  0.3089
 6325SOL    HW230435   2.419   3.189   7.826  1.0600 -0.0439 -0.1908
 6326SOL     OW30436   0.440   1.459  10.695  0.1392 -0.3302 -0.1498
 6326SOL    HW130437   0.363   1.405  10.712  2.0447 -2.3159  2.3321
 6326SOL    HW230438   0.403   1.544  10.718  0.5540  0.8190 -3.8013
 6327SOL     OW30439   1.276   4.647  15.158 -0.4913 -0.3637 -0.1052
 6327SOL    HW130440   1.234   4.711  15.100  3.4607  0.5666 -1.9553
 6327SOL    HW230441   1.361   4.639  15.115 -0.6728 -0.0084 -0.5334
 6328SOL     OW30442   2.603   0.979  17.293  0.1125 -0.0304  0.1934
 6328SOL    HW130443   2.689   0.938  17.308 -0.3273 -1.2757 -0.7874
 6328SOL    HW230444   2.546   0.904  17.280  2.1276 -1.1888 -1.8897
 6329SOL     OW30445   2.867   4.263   5.375  0.0325 -0.2216  0.2175
 6329SOL    HW130446   2.815   4.192   5.337  1.5455 -0.0322 -2.2122
 6329SOL    HW230447   2.838   4.263   5.466 -0.7681 -1.1062 -0.0413
 6330SOL     OW30448   3.370   2.499   8.249  0.1717 -0.2919  0.0988
 6330SOL    HW130449   3.336   2.445   8.320 -2.2176  0.7165 -0.2590
 6330SOL    HW230450   3.294   2.533   8.201  0.9516  0.2487 -0.7650
 6331SOL     OW30451   1.242   2.357   2.802  0.1291  0.0519  0.0857
 6331SOL    HW130452   1.194   2.329   2.724 -0.2098  1.7976 -0.3171
 6331SOL    HW230453   1.194   2.427   2.846 -0.3011  0.3900 -0.9375
 6332SOL     OW30454   2.680   3.791   7.722 -0.1888  0.4383 -0.3514
 6332SOL    HW130455   2.659   3.740   7.644 -1.2985  2.0377 -1.1120
 6332SOL    HW230456   2.754   3.850   7.707  0.8918 -1.2239 -1.6304
 6333SOL     OW30457   3.873   0.602  11.059 -0.6632  0.3537 -0.2211
 6333SOL    HW130458   3.843   0.578  10.971  3.0245 -1.7387 -0.9362
 6333SOL    HW230459   3.876   0.697  11.055  0.5141  0.3566  0.8031
 6334SOL     OW30460   0.181   4.172   4.666 -0.3340  0.2609 -0.4319
 6334SOL    HW130461   0.116   4.240   4.645  0.6385  1.4573  0.3812
 6334SOL    HW230462   0.222   4.154   4.582  0.7228  0.2498  0.0912
 6335SOL     OW30463   0.237   2.268  17.098 -0.5135 -0.4513  0.0041
 6335SOL    HW130464   0.231   2.363  17.088 -0.0725 -0.4566 -0.3073
 6335SOL    HW230465   0.204   2.256  17.009  2.3703 -0.6167 -1.0401
 6336SOL     OW30466   2.226   1.861   7.806  0.0755  0.3753 -0.2818
 6336SOL    HW130467   2.216   1.797   7.877  0.5515 -1.6686 -2.0608
 6336SOL    HW230468   2.155   1.922   7.829  0.2459  0.0743  1.0823
 6337SOL     OW30469   0.132   3.359   8.404  0.0748  0.0994  0.6890
 6337SOL    HW130470   0.209   3.310   8.431 -1.0270 -1.3401  1.2285
 6337SOL    HW230471   0.063   3.293   8.396 -0.8613  0.9079  2.1001
 6338SOL     OW30472   2.699   1.853   4.478  0.1590 -0.0177 -0.3678
 6338SOL    HW130473   2.704   1.857   4.383  2.0122 -0.7092 -0.2978
 6338SOL    HW230474   2.789   1.879   4.496 -0.3793  1.5286  0.1187
 6339SOL     OW30475   1.497   0.615   8.698 -0.5583 -0.0570 -0.0336
 6339SOL    HW130476   1.472   0.570   8.617 -0.5882 -0.1049  0.0021
 6339SOL    HW230477   1.559   0.677   8.659 -1.0507  1.1035  1.0300
 6340SOL     OW30478   1.633   0.772   9.357  0.3607 -0.6516  0.5644
 6340SOL    HW130479   1.675   0.856   9.373  2.1763 -1.6816  1.1665
 6340SOL    HW230480   1.675   0.714   9.421  2.3988  1.0815  0.7872
 6341SOL     OW30481   4.538   0.184  13.525  0.0909  0.3128  0.3425
 6341SOL    HW130482   4.517   0.256  13.584 -2.5881  0.6392 -1.0393
 6341SOL    HW230483   4.532   0.219  13.436 -1.4194 -0.3473  0.1825
 6342SOL     OW30484   3.170   3.107   7.946  0.1869  0.4266 -0.1633
 6342SOL    HW130485   3.136   3.151   7.868 -1.5666  0.3762  0.5663
 6342SOL    HW230486   3.108   3.035   7.960  0.0773  0.4030 -0.7713
 6343SOL     OW30487   4.464   3.503   4.745  0.0736  0.3193 -0.9202
 6343SOL    HW130488   4.495   3.566   4.680  2.7366 -1.2122 -1.1242
 6343SOL    HW230489   4.516   3.425   4.723  1.2002  0.6237  0.6892
 6344SOL     OW30490   4.431   2.379   2.718 -0.0695  0.2320  0.2737
 6344SOL    HW130491   4.403   2.470   2.712 -0.2393  0.1082 -0.8156
 6344SOL    HW230492   4.444   2.362   2.624 -1.9868  1.2337 -0.1778
 6345SOL     OW30493   0.444   1.875  12.466 -0.4167  0.2561 -0.3968
 6345SOL    HW130494   0.417   1.941  12.402  0.2621 -0.5181 -1.4957
 6345SOL    HW230495   0.404   1.885  12.552 -0.8033  0.8473 -0.6466
 6346SOL     OW30496   0.708   1.700   8.560  0.0631  0.1490 -0.1864
 6346SOL    HW130497   0.706   1.695   8.464 -1.2902  0.3361 -0.1616
 6346SOL    HW230498   0.767   1.628   8.584 -0.7448 -0.2754  0.5069
 6347SOL     OW30499   1.317   2.527   5.484  0.3225  0.5102  0.0830
 6347SOL    HW130500   1.258   2.451   5.490 -0.5517  1.0641 -1.6536
 6347SOL    HW230501   1.330   2.542   5.390 -1.4550  2.5500  0.1727
 6348SOL     OW30502   0.439   0.166  13.001  0.1881 -0.2539 -0.2165
 6348SOL    HW130503   0.372   0.228  12.972  0.3622  0.1956  0.3408
 6348SOL    HW230504   0.517   0.222  13.009  1.8054 -2.4738 -0.2658
 6349SOL     OW30505   2.317   2.033   6.071  0.1061  0.3603  0.2181
 6349SOL    HW130506   2.349   2.101   6.013 -0.3585  0.7179  0.3839
 6349SOL    HW230507   2.229   2.063   6.095 -0.8974 -2.7088  0.4226
 6350SOL     OW30508   0.350   2.762  12.157 -0.2869  0.4565  0.6414
 6350SOL    HW130509   0.264   2.792  12.187 -0.5410 -1.2872  1.6449
 6350SOL    HW230510   0.358   2.822  12.083 -0.0221  1.1339  1.2263
 6351SOL     OW30511   1.250   1.116  16.317  0.2992  0.1734  0.6160
 6351SOL    HW130512   1.343   1.127  16.296 -0.1442 -1.3584 -2.2866
 6351SOL    HW230513   1.223   1.207  16.311  0.9780  0.1830 -2.6079
 6352SOL     OW30514   2.598   1.938  12.452 -0.1143  0.3527 -0.1109
 6352SOL    HW130515   2.608   1.915  12.545  1.5271  0.1175 -0.3581
 6352SOL    HW230516   2.601   2.033  12.463 -2.3608  0.6019 -1.5306
 6353SOL     OW30517   3.500   3.437   6.927 -0.0841 -0.2806 -0.0975
 6353SOL    HW130518   3.504   3.371   6.996  2.6492 -1.1377 -1.0788
 6353SOL    HW230519   3.585   3.427   6.884 -0.6839 -2.2473 -0.7983
 6354SOL     OW30520   2.469   4.096   4.280 -0.2421 -0.9653  0.6009
 6354SOL    HW130521   2.466   4.009   4.320 -0.3463 -0.7479  1.0730
 6354SOL    HW230522   2.402   4.094   4.212 -0.2993  0.1246  0.6277
 6355SOL     OW30523   0.657   4.091   3.889  0.1478 -0.1707 -0.3554
 6355SOL    HW130524   0.742   4.097   3.932 -0.0604 -0.4952  0.1032
 6355SOL    HW230525   0.625   4.180   3.902  2.2476  0.9196 -2.6321
 6356SOL     OW30526   2.502   1.444   5.488 -0.0209 -0.2472 -0.1307
 6356SOL    HW130527   2.411   1.419   5.501  0.0190 -0.9232 -1.0653
 6356SOL    HW230528   2.512   1.437   5.393  0.2230  0.6608 -0.1685
 6357SOL     OW30529   0.625   2.897   7.379  0.1521  0.4524  0.3449
 6357SOL    HW130530   0.688   2.955   7.336  0.0603  0.3170  0.0223
 6357SOL    HW230531   0.676   2.852   7.447  0.8212  0.7094  0.0186
 6358SOL     OW30532   2.308   2.080   4.558 -0.2685 -0.7067  0.1364
 6358SOL    HW130533   2.378   2.098   4.496  0.0416  0.8158  0.9289
 6358SOL    HW230534   2.333   1.998   4.601 -0.5253 -0.3946  0.8860
 6359SOL     OW30535   0.520   2.273   7.459 -0.1772 -0.6995 -0.3443
 6359SOL    HW130536   0.483   2.213   7.523 -1.2614  0.3273  0.0098
 6359SOL    HW230537   0.510   2.351   7.514  1.5757 -1.7643  1.4561
 6360SOL     OW30538   0.777   4.547  17.398 -0.1372  0.8322 -0.0293
 6360SOL    HW130539   0.736   4.614  17.452 -1.6651 -0.9789  1.0755
 6360SOL    HW230540   0.702   4.525  17.342 -1.0349  1.0981  1.0759
 6361SOL     OW30541   3.818   3.054   8.799  0.0912 -0.7086  0.7373
 6361SOL    HW130542   3.758   3.002   8.852  0.7439 -0.8448  1.3493
 6361SOL    HW230543   3.904   3.016   8.818 -1.0482 -2.8089  1.5955
 6362SOL     OW30544   4.345   0.402   8.892  0.0732  0.4336  0.3173
 6362SOL    HW130545   4.320   0.338   8.825 -2.5151  3.2370 -1.4278
 6362SOL    HW230546   4.260   0.409   8.935  0.4881  1.7365  0.9186
 6363SOL     OW30547   4.095   2.195   4.559 -0.2719 -0.1947  0.0878
 6363SOL    HW130548   4.106   2.154   4.645  0.0840  5.9745  2.9903
 6363SOL    HW230549   4.107   2.115   4.508  0.7599 -0.8749  1.4143
 6364SOL     OW30550   3.680   1.253   8.123  0.2578  0.1472  0.0922
 6364SOL    HW130551   3.712   1.229   8.036 -0.5009  0.4472 -0.2696
 6364SOL    HW230552   3.739   1.206   8.182  1.8289  0.9269 -0.8557
 6365SOL     OW30553   2.640   2.347   7.909 -0.3008  0.4615  0.1866
 6365SOL    HW130554   2.593   2.334   7.991 -1.2974  0.5572 -0.3666
 6365SOL    HW230555   2.676   2.259   7.901  0.1700  0.6464  0.2370
 6366SOL     OW30556   1.492   0.300   8.928 -0.2962 -0.4442 -0.0654
 6366SOL    HW130557   1.500   0.245   8.850  0.1468  0.2656 -0.5188
 6366SOL    HW230558   1.538   0.254   8.998 -1.6117  0.0639  1.1369
 6367SOL     OW30559   0.845   1.472  13.161 -0.5517 -0.2799 -0.2507
 6367SOL    HW130560   0.799   1.457  13.244 -1.3059 -0.2678 -0.6670
 6367SOL    HW230561   0.856   1.567  13.167 -3.2565 -0.1421  2.4078
 6368SOL     OW30562   4.391   4.465   8.673  0.4818 -0.1727  0.0747
 6368SOL    HW130563   4.394   4.483   8.767 -0.7324  1.3173 -0.1647
 6368SOL    HW230564   4.299   4.441   8.667  0.5633 -0.6748  0.9397
 6369SOL     OW30565   4.088   0.318   8.973  0.3800 -0.2592  0.2050
 6369SOL    HW130566   4.013   0.366   9.008  0.7742 -0.3139  1.1236
 6369SOL    HW230567   4.053   0.231   8.949  0.1629  0.5647 -2.5281
 6370SOL     OW30568   0.299   3.934   6.900  0.3433 -1.0323 -0.2325
 6370SOL    HW130569   0.352   3.976   6.832 -0.1053 -0.9773 -0.5463
 6370SOL    HW230570   0.225   3.902   6.850 -0.8360  1.4389 -0.0459
 6371SOL     OW30571   0.580   3.966  17.194  0.2554 -0.4344 -0.0908
 6371SOL    HW130572   0.510   3.986  17.256 -0.3556 -0.6713 -0.7146
 6371SOL    HW230573   0.531   3.949  17.114 -1.1456 -1.2697  0.9413
 6372SOL     OW30574   1.820   4.039   3.409 -0.0371  0.5976  0.4004
 6372SOL    HW130575   1.878   4.111   3.385 -0.0988  1.7716  3.8388
 6372SOL    HW230576   1.743   4.083   3.372  0.2757  1.0945  0.3572
 6373SOL     OW30577   0.227   4.116   9.738  0.4026 -0.3790 -0.5390
 6373SOL    HW130578   0.156   4.109   9.801 -1.1642  0.1849 -2.2192
 6373SOL    HW230579   0.270   4.031   9.748  0.9120  0.1672  1.8726
 6374SOL     OW30580   0.016   0.281   4.124  0.5089  0.4459  0.3218
 6374SOL    HW130581   4.720   0.310   4.213 -2.6568  0.7075 -0.5112
 6374SOL    HW230582   4.662   0.316   4.083  0.2046 -0.9418 -0.2432
 6375SOL     OW30583   3.566   2.117  12.231 -0.1545 -0.0942 -0.3107
 6375SOL    HW130584   3.548   2.210  12.219 -3.4151 -0.5659  0.9518
 6375SOL    HW230585   3.585   2.116  12.325 -0.5940  0.9408 -0.2149
 6376SOL     OW30586   0.563   2.259   8.479  0.0632 -0.1654 -0.0666
 6376SOL    HW130587   0.606   2.292   8.557  1.1919 -2.9940  0.4933
 6376SOL    HW230588   0.512   2.339   8.468  0.7155  0.1792 -0.5766
 6377SOL     OW30589   1.276   3.656   0.639 -0.7280  0.3356  0.1921
 6377SOL    HW130590   1.224   3.709   0.698 -3.1277 -1.4550 -0.3256
 6377SOL    HW230591   1.327   3.591   0.688  0.4677 -1.6886 -3.6759
 6378SOL     OW30592   4.231   1.110   5.756  0.4139 -0.0984 -0.4108
 6378SOL    HW130593   4.291   1.038   5.738  0.8028  0.4852 -1.4379
 6378SOL    HW230594   4.264   1.133   5.843  0.6250 -0.5012 -0.3858
 6379SOL     OW30595   4.190   3.550  10.237  0.2679 -0.2581 -0.0760
 6379SOL    HW130596   4.100   3.556  10.205 -0.6764 -2.1091  2.2796
 6379SOL    HW230597   4.198   3.631  10.287  2.2828 -0.6607  0.2687
 6380SOL     OW30598   2.360   0.541   0.924 -0.0203  0.0551  0.0369
 6380SOL    HW130599   2.282   0.507   0.968  0.6432  0.0331  1.2015
 6380SOL    HW230600   2.409   0.578   0.999 -0.7357 -2.3321  1.6669
 6381SOL     OW30601   1.841   1.465   4.208 -0.0301 -0.2328  0.0206
 6381SOL    HW130602   1.880   1.380   4.228 -3.2304 -2.0009 -1.1589
 6381SOL    HW230603   1.878   1.519   4.277 -3.3707  1.3097  0.6305
 6382SOL     OW30604   4.203   2.340   7.048  0.5631 -0.8059  0.1837
 6382SOL    HW130605   4.191   2.245   7.049  1.6264 -0.9431  0.5660
 6382SOL    HW230606   4.197   2.350   6.954 -0.6770 -2.3045  0.0916
 6383SOL     OW30607   2.626   2.577  16.922  0.3403 -0.1097 -0.1691
 6383SOL    HW130608   2.612   2.492  16.964 -1.8563  0.9924  1.3473
 6383SOL    HW230609   2.544   2.623  16.936 -0.1523 -0.7488 -0.9967
 6384SOL     OW30610   1.077   2.885   8.666  0.0453 -0.1070 -0.0245
 6384SOL    HW130611   1.053   2.859   8.577  2.0054 -0.9549 -0.3163
 6384SOL    HW230612   1.064   2.807   8.719  0.3774  0.1701  0.4649
 6385SOL     OW30613   2.111   4.382   6.548  0.1518 -0.1610 -0.0117
 6385SOL    HW130614   2.183   4.445   6.539  1.5152 -1.9024 -1.1112
 6385SOL    HW230615   2.134   4.318   6.481  1.2556  0.2291 -0.0064
 6386SOL     OW30616   2.888   1.443  12.714  0.1750 -0.5754 -0.2796
 6386SOL    HW130617   2.966   1.403  12.675  2.2933  3.3996 -0.1436
 6386SOL    HW230618   2.818   1.401  12.663  0.3275 -1.3191  0.1218
 6387SOL     OW30619   2.107   2.869   1.648  0.4146  0.4356 -0.3442
 6387SOL    HW130620   2.035   2.819   1.610 -1.2025  0.9351  2.0291
 6387SOL    HW230621   2.096   2.869   1.744 -0.6917  2.9386 -0.4542
 6388SOL     OW30622   3.735   2.907   9.069  0.5194  0.1139 -0.0234
 6388SOL    HW130623   3.648   2.899   9.029 -0.4389  1.8103  1.6870
 6388SOL    HW230624   3.737   2.834   9.131  1.5565  0.1817  0.0200
 6389SOL     OW30625   0.943   4.063   4.760  0.3283 -0.1425 -0.6863
 6389SOL    HW130626   0.961   3.992   4.822 -0.7561 -0.3702 -0.6361
 6389SOL    HW230627   0.932   4.004   4.686  0.2332 -0.4574 -0.4197
 6390SOL     OW30628   1.730   4.091  11.546  0.1011  0.1960 -0.2319
 6390SOL    HW130629   1.738   4.006  11.591  1.6023 -0.1718 -1.2064
 6390SOL    HW230630   1.711   4.153  11.616  0.8280 -0.6536  0.7134
 6391SOL     OW30631   1.371   1.690   3.396  0.2241  0.1693 -0.4853
 6391SOL    HW130632   1.339   1.780   3.402 -1.8077 -0.6012  0.4449
 6391SOL    HW230633   1.374   1.647   3.482  0.9224 -1.0307 -1.1026
 6392SOL     OW30634   4.277   1.318   2.999  0.2212  0.3392 -0.0497
 6392SOL    HW130635   4.270   1.248   3.064  0.5922 -0.5457 -0.9612
 6392SOL    HW230636   4.213   1.381   3.030  0.3199  0.5397 -0.2571
 6393SOL     OW30637   1.441   1.319   8.615  0.3710  0.2645  0.0348
 6393SOL    HW130638   1.462   1.406   8.580 -0.0707 -0.1539 -1.2522
 6393SOL    HW230639   1.411   1.341   8.704  0.4387 -0.1728  0.1649
 6394SOL     OW30640   4.449   1.408  16.556  0.1612  0.5804  0.5130
 6394SOL    HW130641   4.490   1.478  16.506  0.8010  0.5632  1.0127
 6394SOL    HW230642   4.371   1.458  16.581 -0.0468  1.1458 -1.2737
 6395SOL     OW30643   3.269   0.785   6.958  0.1407 -0.3830 -0.4897
 6395SOL    HW130644   3.332   0.856   6.966 -0.1061 -0.2138 -0.1022
 6395SOL    HW230645   3.328   0.722   6.915 -1.0589 -0.0131 -2.6540
 6396SOL     OW30646   3.095   4.011   6.136 -0.1306 -0.0397  0.1994
 6396SOL    HW130647   3.020   4.058   6.101 -0.2965  0.6502  1.4586
 6396SOL    HW230648   3.044   3.973   6.208 -1.4393 -2.8163 -2.2134
 6397SOL     OW30649   1.771   1.721   8.565  0.3953  0.0800 -0.0155
 6397SOL    HW130650   1.679   1.715   8.592  0.0033  0.1413 -1.3186
 6397SOL    HW230651   1.803   1.777   8.635  1.8944 -0.3069 -0.4029
 6398SOL     OW30652   2.883   3.858   2.839  0.1943 -0.8409 -0.5792
 6398SOL    HW130653   2.957   3.801   2.820 -0.7178 -2.4481  0.6495
 6398SOL    HW230654   2.804   3.805   2.839  0.2792 -0.9641 -0.2974
 6399SOL     OW30655   0.060   2.545   6.054 -0.0057 -0.0563  0.2633
 6399SOL    HW130656   0.150   2.513   6.049 -0.7376 -2.2043  0.8149
 6399SOL    HW230657   0.031   2.518   6.141 -2.7300 -0.6366 -0.7940
 6400SOL     OW30658   2.757   0.090   8.394  0.0268 -0.3672  0.5190
 6400SOL    HW130659   2.715   0.005   8.402  0.9112 -0.8802 -0.2100
 6400SOL    HW230660   2.696   0.147   8.442  1.3372  1.9583 -0.5584
 6401SOL     OW30661   0.426   4.691  10.864  0.6079 -0.4367 -0.0316
 6401SOL    HW130662   0.426   0.044  10.918 -0.8739 -0.0347 -0.6299
 6401SOL    HW230663   0.466   4.632  10.928 -0.9888  1.5627  2.8499
 6402SOL     OW30664   0.371   3.158   6.617 -0.2156 -0.4320  0.0208
 6402SOL    HW130665   0.315   3.201   6.682  0.9950  0.4747  0.4526
 6402SOL    HW230666   0.303   3.135   6.553  0.0993 -0.3615 -0.3411
 6403SOL     OW30667   1.206   4.374   1.081 -0.2413  0.1298  0.0442
 6403SOL    HW130668   1.171   4.300   1.030 -3.5524  1.4041  0.4141
 6403SOL    HW230669   1.299   4.359   1.068 -0.2561  0.2858 -0.2398
 6404SOL     OW30670   4.344   3.783   8.673 -0.3092  0.0645  0.2659
 6404SOL    HW130671   4.368   3.865   8.630 -1.0256  1.0349  1.7219
 6404SOL    HW230672   4.252   3.766   8.652 -0.4093 -1.1099  1.6561
 6405SOL     OW30673   4.621   3.382   7.990  0.0569  0.2223 -0.4217
 6405SOL    HW130674   4.712   3.382   7.960  0.6040  2.1254  1.2308
 6405SOL    HW230675   4.595   3.472   7.971 -1.6972  0.2754  2.3943
 6406SOL     OW30676   0.511   1.837   8.896 -0.4460 -0.1386  0.2991
 6406SOL    HW130677   0.592   1.786   8.890 -0.9044 -0.9661  1.0344
 6406SOL    HW230678   0.452   1.773   8.856 -0.1404  0.5217 -1.2472
 6407SOL     OW30679   0.276   3.229  11.289 -0.1948  0.2736 -0.0044
 6407SOL    HW130680   0.320   3.251  11.206 -0.5639  0.1045 -0.2438
 6407SOL    HW230681   0.343   3.235  11.358  0.0102 -1.5763 -0.0282
 6408SOL     OW30682   4.211   1.777   5.091  0.5336 -1.0907  0.4623
 6408SOL    HW130683   4.126   1.801   5.054  0.7312 -0.9450  0.1052
 6408SOL    HW230684   4.197   1.818   5.177 -1.0062 -0.7183  0.0359
 6409SOL     OW30685   2.621   0.840   2.901  0.4421 -0.5256  0.1807
 6409SOL    HW130686   2.582   0.807   2.821  1.3626 -1.4119  0.1037
 6409SOL    HW230687   2.654   0.924   2.869 -1.3804 -1.1226 -3.1848
 6410SOL     OW30688   3.495   3.672   8.633  0.5961 -0.2695  0.0144
 6410SOL    HW130689   3.493   3.768   8.633 -0.3788 -0.2833 -0.0518
 6410SOL    HW230690   3.493   3.652   8.539 -1.3218  3.1308 -0.7104
 6411SOL     OW30691   0.555   0.124   9.230  0.4083  0.2221 -0.3871
 6411SOL    HW130692   0.620   0.189   9.254  0.4348  0.4866 -1.1702
 6411SOL    HW230693   0.573   0.117   9.136 -1.7859  1.8906 -0.9272
 6412SOL     OW30694   0.193   0.257   8.263 -0.0383  0.3969 -0.0903
 6412SOL    HW130695   0.196   0.265   8.358 -0.8904 -4.2122  0.3196
 6412SOL    HW230696   0.165   0.167   8.248 -1.5775  0.7794  0.4509
 6413SOL     OW30697   4.093   0.412  15.672 -0.2590  0.6425  0.4601
 6413SOL    HW130698   4.009   0.459  15.670 -0.0519  1.0961  2.6569
 6413SOL    HW230699   4.143   0.481  15.716 -0.3665 -0.9431  3.0350
 6414SOL     OW30700   3.303   1.788   3.168  0.0772 -0.0827  0.2717
 6414SOL    HW130701   3.302   1.785   3.073 -0.3154  1.7825  0.2067
 6414SOL    HW230702   3.392   1.820   3.186 -0.2470  0.7401  0.4299
 6415SOL     OW30703   3.953   1.816  15.815  0.0618  1.1917 -0.0229
 6415SOL    HW130704   4.048   1.824  15.828  0.1716 -1.2577  0.6928
 6415SOL    HW230705   3.938   1.724  15.839 -0.5281  1.2179 -0.2836
 6416SOL     OW30706   0.558   1.558   2.845  0.4316 -0.5065 -0.1674
 6416SOL    HW130707   0.604   1.637   2.816 -0.3558 -0.6816 -1.8776
 6416SOL    HW230708   0.627   1.511   2.891 -0.0597 -1.8768 -0.8144
 6417SOL     OW30709   4.092   3.573   3.281 -0.7647  0.1682  0.1043
 6417SOL    HW130710   4.101   3.591   3.374 -1.6801  2.4387 -0.2381
 6417SOL    HW230711   4.005   3.607   3.262 -1.4154 -0.3414  2.2031
 6418SOL     OW30712   1.596   3.013   3.470 -0.2413  0.0164 -0.2998
 6418SOL    HW130713   1.678   2.982   3.508 -1.0290 -0.5521  0.9126
 6418SOL    HW230714   1.625   3.074   3.402 -2.5539  0.8774 -0.5259
 6419SOL     OW30715   4.676   1.894   4.699 -0.2555 -0.3883 -0.2633
 6419SOL    HW130716   4.599   1.905   4.754 -0.8021  1.6239 -1.4580
 6419SOL    HW230717   0.019   1.854   4.753 -0.9326 -0.9319  0.1824
 6420SOL     OW30718   0.009   1.224   8.648  0.7263  0.3933 -0.5991
 6420SOL    HW130719   0.059   1.286   8.596 -0.1152 -0.0655 -1.9341
 6420SOL    HW230720   4.670   1.198   8.582 -0.1567  1.1734 -0.0520
 6421SOL     OW30721   1.073   3.640   6.999  1.1441  0.1991  0.2631
 6421SOL    HW130722   1.073   3.713   6.936 -1.9841 -0.2509 -0.2229
 6421SOL    HW230723   1.166   3.626   7.017  0.3725 -1.6901  2.7329
 6422SOL     OW30724   0.846   3.688   8.302  0.1087 -0.2853 -0.2930
 6422SOL    HW130725   0.932   3.678   8.262  0.4659  1.6428 -0.0157
 6422SOL    HW230726   0.807   3.607   8.268 -0.1888 -0.2553 -0.0296
 6423SOL     OW30727   1.382   1.972   0.363  0.2077 -0.4673 -0.1279
 6423SOL    HW130728   1.358   1.932   0.280  1.7377 -2.2517  0.2917
 6423SOL    HW230729   1.303   1.949   0.412  0.5258  1.1946  1.1753
 6424SOL     OW30730   0.946   2.948   2.523  0.8308  0.6568 -0.6088
 6424SOL    HW130731   0.902   2.869   2.555  0.9587  1.0348  0.4894
 6424SOL    HW230732   0.874   2.997   2.484  0.4917 -0.1414 -0.9749
 6425SOL     OW30733   3.379   1.425  10.734  0.2569  0.0014 -0.3149
 6425SOL    HW130734   3.293   1.396  10.705 -0.0124 -0.4321  0.9323
 6425SOL    HW230735   3.365   1.508  10.780 -0.5261  0.8433 -2.0714
 6426SOL     OW30736   1.728   2.848   6.297 -0.2382 -0.4615 -0.0253
 6426SOL    HW130737   1.788   2.882   6.364  0.9344 -1.5398 -0.5216
 6426SOL    HW230738   1.734   2.919   6.233 -0.0945  0.8943  1.4674
 6427SOL     OW30739   3.758   1.722  10.187  0.3739 -0.5664 -0.6906
 6427SOL    HW130740   3.727   1.756  10.271 -3.0927 -0.4558 -2.0041
 6427SOL    HW230741   3.824   1.659  10.214  1.0615  0.0132 -0.9993
 6428SOL     OW30742   0.331   2.710  15.239  0.1271  0.1895  0.2123
 6428SOL    HW130743   0.253   2.702  15.295 -0.5477  2.1930 -0.4463
 6428SOL    HW230744   0.331   2.621  15.205 -1.0506  0.8506 -1.5129
 6429SOL     OW30745   4.622   2.790   3.915 -0.5675  0.5118 -0.2644
 6429SOL    HW130746   4.656   2.715   3.865 -2.4648 -1.3020  1.1790
 6429SOL    HW230747   4.686   2.850   3.876 -1.0842  0.0716 -1.8215
 6430SOL     OW30748   2.839   4.090  15.186 -0.8429  0.1313 -0.1086
 6430SOL    HW130749   2.890   4.130  15.115 -0.3798 -2.1976 -1.0984
 6430SOL    HW230750   2.892   4.010  15.190  2.0103  2.0664  0.7677
 6431SOL     OW30751   1.556   2.298   8.474  0.3506 -0.5202  0.2753
 6431SOL    HW130752   1.524   2.337   8.393 -2.0313 -2.0359  0.4817
 6431SOL    HW230753   1.559   2.371   8.535 -0.7187  1.1403 -1.6748
 6432SOL     OW30754   4.458   4.381   7.094 -0.3466  0.5149 -0.3779
 6432SOL    HW130755   4.389   4.385   7.160  1.6136  0.0733  1.7225
 6432SOL    HW230756   4.537   4.399   7.145 -0.0391  1.8070 -1.3116
 6433SOL     OW30757   0.922   2.793   6.651  0.1840 -0.4642 -0.4040
 6433SOL    HW130758   1.000   2.750   6.615  0.8727  0.8024 -0.4478
 6433SOL    HW230759   0.859   2.721   6.657 -2.0633  1.9195  4.3560
 6434SOL     OW30760   4.565   0.722   6.760 -0.1599 -0.4666 -0.7880
 6434SOL    HW130761   4.475   0.709   6.730 -0.1572 -1.7523 -0.2322
 6434SOL    HW230762   4.613   0.652   6.716 -1.8324 -2.5319  0.6950
 6435SOL     OW30763   4.301   0.591  10.979  0.2614 -0.6031  0.0825
 6435SOL    HW130764   4.325   0.651  11.049 -0.8819  0.0208 -0.0666
 6435SOL    HW230765   4.228   0.548  11.024 -1.1731  0.6261 -1.0776
 6436SOL     OW30766   1.513   2.080   8.648  0.1717 -0.2555 -0.1367
 6436SOL    HW130767   1.520   2.152   8.586 -0.9159 -1.9130 -2.1781
 6436SOL    HW230768   1.600   2.069   8.685  0.9651 -2.4390 -2.6332
 6437SOL     OW30769   3.850   0.333   7.037  0.0656 -0.2113  0.3489
 6437SOL    HW130770   3.939   0.300   7.030 -0.2496 -0.4730 -2.5325
 6437SOL    HW230771   3.869   0.416   7.082  0.7093 -0.4443  0.4993
 6438SOL     OW30772   4.331   1.223  15.475 -0.0567 -0.4753  0.1009
 6438SOL    HW130773   4.354   1.282  15.403 -3.3589  0.3213 -0.2835
 6438SOL    HW230774   4.389   1.262  15.541  0.0772 -0.6581  0.0895
 6439SOL     OW30775   3.262   0.268  11.953 -0.0165 -0.2342  0.1764
 6439SOL    HW130776   3.272   0.338  12.017  2.2420 -0.3377 -0.0704
 6439SOL    HW230777   3.301   0.308  11.875  0.0834 -0.1444  0.2734
 6440SOL     OW30778   4.433   4.167   4.126 -0.6074 -0.4624  0.0915
 6440SOL    HW130779   4.419   4.221   4.204 -1.7583 -2.3061  1.1831
 6440SOL    HW230780   4.528   4.184   4.129 -1.2027  2.5728  2.0714
 6441SOL     OW30781   0.894   0.043   4.057 -0.1048  0.3806 -0.2651
 6441SOL    HW130782   0.889   0.101   4.133  0.8284 -0.4911  0.4724
 6441SOL    HW230783   0.958   4.702   4.084  1.1333  1.9271  0.6123
 6442SOL     OW30784   4.159   0.558  11.812 -0.2874 -0.0499 -0.3917
 6442SOL    HW130785   4.195   0.618  11.878 -0.0387  1.0422 -1.5269
 6442SOL    HW230786   4.178   0.474  11.852 -1.3785 -1.7096 -3.3801
 6443SOL     OW30787   1.224   2.579   1.529 -0.5870 -0.5811  0.1733
 6443SOL    HW130788   1.212   2.516   1.458 -0.5332  0.7270 -0.9660
 6443SOL    HW230789   1.291   2.533   1.579 -1.5662 -3.3930 -1.0920
 6444SOL     OW30790   4.153   4.378   6.600 -0.1938  0.1324 -0.1642
 6444SOL    HW130791   4.101   4.328   6.537 -0.2926 -0.6179  0.5104
 6444SOL    HW230792   4.135   4.463   6.560  0.1782  0.2530 -0.0744
 6445SOL     OW30793   3.168   3.914   0.447  0.2832  0.0627 -0.0944
 6445SOL    HW130794   3.260   3.897   0.429  0.1367  0.6256 -1.3840
 6445SOL    HW230795   3.117   3.902   0.367 -0.7121  1.4427  0.3205
 6446SOL     OW30796   4.710   0.395   8.664  0.8467 -0.3397 -0.0006
 6446SOL    HW130797   4.692   0.461   8.732 -4.3555 -0.4933 -1.2494
 6446SOL    HW230798   0.037   0.436   8.596  0.2480  0.8739  0.2564
 6447SOL     OW30799   1.746   0.987  15.935 -0.6959 -0.0596 -0.2441
 6447SOL    HW130800   1.700   0.904  15.920 -1.3567 -0.1714  2.3033
 6447SOL    HW230801   1.741   1.030  15.850  1.3842 -0.9343 -0.8099
 6448SOL     OW30802   4.292   0.977   4.208 -0.0836 -0.1955  0.1989
 6448SOL    HW130803   4.237   0.986   4.131  0.5273  0.3614 -0.1719
 6448SOL    HW230804   4.368   0.991   4.151 -0.7572 -1.1240 -0.9292
 6449SOL     OW30805   0.531   2.831   0.707 -0.6825 -0.5886 -0.5413
 6449SOL    HW130806   0.516   2.743   0.741  1.0277 -1.9147 -3.2189
 6449SOL    HW230807   0.457   2.881   0.741 -0.3114  0.7130 -1.6348
 6450SOL     OW30808   0.830   4.437   2.469  0.6791  0.1331  0.4369
 6450SOL    HW130809   0.801   4.381   2.397  3.1413 -0.5307 -0.0445
 6450SOL    HW230810   0.765   4.507   2.458  0.7517 -0.0692 -1.3281
 6451SOL     OW30811   3.294   3.780   7.736  0.1946 -0.4535  0.0506
 6451SOL    HW130812   3.384   3.748   7.726  0.5384  0.8843 -1.2500
 6451SOL    HW230813   3.265   3.762   7.647  0.8600 -0.2156 -0.2135
 6452SOL     OW30814   3.854   2.551   9.950  0.0055  0.4111  0.3985
 6452SOL    HW130815   3.871   2.548   9.856 -0.1603 -0.3222  0.3868
 6452SOL    HW230816   3.904   2.472   9.971 -0.6562 -0.2912 -0.6202
 6453SOL     OW30817   4.062   1.865  12.440  0.3495 -0.7371  0.1753
 6453SOL    HW130818   3.986   1.905  12.399  0.6613  2.2705  2.5729
 6453SOL    HW230819   4.086   1.938  12.496 -2.2221 -0.3581  0.7572
 6454SOL     OW30820   0.900   1.270   2.400  0.1726 -0.1425 -0.2117
 6454SOL    HW130821   0.816   1.228   2.418  0.4718 -0.5245  0.2924
 6454SOL    HW230822   0.959   1.233   2.465 -0.3841 -1.0750 -0.2449
 6455SOL     OW30823   0.501   2.636  13.046 -0.7272  0.0439  0.2252
 6455SOL    HW130824   0.528   2.695  13.116  1.2784  0.7269 -1.1129
 6455SOL    HW230825   0.405   2.637  13.049 -0.7222  0.8386  0.1406
 6456SOL     OW30826   2.123   1.522  15.393  0.5603  0.7177 -0.0131
 6456SOL    HW130827   2.173   1.517  15.474 -0.3590  2.0302  0.6512
 6456SOL    HW230828   2.117   1.618  15.391 -0.6381  0.6437 -0.5689
 6457SOL     OW30829   1.181   2.220  14.183 -1.0167  0.1210  0.2609
 6457SOL    HW130830   1.139   2.260  14.259  0.7290 -0.4675  1.5538
 6457SOL    HW230831   1.244   2.157  14.218  0.1616 -0.1672 -2.3217
 6458SOL     OW30832   0.366   1.560   2.638  0.3451 -0.2826  0.4146
 6458SOL    HW130833   0.450   1.559   2.685  0.1503 -0.0188  0.7730
 6458SOL    HW230834   0.394   1.577   2.548 -0.6409  2.4993  0.6323
 6459SOL     OW30835   2.838   3.156   7.839  0.5699  0.2487 -0.0685
 6459SOL    HW130836   2.775   3.227   7.827  0.4475  0.1252 -0.1594
 6459SOL    HW230837   2.898   3.170   7.766 -0.2184  2.2467 -0.3433
 6460SOL     OW30838   2.548   1.341   8.810 -0.3064 -0.4437  0.3426
 6460SOL    HW130839   2.582   1.390   8.885  0.3102 -1.8764  1.0173
 6460SOL    HW230840   2.459   1.372   8.793  0.5544  1.7134 -0.2355
 6461SOL     OW30841   1.145   3.857   6.855  0.3420 -0.1743 -0.0516
 6461SOL    HW130842   1.158   3.871   6.761  0.7907 -0.7912 -0.0755
 6461SOL    HW230843   1.070   3.916   6.871 -0.0624 -0.3484 -1.3086
 6462SOL     OW30844   0.445   3.953   3.302  0.1307  0.2695 -0.0310
 6462SOL    HW130845   0.423   3.972   3.211  0.0181 -3.0471 -0.7128
 6462SOL    HW230846   0.536   3.923   3.298 -0.1509 -0.4532 -0.9255
 6463SOL     OW30847   3.051   3.494   7.696 -0.1172 -0.3157  0.0327
 6463SOL    HW130848   3.104   3.531   7.625  0.4079  1.6260  1.4428
 6463SOL    HW230849   2.965   3.512   7.658  0.5732  0.0197 -1.3913
 6464SOL     OW30850   0.869   1.117   3.150  0.2564 -0.0077 -0.4603
 6464SOL    HW130851   0.957   1.078   3.152  0.7095  1.0774  0.3398
 6464SOL    HW230852   0.869   1.162   3.065  1.7131  0.7241 -0.0786
 6465SOL     OW30853   3.279   3.176   0.169 -0.4067 -0.4960  0.1726
 6465SOL    HW130854   3.287   3.084   0.142 -1.0484  0.0774 -1.9942
 6465SOL    HW230855   3.300   3.169   0.262 -1.6556  0.4294  0.5216
 6466SOL     OW30856   3.826   0.889   4.206 -0.1289 -0.3389 -0.0515
 6466SOL    HW130857   3.869   0.806   4.185 -0.9096 -0.4456 -1.1836
 6466SOL    HW230858   3.873   0.898   4.289  1.5352  0.8981 -1.1302
 6467SOL     OW30859   2.348   1.034   6.943 -0.4676 -0.1920  0.7298
 6467SOL    HW130860   2.277   1.097   6.928  0.1924 -0.0401 -1.8807
 6467SOL    HW230861   2.342   1.020   7.037 -0.7813  1.1951  0.9169
 6468SOL     OW30862   4.213   1.995   5.309 -0.2031  0.1084 -0.1139
 6468SOL    HW130863   4.292   2.035   5.344 -0.6989  0.3738  0.7127
 6468SOL    HW230864   4.201   1.927   5.375  3.5089 -1.8238 -1.4313
 6469SOL     OW30865   2.910   1.738   5.485 -0.4971 -0.0376  0.4971
 6469SOL    HW130866   2.916   1.807   5.420  1.1273  0.8834  1.6398
 6469SOL    HW230867   2.870   1.674   5.426 -2.1650  0.8032  0.7314
 6470SOL     OW30868   3.641   1.658  12.369 -1.0386  0.0721 -0.1047
 6470SOL    HW130869   3.599   1.733  12.411 -0.0677  0.5017  0.0816
 6470SOL    HW230870   3.575   1.594  12.398 -0.9582  0.1471  0.2405
 6471SOL     OW30871   3.080   2.545  10.257 -0.4295  0.2512 -0.0772
 6471SOL    HW130872   3.163   2.512  10.290 -0.4490  0.6517  0.3733
 6471SOL    HW230873   3.108   2.630  10.223  3.5502 -0.4762  1.4692
 6472SOL     OW30874   4.484   3.930  13.277 -0.5109  0.5285  0.2188
 6472SOL    HW130875   4.420   3.933  13.206 -0.4970 -3.3805  0.0561
 6472SOL    HW230876   4.442   3.853  13.316 -1.5519  0.2996 -1.3194
 6473SOL     OW30877   1.478   2.995   8.120  0.9425 -0.7484 -0.1082
 6473SOL    HW130878   1.541   2.999   8.192 -0.1275  1.1284  0.7454
 6473SOL    HW230879   1.442   2.907   8.129  1.5527 -0.9410  0.4142
 6474SOL     OW30880   3.453   3.412  10.105  0.3300  0.2714 -0.9020
 6474SOL    HW130881   3.386   3.349  10.134 -0.0846  0.3540 -1.6733
 6474SOL    HW230882   3.417   3.441  10.021  1.8400 -0.0474 -1.6587
 6475SOL     OW30883   1.186   3.489   1.113  0.2230 -0.2806 -0.3179
 6475SOL    HW130884   1.208   3.552   1.181  0.2010  0.6787 -1.2105
 6475SOL    HW230885   1.264   3.510   1.061  0.3279 -0.5543 -0.2713
 6476SOL     OW30886   0.017   1.085  15.965  0.0405 -0.3232 -0.5287
 6476SOL    HW130887   4.662   1.054  16.006  1.6589 -1.9872  1.4214
 6476SOL    HW230888   4.712   1.143  15.896  3.0570  1.9446  0.0655
 6477SOL     OW30889   3.234   3.801   1.545  0.0760 -0.0248 -0.2304
 6477SOL    HW130890   3.285   3.744   1.488  1.5558 -0.7339  1.8133
 6477SOL    HW230891   3.165   3.825   1.483 -1.5515  1.3291  2.1084
 6478SOL     OW30892   2.013   1.834   1.964  0.2397 -0.4959 -0.3797
 6478SOL    HW130893   1.955   1.759   1.949  0.8459 -0.7099 -1.6406
 6478SOL    HW230894   2.031   1.859   1.873 -0.7316  2.2707  0.1763
 6479SOL     OW30895   1.532   3.889  10.764  0.3942 -0.5752  0.4821
 6479SOL    HW130896   1.569   3.971  10.798 -0.9544  1.9145 -4.0996
 6479SOL    HW230897   1.479   3.871  10.841 -1.4459 -1.6675 -1.0422
 6480SOL     OW30898   0.279   2.649  14.292 -0.0497 -0.6816 -0.1440
 6480SOL    HW130899   0.322   2.697  14.222 -0.2293 -0.8158 -0.3446
 6480SOL    HW230900   0.212   2.715  14.310  0.3675  0.3991 -2.5687
 6481SOL     OW30901   0.978   2.034   6.648 -0.0715 -0.5210 -0.2280
 6481SOL    HW130902   1.038   2.105   6.667 -1.2060  0.4039 -0.1190
 6481SOL    HW230903   1.010   2.007   6.562 -1.4023  0.6865 -1.0852
 6482SOL     OW30904   3.381   1.747  12.710  0.0724  0.1376 -0.3542
 6482SOL    HW130905   3.369   1.839  12.685 -0.8521  0.0550 -0.2102
 6482SOL    HW230906   3.290   1.717  12.712  0.5976 -1.3170  1.6873
 6483SOL     OW30907   2.142   4.377   5.138  0.2283 -0.4039  0.0335
 6483SOL    HW130908   2.049   4.395   5.120 -0.1417  1.1778  3.5755
 6483SOL    HW230909   2.177   4.458   5.101  2.4359 -1.6447 -0.5837
 6484SOL     OW30910   2.857   2.661  15.894 -0.3757  0.0483 -0.1633
 6484SOL    HW130911   2.806   2.583  15.871  0.8777  0.1918 -3.3221
 6484SOL    HW230912   2.798   2.728  15.861  0.9554  1.1278 -0.3391
 6485SOL     OW30913   1.429   1.662   2.407 -0.4609 -0.2132  0.6948
 6485SOL    HW130914   1.430   1.613   2.490  1.8460  0.4109  1.0401
 6485SOL    HW230915   1.523   1.669   2.389 -0.3720  1.3768  1.7413
 6486SOL     OW30916   3.781   4.258   8.729 -0.1168  0.2050 -0.7366
 6486SOL    HW130917   3.687   4.274   8.726 -0.0467  0.7596 -0.0765
 6486SOL    HW230918   3.774   4.223   8.818 -0.2687 -0.3111 -0.9485
 6487SOL     OW30919   0.832   4.228  16.377 -0.5562 -0.0045  0.0244
 6487SOL    HW130920   0.900   4.296  16.379  1.3827 -1.8868 -2.6364
 6487SOL    HW230921   0.862   4.169  16.308 -0.8679 -2.1753  1.7472
 6488SOL     OW30922   2.670   2.957  14.627  0.3506 -0.7240  0.2703
 6488SOL    HW130923   2.736   3.016  14.591  1.1146 -0.1090  2.6455
 6488SOL    HW230924   2.738   2.915  14.679  1.1335  1.0917  0.7127
 6489SOL     OW30925   3.235   1.563   7.739 -0.5458  0.0419  0.4683
 6489SOL    HW130926   3.263   1.473   7.753  1.7981  0.7986  0.6340
 6489SOL    HW230927   3.242   1.561   7.644  1.5311  4.3118  0.5188
 6490SOL     OW30928   3.304   3.187  14.377 -0.1697 -0.1121 -0.0869
 6490SOL    HW130929   3.243   3.140  14.319  0.5020 -2.7128  1.2898
 6490SOL    HW230930   3.274   3.273  14.349  0.2388  0.2666  0.6736
 6491SOL     OW30931   4.207   4.468   2.200 -0.5920  0.1647 -0.0467
 6491SOL    HW130932   4.280   4.530   2.198  0.0719 -0.6229 -0.3159
 6491SOL    HW230933   4.183   4.475   2.292 -1.1272 -0.7471 -0.1186
 6492SOL     OW30934   0.900   1.801   3.654  0.5418  0.8197 -0.6458
 6492SOL    HW130935   0.985   1.847   3.657  0.7451  0.3362  0.8990
 6492SOL    HW230936   0.918   1.739   3.584 -0.9335 -0.9642  0.5731
 6493SOL     OW30937   2.356   1.923  12.300 -0.1490  0.0093  0.5935
 6493SOL    HW130938   2.309   1.920  12.383 -1.3752 -0.6127 -0.1309
 6493SOL    HW230939   2.444   1.900  12.329 -0.6232  0.1197  2.1150
 6494SOL     OW30940   1.840   3.074   1.546  0.4357  0.3587  0.2716
 6494SOL    HW130941   1.748   3.081   1.521  0.7071  0.7921 -0.6128
 6494SOL    HW230942   1.873   3.014   1.480  0.3234 -3.0171  3.2840
 6495SOL     OW30943   0.240   2.675   0.464 -0.2952 -0.1224  0.4491
 6495SOL    HW130944   0.161   2.623   0.449 -0.3137 -0.2621  1.0471
 6495SOL    HW230945   0.283   2.679   0.379 -1.3803  2.3362 -0.0015
 6496SOL     OW30946   4.099   0.230   4.533  0.3711 -0.4657 -0.5953
 6496SOL    HW130947   4.097   0.206   4.625 -2.1608 -0.2411 -0.5794
 6496SOL    HW230948   4.011   0.265   4.516  0.9520  0.4112 -1.8084
 6497SOL     OW30949   0.797   2.356   2.040  0.4045 -0.4156  0.0075
 6497SOL    HW130950   0.865   2.418   2.065 -0.6965  0.7523  0.1297
 6497SOL    HW230951   0.842   2.273   2.051 -2.0145 -1.6317  0.9160
 6498SOL     OW30952   3.480   2.728  10.180 -0.0187  0.2869 -0.3924
 6498SOL    HW130953   3.489   2.770  10.266 -1.4539 -0.1729 -0.0284
 6498SOL    HW230954   3.430   2.792  10.130 -2.5067  0.2477  2.0561
 6499SOL     OW30955   4.118   3.863   6.217  0.3320 -0.2299  0.1280
 6499SOL    HW130956   4.170   3.944   6.215 -2.2992  1.4834  1.5870
 6499SOL    HW230957   4.077   3.879   6.302  2.1700  0.0377  0.9684
 6500SOL     OW30958   1.887   4.357   2.095 -0.2437  0.0938 -0.3462
 6500SOL    HW130959   1.942   4.400   2.160 -1.1881 -0.0700  0.5476
 6500SOL    HW230960   1.885   4.422   2.025 -1.4335  0.0911 -0.3082
 6501SOL     OW30961   4.002   1.026   6.272  0.3030 -0.0116 -0.4871
 6501SOL    HW130962   4.019   1.006   6.364  0.1918 -1.0806 -0.6991
 6501SOL    HW230963   4.001   0.935   6.242  3.4924  1.0897 -3.8494
 6502SOL     OW30964   0.345   1.798   9.659 -0.1892 -0.7304 -0.1063
 6502SOL    HW130965   0.362   1.713   9.618 -0.7200 -1.5727  1.4150
 6502SOL    HW230966   0.290   1.770   9.732  0.8382 -0.4436  0.7654
 6503SOL     OW30967   1.634   3.622   6.554 -0.4026  0.0120  0.5791
 6503SOL    HW130968   1.558   3.654   6.506  0.0588  1.0513  0.5446
 6503SOL    HW230969   1.679   3.568   6.489  1.5069  0.8724  1.1887
 6504SOL     OW30970   4.143   1.384  15.072  0.0445 -0.1031  0.4164
 6504SOL    HW130971   4.115   1.464  15.117 -1.0049 -0.5782  0.6124
 6504SOL    HW230972   4.232   1.413  15.055 -0.5170  0.8545 -0.9267
 6505SOL     OW30973   3.543   1.596  13.267  0.6192 -0.1675  0.0247
 6505SOL    HW130974   3.545   1.544  13.347 -0.9099 -0.5883 -0.2060
 6505SOL    HW230975   3.562   1.679  13.312  2.2433 -1.4629  1.7208
 6506SOL     OW30976   3.558   1.296  10.586  0.0228 -0.1100 -0.8268
 6506SOL    HW130977   3.488   1.353  10.617 -0.3407 -1.4646  0.7727
 6506SOL    HW230978   3.576   1.257  10.671 -1.7578 -1.1665 -0.9332
 6507SOL     OW30979   4.027   0.058  13.311  0.2562 -0.1762 -0.3557
 6507SOL    HW130980   4.062   4.699  13.340 -1.4001 -1.7362 -2.7938
 6507SOL    HW230981   4.043   0.057  13.217  0.3544 -1.3725 -0.3243
 6508SOL     OW30982   4.681   2.722   3.204  0.0772  0.2809 -0.2279
 6508SOL    HW130983   4.711   2.733   3.114 -0.6233  1.5627 -0.3059
 6508SOL    HW230984   4.660   2.815   3.219 -0.0112  0.1336  0.5768
 6509SOL     OW30985   0.371   2.588   7.376 -0.4950  1.2222 -1.2431
 6509SOL    HW130986   0.337   2.670   7.410  1.3109  1.1059  0.8330
 6509SOL    HW230987   0.400   2.539   7.453  0.6604  0.6172 -2.0458
 6510SOL     OW30988   1.809   4.672   5.892  0.1177 -0.2353 -0.6393
 6510SOL    HW130989   1.723   4.681   5.933  0.9528  2.8603  0.4066
 6510SOL    HW230990   1.783   4.623   5.814 -1.8598  0.0042 -0.1420
 6511SOL     OW30991   3.355   3.343   8.564 -0.3014  0.3581 -0.2808
 6511SOL    HW130992   3.384   3.330   8.474 -0.1894  0.7444 -0.3014
 6511SOL    HW230993   3.285   3.405   8.545 -1.0061 -0.7616 -1.3241
 6512SOL     OW30994   2.026   3.136  10.481 -0.4348  0.0563 -0.2339
 6512SOL    HW130995   2.000   3.071  10.416  0.6773 -0.8075  0.1882
 6512SOL    HW230996   2.078   3.198  10.430 -1.1121  1.8705  1.2830
 6513SOL     OW30997   2.641   0.752   1.319  0.2141 -0.0111 -0.5940
 6513SOL    HW130998   2.604   0.717   1.400 -1.6208 -1.0393 -1.8701
 6513SOL    HW230999   2.617   0.682   1.258  1.2901  0.0764 -1.1120
 6514SOL     OW31000   3.913   2.315  14.889 -0.4416 -0.2727  0.7343
 6514SOL    HW131001   3.934   2.228  14.857  0.2817 -0.0911  0.7160
 6514SOL    HW231002   3.996   2.363  14.890 -0.1948 -0.6913  0.0701
 6515SOL     OW31003   1.246   0.401   9.889  0.4561 -0.4651 -0.1276
 6515SOL    HW131004   1.289   0.481   9.918  0.0265  0.2914 -1.5854
 6515SOL    HW231005   1.287   0.382   9.804 -1.3747 -0.1162 -1.0845
 6516SOL     OW31006   1.392   4.374  11.940 -0.0578  0.1237 -0.4937
 6516SOL    HW131007   1.421   4.422  11.863 -0.5769 -3.2316 -2.7621
 6516SOL    HW231008   1.444   4.418  12.008  1.6230 -1.1428 -0.9482
 6517SOL     OW31009   0.100   2.314   9.029  0.6991  0.4025  0.0172
 6517SOL    HW131010   0.126   2.387   9.085  0.5524 -1.2333  2.2364
 6517SOL    HW231011   0.090   2.240   9.089  1.3798  0.8821  0.7097
 6518SOL     OW31012   3.143   0.492   5.126  0.1694 -0.7078 -0.0677
 6518SOL    HW131013   3.160   0.525   5.038 -2.3866 -0.7960 -0.5913
 6518SOL    HW231014   3.056   0.528   5.141  0.0599 -0.5323 -1.1536
 6519SOL     OW31015   2.880   3.987   6.330 -1.3577  0.5861  0.0170
 6519SOL    HW131016   2.905   4.009   6.420  0.1206 -0.9639 -0.0111
 6519SOL    HW231017   2.835   3.904   6.347 -0.9944  0.2288 -0.7865
 6520SOL     OW31018   0.503   0.973   7.598 -0.2176  0.2138 -0.0799
 6520SOL    HW131019   0.460   0.891   7.625  0.6290 -0.5383 -1.0154
 6520SOL    HW231020   0.424   1.024   7.616  0.2696  0.3122  1.8119
 6521SOL     OW31021   2.315   4.679   7.701 -0.1757 -0.5020 -0.5081
 6521SOL    HW131022   2.262   4.641   7.631 -1.7531 -0.2621  0.5681
 6521SOL    HW231023   2.341   0.029   7.648 -2.4569 -0.1558 -1.1585
 6522SOL     OW31024   2.964   1.443  16.547 -0.1594 -0.3098 -0.2991
 6522SOL    HW131025   2.987   1.451  16.639 -0.4159 -0.2236 -0.2420
 6522SOL    HW231026   2.896   1.510  16.551  1.2812  1.2041 -1.0565
 6523SOL     OW31027   1.100   0.778  15.090 -0.0993 -0.2521  0.0379
 6523SOL    HW131028   1.156   0.717  15.042  1.2082  2.2768 -1.6894
 6523SOL    HW231029   1.066   0.715  15.153  0.7684 -1.3514 -0.5929
 6524SOL     OW31030   4.171   3.232   2.050 -0.0099  0.1611  0.0769
 6524SOL    HW131031   4.245   3.203   1.997  0.2523  3.2447 -1.2298
 6524SOL    HW231032   4.205   3.200   2.134 -0.8857  0.9370  0.7212
 6525SOL     OW31033   2.516   2.072   7.560 -0.2142 -0.2809  0.2588
 6525SOL    HW131034   2.528   2.037   7.648 -1.3803  0.2951  0.6464
 6525SOL    HW231035   2.501   2.166   7.574  0.3697 -0.1938  0.3019
 6526SOL     OW31036   3.296   4.695   5.748  0.3375  0.3267 -0.3904
 6526SOL    HW131037   3.366   0.013   5.797  0.6206 -0.5341 -0.0223
 6526SOL    HW231038   3.221   0.027   5.760  1.6395  1.9181  0.0844
 6527SOL     OW31039   3.792   1.862   1.767  0.0521 -0.1486  0.1222
 6527SOL    HW131040   3.851   1.902   1.831  0.5937 -1.4270  0.4417
 6527SOL    HW231041   3.730   1.822   1.828  0.6104  0.0969  0.8479
 6528SOL     OW31042   4.195   3.356   4.347  0.1476  0.3167  0.3224
 6528SOL    HW131043   4.284   3.368   4.380  1.9172 -1.6617 -3.7137
 6528SOL    HW231044   4.222   3.328   4.260 -0.0911  0.0449  0.3331
 6529SOL     OW31045   0.349   2.776   9.042 -0.4914  0.0009  0.1304
 6529SOL    HW131046   0.310   2.813   9.121 -1.5699  1.1433 -0.9324
 6529SOL    HW231047   0.388   2.695   9.074 -2.9261 -1.0879  0.2978
 6530SOL     OW31048   0.177   3.004   5.178  0.5308  0.2848 -1.0660
 6530SOL    HW131049   0.141   3.025   5.264 -1.1386 -0.2277 -1.6408
 6530SOL    HW231050   0.246   3.070   5.170 -1.2505  2.4844  1.8028
 6531SOL     OW31051   2.498   1.488  14.472 -0.1221 -0.4231  0.2213
 6531SOL    HW131052   2.414   1.521  14.505 -0.4978  1.0549 -2.1934
 6531SOL    HW231053   2.496   1.523  14.383 -3.1169 -0.4375  0.2646
 6532SOL     OW31054   0.402   0.425   3.597  0.3878 -0.1229  0.1910
 6532SOL    HW131055   0.321   0.451   3.639 -0.8586 -3.9293  0.1261
 6532SOL    HW231056   0.385   0.419   3.503 -0.6492 -0.7561  0.4322
 6533SOL     OW31057   1.597   2.792   7.892  0.0437  0.1165 -0.1368
 6533SOL    HW131058   1.617   2.881   7.921 -0.0204 -0.2430  1.0088
 6533SOL    HW231059   1.636   2.809   7.806 -1.5515 -1.1654 -1.1214
 6534SOL     OW31060   1.952   0.768   8.008 -0.4382  0.0597 -0.3825
 6534SOL    HW131061   1.942   0.791   8.101 -2.4380 -0.5813 -0.4606
 6534SOL    HW231062   1.979   0.677   8.011 -2.9109 -0.6557 -0.2217
 6535SOL     OW31063   3.206   2.626  13.307 -0.0233 -0.3888 -0.0861
 6535SOL    HW131064   3.151   2.561  13.350  1.0883 -0.0530  1.8233
 6535SOL    HW231065   3.267   2.647  13.378  1.8076 -0.7683 -1.5374
 6536SOL     OW31066   3.189   4.283   7.110 -0.4491  0.2992  0.0682
 6536SOL    HW131067   3.150   4.369   7.126 -0.8833  0.2707 -0.8158
 6536SOL    HW231068   3.257   4.281   7.178 -1.1143  2.0613  0.7897
 6537SOL     OW31069   1.656   1.165  11.021  0.1685  0.0500 -0.2092
 6537SOL    HW131070   1.643   1.113  11.100  0.2290  0.4273  0.0516
 6537SOL    HW231071   1.636   1.253  11.052  1.7161  0.3258 -0.0023
 6538SOL     OW31072   4.007   0.426   7.717 -0.0569  0.4246  0.0200
 6538SOL    HW131073   3.929   0.379   7.745 -0.7371  1.5654  0.0292
 6538SOL    HW231074   3.970   0.460   7.635  1.1088  2.1314  0.1917
 6539SOL     OW31075   4.039   0.663   5.638 -0.6595 -0.1864  0.1421
 6539SOL    HW131076   3.963   0.654   5.695 -0.3954  0.5432  0.6013
 6539SOL    HW231077   3.996   0.672   5.553  2.0942  0.2866 -1.2224
 6540SOL     OW31078   0.740   4.423   2.732  0.6546  0.1378  0.0474
 6540SOL    HW131079   0.828   4.427   2.770 -0.0097  0.2084  1.5680
 6540SOL    HW231080   0.759   4.442   2.640 -0.3868 -1.6203 -0.5173
 6541SOL     OW31081   2.869   0.685  15.497  0.6773 -0.3667  0.0055
 6541SOL    HW131082   2.904   0.774  15.506 -2.0354  0.9914 -2.9183
 6541SOL    HW231083   2.802   0.688  15.565 -0.9575 -3.0013 -1.4897
 6542SOL     OW31084   0.895   1.150  10.829 -0.4916 -0.2587  0.3450
 6542SOL    HW131085   0.836   1.215  10.789 -1.1709 -1.1799 -0.1498
 6542SOL    HW231086   0.836   1.106  10.891  3.3800 -2.4936  2.3880
 6543SOL     OW31087   3.611   0.921   4.387 -0.3143 -0.1625  0.2248
 6543SOL    HW131088   3.625   1.000   4.438 -1.3588  0.6599 -0.7460
 6543SOL    HW231089   3.652   0.945   4.304 -1.1208 -1.9060 -0.7047
 6544SOL     OW31090   3.772   0.738   7.945 -0.2276 -0.1772 -0.1697
 6544SOL    HW131091   3.695   0.690   7.976  0.1450 -0.6485  0.0202
 6544SOL    HW231092   3.794   0.804   8.011  2.0704 -0.7332 -0.3819
 6545SOL     OW31093   4.009   1.180   4.087  0.5686 -0.5167  0.3070
 6545SOL    HW131094   4.092   1.162   4.043 -0.6330 -1.5501 -1.5533
 6545SOL    HW231095   3.955   1.126   4.029 -1.6138  0.9139  1.0095
 6546SOL     OW31096   1.246   2.068   9.042 -0.0490  0.3049  0.6979
 6546SOL    HW131097   1.200   2.001   9.092  0.9409  0.1054  1.3430
 6546SOL    HW231098   1.332   2.070   9.085  0.5373 -0.2485 -0.4360
 6547SOL     OW31099   3.691   2.688   1.253  0.6488  0.1300  0.1999
 6547SOL    HW131100   3.783   2.685   1.276  1.3296 -1.6146 -2.6940
 6547SOL    HW231101   3.692   2.652   1.164 -1.8908  0.9828 -0.1686
 6548SOL     OW31102   1.444   2.587  12.734 -0.2000 -0.1643 -0.1638
 6548SOL    HW131103   1.428   2.663  12.790  1.0972 -0.3509  0.4629
 6548SOL    HW231104   1.497   2.618  12.660  0.0235  0.5310  0.2893
 6549SOL     OW31105   0.598   0.701   7.844  0.3697 -0.1784 -0.1575
 6549SOL    HW131106   0.637   0.678   7.928 -0.1372  1.1315  0.4494
 6549SOL    HW231107   0.512   0.661   7.853  0.7702 -1.3007 -1.2961
 6550SOL     OW31108   3.666   1.834  12.162 -0.0752  0.1736  0.0164
 6550SOL    HW131109   3.664   1.767  12.231  2.0281  2.4057  2.2789
 6550SOL    HW231110   3.714   1.902  12.211 -0.1845 -1.2312  2.1105
 6551SOL     OW31111   2.029   0.815  14.650 -0.5199  0.5305  0.1863
 6551SOL    HW131112   2.109   0.793  14.602 -0.8020 -1.6327  0.6788
 6551SOL    HW231113   2.054   0.820  14.742  0.0945  2.4751 -0.0863
 6552SOL     OW31114   4.307   2.686  10.712  0.2702 -1.1182  0.4489
 6552SOL    HW131115   4.269   2.746  10.648 -1.3350 -1.7289  0.8136
 6552SOL    HW231116   4.384   2.667  10.659  1.5624  0.4117  1.7703
 6553SOL     OW31117   0.792   0.185   5.688  0.4168  0.0300  0.6927
 6553SOL    HW131118   0.814   0.274   5.659 -1.0889  0.7958  1.8888
 6553SOL    HW231119   0.701   0.203   5.712  0.4244 -0.4879  1.1190
 6554SOL     OW31120   3.027   3.840   4.798  0.1375 -0.4370  0.2866
 6554SOL    HW131121   2.957   3.773   4.798  0.6317 -0.9406 -1.2678
 6554SOL    HW231122   3.075   3.800   4.726  1.5082  1.6662  0.0462
 6555SOL     OW31123   2.555   0.112  15.932 -0.3117  0.7119 -0.8838
 6555SOL    HW131124   2.576   0.025  15.897  0.9196  0.0755  1.4730
 6555SOL    HW231125   2.639   0.156  15.945 -0.4475  0.2048  1.7688
 6556SOL     OW31126   0.406   1.013   6.652 -0.0539 -0.1821  0.2510
 6556SOL    HW131127   0.445   1.097   6.628 -1.3102  0.4714  0.5208
 6556SOL    HW231128   0.331   1.016   6.593  0.5265  0.7237 -0.4247
 6557SOL     OW31129   1.722   0.468   2.647  0.2765 -0.7152 -0.5772
 6557SOL    HW131130   1.700   0.543   2.703  0.5443 -0.4892 -0.7768
 6557SOL    HW231131   1.635   0.446   2.613 -0.7986  0.8674  1.1181
 6558SOL     OW31132   3.628   1.482   9.155  0.0872  0.2450 -0.3363
 6558SOL    HW131133   3.645   1.552   9.218  0.0922 -0.4566  0.4523
 6558SOL    HW231134   3.659   1.398   9.190  0.6089  0.0667 -1.2290
 6559SOL     OW31135   2.826   1.838   7.036 -0.2872 -0.3577 -0.0902
 6559SOL    HW131136   2.794   1.752   7.009 -1.1500 -0.0976  0.1099
 6559SOL    HW231137   2.921   1.828   7.024 -0.0736  1.2482  0.2533
 6560SOL     OW31138   1.632   1.223  15.226  0.2447 -0.3094 -0.3331
 6560SOL    HW131139   1.642   1.240  15.320  3.3585  0.8301 -0.8773
 6560SOL    HW231140   1.639   1.309  15.185 -0.4114 -0.6071 -1.0615
 6561SOL     OW31141   1.311   2.948   4.603  0.2751 -0.5043 -0.3233
 6561SOL    HW131142   1.400   2.913   4.602  0.9844  1.3108  0.2563
 6561SOL    HW231143   1.260   2.883   4.652  0.2649 -0.0802  0.2181
 6562SOL     OW31144   1.349   4.043   7.304  0.0798 -0.3844  0.2107
 6562SOL    HW131145   1.416   4.094   7.348 -0.2660 -1.6088  2.1664
 6562SOL    HW231146   1.401   3.972   7.267 -0.4972 -0.8437  0.2683
 6563SOL     OW31147   1.402   0.416   7.791 -0.1433 -0.0916 -0.0889
 6563SOL    HW131148   1.464   0.440   7.722  0.8312 -0.7960  0.5317
 6563SOL    HW231149   1.397   0.495   7.845  0.8074 -1.5767  2.1860
 6564SOL     OW31150   1.267   0.863   6.273 -0.1140 -0.2025 -0.0024
 6564SOL    HW131151   1.334   0.895   6.213  1.8247 -2.7582  0.8328
 6564SOL    HW231152   1.209   0.937   6.254  0.7247  0.3156 -0.5386
 6565SOL     OW31153   0.947   0.114   3.002 -0.7635 -0.1147  0.0221
 6565SOL    HW131154   0.944   0.185   3.066 -1.2966 -1.3771  1.3834
 6565SOL    HW231155   0.971   0.159   2.921 -0.8115  0.1726  0.1690
 6566SOL     OW31156   0.474   2.698   4.583  0.1770 -0.0883 -0.9050
 6566SOL    HW131157   0.556   2.655   4.560  0.7663 -0.8196  2.6233
 6566SOL    HW231158   0.414   2.663   4.517 -1.4168 -0.6843  0.8900
 6567SOL     OW31159   4.151   2.072   1.073  0.1321  0.4756  0.0013
 6567SOL    HW131160   4.171   1.985   1.040  4.1397  1.8887 -1.2412
 6567SOL    HW231161   4.208   2.117   1.011 -0.1548 -0.1925 -0.7410
 6568SOL     OW31162   4.247   1.037   1.096 -0.2045  0.2196 -0.3281
 6568SOL    HW131163   4.239   0.942   1.086 -3.2578  0.4123  0.1599
 6568SOL    HW231164   4.190   1.068   1.026 -1.8140  1.5168  1.5433
 6569SOL     OW31165   0.092   3.178   9.301  0.2433 -0.1257 -0.3293
 6569SOL    HW131166   0.018   3.143   9.251 -1.4766  2.3065  0.5191
 6569SOL    HW231167   0.111   3.261   9.256 -2.5754  1.4082  1.3487
 6570SOL     OW31168   1.988   4.399   2.565 -0.2385  0.0562  0.5306
 6570SOL    HW131169   2.034   4.410   2.649  1.2655  2.1690 -0.5689
 6570SOL    HW231170   1.992   4.489   2.531  0.4429  0.6513  2.1721
 6571SOL     OW31171   3.355   0.864   3.230 -0.1899 -0.0551 -0.0382
 6571SOL    HW131172   3.286   0.810   3.191 -0.2322 -0.7928  1.0889
 6571SOL    HW231173   3.356   0.941   3.173 -0.2483 -1.4233 -1.8902
 6572SOL     OW31174   1.261   1.545   6.568  0.2772  0.0566  0.1064
 6572SOL    HW131175   1.180   1.595   6.552 -0.7925 -1.1513  1.6972
 6572SOL    HW231176   1.228   1.458   6.591  0.2346  0.4814  1.6370
 6573SOL     OW31177   2.639   1.495   8.134 -0.1368  0.2702  0.1115
 6573SOL    HW131178   2.709   1.498   8.069 -0.1523  2.2679  0.2092
 6573SOL    HW231179   2.690   1.489   8.215  2.0303 -2.8031 -1.4479
 6574SOL     OW31180   2.584   2.533   0.384 -0.3216  0.2362  0.1039
 6574SOL    HW131181   2.530   2.470   0.430  0.1760  0.1157  0.5171
 6574SOL    HW231182   2.655   2.469   0.377 -1.5122 -0.9028 -1.6457
 6575SOL     OW31183   4.102   0.188   0.335  0.3837  0.3794  0.5558
 6575SOL    HW131184   4.171   0.167   0.272  0.2791  0.6784  0.3417
 6575SOL    HW231185   4.063   0.102   0.354 -0.9372  0.9514  0.4523
 6576SOL     OW31186   2.022   2.487   2.816  0.0861 -0.2920  0.3899
 6576SOL    HW131187   1.979   2.431   2.881 -1.6412 -0.5678 -1.0095
 6576SOL    HW231188   2.088   2.534   2.868  1.5558  0.6921 -2.3998
 6577SOL     OW31189   3.400   0.324   2.747  0.3315  0.3460  0.1931
 6577SOL    HW131190   3.311   0.298   2.722 -0.4383  1.2893  1.9676
 6577SOL    HW231191   3.426   0.373   2.670 -0.9959  0.7680  0.0131
 6578SOL     OW31192   2.251   2.718   6.936 -0.0293  0.6017  0.1157
 6578SOL    HW131193   2.163   2.751   6.955 -1.5534 -3.2872 -0.0943
 6578SOL    HW231194   2.236   2.625   6.955  2.4630 -0.4168 -2.8853
 6579SOL     OW31195   3.892   0.182   0.085  0.3511 -0.4534  0.2348
 6579SOL    HW131196   3.946   0.252   0.120 -1.2513  0.8847  0.0635
 6579SOL    HW231197   3.870   0.205  17.697 -1.7553 -0.9009  0.6253
 6580SOL     OW31198   2.539   2.449  11.534  0.0531 -0.9713 -0.1887
 6580SOL    HW131199   2.500   2.364  11.555  0.6920 -1.4811 -1.0289
 6580SOL    HW231200   2.615   2.416  11.486 -1.0684 -2.8269 -0.6627
 6581SOL     OW31201   2.293   1.649   5.802 -0.2931  0.1193  0.1206
 6581SOL    HW131202   2.205   1.687   5.794  0.1245  0.8782 -0.8590
 6581SOL    HW231203   2.347   1.723   5.776  2.2054 -1.9785 -0.6755
 6582SOL     OW31204   2.863   0.513  12.964 -0.3526 -0.2772  0.3242
 6582SOL    HW131205   2.932   0.575  12.938  0.0974 -1.9456 -2.4555
 6582SOL    HW231206   2.801   0.581  12.990  0.1548  0.0822  0.5843
 6583SOL     OW31207   3.025   0.779   5.688 -0.0851 -0.3538 -0.0783
 6583SOL    HW131208   2.998   0.726   5.613  1.7237 -1.4766  0.0484
 6583SOL    HW231209   2.950   0.837   5.703 -0.6767 -0.7495 -1.4940
 6584SOL     OW31210   3.082   0.726   0.140  0.7662 -0.1562  0.3004
 6584SOL    HW131211   3.129   0.694   0.063 -1.0151 -0.8456 -0.5036
 6584SOL    HW231212   3.028   0.648   0.152 -0.5212  0.7711  0.5239
 6585SOL     OW31213   2.874   2.073  13.183  0.5674  0.0665  0.4954
 6585SOL    HW131214   2.796   2.090  13.236  0.9484  0.4914  0.9321
 6585SOL    HW231215   2.867   2.138  13.113 -1.6820  0.7964  1.3926
 6586SOL     OW31216   0.068   1.869   9.008  0.1780  0.0538 -0.2088
 6586SOL    HW131217   0.087   1.841   9.097  0.2570 -1.4720 -0.7040
 6586SOL    HW231218   0.113   1.800   8.960  1.2578  1.8391 -1.8021
 6587SOL     OW31219   2.131   1.903   1.721 -0.3746  0.4644 -0.0325
 6587SOL    HW131220   2.130   1.964   1.647 -0.2198  0.2765 -0.1881
 6587SOL    HW231221   2.151   1.822   1.676 -0.0152  0.6939 -0.2824
 6588SOL     OW31222   3.442   4.020   9.572 -0.0624  0.0630 -0.9417
 6588SOL    HW131223   3.448   3.925   9.586  3.1849  0.3510 -0.4116
 6588SOL    HW231224   3.349   4.041   9.580  0.1821  0.3208  1.1395
 6589SOL     OW31225   0.927   4.674   3.510  0.2665  0.7949 -0.5011
 6589SOL    HW131226   0.862   0.009   3.473  1.0743  1.8973 -0.1365
 6589SOL    HW231227   0.904   4.669   3.603  1.1381 -0.7993 -0.3768
 6590SOL     OW31228   1.450   2.634  15.011  0.2467 -0.1545 -0.2971
 6590SOL    HW131229   1.373   2.660  15.061  0.1674 -0.1490 -0.4207
 6590SOL    HW231230   1.462   2.713  14.959 -0.1327  0.1087  0.0162
 6591SOL     OW31231   2.066   3.270   2.787 -0.2913  0.0681 -0.5206
 6591SOL    HW131232   2.134   3.267   2.720 -0.0959 -0.8505 -0.2835
 6591SOL    HW231233   2.010   3.338   2.749  1.0237  1.1432 -0.5302
 6592SOL     OW31234   1.579   3.947   0.719 -0.0952 -0.4096  0.0891
 6592SOL    HW131235   1.507   3.922   0.661  1.1514 -0.9103 -1.2418
 6592SOL    HW231236   1.562   3.881   0.786 -2.3959  0.6522  0.5554
 6593SOL     OW31237   2.830   2.081   1.826  0.5990  0.0851 -0.1742
 6593SOL    HW131238   2.909   2.079   1.880 -1.6952  0.5442  3.2054
 6593SOL    HW231239   2.794   2.165   1.853  2.1530  0.3964  0.9395
 6594SOL     OW31240   2.754   1.690  12.646  0.3041 -0.2258  0.0537
 6594SOL    HW131241   2.795   1.609  12.676 -0.2335 -0.8187 -0.8114
 6594SOL    HW231242   2.666   1.656  12.635 -0.3050  0.7358  2.0239
 6595SOL     OW31243   0.683   2.585   6.608 -0.1167  0.2215  0.2222
 6595SOL    HW131244   0.753   2.568   6.670 -0.3803  2.3649  1.1149
 6595SOL    HW231245   0.605   2.545   6.646  0.7742 -2.8453 -1.2005
 6596SOL     OW31246   0.131   3.685   5.765  0.0047 -0.2204 -0.1936
 6596SOL    HW131247   0.085   3.708   5.846 -2.4826 -0.2956 -1.5627
 6596SOL    HW231248   0.206   3.744   5.771 -1.4620  1.5918  0.5200
 6597SOL     OW31249   1.346   0.730   6.723  0.5231 -0.3312 -0.1155
 6597SOL    HW131250   1.402   0.672   6.672  0.1013  2.7101 -4.0556
 6597SOL    HW231251   1.272   0.731   6.663  1.9631 -1.1327 -1.8951
 6598SOL     OW31252   3.431   0.227   3.614 -0.7604 -0.2188 -0.0487
 6598SOL    HW131253   3.403   0.232   3.705  0.6959  0.3928  0.3755
 6598SOL    HW231254   3.512   0.181   3.635 -0.0008  1.0142 -0.2327
 6599SOL     OW31255   2.743   2.167   6.696 -0.1969  0.5040  0.2779
 6599SOL    HW131256   2.720   2.259   6.709  0.6517  0.7186  0.2540
 6599SOL    HW231257   2.747   2.138   6.788  0.3551  2.1728  0.7766
 6600SOL     OW31258   0.611   3.074   9.304 -0.0545  0.0408 -0.6193
 6600SOL    HW131259   0.541   3.102   9.245  0.1302 -1.6419 -1.6367
 6600SOL    HW231260   0.657   3.158   9.309  0.6340 -0.3055 -1.0932
 6601SOL     OW31261   0.742   3.792   2.873  0.1218 -0.0467  0.1022
 6601SOL    HW131262   0.778   3.772   2.786 -0.3668  2.7881 -0.7512
 6601SOL    HW231263   0.685   3.867   2.858  1.9097  1.5218  1.2284
 6602SOL     OW31264   4.112   4.192   0.397 -0.2180 -0.0868 -0.1475
 6602SOL    HW131265   4.102   4.098   0.388  1.7250 -0.2739 -0.3335
 6602SOL    HW231266   4.206   4.205   0.406 -0.3192  0.1985  0.4779
 6603SOL     OW31267   0.200   3.916  17.584  0.6779  0.2152  0.5853
 6603SOL    HW131268   0.178   4.007  17.567  0.0619 -0.1963 -0.8148
 6603SOL    HW231269   0.111   3.881  17.580 -0.4142  3.2192 -0.8022
 6604SOL     OW31270   3.716   2.017   1.542  0.2523 -0.6347  0.0157
 6604SOL    HW131271   3.769   1.988   1.616  0.1893  0.8564  0.6484
 6604SOL    HW231272   3.680   1.934   1.511 -1.5022  0.2514 -0.3325
 6605SOL     OW31273   4.202   1.664   4.685 -0.3103  0.3115 -0.2084
 6605SOL    HW131274   4.224   1.688   4.596  1.5483 -0.4044  0.0545
 6605SOL    HW231275   4.126   1.719   4.702 -1.1364 -0.2380 -2.1780
 6606SOL     OW31276   1.615   3.963   1.579  0.0361  0.3169 -0.0185
 6606SOL    HW131277   1.621   3.869   1.596 -0.4576  0.0497 -1.3142
 6606SOL    HW231278   1.704   3.988   1.607  0.4826  0.3262 -1.4679
 6607SOL     OW31279   2.769   0.598   7.335  0.2893 -0.3532 -0.3597
 6607SOL    HW131280   2.681   0.635   7.347  0.4974  0.1396 -0.3503
 6607SOL    HW231281   2.771   0.558   7.422 -2.7839  1.7309  0.7065
 6608SOL     OW31282   0.377   2.645  13.332 -0.1119  0.4302 -0.1925
 6608SOL    HW131283   0.389   2.682  13.420 -0.5181  2.8752 -1.1655
 6608SOL    HW231284   0.451   2.693  13.295 -0.6638  0.0155 -1.8067
 6609SOL     OW31285   3.158   2.421   6.797  0.2112  0.7949 -0.1726
 6609SOL    HW131286   3.101   2.495   6.818 -1.3370 -1.4156  3.5388
 6609SOL    HW231287   3.118   2.392   6.716  0.8832 -0.6161 -0.0139
 6610SOL     OW31288   4.296   1.551   6.020  0.1766  0.4842  0.7326
 6610SOL    HW131289   4.285   1.642   6.048 -1.8766  0.0971  1.2176
 6610SOL    HW231290   4.207   1.517   6.010  0.5549 -0.1527 -0.4196
 6611SOL     OW31291   4.612   0.178   3.432 -0.2773 -0.1749  0.0258
 6611SOL    HW131292   4.560   0.195   3.354  0.6122 -0.9128 -0.7214
 6611SOL    HW231293   4.598   0.084   3.447 -2.4469  0.2858  1.0214
 6612SOL     OW31294   0.251   1.957  12.988  0.0176 -0.7235 -0.2628
 6612SOL    HW131295   0.214   1.978  12.903 -1.4508 -1.1398  0.2631
 6612SOL    HW231296   0.246   2.040  13.036 -0.5852 -0.2398 -1.1696
 6613SOL     OW31297   4.010   2.626   8.896  0.3843  0.0277  0.0972
 6613SOL    HW131298   3.941   2.681   8.861  1.4735 -0.2051 -2.4203
 6613SOL    HW231299   3.987   2.544   8.852 -0.8515  0.6645 -0.4141
 6614SOL     OW31300   1.897   0.546   5.468  0.0002 -0.3069  0.5025
 6614SOL    HW131301   1.968   0.496   5.427  0.2240  2.2457 -2.2514
 6614SOL    HW231302   1.933   0.634   5.463  2.6042 -1.2427  2.7964
 6615SOL     OW31303   2.425   2.489   4.098  0.1413 -0.2104  0.1442
 6615SOL    HW131304   2.353   2.465   4.156  0.2643  0.3810  0.5468
 6615SOL    HW231305   2.388   2.550   4.034 -1.2679 -2.7117 -1.4057
 6616SOL     OW31306   4.367   0.107  11.904 -0.6257  0.0761 -0.1360
 6616SOL    HW131307   4.343   0.045  11.972  1.7355 -1.3666 -0.6348
 6616SOL    HW231308   4.361   0.049  11.827  0.2281  0.0153 -0.1496
 6617SOL     OW31309   0.187   2.587   7.033  0.0387 -0.1383  0.1386
 6617SOL    HW131310   0.216   2.542   6.954  0.6366  1.6676 -0.6537
 6617SOL    HW231311   0.094   2.606   7.020 -0.1746 -1.1124  0.2105
 6618SOL     OW31312   3.509   1.197   6.493 -0.6627  0.1663 -0.1893
 6618SOL    HW131313   3.496   1.171   6.402 -1.0959 -0.3472  0.0199
 6618SOL    HW231314   3.440   1.258   6.520 -1.4088 -0.8020  0.1100
 6619SOL     OW31315   3.229   2.336   3.052  0.4426  0.2446  0.1429
 6619SOL    HW131316   3.156   2.278   3.071 -0.1770  1.2626  0.8120
 6619SOL    HW231317   3.194   2.421   3.078  2.0304  1.0134 -0.1953
 6620SOL     OW31318   0.594   2.915  11.658 -0.0803  0.3914 -0.5002
 6620SOL    HW131319   0.630   2.956  11.579 -1.9576  0.1970 -1.4587
 6620SOL    HW231320   0.673   2.912  11.713 -0.2278  1.5102 -0.2205
 6621SOL     OW31321   0.220   0.377   9.783  0.3890 -0.1128  0.3217
 6621SOL    HW131322   0.298   0.347   9.737  0.9904  0.2160  1.1335
 6621SOL    HW231323   0.225   0.313   9.854  1.2702 -1.2210 -0.7485
 6622SOL     OW31324   1.353   1.345   9.125  0.6727 -0.3653 -0.5995
 6622SOL    HW131325   1.283   1.348   9.190  1.8602 -1.7400  0.7716
 6622SOL    HW231326   1.396   1.261   9.142  2.7453  0.4817 -1.7414
 6623SOL     OW31327   4.053   0.723   4.111 -0.0650  0.2343  0.3721
 6623SOL    HW131328   4.066   0.629   4.103  4.2253  0.9102 -0.5456
 6623SOL    HW231329   4.121   0.751   4.172 -1.0342  4.3789 -0.4162
 6624SOL     OW31330   2.615   3.513   8.209 -0.7559 -0.8221  0.0817
 6624SOL    HW131331   2.695   3.565   8.204 -0.8619 -0.7136 -0.4479
 6624SOL    HW231332   2.580   3.550   8.290  0.3649  2.4128 -0.8908
 6625SOL     OW31333   1.458   0.831   3.035  0.3653  0.2505 -0.1558
 6625SOL    HW131334   1.517   0.777   3.087 -2.8656 -3.5150 -0.4129
 6625SOL    HW231335   1.396   0.767   3.001  1.5552 -1.0737  0.1582
 6626SOL     OW31336   3.108   4.532  16.184 -0.4139 -0.2802  0.3411
 6626SOL    HW131337   3.123   4.543  16.278 -1.0796  0.1845  0.3945
 6626SOL    HW231338   3.093   4.438  16.178  1.8332 -0.5675 -0.6250
 6627SOL     OW31339   4.144   2.211   2.467 -0.4744  0.1227 -0.0616
 6627SOL    HW131340   4.184   2.125   2.480  2.3505  1.6936  1.7990
 6627SOL    HW231341   4.223   2.263   2.450 -0.5145  0.7458  1.6441
 6628SOL     OW31342   4.281   0.512   5.224  0.1351 -0.0617  0.2279
 6628SOL    HW131343   4.373   0.535   5.211  0.2438 -0.6052  0.0603
 6628SOL    HW231344   4.284   0.509   5.320  1.7786 -0.0881  0.1845
 6629SOL     OW31345   3.919   1.072   9.272  0.3083  0.0524  0.5741
 6629SOL    HW131346   4.010   1.100   9.276  0.1255  0.7277 -0.1515
 6629SOL    HW231347   3.904   1.009   9.343  2.3582 -2.1033 -0.9263
 6630SOL     OW31348   0.597   1.249   5.336  0.2725 -0.4861  0.2904
 6630SOL    HW131349   0.512   1.262   5.295  0.5960 -0.2277 -0.3132
 6630SOL    HW231350   0.602   1.291   5.422 -0.3481 -0.2438  0.2041
 6631SOL     OW31351   3.606   1.213   6.911  0.0212 -0.0864 -0.5495
 6631SOL    HW131352   3.687   1.178   6.947 -0.3493 -0.0280  0.3368
 6631SOL    HW231353   3.644   1.231   6.825 -1.4030 -0.4614 -1.2586
 6632SOL     OW31354   3.137   0.162   2.370  0.6457 -0.8308  0.1328
 6632SOL    HW131355   3.045   0.146   2.392  0.0667  2.1773 -0.0855
 6632SOL    HW231356   3.132   0.164   2.274  2.7161 -1.6907  0.0038
 6633SOL     OW31357   3.975   3.088   6.422 -0.3417 -0.2182  0.3567
 6633SOL    HW131358   3.928   3.058   6.499 -0.2437 -1.5145 -0.0714
 6633SOL    HW231359   3.983   3.182   6.437 -1.3374  0.0490 -0.7935
 6634SOL     OW31360   3.582   4.446   3.043  0.1859 -0.0884  0.2151
 6634SOL    HW131361   3.489   4.424   3.049 -0.0882  0.7797 -0.9985
 6634SOL    HW231362   3.594   4.530   3.000  1.5215  0.1741  1.1050
 6635SOL     OW31363   0.511   1.201   3.660 -0.4016 -0.1126  0.4175
 6635SOL    HW131364   0.473   1.286   3.681  0.0718  0.0991  0.4194
 6635SOL    HW231365   0.562   1.191   3.740 -3.7626 -0.1949  2.5269
 6636SOL     OW31366   4.675   0.931   1.076 -0.0414  0.2233  0.1439
 6636SOL    HW131367   4.618   0.884   1.137  1.3182  0.2740  1.4790
 6636SOL    HW231368   4.628   1.012   1.060  3.3368  1.7140 -2.1997
 6637SOL     OW31369   4.714   3.329   9.982 -0.5849  0.1402  0.6451
 6637SOL    HW131370   4.679   3.244   9.955 -0.2993  0.2339 -0.0133
 6637SOL    HW231371   0.002   3.311  10.075  2.0143 -2.2374 -0.1942
 6638SOL     OW31372   3.159   4.512   1.671 -0.0958  0.6906 -0.3990
 6638SOL    HW131373   3.205   4.462   1.604 -2.0830 -0.1315 -1.1507
 6638SOL    HW231374   3.197   4.469   1.748 -1.3717  0.3993  0.0725
 6639SOL     OW31375   2.317   2.524   8.674 -0.2195  0.5370 -0.2526
 6639SOL    HW131376   2.248   2.496   8.735 -1.5539  0.2170 -1.9155
 6639SOL    HW231377   2.285   2.480   8.596  0.5976 -1.2824  0.4251
 6640SOL     OW31378   1.301   2.544  15.534 -0.0013  0.6186 -0.2250
 6640SOL    HW131379   1.371   2.513  15.590  1.1514  3.2709 -0.2119
 6640SOL    HW231380   1.237   2.570  15.601  0.0294  0.9737 -0.3329
 6641SOL     OW31381   2.279   4.110   0.887 -0.2716 -0.0483  0.5598
 6641SOL    HW131382   2.187   4.132   0.876  0.4685  2.2757 -0.9943
 6641SOL    HW231383   2.275   4.080   0.978 -1.0881 -1.8204 -0.0633
 6642SOL     OW31384   4.421   4.635   3.813 -0.1300 -0.4677  0.1491
 6642SOL    HW131385   4.422   4.624   3.908 -0.6289 -1.1580  0.0793
 6642SOL    HW231386   4.469   4.555   3.791  0.8767  0.0114  0.6100
 6643SOL     OW31387   3.785   2.041   5.705  0.3742 -0.2480  0.1819
 6643SOL    HW131388   3.722   1.980   5.667  1.1753  0.4225 -2.1777
 6643SOL    HW231389   3.738   2.091   5.771 -0.7032  1.9931 -2.3029
 6644SOL     OW31390   3.041   2.116   5.526 -0.0802  0.4352  0.5871
 6644SOL    HW131391   3.019   2.200   5.485  0.4157 -0.1277 -0.8217
 6644SOL    HW231392   3.028   2.064   5.447  0.4246  1.5927 -0.2707
 6645SOL     OW31393   4.502   3.463   2.298  0.4015  0.4922 -0.2665
 6645SOL    HW131394   4.494   3.490   2.389  0.9779  1.0192 -0.3754
 6645SOL    HW231395   4.475   3.544   2.254  1.3613  1.6344  1.2742
 6646SOL     OW31396   2.137   1.023   6.433  1.2216 -0.1239 -0.5826
 6646SOL    HW131397   2.087   1.102   6.412  1.3005  0.2159  0.5274
 6646SOL    HW231398   2.182   1.026   6.348 -0.3321  0.1595 -1.4133
 6647SOL     OW31399   4.088   0.632   4.927 -0.1911 -0.2770  0.3692
 6647SOL    HW131400   4.105   0.539   4.941  0.2615 -0.2015  0.3431
 6647SOL    HW231401   4.116   0.627   4.835  0.3178 -2.7182  0.6632
 6648SOL     OW31402   3.378   1.091   2.418 -0.3265  0.1753  0.5714
 6648SOL    HW131403   3.461   1.133   2.441 -0.6353  2.0495 -1.7548
 6648SOL    HW231404   3.406   1.022   2.358 -2.1378  1.1728 -1.4271
 6649SOL     OW31405   3.048   1.643   4.330 -0.3151 -0.3371  0.6560
 6649SOL    HW131406   3.124   1.686   4.291  0.2879 -0.6595  1.4509
 6649SOL    HW231407   3.093   1.569   4.371 -1.4199 -0.6377  1.3220
 6650SOL     OW31408   2.193   1.007  15.931 -0.3934  0.9072  0.0196
 6650SOL    HW131409   2.155   1.003  15.843 -0.8686  0.4088  0.2533
 6650SOL    HW231410   2.147   0.931  15.966  0.6109 -0.1461 -0.9289
 6651SOL     OW31411   1.271   4.685   8.906  0.2594 -0.6749  0.0719
 6651SOL    HW131412   1.216   4.719   8.977 -0.0402 -1.6948  0.3155
 6651SOL    HW231413   1.350   4.679   8.960 -0.3538 -2.9914  0.6965
 6652SOL     OW31414   2.199   0.335   2.435  0.2394 -0.0088  0.5987
 6652SOL    HW131415   2.276   0.306   2.484 -0.4992 -1.8127  0.6606
 6652SOL    HW231416   2.133   0.283   2.481 -0.4003  0.3698  0.1062
 6653SOL     OW31417   3.124   4.257   3.784 -0.5636 -0.1133  0.0386
 6653SOL    HW131418   3.206   4.303   3.802  0.8237 -1.7997 -1.9828
 6653SOL    HW231419   3.151   4.165   3.778 -0.6535 -0.1502  0.1800
 6654SOL     OW31420   3.330   1.708   4.258  0.0518 -0.1487 -0.0219
 6654SOL    HW131421   3.323   1.621   4.218 -1.0861 -0.6965  1.3812
 6654SOL    HW231422   3.399   1.685   4.320  0.3511 -1.6683 -0.9086
 6655SOL     OW31423   4.084   1.256  11.052 -0.0886  0.3489  0.0601
 6655SOL    HW131424   4.032   1.211  11.118 -0.2867 -0.2263 -0.4859
 6655SOL    HW231425   4.030   1.324  11.014  0.0718  0.1370 -0.5422
 6656SOL     OW31426   0.424   3.369   0.656  0.5326  0.2209  0.6051
 6656SOL    HW131427   0.424   3.403   0.746 -0.8338 -0.2680  0.7817
 6656SOL    HW231428   0.449   3.451   0.614 -0.1797  0.1666  0.0777
 6657SOL     OW31429   0.902   0.563   3.404 -0.7824  0.4944  0.3863
 6657SOL    HW131430   0.849   0.639   3.428 -0.6706  0.7007 -0.0188
 6657SOL    HW231431   0.988   0.599   3.385 -1.5132  2.2696  0.4515
 6658SOL     OW31432   3.026   3.923   4.319 -0.3753 -0.0669  0.7535
 6658SOL    HW131433   2.990   3.866   4.251  1.1007 -1.4759  1.1517
 6658SOL    HW231434   2.944   3.970   4.333  0.2017  0.4765  2.2642
 6659SOL     OW31435   2.332   2.910   0.185  0.3827  0.2460  0.0727
 6659SOL    HW131436   2.268   2.935   0.117 -1.5617 -2.0756  1.0713
 6659SOL    HW231437   2.397   2.858   0.138 -0.6030 -0.3531 -0.6261
 6660SOL     OW31438   0.896   3.718   3.719 -0.7754  0.2003  0.0104
 6660SOL    HW131439   0.820   3.725   3.662  0.8755 -0.9715 -2.3243
 6660SOL    HW231440   0.938   3.644   3.675 -3.5187 -0.8809 -0.7549
 6661SOL     OW31441   2.327   2.601  17.438 -0.4134  0.5202  0.5758
 6661SOL    HW131442   2.402   2.541  17.439 -0.8858 -0.0902 -0.0242
 6661SOL    HW231443   2.312   2.625  17.529  0.1685 -0.2029  0.8682
 6662SOL     OW31444   1.488   1.736   6.065  0.7522  0.1323  0.3170
 6662SOL    HW131445   1.450   1.694   5.987  3.0568 -1.7444  0.2048
 6662SOL    HW231446   1.466   1.676   6.135  1.0521 -0.5887 -0.2021
 6663SOL     OW31447   1.041   1.221   8.153 -0.2013  0.8016 -0.1604
 6663SOL    HW131448   1.126   1.252   8.121 -0.7891  3.5888  1.0258
 6663SOL    HW231449   1.065   1.221   8.246  0.1590 -2.0122 -0.2448
 6664SOL     OW31450   4.570   1.963  14.983 -0.0211 -0.1925 -0.4363
 6664SOL    HW131451   4.593   2.034  14.922 -1.7962  1.3662  0.7000
 6664SOL    HW231452   4.657   1.924  14.983 -0.2013 -0.6010 -0.6204
 6665SOL     OW31453   3.315   2.515  17.150  0.3124 -0.2997  0.5534
 6665SOL    HW131454   3.247   2.472  17.202  1.3907 -1.9449  0.5745
 6665SOL    HW231455   3.387   2.507  17.211  1.0133  1.8411  0.0005
 6666SOL     OW31456   0.133   3.355   5.915 -0.4973 -0.5021 -0.4634
 6666SOL    HW131457   0.106   3.265   5.933 -1.5962 -0.5118 -2.2255
 6666SOL    HW231458   0.053   3.392   5.880  0.1540  1.0250 -0.3475
 6667SOL     OW31459   2.913   2.383  14.591 -0.1727  0.0201  0.0368
 6667SOL    HW131460   2.892   2.361  14.681  1.0687  1.9552  0.7838
 6667SOL    HW231461   2.839   2.429  14.552 -2.2072 -2.5487  0.8666
 6668SOL     OW31462   3.030   2.298   1.968 -0.2834  0.7454  0.4695
 6668SOL    HW131463   3.011   2.389   1.946  0.8631  0.5581 -1.2499
 6668SOL    HW231464   3.011   2.296   2.062  1.7016  0.7820  0.8903
 6669SOL     OW31465   0.013   2.528   0.419  0.5945  0.4037 -0.2571
 6669SOL    HW131466   4.703   2.455   0.470  0.6995  0.2580 -0.3927
 6669SOL    HW231467   4.673   2.529   0.349 -0.3126  1.3644  0.5968
 6670SOL     OW31468   0.131   0.525   3.650 -0.1210 -0.0919 -0.0681
 6670SOL    HW131469   0.115   0.507   3.558 -0.8205 -1.2427  0.2816
 6670SOL    HW231470   0.176   0.610   3.648  0.3526 -0.3346  0.2019
 6671SOL     OW31471   0.101   4.002   5.975 -0.2344 -0.6681  0.4295
 6671SOL    HW131472   0.066   3.913   5.970 -0.4658 -0.5517 -0.0843
 6671SOL    HW231473   0.186   4.002   5.931  0.2888 -2.9959  1.4761
 6672SOL     OW31474   2.147   3.390   2.075 -0.2241 -0.3149 -0.1703
 6672SOL    HW131475   2.095   3.412   2.152 -0.0956  0.7076 -0.3760
 6672SOL    HW231476   2.087   3.334   2.026  0.9150 -0.5811 -1.2624
 6673SOL     OW31477   0.005   0.456   3.389 -0.1925  0.0318  0.0383
 6673SOL    HW131478   0.033   0.481   3.301  0.2538 -0.0894  0.1449
 6673SOL    HW231479   4.716   0.362   3.394  0.9121 -0.1455  0.0296
 6674SOL     OW31480   3.794   0.380  11.300 -0.7262 -0.6139 -0.0671
 6674SOL    HW131481   3.865   0.440  11.280 -0.7620 -1.5763 -3.0259
 6674SOL    HW231482   3.835   0.336  11.375  1.4651  0.7679 -0.4573
 6675SOL     OW31483   3.517   1.506  13.004 -0.2881 -0.2700  0.0921
 6675SOL    HW131484   3.425   1.525  12.988  0.0533 -1.5766 -3.3872
 6675SOL    HW231485   3.535   1.519  13.097 -0.0946 -1.6251  0.2508
 6676SOL     OW31486   2.844   1.927   6.236 -0.4103 -0.2072  0.2283
 6676SOL    HW131487   2.826   2.013   6.199 -3.6526 -1.1849 -0.4499
 6676SOL    HW231488   2.829   1.947   6.329  1.6104 -1.9068  0.9130
 6677SOL     OW31489   1.597   0.025   1.464 -0.0903  0.0149 -0.5893
 6677SOL    HW131490   1.561   4.661   1.472  1.4951 -0.3322  2.6563
 6677SOL    HW231491   1.521   0.073   1.496 -1.0740 -0.1254 -2.6963
 6678SOL     OW31492   2.210   2.397   6.874  0.5001 -0.6783 -0.0045
 6678SOL    HW131493   2.243   2.386   6.786 -3.6216  1.1808 -1.8058
 6678SOL    HW231494   2.117   2.418   6.864 -0.1553 -1.0055  4.9811
 6679SOL     OW31495   2.949   4.340   6.533 -0.6442 -0.0062 -0.0533
 6679SOL    HW131496   2.865   4.387   6.529  0.4339  1.7856 -1.5456
 6679SOL    HW231497   2.977   4.361   6.622 -1.4755 -0.8466  0.4126
 6680SOL     OW31498   3.369   3.967   1.763 -0.0691 -0.3355 -0.1768
 6680SOL    HW131499   3.295   3.996   1.817 -1.6143 -1.6051 -1.6374
 6680SOL    HW231500   3.326   3.932   1.685  0.4081 -0.0027 -0.5851
 6681SOL     OW31501   1.421   1.071  10.172  0.2522 -0.2380 -0.2361
 6681SOL    HW131502   1.503   1.120  10.172  1.3553 -2.0513  1.5406
 6681SOL    HW231503   1.453   1.000  10.227  2.9821  0.4244 -0.9976
 6682SOL     OW31504   1.018   2.373   7.794 -0.1877  0.3983  0.1194
 6682SOL    HW131505   0.946   2.423   7.754 -2.2560 -0.9646  2.1349
 6682SOL    HW231506   0.972   2.293   7.818  0.1990  0.7018  1.8395
 6683SOL     OW31507   1.077   4.184  11.823  0.5519 -0.5468  1.1366
 6683SOL    HW131508   1.077   4.237  11.743 -0.1153 -2.0998  0.1107
 6683SOL    HW231509   1.120   4.101  11.804  1.4841 -0.1402  1.4403
 6684SOL     OW31510   1.848   0.185   7.928  0.3265  0.5385  0.4134
 6684SOL    HW131511   1.839   0.131   8.007  0.5566 -3.0687 -2.0828
 6684SOL    HW231512   1.787   0.139   7.871  1.4849 -0.2318 -0.1847
 6685SOL     OW31513   0.667   2.739   6.974 -0.2257 -0.2114  0.2895
 6685SOL    HW131514   0.640   2.726   7.065 -2.5613  1.4681 -0.1637
 6685SOL    HW231515   0.670   2.645   6.955  0.4971  0.0404 -0.8898
 6686SOL     OW31516   4.335   1.476   6.402  0.0197  0.3111 -0.1369
 6686SOL    HW131517   4.324   1.439   6.315 -3.5451  1.3130 -0.0877
 6686SOL    HW231518   4.362   1.403   6.457 -2.1034 -0.2265  0.1821
 6687SOL     OW31519   1.184   1.497   5.706  0.7752  0.4823  0.1071
 6687SOL    HW131520   1.182   1.474   5.613  2.7896  1.5938 -0.1964
 6687SOL    HW231521   1.093   1.515   5.728  0.3803  0.3376 -1.3846
 6688SOL     OW31522   1.534   3.063  17.190 -0.5312 -0.4324 -0.0989
 6688SOL    HW131523   1.474   3.018  17.130 -0.5672 -1.8365  0.9902
 6688SOL    HW231524   1.597   2.992  17.203 -0.2887 -0.0384  0.8558
 6689SOL     OW31525   0.187   2.003   6.132  0.0156  0.1901 -0.3090
 6689SOL    HW131526   0.229   2.064   6.193  1.5358  0.4692 -1.6528
 6689SOL    HW231527   0.096   2.007   6.162  0.8019  1.2005  1.9459
 6690SOL     OW31528   2.152   3.405   6.211  0.0710  0.1122  0.3422
 6690SOL    HW131529   2.077   3.429   6.265 -0.5684 -2.8740  0.7652
 6690SOL    HW231530   2.225   3.396   6.273  0.6727 -1.7324 -0.6185
 6691SOL     OW31531   3.349   4.173   0.905  0.4417 -0.2835 -0.0840
 6691SOL    HW131532   3.409   4.240   0.873  1.6639  0.2966  3.4219
 6691SOL    HW231533   3.289   4.169   0.830 -0.6362 -2.2719  0.8828
 6692SOL     OW31534   2.261   0.210   4.996 -0.4183  0.4741 -0.7458
 6692SOL    HW131535   2.169   0.238   5.000  0.2784  2.3220  2.5948
 6692SOL    HW231536   2.298   0.270   4.932 -2.2020  2.8746  0.4939
 6693SOL     OW31537   3.324   1.720  13.545  0.0614  0.5865  0.0963
 6693SOL    HW131538   3.414   1.749  13.537 -0.1156  1.2495  0.5095
 6693SOL    HW231539   3.318   1.665  13.623  0.0491  2.5546  1.4728
 6694SOL     OW31540   2.522   4.239   2.707 -0.3962  0.9417 -0.1871
 6694SOL    HW131541   2.530   4.145   2.697  0.3342  1.0823 -0.9281
 6694SOL    HW231542   2.441   4.254   2.657 -1.2729  0.7564  1.1694
 6695SOL     OW31543   3.128   3.724   4.474  0.1839  0.4870  0.2308
 6695SOL    HW131544   3.190   3.707   4.403  0.8083 -0.3406  0.9766
 6695SOL    HW231545   3.086   3.805   4.447 -0.2621 -0.3066 -1.4624
 6696SOL     OW31546   3.999   4.352   3.195  0.6730  0.0840  0.3495
 6696SOL    HW131547   4.026   4.287   3.260  0.5756 -1.5646 -1.2652
 6696SOL    HW231548   4.038   4.434   3.225  0.9848  0.2450 -0.4888
 6697SOL     OW31549   1.483   1.805   9.266  0.0152 -0.3960  0.0702
 6697SOL    HW131550   1.487   1.713   9.238 -3.6334 -1.1211  1.9778
 6697SOL    HW231551   1.573   1.811   9.300  0.2108  0.6452 -0.6472
 6698SOL     OW31552   2.532   0.019   4.257  0.2688  0.4727  0.2256
 6698SOL    HW131553   2.620   4.723   4.228  0.4800  1.2828  0.2726
 6698SOL    HW231554   2.533   0.114   4.264 -0.4118  0.4033  1.2747
 6699SOL     OW31555   2.808   2.179  12.710  0.1632  0.0619  0.1515
 6699SOL    HW131556   2.857   2.179  12.628  1.2386 -2.5959  0.7798
 6699SOL    HW231557   2.720   2.195  12.678  0.6387  0.9765 -0.7012
 6700SOL     OW31558   4.013   4.131  17.510 -0.0684 -0.2643  0.5633
 6700SOL    HW131559   4.049   4.110  17.424  0.4649 -1.3554  1.0466
 6700SOL    HW231560   3.918   4.137  17.500  0.2429  1.4770 -1.1900
 6701SOL     OW31561   3.138   3.960  14.883 -0.5135 -0.1127 -0.2640
 6701SOL    HW131562   3.156   3.912  14.964 -0.3782 -1.4191 -1.0584
 6701SOL    HW231563   3.064   4.018  14.898  0.8942  1.9309 -1.2923
 6702SOL     OW31564   3.927   0.784   6.184  0.0300  0.2171  0.2223
 6702SOL    HW131565   3.840   0.823   6.173  0.4070  1.0065  0.0059
 6702SOL    HW231566   3.914   0.698   6.146  0.0614 -0.4242  1.6679
 6703SOL     OW31567   3.757   2.896   4.213 -0.5156  0.1391 -0.6124
 6703SOL    HW131568   3.712   2.924   4.293  0.8522  1.2276 -0.2100
 6703SOL    HW231569   3.763   2.988   4.188 -2.0205  0.0747 -1.1802
 6704SOL     OW31570   0.072   2.767   5.004 -0.0073  0.0284  0.2954
 6704SOL    HW131571   0.108   2.847   5.042  2.1453 -1.4067  1.3271
 6704SOL    HW231572   4.714   2.783   4.960  1.4629 -0.9947 -2.8606
 6705SOL     OW31573   3.111   1.962   8.418  0.3789 -0.6801 -0.2971
 6705SOL    HW131574   3.147   2.037   8.371  0.0703 -0.7222 -0.6084
 6705SOL    HW231575   3.178   1.951   8.485  1.4524 -0.3298 -1.3218
 6706SOL     OW31576   3.398   0.013   6.046  0.0311  0.5763 -0.4919
 6706SOL    HW131577   3.318   0.056   6.016 -0.2711 -1.1324 -2.1475
 6706SOL    HW231578   3.374   4.646   6.049 -0.0764  0.5832 -1.0537
 6707SOL     OW31579   1.968   0.886  11.112 -0.4106  0.3264 -0.3547
 6707SOL    HW131580   1.911   0.897  11.188 -2.1651  0.5379 -1.6865
 6707SOL    HW231581   2.024   0.814  11.140  0.2891  1.1632  0.4067
 6708SOL     OW31582   4.087   1.551   4.430  0.0936  0.1733  0.1452
 6708SOL    HW131583   4.155   1.595   4.379 -1.6479  0.0200 -2.2865
 6708SOL    HW231584   4.144   1.496   4.484  0.5788  0.9041  0.3862
 6709SOL     OW31585   0.003   1.511   2.783  0.1870  0.4209  0.0043
 6709SOL    HW131586   0.024   1.440   2.722 -0.8818  0.0937  0.0068
 6709SOL    HW231587   4.670   1.471   2.848 -0.8843  2.2018  0.1428
 6710SOL     OW31588   3.869   1.434  12.407  0.2482  0.2425 -0.2821
 6710SOL    HW131589   3.838   1.509  12.356 -2.5361  0.0509  1.1064
 6710SOL    HW231590   3.790   1.381  12.416 -0.8758  1.9228 -0.3510
 6711SOL     OW31591   3.418   0.903   4.133 -0.1502  0.3450  0.1535
 6711SOL    HW131592   3.337   0.859   4.158 -1.3678  2.6813  0.3185
 6711SOL    HW231593   3.395   0.923   4.042 -0.1551  1.5340  0.4209
 6712SOL     OW31594   0.341   3.203  11.699 -0.1038 -0.5388 -0.5231
 6712SOL    HW131595   0.400   3.216  11.625 -1.0024  0.3898 -1.0884
 6712SOL    HW231596   0.391   3.151  11.762  0.3904  0.9752  0.3395
 6713SOL     OW31597   0.760   4.107  16.113 -0.2506 -0.4141  0.9276
 6713SOL    HW131598   0.679   4.072  16.151 -0.7153  0.3364  0.6229
 6713SOL    HW231599   0.713   4.177  16.068  0.3670 -0.1877  0.6413
 6714SOL     OW31600   4.169   1.326  14.003  0.1901  0.2862 -0.3030
 6714SOL    HW131601   4.259   1.297  13.991  0.4009  0.7402  0.1883
 6714SOL    HW231602   4.157   1.362  13.915 -0.8837 -1.3629 -0.8384
 6715SOL     OW31603   3.271   0.809  13.141 -0.4752 -0.3206 -0.4154
 6715SOL    HW131604   3.349   0.834  13.091  0.5367 -3.3839 -0.3639
 6715SOL    HW231605   3.297   0.722  13.172 -1.2242 -0.7479 -1.0165
 6716SOL     OW31606   4.356   2.518  11.534 -0.0759 -0.3902  0.1926
 6716SOL    HW131607   4.345   2.613  11.544  1.9321 -0.0052 -1.1398
 6716SOL    HW231608   4.283   2.485  11.483  2.0685 -1.4691 -2.2200
 6717SOL     OW31609   2.821   3.255   8.430 -0.0316 -0.3544  0.3046
 6717SOL    HW131610   2.762   3.250   8.355  1.4974  0.0441 -0.9294
 6717SOL    HW231611   2.880   3.180   8.420  0.4067 -0.0470  0.5856
 6718SOL     OW31612   2.511   3.162   2.967 -0.2824 -0.4027 -0.1189
 6718SOL    HW131613   2.431   3.125   3.005 -0.9314  0.5746 -0.5402
 6718SOL    HW231614   2.576   3.097   2.994 -0.6503 -0.4490  0.6720
 6719SOL     OW31615   0.750   3.682   5.977  1.0001 -0.0451 -0.1628
 6719SOL    HW131616   0.714   3.627   6.046  2.7045  0.0154  0.7865
 6719SOL    HW231617   0.719   3.637   5.899 -0.9894  0.3080  0.4286
 6720SOL     OW31618   0.791   0.244  16.742  0.4600 -0.2593  0.0260
 6720SOL    HW131619   0.834   0.329  16.733 -1.1131  0.1826 -3.2310
 6720SOL    HW231620   0.864   0.183  16.746  1.0463  0.4388 -0.0017
 6721SOL     OW31621   2.164   4.577  10.208  0.1563 -0.1644 -0.6589
 6721SOL    HW131622   2.087   4.635  10.208  0.1444 -0.1534  2.7343
 6721SOL    HW231623   2.117   4.495  10.222 -1.4565  0.6904 -1.0169
 6722SOL     OW31624   3.980   1.529   5.090  0.0535  0.2140 -0.4002
 6722SOL    HW131625   3.955   1.467   5.022  1.5136  0.7057 -1.3943
 6722SOL    HW231626   4.001   1.608   5.039  1.9238  0.8578  1.3827
 6723SOL     OW31627   2.857   1.546   3.059 -0.0839  0.1150 -0.3442
 6723SOL    HW131628   2.918   1.565   2.989  1.1865 -1.2875  0.3805
 6723SOL    HW231629   2.771   1.544   3.017 -0.2514  1.2966 -0.0557
 6724SOL     OW31630   1.658   3.938   7.489  0.0545 -0.0376  0.6089
 6724SOL    HW131631   1.706   3.878   7.432 -1.6216 -0.6626 -0.1707
 6724SOL    HW231632   1.666   4.021   7.442 -1.6769 -0.0604  0.2742
 6725SOL     OW31633   3.660   3.893  13.607 -0.4650  0.2498 -0.3498
 6725SOL    HW131634   3.565   3.881  13.604 -0.6026  1.0981  0.5730
 6725SOL    HW231635   3.688   3.826  13.670 -0.9505 -1.3626 -1.8535
 6726SOL     OW31636   4.330   1.751   7.423  0.7551  0.3077  0.1996
 6726SOL    HW131637   4.397   1.706   7.372 -0.2552  0.6170 -1.4306
 6726SOL    HW231638   4.350   1.725   7.512  0.5545 -1.0266 -0.1488
 6727SOL     OW31639   3.048   4.350   5.924 -0.1697  0.1387  0.1779
 6727SOL    HW131640   2.986   4.404   5.974 -0.4650  1.3563 -1.5185
 6727SOL    HW231641   3.125   4.358   5.980  0.0887  1.3781 -0.3729
 6728SOL     OW31642   4.246   0.094   6.763  0.2116  0.2490 -0.1198
 6728SOL    HW131643   4.301   0.172   6.755  0.8785 -0.0376  1.5652
 6728SOL    HW231644   4.283   0.035   6.698 -1.0745 -1.0883  0.3600
 6729SOL     OW31645   3.459   3.963  11.153 -0.3295  0.0019 -0.1878
 6729SOL    HW131646   3.406   4.026  11.104 -2.6953 -1.2035  0.8026
 6729SOL    HW231647   3.546   4.000  11.143 -0.4356 -0.1324 -1.6426
 6730SOL     OW31648   3.501   0.684  10.740  0.3869  0.6226  0.1929
 6730SOL    HW131649   3.555   0.762  10.748 -0.8410  1.5564 -0.6400
 6730SOL    HW231650   3.419   0.707  10.785 -0.6646  1.2089 -2.0381
 6731SOL     OW31651   4.377   3.472  10.416  0.4015 -0.5889 -0.6335
 6731SOL    HW131652   4.318   3.481  10.341 -0.7665 -1.8560  0.1457
 6731SOL    HW231653   4.317   3.496  10.487 -0.2229 -2.9357 -0.3632
 6732SOL     OW31654   1.682   0.912   8.217 -0.5488 -0.1262  0.0722
 6732SOL    HW131655   1.622   0.864   8.160 -1.2475  1.2065 -0.3385
 6732SOL    HW231656   1.766   0.866   8.223 -0.1962  0.7539  1.8730
 6733SOL     OW31657   2.928   1.239   7.524  0.8405  0.5751  0.2895
 6733SOL    HW131658   2.926   1.225   7.430  2.2424 -1.3906  0.5558
 6733SOL    HW231659   2.909   1.333   7.529  0.7732  0.6723 -2.0149
 6734SOL     OW31660   2.065   2.148  11.865 -0.0190  0.1414 -0.2726
 6734SOL    HW131661   2.111   2.147  11.949 -0.6639  3.0766  0.0976
 6734SOL    HW231662   1.972   2.135  11.886  0.4848  2.4620  3.4718
 6735SOL     OW31663   3.519   4.061   2.571 -0.1114 -0.8134 -0.6856
 6735SOL    HW131664   3.511   3.970   2.598  0.5102 -0.6145  0.1362
 6735SOL    HW231665   3.613   4.067   2.553 -0.1493 -1.7218 -1.1545
 6736SOL     OW31666   3.715   3.196   0.340 -0.3107 -0.4769  0.0924
 6736SOL    HW131667   3.620   3.206   0.353  0.1105  3.5340 -0.0798
 6736SOL    HW231668   3.747   3.204   0.430 -1.9910 -1.7793  0.8086
 6737SOL     OW31669   4.207   1.267   3.312  1.0213 -0.2193  1.0172
 6737SOL    HW131670   4.188   1.177   3.287 -0.0545 -0.6148  3.2258
 6737SOL    HW231671   4.239   1.242   3.399  0.7620 -0.4057  1.0580
 6738SOL     OW31672   0.970   4.563  12.784 -0.8556 -0.1129 -0.0783
 6738SOL    HW131673   1.005   4.555  12.872  1.6335 -1.8493 -1.2180
 6738SOL    HW231674   0.982   4.477  12.745  0.4075 -0.2286  0.5550
 6739SOL     OW31675   3.292   2.235   5.212  0.6324  0.5315  0.1981
 6739SOL    HW131676   3.253   2.318   5.239 -2.3492  0.0611 -2.7291
 6739SOL    HW231677   3.381   2.268   5.201  1.2511 -1.1458  0.2388
 6740SOL     OW31678   1.564   2.130   5.879  0.3709 -0.4916 -0.5836
 6740SOL    HW131679   1.509   2.208   5.867 -0.5102 -1.2013 -1.0863
 6740SOL    HW231680   1.549   2.087   5.795 -1.8630  1.0249 -0.9523
 6741SOL     OW31681   2.216   0.774   9.701 -0.7081  0.6530  0.1084
 6741SOL    HW131682   2.159   0.775   9.625  0.9621  0.0237 -1.1602
 6741SOL    HW231683   2.203   0.689   9.744  0.5859 -0.4485 -1.6832
 6742SOL     OW31684   4.033   2.121   6.254 -0.0805  0.9552  0.0206
 6742SOL    HW131685   4.073   2.120   6.340  1.4635 -1.5204 -0.7255
 6742SOL    HW231686   4.035   2.215   6.237 -2.3473  0.7909 -1.1992
 6743SOL     OW31687   1.980   3.515   1.843  0.1775 -0.4012 -0.0947
 6743SOL    HW131688   2.058   3.548   1.799  0.6047 -0.6590  0.4638
 6743SOL    HW231689   1.957   3.439   1.791 -1.3387 -3.1549  4.5325
 6744SOL     OW31690   3.826   2.955   0.138  0.1469 -0.6061 -0.1473
 6744SOL    HW131691   3.738   2.956   0.102 -0.1402 -3.2358  0.5175
 6744SOL    HW231692   3.820   3.031   0.196 -2.4480  0.8428 -2.3045
 6745SOL     OW31693   1.654   4.577   7.574 -0.4025  0.1855  0.0430
 6745SOL    HW131694   1.722   4.520   7.538  1.4420  2.2399  0.2618
 6745SOL    HW231695   1.664   4.567   7.669  1.5156  1.0648 -0.0547
 6746SOL     OW31696   2.750   2.003   3.658  0.1277  0.3809  0.7167
 6746SOL    HW131697   2.766   2.097   3.654  4.3196 -0.3518 -0.1082
 6746SOL    HW231698   2.830   1.963   3.622  0.3848  3.0105 -1.5985
 6747SOL     OW31699   0.161   3.994   1.536  0.1231  0.3617  0.1362
 6747SOL    HW131700   0.249   3.970   1.566 -0.5307 -2.7722 -0.4631
 6747SOL    HW231701   0.162   4.085   1.564  1.5569  0.1231  0.8441
 6748SOL     OW31702   4.221   3.862  17.148 -0.0127 -0.5265  0.3122
 6748SOL    HW131703   4.181   3.783  17.113  0.7385 -1.3576  1.3330
 6748SOL    HW231704   4.315   3.849  17.162  0.4610  1.3229 -1.0642
 6749SOL     OW31705   2.011   3.498   4.778  0.1499  0.2809 -0.2079
 6749SOL    HW131706   2.054   3.535   4.701  0.3838 -0.3388 -0.3774
 6749SOL    HW231707   1.961   3.428   4.735 -0.7497  1.0211 -0.3790
 6750SOL     OW31708   4.214   2.436   7.685 -0.1784  0.1319 -0.1493
 6750SOL    HW131709   4.234   2.517   7.732 -0.8938 -1.4681  2.9153
 6750SOL    HW231710   4.180   2.384   7.758 -0.5642  0.2859 -0.2215
 6751SOL     OW31711   1.499   0.342  12.817  0.0484  0.5602 -0.0139
 6751SOL    HW131712   1.582   0.328  12.772  0.5960  1.1695  0.7890
 6751SOL    HW231713   1.462   0.411  12.763  0.7498  1.3287  0.4775
 6752SOL     OW31714   4.488   1.019  16.043  0.8001 -0.1792 -0.4571
 6752SOL    HW131715   4.411   1.009  15.987 -0.0055  0.2025  0.5622
 6752SOL    HW231716   4.453   0.998  16.130  2.5069 -0.3937  0.1629
 6753SOL     OW31717   1.635   4.253   1.323  0.2944 -0.4257  0.0431
 6753SOL    HW131718   1.543   4.276   1.331  0.4653 -0.3650  1.9274
 6753SOL    HW231719   1.658   4.324   1.263  1.1393  0.2264  1.1379
 6754SOL     OW31720   1.986   1.250  15.745 -0.3735 -0.6092  0.3112
 6754SOL    HW131721   1.996   1.336  15.705  1.0715 -0.9383 -0.0252
 6754SOL    HW231722   2.008   1.259  15.838  1.4764  1.0382 -0.2736
 6755SOL     OW31723   1.965   3.039   5.758 -0.5911  0.0789  0.6412
 6755SOL    HW131724   1.960   3.048   5.853  1.8713 -3.0402  1.0699
 6755SOL    HW231725   1.999   3.125   5.735 -1.2073  0.7230  2.1664
 6756SOL     OW31726   1.468   4.327   8.346 -0.1357 -0.8501 -0.2283
 6756SOL    HW131727   1.384   4.330   8.300 -1.2820 -0.1546  1.9177
 6756SOL    HW231728   1.486   4.234   8.351  2.0143 -0.4200 -0.1086
 6757SOL     OW31729   0.257   0.228  11.930  0.7285  0.1489 -0.2078
 6757SOL    HW131730   0.273   0.137  11.905 -0.0030  0.1894 -0.8426
 6757SOL    HW231731   0.248   0.264  11.842 -0.5460  1.1016  0.3179
 6758SOL     OW31732   1.455   3.800   7.200  0.0620 -0.3862 -0.3763
 6758SOL    HW131733   1.398   3.743   7.148 -0.6498 -0.3289  0.3472
 6758SOL    HW231734   1.541   3.760   7.190 -0.8154 -2.0798 -1.0589
 6759SOL     OW31735   2.922   1.218   7.251 -0.1950  0.0147 -0.0635
 6759SOL    HW131736   2.987   1.274   7.208  0.0462  0.0953  0.4047
 6759SOL    HW231737   2.917   1.145   7.189 -0.5845  1.9633 -2.3247
 6760SOL     OW31738   1.834   3.237   1.755  0.1822 -0.4660  0.3866
 6760SOL    HW131739   1.770   3.302   1.725  0.4620 -0.2332  0.3030
 6760SOL    HW231740   1.841   3.183   1.676 -0.8006  0.6954 -0.5008
 6761SOL     OW31741   3.033   0.420  13.188  0.1853 -1.4468  0.5102
 6761SOL    HW131742   3.097   0.467  13.136 -1.0840 -0.3548 -0.0791
 6761SOL    HW231743   2.955   0.432  13.133 -0.0323 -3.0956  0.4628
 6762SOL     OW31744   0.641   0.009   4.983 -0.6707  0.5171  0.1506
 6762SOL    HW131745   0.588   0.082   4.950  1.6968  3.3889  2.5993
 6762SOL    HW231746   0.720   0.031   4.934 -0.2521 -0.1846  0.5003
 6763SOL     OW31747   3.700   1.229   9.258 -0.2114  0.1895 -0.5449
 6763SOL    HW131748   3.685   1.171   9.183  0.4844  0.9986 -1.2955
 6763SOL    HW231749   3.788   1.199   9.281  1.0763  3.0736 -1.8608
 6764SOL     OW31750   4.384   0.109   4.424  0.0252  0.9263  0.5675
 6764SOL    HW131751   4.455   0.048   4.443 -0.9567 -0.4791 -0.2979
 6764SOL    HW231752   4.339   0.101   4.508 -0.0600  1.0463  0.5349
 6765SOL     OW31753   3.170   1.049  13.438 -0.6178 -0.3745  0.4575
 6765SOL    HW131754   3.116   1.036  13.516 -0.1569 -0.7664  0.7120
 6765SOL    HW231755   3.233   0.977  13.441  0.6324  0.7229  0.5670
 6766SOL     OW31756   0.071   4.713   8.016  0.6887 -0.6140 -0.4514
 6766SOL    HW131757   0.027   4.655   7.953  0.2331 -1.5416  0.7197
 6766SOL    HW231758   0.146   4.656   8.037  1.3600  0.0929 -0.9224
 6767SOL     OW31759   4.344   0.119   1.239 -0.6420  0.0415  0.6729
 6767SOL    HW131760   4.288   0.051   1.276 -1.2334 -0.6754 -1.5659
 6767SOL    HW231761   4.360   0.074   1.157 -0.6182  1.6908 -0.2370
 6768SOL     OW31762   1.836   2.137  13.295  0.1845  0.1149  0.0529
 6768SOL    HW131763   1.841   2.055  13.345  0.3729  0.3297  0.3841
 6768SOL    HW231764   1.877   2.195  13.359 -3.7804  0.4972  2.2958
 6769SOL     OW31765   3.432   1.913   6.267  0.3780  0.0878  0.1091
 6769SOL    HW131766   3.425   1.880   6.178  1.6463 -2.5446  0.9755
 6769SOL    HW231767   3.444   2.006   6.247 -0.3892  0.0660 -0.4531
 6770SOL     OW31768   2.949   3.163   6.611 -0.4121 -0.3623  0.0915
 6770SOL    HW131769   2.995   3.141   6.692  1.2105 -2.0663 -1.2924
 6770SOL    HW231770   2.997   3.125   6.538 -0.7095 -0.5846  0.0140
 6771SOL     OW31771   4.132   3.774   2.514 -0.6039 -0.2642  0.7533
 6771SOL    HW131772   4.165   3.690   2.484  2.1462  1.1656 -0.1647
 6771SOL    HW231773   4.182   3.804   2.590 -3.2985  1.9216  1.6754
 6772SOL     OW31774   4.127   2.076   1.901  0.0883  0.5050  0.0443
 6772SOL    HW131775   4.091   2.062   1.814  1.5150  1.1103 -0.6435
 6772SOL    HW231776   4.157   2.167   1.901  1.6988 -0.0259 -0.3046
 6773SOL     OW31777   1.913   3.976  14.440 -0.2812  0.5060 -0.3525
 6773SOL    HW131778   1.969   4.052  14.449  1.7910 -0.9488 -1.0934
 6773SOL    HW231779   1.861   3.982  14.521  0.8283  2.0235  0.2319
 6774SOL     OW31780   0.809   4.143   3.135 -0.6298  0.2955  0.2575
 6774SOL    HW131781   0.898   4.158   3.167 -1.8531  1.8357  2.8892
 6774SOL    HW231782   0.774   4.071   3.188  0.2842 -0.5171 -0.2540
 6775SOL     OW31783   3.070   4.661  15.659 -0.1271  0.1448 -0.3996
 6775SOL    HW131784   3.017   4.716  15.716  0.3965 -0.5930  0.8011
 6775SOL    HW231785   3.006   4.601  15.623 -1.2652  1.7598 -1.0939
 6776SOL     OW31786   3.369   2.241   6.554  0.3997 -0.3576 -0.2337
 6776SOL    HW131787   3.312   2.177   6.596  0.8652 -1.6385 -1.5402
 6776SOL    HW231788   3.375   2.313   6.617  0.5341 -1.6847  1.2516
 6777SOL     OW31789   1.094   4.421   7.938  0.1175  0.0606 -0.8078
 6777SOL    HW131790   1.110   4.484   7.868  1.7359  1.9352  1.2715
 6777SOL    HW231791   1.176   4.373   7.936 -0.0498 -0.2613  0.0374
 6778SOL     OW31792   2.301   4.535   2.828  0.4335  0.2741  0.5430
 6778SOL    HW131793   2.212   4.557   2.801  1.0893  2.1046 -0.1494
 6778SOL    HW231794   2.348   4.540   2.745  0.9981  1.3345  0.9198
 6779SOL     OW31795   1.997   0.873  15.435 -0.6071 -0.0947  0.6078
 6779SOL    HW131796   2.053   0.828  15.372  1.1755  1.1012  1.3554
 6779SOL    HW231797   1.925   0.909  15.383 -0.2925  0.1021  0.3102
 6780SOL     OW31798   0.022   2.248  13.288 -0.5455  0.4348  0.2192
 6780SOL    HW131799   4.669   2.260  13.342 -1.4060 -1.4694 -0.6019
 6780SOL    HW231800   0.089   2.304  13.327  0.3333  0.8622 -1.9299
 6781SOL     OW31801   1.402   4.386   2.600 -0.6423 -0.1148 -0.3361
 6781SOL    HW131802   1.492   4.418   2.606 -0.6089 -0.7806  2.7315
 6781SOL    HW231803   1.382   4.379   2.507  0.5195  1.1201 -0.6891
 6782SOL     OW31804   3.401   3.271   8.303 -0.0389  0.9839  0.3837
 6782SOL    HW131805   3.312   3.286   8.270 -1.2459  1.3966  3.8905
 6782SOL    HW231806   3.451   3.257   8.223  0.9748  2.1486  0.8034
 6783SOL     OW31807   4.144   2.640  14.267  0.1815 -0.4273  0.4136
 6783SOL    HW131808   4.064   2.685  14.237 -0.4326 -0.4308  2.0369
 6783SOL    HW231809   4.193   2.713  14.305  0.3575  0.4022 -1.3719
 6784SOL     OW31810   0.219   2.865   0.655 -0.6579 -0.0120  0.6012
 6784SOL    HW131811   0.247   2.930   0.591  1.5974 -0.3859  1.2095
 6784SOL    HW231812   0.201   2.790   0.599  0.0762 -0.2983  0.7461
 6785SOL     OW31813   0.560   3.205   1.230  0.1387  0.0096 -0.2564
 6785SOL    HW131814   0.614   3.178   1.304  0.5805 -0.9173 -0.9074
 6785SOL    HW231815   0.607   3.163   1.158  0.6738 -0.7596  0.5405
 6786SOL     OW31816   0.135   4.113   5.628  0.2886  0.4794  0.0456
 6786SOL    HW131817   0.152   4.049   5.560 -2.3461  2.4742 -2.4717
 6786SOL    HW231818   0.223   4.136   5.655  0.0519  2.6233 -1.0098
 6787SOL     OW31819   3.012   1.480   6.133  0.1373 -0.1224  0.2936
 6787SOL    HW131820   2.944   1.421   6.101 -0.8222  1.8139 -1.2451
 6787SOL    HW231821   2.953   1.549   6.160  0.9925  0.0078  1.7932
 6788SOL     OW31822   3.091   2.714   7.725 -0.5009  0.2190 -0.0076
 6788SOL    HW131823   3.098   2.792   7.671  0.9045  1.4790  1.9910
 6788SOL    HW231824   3.178   2.676   7.712 -1.1578 -0.7972 -1.3331
 6789SOL     OW31825   1.932   0.593  15.073  0.4450  0.1204 -0.5412
 6789SOL    HW131826   1.982   0.552  15.144 -0.1399  1.8295  0.8404
 6789SOL    HW231827   1.893   0.515  15.033 -0.0772  0.7046 -1.1634
 6790SOL     OW31828   3.304   2.632   3.849 -0.1560  0.4699 -0.5589
 6790SOL    HW131829   3.365   2.693   3.890 -0.5113  0.6942 -0.3661
 6790SOL    HW231830   3.298   2.679   3.765 -0.2189 -0.8706 -1.3126
 6791SOL     OW31831   4.458   2.641  16.235 -0.2731 -0.6103  0.7225
 6791SOL    HW131832   4.532   2.700  16.248 -1.0035  0.2353  1.1037
 6791SOL    HW231833   4.477   2.556  16.274 -0.1264 -1.1667 -0.5714
 6792SOL     OW31834   3.315   4.075   3.737 -0.1933  0.3175  0.5068
 6792SOL    HW131835   3.349   3.986   3.733 -0.1103  0.2607  2.6425
 6792SOL    HW231836   3.398   4.122   3.752  0.0647  0.7265 -2.2041
 6793SOL     OW31837   2.627   0.656   4.462  0.6952 -0.2824  0.1985
 6793SOL    HW131838   2.709   0.616   4.492 -0.5730 -2.4708  0.7464
 6793SOL    HW231839   2.656   0.745   4.484  0.7950 -0.4669  0.8204
 6794SOL     OW31840   4.466   0.112  13.826  0.1941 -0.1349  0.3899
 6794SOL    HW131841   4.411   0.083  13.753  0.0834  0.4494  0.2379
 6794SOL    HW231842   4.477   0.031  13.875 -1.7475 -0.5293  0.1726
 6795SOL     OW31843   4.666   2.593   6.579 -0.2298  0.0610  0.4225
 6795SOL    HW131844   4.625   2.549   6.505 -0.3159 -2.2110  1.8196
 6795SOL    HW231845   4.638   2.544   6.657  0.2102  0.8028  1.0522
 6796SOL     OW31846   2.931   4.002   7.401 -0.5596 -0.5406 -0.1902
 6796SOL    HW131847   2.932   3.989   7.496 -0.5388  1.0438  0.0200
 6796SOL    HW231848   2.857   3.948   7.374 -0.1028 -1.8386  1.1052
 6797SOL     OW31849   1.417   0.117   3.734 -0.4632 -0.1428 -0.3372
 6797SOL    HW131850   1.329   0.081   3.725 -0.4172 -0.5591  0.8848
 6797SOL    HW231851   1.403   0.190   3.674 -2.1842 -0.1131  0.0893
 6798SOL     OW31852   3.797   2.753   4.668 -0.0476 -0.2288 -0.1196
 6798SOL    HW131853   3.723   2.729   4.612 -0.5466  1.0722 -0.0214
 6798SOL    HW231854   3.851   2.787   4.597  1.8038  0.5214  1.6577
 6799SOL     OW31855   1.380   3.270  11.087  0.3167 -0.1450  0.4725
 6799SOL    HW131856   1.446   3.205  11.062 -1.0155 -1.7615  1.1946
 6799SOL    HW231857   1.336   3.218  11.154  1.7472 -2.3724 -0.3051
 6800SOL     OW31858   0.206   3.591   5.381  0.1005 -0.2016 -0.0458
 6800SOL    HW131859   0.175   3.505   5.411 -0.0887 -0.1785 -0.1745
 6800SOL    HW231860   0.287   3.559   5.341  0.2355  2.5530 -1.9464
 6801SOL     OW31861   1.720   2.338  12.887 -0.4526 -0.3148  0.0028
 6801SOL    HW131862   1.627   2.346  12.867 -0.4827 -0.6128  0.0214
 6801SOL    HW231863   1.737   2.422  12.929  0.7108 -0.8950  0.6797
 6802SOL     OW31864   3.513   4.516   8.106  0.3367 -0.1534  0.1921
 6802SOL    HW131865   3.552   4.436   8.070  0.9607  0.2415 -0.0084
 6802SOL    HW231866   3.456   4.539   8.033  1.5026  1.7790 -0.1095
 6803SOL     OW31867   1.431   3.250   5.993  0.2887  0.3468  0.0312
 6803SOL    HW131868   1.348   3.240   5.947  0.9690 -1.6723 -0.7657
 6803SOL    HW231869   1.448   3.344   5.990  2.2255  0.1334  3.6517
 6804SOL     OW31870   2.515   2.366  10.467  0.4791  0.2864  0.3461
 6804SOL    HW131871   2.499   2.416  10.387 -0.4986 -2.8105 -1.3798
 6804SOL    HW231872   2.517   2.276  10.436  1.2924  1.0263 -1.7311
 6805SOL     OW31873   3.226   3.046  13.116  0.0722 -0.1340  0.2729
 6805SOL    HW131874   3.254   3.138  13.112 -1.7397  0.3801 -0.4466
 6805SOL    HW231875   3.137   3.070  13.091  0.3877 -0.2022 -0.9336
 6806SOL     OW31876   3.533   0.143   7.202 -0.0982 -0.3489 -0.0719
 6806SOL    HW131877   3.598   0.142   7.132  1.2356  2.1144  1.1219
 6806SOL    HW231878   3.568   0.205   7.266 -0.5206 -0.5298  0.3385
 6807SOL     OW31879   1.922   3.133   4.868 -0.0566 -0.0798 -0.1453
 6807SOL    HW131880   1.894   3.187   4.794  0.6229  1.1997  0.5291
 6807SOL    HW231881   1.892   3.197   4.932 -0.0714 -0.1809 -0.0506
 6808SOL     OW31882   3.980   2.339   6.736  0.3590  0.3861  0.4058
 6808SOL    HW131883   3.965   2.349   6.830  1.5584  0.9849  0.5298
 6808SOL    HW231884   3.893   2.330   6.697  2.0391 -0.8631 -3.0684
 6809SOL     OW31885   0.280   3.187   6.159  0.2377  0.1967 -0.0935
 6809SOL    HW131886   0.184   3.185   6.166  0.3749  0.1055  1.8557
 6809SOL    HW231887   0.301   3.096   6.176  0.9985  0.7660  2.0653
 6810SOL     OW31888   1.071   1.962   5.773 -0.8136  0.3044 -0.1024
 6810SOL    HW131889   1.005   1.965   5.704 -1.5348 -0.8369  0.5435
 6810SOL    HW231890   1.013   1.977   5.848 -0.8873 -0.8269  0.0717
 6811SOL     OW31891   4.047   1.016  16.137 -0.2199  0.1625  0.0243
 6811SOL    HW131892   4.015   0.970  16.215 -2.7886  0.6461 -0.7679
 6811SOL    HW231893   4.136   0.982  16.143  0.3271  1.4329 -0.9323
 6812SOL     OW31894   1.484   1.019   4.721  0.2698  0.0806  0.4311
 6812SOL    HW131895   1.408   1.060   4.763  0.3899 -2.6072  3.1911
 6812SOL    HW231896   1.444   0.987   4.640  0.5681  0.1744  0.2475
 6813SOL     OW31897   3.257   2.478   2.603 -0.2892  0.0861  0.2126
 6813SOL    HW131898   3.293   2.442   2.684  2.1032  1.7352 -0.1114
 6813SOL    HW231899   3.320   2.549   2.592 -0.2807  0.3734  2.2035
 6814SOL     OW31900   2.540   4.303   1.555 -0.3642  0.2127  0.5023
 6814SOL    HW131901   2.603   4.245   1.597 -0.8119  0.3644  1.3810
 6814SOL    HW231902   2.481   4.321   1.628 -0.9045  0.3754  0.0295
 6815SOL     OW31903   4.291   3.068  10.906 -0.1480  0.6105 -0.1150
 6815SOL    HW131904   4.308   3.121  10.984 -0.9041  2.8311 -1.4483
 6815SOL    HW231905   4.313   3.133  10.840 -0.3224  0.1698 -0.6059
 6816SOL     OW31906   2.113   3.824  11.496 -0.3210  0.3734  0.0961
 6816SOL    HW131907   2.132   3.832  11.403  0.6325 -0.1244  0.2464
 6816SOL    HW231908   2.108   3.729  11.507  0.9020  0.1494 -1.2629
 6817SOL     OW31909   2.268   2.055  12.614 -0.7906 -0.8597 -0.1735
 6817SOL    HW131910   2.305   2.113  12.680  0.3808  3.0252 -4.2688
 6817SOL    HW231911   2.191   2.104  12.585 -0.5329  0.2644  1.0786
 6818SOL     OW31912   1.721   1.408   7.091  0.1437  0.7668  0.8276
 6818SOL    HW131913   1.732   1.454   7.008  2.2782 -0.2466  0.5550
 6818SOL    HW231914   1.626   1.414   7.097 -0.0523 -0.7169 -0.6946
 6819SOL     OW31915   1.174   0.771   4.172  0.3399 -0.6470 -0.1182
 6819SOL    HW131916   1.178   0.697   4.232  0.5757 -1.1598 -0.7639
 6819SOL    HW231917   1.184   0.716   4.094 -1.5244 -1.3223  0.1183
 6820SOL     OW31918   2.066   4.065  10.706  0.8234 -0.2288  0.0923
 6820SOL    HW131919   2.102   4.113  10.631 -0.4105  1.4702  0.5982
 6820SOL    HW231920   2.068   4.126  10.779  1.3376 -0.5540  0.3451
 6821SOL     OW31921   0.834   2.563   7.259 -0.0947 -0.5119 -0.4399
 6821SOL    HW131922   0.752   2.610   7.244  1.1901  1.7638 -0.3617
 6821SOL    HW231923   0.906   2.621   7.236 -1.5727  0.9286 -1.4044
 6822SOL     OW31924   2.525   1.031   1.906 -0.0036 -0.4356  0.2888
 6822SOL    HW131925   2.600   1.024   1.847 -0.7400 -0.4186 -0.6465
 6822SOL    HW231926   2.462   0.972   1.864  1.9499 -0.6382 -2.3722
 6823SOL     OW31927   0.451   2.315   1.883  0.1447  0.3613 -0.0357
 6823SOL    HW131928   0.539   2.339   1.852 -0.0617 -0.0490 -0.9451
 6823SOL    HW231929   0.463   2.274   1.968  0.1546 -2.5447 -1.4152
 6824SOL     OW31930   0.585   1.058   8.964  0.0161  0.1507  0.4410
 6824SOL    HW131931   0.631   1.082   8.884 -0.5746  0.8293  0.3098
 6824SOL    HW231932   0.648   1.091   9.028 -0.5331  0.7642  0.6689
 6825SOL     OW31933   3.836   4.404   3.544 -0.0759  0.1365  0.5474
 6825SOL    HW131934   3.798   4.335   3.598  2.4230  0.7007  3.0092
 6825SOL    HW231935   3.914   4.362   3.508 -0.5850  0.6074 -1.1182
 6826SOL     OW31936   0.386   3.853   4.688 -0.1216 -0.7980 -0.3231
 6826SOL    HW131937   0.458   3.833   4.748 -0.2710  1.2191  0.5153
 6826SOL    HW231938   0.425   3.915   4.627  0.2256 -0.4665  0.2345
 6827SOL     OW31939   2.861   3.407   3.785  0.1949 -0.3488  0.2432
 6827SOL    HW131940   2.774   3.420   3.745  0.4270  1.2136  0.2546
 6827SOL    HW231941   2.853   3.313   3.799  0.0592 -0.2291  0.9831
 6828SOL     OW31942   1.325   1.468   4.479  0.3817  0.0357  0.6561
 6828SOL    HW131943   1.320   1.446   4.386 -0.8744  2.8016  0.0835
 6828SOL    HW231944   1.392   1.411   4.516  0.1651 -1.6705 -1.5715
 6829SOL     OW31945   2.337   4.621   6.040  0.0599  0.3178  0.0137
 6829SOL    HW131946   2.400   4.675   6.087  0.8181  0.0376 -0.6753
 6829SOL    HW231947   2.358   4.529   6.055  0.6160  0.4898  0.2979
 6830SOL     OW31948   0.848   4.226  12.157  0.5529  0.2637 -0.2455
 6830SOL    HW131949   0.927   4.258  12.114  0.6749  1.0387  0.5390
 6830SOL    HW231950   0.832   4.137  12.127  1.3735 -0.1737  0.6353
 6831SOL     OW31951   1.072   4.208   4.455  0.2844 -0.0024 -0.4150
 6831SOL    HW131952   1.132   4.185   4.526  0.2435  0.6446 -0.1712
 6831SOL    HW231953   1.095   4.300   4.445  1.8103 -0.3130  0.1038
 6832SOL     OW31954   3.989   2.368  15.176  0.2488  0.5698  0.3234
 6832SOL    HW131955   3.950   2.329  15.097 -2.7014  1.3451  1.3832
 6832SOL    HW231956   4.073   2.382  15.132  0.1106 -1.0528 -0.4666
 6833SOL     OW31957   0.678   0.798   0.593 -0.0214 -0.0223  0.7736
 6833SOL    HW131958   0.669   0.774   0.686  2.4769  1.3542  1.3731
 6833SOL    HW231959   0.727   0.721   0.565 -1.3539 -0.1911 -1.0871
 6834SOL     OW31960   3.102   0.792   8.204  0.2238 -0.5541  0.2219
 6834SOL    HW131961   3.099   0.854   8.131 -1.5296 -0.6601  0.2036
 6834SOL    HW231962   3.019   0.744   8.199  0.1176 -0.4028  0.5620
 6835SOL     OW31963   4.495   1.144   1.115 -0.1334 -0.0141  0.0320
 6835SOL    HW131964   4.468   1.233   1.092  0.1892 -0.2976 -1.4350
 6835SOL    HW231965   4.409   1.103   1.106  1.0647 -2.7016  0.9146
 6836SOL     OW31966   1.834   4.500   4.306  0.1353 -0.1294 -0.0058
 6836SOL    HW131967   1.879   4.512   4.389  0.7663  0.0618 -0.3712
 6836SOL    HW231968   1.810   4.409   4.322 -1.5572  0.3299  0.0240
 6837SOL     OW31969   2.739   3.426   1.513  0.0401 -0.2742 -0.4238
 6837SOL    HW131970   2.679   3.499   1.530  0.8617  0.6424 -1.4316
 6837SOL    HW231971   2.745   3.381   1.597  0.2762  1.6436  0.5955
 6838SOL     OW31972   3.112   0.025  12.202  0.2968  0.4504 -0.4684
 6838SOL    HW131973   3.035   0.034  12.258  0.7816  1.9901 -0.0381
 6838SOL    HW231974   3.140   4.678  12.258  0.6680 -0.3144 -1.6356
 6839SOL     OW31975   3.795   0.985   8.085  0.4422  0.0774  0.4818
 6839SOL    HW131976   3.874   1.039   8.084 -0.3196  1.1787 -0.9271
 6839SOL    HW231977   3.781   0.969   8.178  1.3510 -1.1771  0.4042
 6840SOL     OW31978   4.410   0.501   8.597  0.5708 -1.1774  0.3143
 6840SOL    HW131979   4.483   0.442   8.618  0.5859 -1.7504 -1.3344
 6840SOL    HW231980   4.373   0.516   8.684 -3.5811 -0.0934 -1.6478
 6841SOL     OW31981   0.450   1.978   2.949 -0.2233  0.4665  0.5228
 6841SOL    HW131982   0.482   1.915   3.014 -0.9647 -1.0737 -0.6174
 6841SOL    HW231983   0.469   1.947   2.861  1.9294  1.9917  0.4642
 6842SOL     OW31984   0.640   2.276  17.308  1.2058  0.6820 -0.3309
 6842SOL    HW131985   0.669   2.210  17.370  1.9543 -0.3139 -1.7395
 6842SOL    HW231986   0.546   2.285  17.321  1.0918 -0.1707 -0.6000
 6843SOL     OW31987   1.134   2.186   2.318  0.3427 -0.1231 -0.2621
 6843SOL    HW131988   1.157   2.108   2.267 -0.0750 -1.3975  1.5170
 6843SOL    HW231989   1.047   2.203   2.281  0.4251  2.0010  0.5371
 6844SOL     OW31990   4.476   3.961   6.015 -0.3847 -0.1145 -0.7342
 6844SOL    HW131991   4.522   3.972   5.932  0.4367  0.5589 -0.1941
 6844SOL    HW231992   4.418   4.037   6.022 -1.5255 -1.0287 -0.1936
 6845SOL     OW31993   2.635   2.470   6.952 -0.1709  0.7447 -0.2734
 6845SOL    HW131994   2.566   2.405   6.964 -0.6210  1.0089 -1.4541
 6845SOL    HW231995   2.651   2.503   7.040  0.9875 -0.5447  0.0001
 6846SOL     OW31996   1.429   3.729   9.212 -0.4740 -0.3819  0.3895
 6846SOL    HW131997   1.447   3.679   9.292 -1.0002  2.0920  2.0590
 6846SOL    HW231998   1.406   3.813   9.251 -3.9284 -0.6088 -1.1840
 6847SOL     OW31999   3.600   3.928   7.327 -0.1004  0.4816 -0.1087
 6847SOL    HW132000   3.694   3.943   7.321  0.0114  0.0126  0.5378
 6847SOL    HW232001   3.586   3.958   7.417  0.9243  0.0555  0.1882
 6848SOL     OW32002   4.000   1.940   6.709 -0.4979 -0.0824 -0.4397
 6848SOL    HW132003   4.034   1.943   6.798  1.8073 -1.3399 -1.3037
 6848SOL    HW232004   3.955   1.857   6.721 -0.4327 -0.0899 -0.2431
 6849SOL     OW32005   4.051   0.706   0.212 -0.1243  0.5573 -0.0478
 6849SOL    HW132006   4.080   0.795   0.234 -0.1542  0.8732 -1.2786
 6849SOL    HW232007   4.090   0.654   0.282 -2.2729 -3.5359 -1.9376
 6850SOL     OW32008   1.711   4.321  11.761  0.2007 -0.3120 -0.1786
 6850SOL    HW132009   1.674   4.275  11.837 -1.3191  1.6886  0.2805
 6850SOL    HW232010   1.646   4.390  11.748  0.2511 -0.4267 -1.0442
 6851SOL     OW32011   0.739   1.367  12.767 -0.5472 -0.2133  0.0722
 6851SOL    HW132012   0.695   1.287  12.736  1.2008 -0.7017 -1.1072
 6851SOL    HW232013   0.805   1.334  12.827  1.6837  3.0391 -0.6117
 6852SOL     OW32014   0.242   1.351   3.403 -0.1773 -0.4317  0.5082
 6852SOL    HW132015   0.275   1.261   3.412  3.6000  1.0819  1.7475
 6852SOL    HW232016   0.185   1.354   3.479  0.0399 -0.2531  0.6624
 6853SOL     OW32017   0.204   3.643   9.386  0.2441 -0.2459 -0.2392
 6853SOL    HW132018   0.238   3.590   9.459 -1.6567 -1.2184 -0.0475
 6853SOL    HW232019   0.222   3.724   9.434  0.7124 -0.9045  0.7154
 6854SOL     OW32020   3.971   3.870  15.600  0.2848  0.1239  0.3482
 6854SOL    HW132021   4.019   3.899  15.522  1.1380 -3.4411 -0.4295
 6854SOL    HW232022   3.891   3.919  15.584  0.4084  0.2483  0.1099
 6855SOL     OW32023   0.227   4.280  13.819  0.2702  0.0807  0.1124
 6855SOL    HW132024   0.224   4.204  13.761  1.9021 -0.0026  0.1431
 6855SOL    HW232025   0.175   4.337  13.762  0.3329  0.4846  0.4596
 6856SOL     OW32026   0.802   2.987   2.150 -0.0372  0.4527 -0.3802
 6856SOL    HW132027   0.727   3.047   2.155 -1.3338 -1.0283 -2.0182
 6856SOL    HW232028   0.828   2.999   2.241  0.6750 -1.6912 -0.2948
 6857SOL     OW32029   0.964   3.215   3.555 -0.0223 -0.4745  0.0732
 6857SOL    HW132030   1.037   3.245   3.502 -0.5023  1.7070  0.6395
 6857SOL    HW232031   1.005   3.152   3.614  0.3697  0.7033  1.0846
 6858SOL     OW32032   2.885   2.862   9.454 -0.4854 -0.3514 -0.6223
 6858SOL    HW132033   2.892   2.774   9.491 -2.4439 -0.2483 -0.0467
 6858SOL    HW232034   2.800   2.896   9.482  0.0724  0.4689  0.0546
 6859SOL     OW32035   4.364   4.381   5.269 -0.0061 -0.0276  0.2410
 6859SOL    HW132036   4.275   4.397   5.238  0.8775  1.8073 -1.3667
 6859SOL    HW232037   4.390   4.299   5.227  1.5923  0.0306  1.0954
 6860SOL     OW32038   4.137   1.829   9.497  0.7844  0.1328 -0.5520
 6860SOL    HW132039   4.191   1.821   9.419 -0.6849  3.2471 -1.8751
 6860SOL    HW232040   4.067   1.871   9.448 -1.6268 -0.9826  1.8861
 6861SOL     OW32041   4.151   1.563  17.070  0.2775 -0.2675  0.4836
 6861SOL    HW132042   4.059   1.550  17.094 -0.1760 -0.6158 -1.4302
 6861SOL    HW232043   4.189   1.581  17.156  1.8702  1.2288 -0.5478
 6862SOL     OW32044   0.025   1.473  12.291 -0.7952 -0.0214 -0.2125
 6862SOL    HW132045   0.119   1.472  12.274 -0.7618  0.0161 -0.0346
 6862SOL    HW232046   0.033   1.450  12.384 -1.9132 -2.2073 -0.6501
 6863SOL     OW32047   2.871   4.520  16.019  0.0547 -0.1069  0.1755
 6863SOL    HW132048   2.960   4.553  16.029  0.1335 -0.0646 -0.6150
 6863SOL    HW232049   2.833   4.551  16.101 -0.2916  3.1357 -1.2415
 6864SOL     OW32050   2.272   0.366  16.848 -0.2430  0.2692 -0.2877
 6864SOL    HW132051   2.190   0.401  16.882  0.4940  1.8230 -0.1477
 6864SOL    HW232052   2.251   0.275  16.871 -0.9530  0.6052  0.3970
 6865SOL     OW32053   2.599   0.367  16.786 -0.1983 -0.1003  0.0830
 6865SOL    HW132054   2.599   0.452  16.830 -0.1920  0.4590 -0.9950
 6865SOL    HW232055   2.577   0.308  16.858 -2.4977 -0.2168 -0.7072
 6866SOL     OW32056   0.667   4.523  12.461  0.2127  0.8796 -0.2086
 6866SOL    HW132057   0.701   4.433  12.453 -0.2043  0.5386  1.8250
 6866SOL    HW232058   0.595   4.508  12.522 -0.3936  0.0667 -1.1215
 6867SOL     OW32059   4.583   2.559   9.304  0.0858 -0.2858  0.6348
 6867SOL    HW132060   4.585   2.655   9.302 -1.1676 -0.3139 -1.9673
 6867SOL    HW232061   4.490   2.538   9.317  0.2196 -1.1832  0.1105
 6868SOL     OW32062   1.047   4.306   3.140 -0.1248 -0.0644  0.6037
 6868SOL    HW132063   1.078   4.396   3.129 -2.6051  0.9013  1.6629
 6868SOL    HW232064   1.027   4.302   3.234 -1.4357 -0.3844  0.3029
 6869SOL     OW32065   3.521   0.521  17.112 -0.2008  0.1722 -0.5882
 6869SOL    HW132066   3.600   0.529  17.165 -0.4829  1.7936 -0.4065
 6869SOL    HW232067   3.481   0.446  17.156  2.2871 -0.7811  0.0523
 6870SOL     OW32068   3.129   1.088  15.321 -0.3199 -0.2850 -0.5103
 6870SOL    HW132069   3.107   1.021  15.387  1.7487  0.6101  1.0912
 6870SOL    HW232070   3.156   1.161  15.377 -1.3899 -0.0141 -0.3461
 6871SOL     OW32071   0.631   2.582   2.652  0.5219 -0.0177  0.2468
 6871SOL    HW132072   0.721   2.582   2.620  0.6555 -1.5076  0.6442
 6871SOL    HW232073   0.640   2.508   2.712 -2.0317 -0.5489 -0.0336
 6872SOL     OW32074   4.006   4.705   4.350  0.1303 -0.5798 -0.1411
 6872SOL    HW132075   4.083   0.036   4.352 -0.5094  0.1799  3.1373
 6872SOL    HW232076   4.042   4.620   4.324 -0.0940 -1.3367  2.0400
 6873SOL     OW32077   4.139   4.471  17.597  0.0886  0.0409 -0.0597
 6873SOL    HW132078   4.112   4.514  17.515 -0.7924 -1.6299 -0.6386
 6873SOL    HW232079   4.164   4.384  17.564  0.5526  0.8358 -1.8224
 6874SOL     OW32080   3.036   3.787   1.357 -0.2119  0.2490 -0.5334
 6874SOL    HW132081   3.075   3.810   1.273 -1.1956 -1.4988 -1.4805
 6874SOL    HW232082   3.021   3.693   1.351  4.3461 -0.4813  0.0594
 6875SOL     OW32083   0.658   3.531   9.166 -0.0946 -0.0956 -0.2451
 6875SOL    HW132084   0.676   3.618   9.203 -2.6416 -0.3364  1.6097
 6875SOL    HW232085   0.572   3.546   9.128 -0.1951  0.9151  0.3863
 6876SOL     OW32086   1.445   1.759  11.194 -0.2439 -0.1057  0.0033
 6876SOL    HW132087   1.420   1.847  11.221 -0.3649  0.1194 -0.8572
 6876SOL    HW232088   1.394   1.738  11.116  1.9655 -0.4803 -1.3489
 6877SOL     OW32089   0.377   4.170   7.041  0.3259  0.1122  0.4552
 6877SOL    HW132090   0.465   4.147   7.067  0.4326 -0.1209 -0.1015
 6877SOL    HW232091   0.338   4.082   7.039 -3.4399  1.7819  0.5060
 6878SOL     OW32092   2.942   2.349   2.243  0.3195 -0.7913  0.5741
 6878SOL    HW132093   2.913   2.328   2.332 -1.2661 -0.4800  0.1380
 6878SOL    HW232094   3.037   2.356   2.256  0.0857  2.9373  0.3175
 6879SOL     OW32095   2.473   2.507   3.148  0.1247 -0.1756 -0.5352
 6879SOL    HW132096   2.540   2.502   3.080 -0.3325 -1.5746 -0.8862
 6879SOL    HW232097   2.453   2.415   3.164  0.9957 -0.0978  0.9930
 6880SOL     OW32098   1.817   2.803   8.355  0.2813 -0.6848  0.2121
 6880SOL    HW132099   1.866   2.785   8.275 -1.2471 -2.6884 -0.2791
 6880SOL    HW232100   1.890   2.835   8.409 -0.9000  1.4444  0.5336
 6881SOL     OW32101   0.800   1.862   7.989 -0.3204 -0.4289  0.5091
 6881SOL    HW132102   0.708   1.888   7.993  0.3924  2.1549  0.2886
 6881SOL    HW232103   0.850   1.934   8.027 -1.0061  0.0416  0.5084
 6882SOL     OW32104   2.254   2.730   9.909 -0.5417  0.0969 -0.6209
 6882SOL    HW132105   2.159   2.721   9.905 -0.5248 -0.3915  0.2586
 6882SOL    HW232106   2.273   2.787   9.983  0.6709  0.5076 -1.2422
 6883SOL     OW32107   2.774   0.098   3.618 -0.0048 -0.4836  0.7587
 6883SOL    HW132108   2.710   0.169   3.614 -0.1401 -0.5903  1.0428
 6883SOL    HW232109   2.824   0.101   3.537  0.0072  0.0963  0.7872
 6884SOL     OW32110   3.495   4.300   0.642 -0.1131  0.5545  0.0937
 6884SOL    HW132111   3.524   4.297   0.551  0.5617  3.3370  0.2139
 6884SOL    HW232112   3.428   4.232   0.637  1.5260 -1.0834  0.2071
 6885SOL     OW32113   4.350   1.320  17.238 -0.4237 -0.0333  0.1464
 6885SOL    HW132114   4.405   1.277  17.304 -0.3808 -1.3009 -0.7297
 6885SOL    HW232115   4.299   1.250  17.198  3.6616 -1.5325 -2.3631
 6886SOL     OW32116   3.243   4.625  14.914  0.0975  0.7063 -0.9191
 6886SOL    HW132117   3.207   4.709  14.886  2.7070  1.7407 -1.1684
 6886SOL    HW232118   3.277   4.661  14.995  0.7478 -0.1094 -0.8230
 6887SOL     OW32119   2.783   1.597   6.251 -0.3729  0.6634  0.1768
 6887SOL    HW132120   2.724   1.637   6.314  0.9411  0.7724  1.3328
 6887SOL    HW232121   2.744   1.612   6.165  0.8045  1.6461 -0.1735
 6888SOL     OW32122   2.565   3.359   0.630  0.0854  0.2774  0.1002
 6888SOL    HW132123   2.590   3.284   0.685 -1.8880 -2.0221 -2.1207
 6888SOL    HW232124   2.485   3.378   0.678 -1.0625  1.3237 -2.2091
 6889SOL     OW32125   1.683   3.936   4.573  0.5123 -0.1249 -0.7447
 6889SOL    HW132126   1.692   3.846   4.607  2.0354  0.3102  0.0343
 6889SOL    HW232127   1.700   3.982   4.655 -0.0187 -0.9837 -0.1556
 6890SOL     OW32128   4.652   0.372   5.069  0.0063 -0.1365  0.3908
 6890SOL    HW132129   4.586   0.306   5.048 -1.0357  0.9280  0.3443
 6890SOL    HW232130   4.688   0.321   5.142 -0.5824 -0.4592  0.4577
 6891SOL     OW32131   3.476   3.463   6.548  0.1446 -0.2372  0.0599
 6891SOL    HW132132   3.550   3.404   6.559 -0.7698 -1.6740 -1.5058
 6891SOL    HW232133   3.516   3.544   6.580  1.0162 -1.5419  2.2327
 6892SOL     OW32134   3.231   4.459   1.960  0.4352  0.0960  0.3726
 6892SOL    HW132135   3.265   4.421   2.041  1.0607  1.1721  0.6146
 6892SOL    HW232136   3.170   4.524   1.993  0.8540  0.1276  1.0814
 6893SOL     OW32137   0.587   1.957  11.392  0.1045 -0.3857 -0.7164
 6893SOL    HW132138   0.636   2.035  11.368 -2.2143  0.1861 -3.5676
 6893SOL    HW232139   0.513   1.979  11.336 -0.1342  2.2202  0.6519
 6894SOL     OW32140   4.389   0.696   7.695 -0.0081 -0.5839  0.6954
 6894SOL    HW132141   4.400   0.766   7.630  1.9163 -1.0918  0.4762
 6894SOL    HW232142   4.470   0.708   7.745 -1.7882 -1.1186  3.6850
 6895SOL     OW32143   4.614   0.826   2.475 -0.1355 -0.2416 -0.2715
 6895SOL    HW132144   4.526   0.792   2.490  0.8656 -2.0379  1.4755
 6895SOL    HW232145   4.656   0.742   2.455  0.2050 -0.2992  0.7193
 6896SOL     OW32146   3.313   1.658   5.604  0.2016 -0.3175 -0.2295
 6896SOL    HW132147   3.404   1.646   5.633 -0.3686 -1.0047  1.2672
 6896SOL    HW232148   3.322   1.739   5.555  1.3095 -1.0295 -1.2137
 6897SOL     OW32149   1.986   4.123   1.958 -0.4436 -0.3415 -0.2449
 6897SOL    HW132150   1.942   4.202   1.988 -3.7078 -2.1363 -0.3640
 6897SOL    HW232151   1.953   4.122   1.868 -3.0531  1.8072  0.7095
 6898SOL     OW32152   1.250   0.424   5.766  0.1385  0.5183  0.3353
 6898SOL    HW132153   1.263   0.367   5.690  0.1635  1.4036 -0.3268
 6898SOL    HW232154   1.340   0.457   5.766 -0.1044  1.1939 -0.8139
 6899SOL     OW32155   2.502   3.950   1.423 -0.3705  0.9250 -0.1416
 6899SOL    HW132156   2.491   3.942   1.518  1.3626  0.1474 -0.0025
 6899SOL    HW232157   2.594   3.924   1.414 -0.8905 -0.9128 -0.3167
 6900SOL     OW32158   3.390   1.378   7.098  0.1300  0.3223 -0.2137
 6900SOL    HW132159   3.442   1.368   7.018  0.0569  1.3582 -0.3922
 6900SOL    HW232160   3.425   1.465   7.120  1.2335  0.1732 -1.3652
 6901SOL     OW32161   4.122   2.138  16.850 -0.8575 -0.4903  0.0639
 6901SOL    HW132162   4.118   2.044  16.865 -0.9500 -0.0933  2.5013
 6901SOL    HW232163   4.205   2.159  16.808 -1.2736 -2.3714 -1.7176
 6902SOL     OW32164   3.127   1.556  16.356  0.5180 -0.5672 -0.5909
 6902SOL    HW132165   3.219   1.581  16.370  0.3548 -1.2256  1.6452
 6902SOL    HW232166   3.103   1.517  16.440  0.9108 -1.0384 -0.6956
 6903SOL     OW32167   1.174   2.298  17.549  0.0621  0.1213 -0.3836
 6903SOL    HW132168   1.167   2.247  17.468 -0.7936 -2.5485  1.3667
 6903SOL    HW232169   1.123   2.377  17.538  2.2151  1.4529 -0.8685
 6904SOL     OW32170   3.546   3.570   8.364  0.4520 -0.4398  0.0644
 6904SOL    HW132171   3.479   3.518   8.319 -0.8137 -0.8032  2.3396
 6904SOL    HW232172   3.618   3.509   8.379 -1.3686 -2.4291  0.6825
 6905SOL     OW32173   0.952   2.665   6.256 -0.5516  0.1323  0.7258
 6905SOL    HW132174   0.899   2.586   6.260 -1.4173  0.7125  0.6600
 6905SOL    HW232175   0.912   2.729   6.315 -0.2032  1.2774 -0.2782
 6906SOL     OW32176   1.927   0.892   0.264  0.3190  0.2629 -0.0875
 6906SOL    HW132177   1.968   0.939   0.191  1.6213 -2.4198 -1.0717
 6906SOL    HW232178   1.835   0.875   0.242  1.3240 -2.1799 -2.3425
 6907SOL     OW32179   4.496   4.079   1.792  0.8354 -0.0828 -0.4037
 6907SOL    HW132180   4.448   4.101   1.872  0.3285  0.0423 -0.7383
 6907SOL    HW232181   4.458   3.997   1.761  2.0792 -0.4074 -1.0623
 6908SOL     OW32182   0.207   0.224   5.029  0.5525 -0.9830  0.3119
 6908SOL    HW132183   0.288   0.271   5.053 -1.3367  0.6553  3.4507
 6908SOL    HW232184   0.175   0.194   5.114  0.5978 -1.9070  0.0027
 6909SOL     OW32185   3.414   4.036   2.879  0.6505 -0.0907  0.5528
 6909SOL    HW132186   3.502   4.073   2.886 -0.2779  2.3011 -0.3327
 6909SOL    HW232187   3.372   4.074   2.956 -0.9240 -2.1048  0.6802
 6910SOL     OW32188   2.924   0.531   5.523  0.1326 -0.2355  0.6305
 6910SOL    HW132189   2.993   0.467   5.540  0.1931  0.1177  1.7534
 6910SOL    HW232190   2.946   0.564   5.436  0.9925 -2.8905 -0.1635
 6911SOL     OW32191   3.979   0.612  13.710 -0.0364 -0.3716 -0.3877
 6911SOL    HW132192   3.975   0.540  13.774 -0.9516 -0.2947 -0.3617
 6911SOL    HW232193   4.019   0.682  13.762  1.2160 -0.8886 -0.6430
 6912SOL     OW32194   0.681   3.664  15.658  0.2989  0.5955 -0.5445
 6912SOL    HW132195   0.666   3.616  15.739 -1.3326  2.4425  0.2279
 6912SOL    HW232196   0.618   3.625  15.598 -0.0808 -3.1752  2.3464
 6913SOL     OW32197   3.127   3.317  15.037 -0.1781 -0.1835  0.2903
 6913SOL    HW132198   3.220   3.315  15.061  0.0303 -0.3598 -0.5361
 6913SOL    HW232199   3.152   3.317  14.945 -0.0765  0.4892  0.3199
 6914SOL     OW32200   3.032   1.799   6.675 -0.2322  0.2252  0.4645
 6914SOL    HW132201   2.985   1.717   6.660 -0.9340  0.6013  0.5972
 6914SOL    HW232202   3.095   1.762   6.737 -0.6555 -0.9029  0.2319
 6915SOL     OW32203   1.969   0.184   4.381  0.3050  0.4892  0.2697
 6915SOL    HW132204   2.027   0.224   4.446 -1.0629  1.8518  0.6422
 6915SOL    HW232205   1.891   0.187   4.438 -0.1658 -3.3845 -0.1611
 6916SOL     OW32206   1.147   2.646   4.338  0.0082  0.0516  0.3439
 6916SOL    HW132207   1.105   2.560   4.347 -0.2078  0.4988  3.4367
 6916SOL    HW232208   1.094   2.703   4.393  0.5412 -0.1408  1.0616
 6917SOL     OW32209   3.152   0.271   2.633  0.2377  0.6298  0.1190
 6917SOL    HW132210   3.063   0.307   2.631  0.0113 -0.0201 -1.5740
 6917SOL    HW232211   3.152   0.229   2.547 -1.7183  0.7410  0.0601
 6918SOL     OW32212   1.638   1.453  11.847  0.1584 -0.5443 -0.0519
 6918SOL    HW132213   1.629   1.514  11.920 -0.7397 -0.9632  0.1883
 6918SOL    HW232214   1.733   1.446  11.846 -0.0282 -3.0504  1.3856
 6919SOL     OW32215   2.424   1.478   6.597 -0.1793 -0.1972 -0.3044
 6919SOL    HW132216   2.478   1.407   6.631 -1.5869 -0.8547  0.5737
 6919SOL    HW232217   2.349   1.476   6.657 -1.5187 -0.6691 -1.9905
 6920SOL     OW32218   1.639   0.840   4.120 -0.2608  0.0666 -0.0886
 6920SOL    HW132219   1.654   0.934   4.109  1.1670 -0.2920 -1.2273
 6920SOL    HW232220   1.709   0.805   4.064 -1.6895 -1.0191 -1.1916
 6921SOL     OW32221   4.646   4.346   5.336  0.2242 -0.4740 -0.4154
 6921SOL    HW132222   4.553   4.355   5.314  0.0767  2.0123  1.1972
 6921SOL    HW232223   4.676   4.388   5.256 -1.3823 -2.2956 -1.9882
 6922SOL     OW32224   2.314   2.607   9.534  0.1777  0.2896 -0.0699
 6922SOL    HW132225   2.408   2.619   9.543  0.2417 -0.0831 -0.2553
 6922SOL    HW232226   2.291   2.559   9.613  1.0302 -0.9008 -0.5413
 6923SOL     OW32227   2.787   4.052  12.363  0.5295 -0.1603  0.3067
 6923SOL    HW132228   2.798   4.146  12.348 -1.1528 -0.1754 -1.0058
 6923SOL    HW232229   2.693   4.039  12.354  0.3108 -0.0153  2.2240
 6924SOL     OW32230   1.839   2.410   8.977 -0.1494  0.6470 -0.7689
 6924SOL    HW132231   1.909   2.451   9.028 -0.8621 -0.3327  1.0077
 6924SOL    HW232232   1.790   2.362   9.044  0.5930 -2.5184 -2.5393
 6925SOL     OW32233   2.720   3.142   6.171  0.4814 -0.2800 -0.5280
 6925SOL    HW132234   2.695   3.228   6.138 -3.8433 -0.7046  1.6936
 6925SOL    HW232235   2.632   3.111   6.190  0.6233  0.6582  1.7244
 6926SOL     OW32236   1.324   4.369  15.168 -0.2515 -0.1318  0.1766
 6926SOL    HW132237   1.256   4.436  15.161  2.4533  2.7602  1.6424
 6926SOL    HW232238   1.312   4.357  15.263 -3.4816 -0.2311 -0.2367
 6927SOL     OW32239   4.632   3.960   1.456  0.5574 -0.4553 -0.2522
 6927SOL    HW132240   4.629   3.865   1.446 -0.3772 -0.2876 -1.4742
 6927SOL    HW232241   4.719   3.965   1.497  0.5496  2.4752 -0.6483
 6928SOL     OW32242   2.530   3.908   8.533  0.0796  0.3505  0.5094
 6928SOL    HW132243   2.524   3.975   8.600  2.1771 -1.3516  2.4180
 6928SOL    HW232244   2.480   3.960   8.470  1.1608  2.4215  1.3714
 6929SOL     OW32245   1.498   2.609   9.143 -0.5745 -0.1544  0.1269
 6929SOL    HW132246   1.475   2.700   9.124  1.7309  0.1209 -1.3686
 6929SOL    HW232247   1.460   2.595   9.230 -0.5662 -1.0956 -0.0160
 6930SOL     OW32248   0.834   0.825   3.748  0.2424  0.4369  0.3006
 6930SOL    HW132249   0.753   0.774   3.758  0.4379 -0.5130 -2.9839
 6930SOL    HW232250   0.851   0.810   3.655 -1.3272 -0.2363  0.1062
 6931SOL     OW32251   2.376   0.864  15.611 -0.0218 -0.2730  0.0387
 6931SOL    HW132252   2.350   0.816  15.532 -0.3788  1.6926 -1.0518
 6931SOL    HW232253   2.322   0.943  15.612 -0.3090 -0.4722  0.5809
 6932SOL     OW32254   1.753   0.560   2.945 -0.0335 -0.4621  0.3919
 6932SOL    HW132255   1.722   0.470   2.954 -3.2435  0.7307  1.3544
 6932SOL    HW232256   1.690   0.604   2.887 -1.0694 -1.7735  0.5334
 6933SOL     OW32257   1.805   2.978   2.512  0.1416 -0.0769  0.3507
 6933SOL    HW132258   1.763   3.041   2.571  0.0379  1.1521 -1.0296
 6933SOL    HW232259   1.745   2.904   2.514  0.0053  0.0329  0.3506
 6934SOL     OW32260   3.391   1.159   4.934  0.2115  0.2822  0.5673
 6934SOL    HW132261   3.457   1.101   4.898  0.0408  1.3608 -1.4946
 6934SOL    HW232262   3.414   1.232   4.876 -1.2914 -0.8365 -1.4274
 6935SOL     OW32263   3.611   3.496   3.121 -0.3067 -0.0707  0.1722
 6935SOL    HW132264   3.629   3.588   3.139  2.1227 -0.4812 -0.1057
 6935SOL    HW232265   3.641   3.452   3.200  0.0473 -2.4745 -1.2895
 6936SOL     OW32266   2.973   2.752  10.631  0.1285 -0.3022 -0.2673
 6936SOL    HW132267   3.020   2.669  10.622 -1.9671 -1.6010  0.5367
 6936SOL    HW232268   3.022   2.778  10.709  1.6258 -1.4721 -0.8148
 6937SOL     OW32269   1.271   2.461   6.522  0.1236 -0.3860 -0.5355
 6937SOL    HW132270   1.229   2.476   6.437 -2.8352 -2.0870  0.5961
 6937SOL    HW232271   1.363   2.449   6.499  0.4397 -0.4061  0.7270
 6938SOL     OW32272   3.253   2.783   6.129 -0.0261 -0.2304 -0.3412
 6938SOL    HW132273   3.224   2.872   6.111 -1.2154 -0.7241 -0.8576
 6938SOL    HW232274   3.346   2.797   6.148  0.6427 -3.0236 -1.5175
 6939SOL     OW32275   1.448   3.052   2.516 -0.2666  0.3020 -0.5126
 6939SOL    HW132276   1.397   3.092   2.587 -0.8230 -0.7310 -0.3376
 6939SOL    HW232277   1.417   3.096   2.437  0.2288  1.2625 -0.1705
 6940SOL     OW32278   3.658   4.642   6.037  0.4024  0.5668  0.2872
 6940SOL    HW132279   3.574   4.686   6.049  1.0032  1.6267  0.6935
 6940SOL    HW232280   3.658   4.650   5.941  1.1483  0.3362  0.2712
 6941SOL     OW32281   1.729   1.623   3.697 -0.5014 -0.4066 -0.4391
 6941SOL    HW132282   1.681   1.705   3.686  0.3623  0.0565 -0.7435
 6941SOL    HW232283   1.742   1.622   3.792 -1.7546 -0.2974 -0.2711
 6942SOL     OW32284   2.120   0.952   8.458 -0.1709 -0.0576 -0.3784
 6942SOL    HW132285   2.121   1.048   8.459 -2.0886 -0.0488 -0.9551
 6942SOL    HW232286   2.207   0.932   8.494  0.0224 -1.2536 -1.4981
 6943SOL     OW32287   4.562   1.489   6.021 -0.4483  0.1091  0.2124
 6943SOL    HW132288   4.550   1.411   6.075 -2.0784  1.5492  1.9349
 6943SOL    HW232289   4.470   1.508   6.002 -0.8587 -1.5934  0.4544
 6944SOL     OW32290   1.862   0.340   8.386  0.8079 -0.4041  0.1008
 6944SOL    HW132291   1.776   0.298   8.387  0.3097  0.6617  1.2733
 6944SOL    HW232292   1.913   0.259   8.400  0.6485 -0.7141 -1.1229
 6945SOL     OW32293   4.378   3.368   6.140  0.3153  0.0711  0.3278
 6945SOL    HW132294   4.341   3.424   6.209  1.1195 -0.9709  1.5908
 6945SOL    HW232295   4.330   3.412   6.070  2.3708  2.7562  0.6281
 6946SOL     OW32296   1.947   4.280   6.919  0.7703 -0.3881 -0.1888
 6946SOL    HW132297   1.873   4.293   6.979  1.0597  1.3645 -0.1941
 6946SOL    HW232298   1.931   4.350   6.855  1.7202  0.9009  0.9640
 6947SOL     OW32299   3.402   1.532   8.402 -0.6141  0.2345  0.2938
 6947SOL    HW132300   3.428   1.607   8.349 -0.1334  0.3620  0.7160
 6947SOL    HW232301   3.350   1.578   8.467  0.7240  0.1593  1.4080
 6948SOL     OW32302   4.101   4.423   5.238  0.2857  0.1535 -0.1727
 6948SOL    HW132303   4.078   4.411   5.146  0.9846  1.8099 -0.5636
 6948SOL    HW232304   4.024   4.380   5.277  0.6240 -2.3205 -2.2579
 6949SOL     OW32305   3.021   3.631   4.129  0.2315 -0.5618 -0.2778
 6949SOL    HW132306   3.041   3.679   4.049 -2.3224 -0.9213 -1.1302
 6949SOL    HW232307   2.945   3.683   4.155  0.8078  0.0067  0.2887
 6950SOL     OW32308   1.094   1.262   7.593  0.1077 -0.1623  0.1558
 6950SOL    HW132309   1.164   1.327   7.592  0.3363 -0.4102 -0.1391
 6950SOL    HW232310   1.117   1.218   7.675  2.0287  1.4649  0.5004
 6951SOL     OW32311   0.038   2.363   3.238  0.2030 -0.5915  0.0414
 6951SOL    HW132312   0.036   2.373   3.142  1.9419 -0.6433 -0.0057
 6951SOL    HW232313   4.691   2.416   3.271  0.7226 -0.5081  1.0288
 6952SOL     OW32314   2.454   4.529  16.133  0.4798 -0.2571  0.1662
 6952SOL    HW132315   2.406   4.612  16.127 -0.6341 -0.9247 -0.0903
 6952SOL    HW232316   2.464   4.522  16.228 -0.1140 -0.8979  0.1749
 6953SOL     OW32317   0.850   3.789   9.106 -0.3725  0.2680  0.0669
 6953SOL    HW132318   0.846   3.854   9.036 -0.3867  1.0279  0.7718
 6953SOL    HW232319   0.760   3.802   9.136 -0.2290 -0.4309  0.7961
 6954SOL     OW32320   3.924   1.274  15.235  0.2458  0.4657  0.6618
 6954SOL    HW132321   3.996   1.289  15.174 -0.0991 -2.2050 -0.4266
 6954SOL    HW232322   3.969   1.301  15.314 -0.4957 -1.8583  1.8843
 6955SOL     OW32323   1.593   3.187   6.550 -0.4132  0.4064 -0.3016
 6955SOL    HW132324   1.564   3.228   6.468  0.1399  0.0608 -0.6726
 6955SOL    HW232325   1.676   3.147   6.527 -0.5565 -0.3077  0.4445
 6956SOL     OW32326   4.012   3.173   3.615 -0.0945  0.0581  0.0887
 6956SOL    HW132327   3.923   3.200   3.592  1.0804  2.0540 -2.0501
 6956SOL    HW232328   4.016   3.183   3.710 -0.6561 -3.2206  0.4770
 6957SOL     OW32329   1.214   4.098   4.697 -0.2495 -0.3191  0.9292
 6957SOL    HW132330   1.262   4.017   4.716 -0.6451 -1.0237 -1.0764
 6957SOL    HW232331   1.136   4.079   4.749 -3.7686  0.4254 -4.0497
 6958SOL     OW32332   4.505   3.448  17.686  0.3619  0.2837  0.0655
 6958SOL    HW132333   4.459   3.468  17.604 -1.2171  0.6750  1.0377
 6958SOL    HW232334   4.461   3.368   0.011  0.3164  0.4317  0.4124
 6959SOL     OW32335   4.040   4.408   8.356 -0.0434  0.2488 -0.3854
 6959SOL    HW132336   4.060   4.388   8.265 -2.0008 -0.1351 -0.7412
 6959SOL    HW232337   3.984   4.332   8.370  0.2617  0.4096  1.7260
 6960SOL     OW32338   4.187   3.435   6.924  0.0699 -0.3493  0.0736
 6960SOL    HW132339   4.251   3.365   6.915  1.2384  0.6634  0.5903
 6960SOL    HW232340   4.222   3.487   6.997  2.2081  0.9616 -1.8915
 6961SOL     OW32341   4.493   1.009   6.597  0.6994 -0.4136  0.1101
 6961SOL    HW132342   4.557   0.942   6.619 -1.1931 -1.1158  3.4793
 6961SOL    HW232343   4.414   0.976   6.642  0.3796 -0.2331 -0.3185
 6962SOL     OW32344   1.851   1.900   3.716 -1.0753 -0.2571 -0.1137
 6962SOL    HW132345   1.762   1.867   3.732 -0.8329 -1.5046 -1.3895
 6962SOL    HW232346   1.869   1.966   3.783  3.0682 -0.7678 -0.7280
 6963SOL     OW32347   3.837   3.044   4.854 -0.2545 -0.5540 -0.0696
 6963SOL    HW132348   3.837   3.120   4.912 -0.3544  0.7657 -1.7749
 6963SOL    HW232349   3.784   2.980   4.901 -0.6202 -0.6470 -0.6051
 6964SOL     OW32350   2.822   2.820  12.896 -0.1917 -0.6158  0.6802
 6964SOL    HW132351   2.818   2.871  12.977  2.0096 -0.4766  0.6879
 6964SOL    HW232352   2.729   2.814  12.875 -0.0283  2.1893 -0.8810
 6965SOL     OW32353   1.087   2.032   2.886 -0.6387 -0.2456  0.1103
 6965SOL    HW132354   1.116   2.021   2.796  1.3203  2.1019  0.4371
 6965SOL    HW232355   0.996   2.054   2.870  0.3345  2.3932 -1.8365
 6966SOL     OW32356   2.847   4.424   7.578 -0.1648 -0.1494 -0.1407
 6966SOL    HW132357   2.930   4.462   7.604  0.0000  0.0861 -1.0108
 6966SOL    HW232358   2.818   4.486   7.511  0.2920  1.5748  1.2449
 6967SOL     OW32359   1.282   3.582  12.351  0.6469 -0.2945 -0.1804
 6967SOL    HW132360   1.314   3.497  12.380  1.6020  0.1138 -0.0131
 6967SOL    HW232361   1.360   3.629  12.320  0.3784 -0.2252 -0.7380
 6968SOL     OW32362   0.535   2.296   7.029 -0.3904 -0.0440 -0.0390
 6968SOL    HW132363   0.466   2.259   6.974  1.7593  0.5290 -3.0942
 6968SOL    HW232364   0.475   2.308   7.104 -1.0964  0.1107 -0.6243
 6969SOL     OW32365   1.280   1.859   4.511  0.0861 -0.2848  0.2504
 6969SOL    HW132366   1.361   1.809   4.497 -1.6603 -3.3878  1.1788
 6969SOL    HW232367   1.216   1.788   4.519 -0.0666 -0.0138  1.4661
 6970SOL     OW32368   4.453   3.878   0.065  0.0118 -0.0048  0.6053
 6970SOL    HW132369   4.510   3.954   0.051 -0.9316  0.8471  1.3289
 6970SOL    HW232370   4.391   3.889  17.696  1.0590 -2.9305 -0.7275
 6971SOL     OW32371   1.950   1.901   6.314  0.1035  0.4725 -0.5206
 6971SOL    HW132372   1.922   1.982   6.357 -1.8301 -1.1226  1.2684
 6971SOL    HW232373   1.876   1.840   6.308 -2.0008  2.9575  0.0668
 6972SOL     OW32374   2.178   3.397   3.388 -0.4578 -0.4475 -0.0815
 6972SOL    HW132375   2.186   3.463   3.319 -3.3494  0.3120  0.3213
 6972SOL    HW232376   2.271   3.383   3.407 -0.6242  3.1963  3.5554
 6973SOL     OW32377   4.199   0.622   4.696 -0.5184  0.0179 -0.2577
 6973SOL    HW132378   4.242   0.547   4.654 -0.0621  2.2519 -3.8000
 6973SOL    HW232379   4.254   0.692   4.662  0.3773 -0.9862 -0.9118
 6974SOL     OW32380   3.328   2.922  10.034 -0.1806  0.0669 -0.2773
 6974SOL    HW132381   3.402   2.910   9.974 -0.6452 -1.6580 -0.4828
 6974SOL    HW232382   3.287   2.989   9.980  0.0170  0.1620 -0.3108
 6975SOL     OW32383   4.589   4.236  11.907 -0.4070  0.7865  0.2167
 6975SOL    HW132384   4.643   4.158  11.892  0.6671  1.4210  0.7865
 6975SOL    HW232385   4.623   4.282  11.830 -0.7499 -0.0405 -0.4234
 6976SOL     OW32386   0.239   4.076   2.370 -0.5193  0.3980  0.1403
 6976SOL    HW132387   0.241   4.058   2.464 -0.2885  1.5788  0.3636
 6976SOL    HW232388   0.280   4.160   2.350  0.4379  0.0210  0.5368
 6977SOL     OW32389   0.898   2.101   4.427 -0.5363  0.1843 -0.1401
 6977SOL    HW132390   0.906   2.193   4.403 -0.7822  0.5387  1.1407
 6977SOL    HW232391   0.803   2.090   4.434 -0.1978 -3.7167 -1.2483
 6978SOL     OW32392   0.917   0.165   0.682 -0.1837  0.5623  0.3099
 6978SOL    HW132393   0.895   0.090   0.738  0.7144  0.6082  0.7183
 6978SOL    HW232394   0.860   0.140   0.609  1.4467 -0.5770 -0.5855
 6979SOL     OW32395   1.420   0.484   8.482  0.8546  0.1416  0.0674
 6979SOL    HW132396   1.378   0.398   8.478 -0.7101  0.7841  2.6276
 6979SOL    HW232397   1.433   0.504   8.389  0.9115  2.1235  0.4926
 6980SOL     OW32398   4.036   3.824   0.005 -0.0475  0.5779 -0.2939
 6980SOL    HW132399   4.028   3.735   0.037  0.0590  0.5533 -0.3358
 6980SOL    HW232400   4.028   3.820  17.612  1.1964 -1.4745 -0.2895
 6981SOL     OW32401   0.607   4.011   2.833 -0.0028  0.7778 -0.5106
 6981SOL    HW132402   0.648   4.042   2.752 -0.8921  0.2793 -1.1505
 6981SOL    HW232403   0.612   4.096   2.877  3.8372 -0.3106  1.1127
 6982SOL     OW32404   3.774   4.388   6.599 -0.3660  0.0391 -0.0114
 6982SOL    HW132405   3.687   4.419   6.573 -0.6063 -0.8074 -0.2296
 6982SOL    HW232406   3.817   4.473   6.599 -0.3791  0.0533 -1.9484
 6983SOL     OW32407   2.503   0.751   5.992  0.5252  0.1064  0.1597
 6983SOL    HW132408   2.435   0.750   6.059  0.9937 -1.0464  0.6140
 6983SOL    HW232409   2.515   0.656   5.985  1.7624  0.1477  1.6268
 6984SOL     OW32410   4.313   0.820   7.286  0.0122 -0.0789 -0.0467
 6984SOL    HW132411   4.398   0.786   7.314 -0.7962 -0.1731  2.2915
 6984SOL    HW232412   4.318   0.908   7.325  0.5387 -0.1202 -0.0173
 6985SOL     OW32413   3.109   3.229   7.715  0.2446  0.5279  0.1159
 6985SOL    HW132414   3.059   3.214   7.635 -0.6447 -2.2280  1.2253
 6985SOL    HW232415   3.097   3.324   7.720 -0.7755  0.3820  0.2878
 6986SOL     OW32416   1.089   3.859   6.066 -0.4295  0.7446 -0.6109
 6986SOL    HW132417   1.035   3.830   6.139  2.7936  0.9670  1.8874
 6986SOL    HW232418   1.058   3.948   6.050 -0.7311  0.6935 -0.3181
 6987SOL     OW32419   2.449   2.227  10.871 -0.2599 -0.1804 -0.1555
 6987SOL    HW132420   2.469   2.271  10.788 -1.6541  1.1505  0.2133
 6987SOL    HW232421   2.368   2.264  10.904  0.6203  2.0416 -0.4299
 6988SOL     OW32422   3.083   0.927  11.949  0.0471 -0.6967  0.1537
 6988SOL    HW132423   3.132   0.906  12.029 -2.1136 -0.3069  1.5915
 6988SOL    HW232424   3.026   0.996  11.983 -0.2056 -0.9561  0.2619
 6989SOL     OW32425   1.478   4.425   3.679 -0.2480 -0.0293 -0.0677
 6989SOL    HW132426   1.527   4.349   3.710 -0.8083  0.0294  0.9827
 6989SOL    HW232427   1.503   4.483   3.751  1.8090 -1.0457  0.0341
 6990SOL     OW32428   2.119   4.015   3.664  0.3101  0.2775  0.0789
 6990SOL    HW132429   2.160   4.005   3.578 -0.4654  0.7108 -0.3416
 6990SOL    HW232430   2.154   3.935   3.705 -1.2036  0.2170  1.2683
 6991SOL     OW32431   0.441   2.444   6.606  0.1140  0.4972  0.8423
 6991SOL    HW132432   0.415   2.362   6.647  0.6433 -0.5425 -0.9380
 6991SOL    HW232433   0.360   2.493   6.623  0.7594  1.5205  0.9660
 6992SOL     OW32434   0.343   0.094   0.085  0.0282  0.5959 -0.5024
 6992SOL    HW132435   0.402   0.048   0.025 -0.8640 -0.3375 -0.6663
 6992SOL    HW232436   0.366   0.180   0.050  0.5910 -0.2969 -2.3724
 6993SOL     OW32437   2.479   2.338   6.248 -0.3425 -0.7424 -0.2648
 6993SOL    HW132438   2.419   2.399   6.207 -0.6135 -0.1757  0.9900
 6993SOL    HW232439   2.429   2.282   6.307  1.4993  0.6747  2.6283
 6994SOL     OW32440   0.529   4.614   6.235 -0.1583  0.2217 -0.0595
 6994SOL    HW132441   0.525   4.665   6.316 -0.7111  1.7790 -1.0716
 6994SOL    HW232442   0.437   4.613   6.209  0.0499 -1.7502 -0.7243
 6995SOL     OW32443   1.717   3.479  13.503 -0.1476 -0.3819  0.2006
 6995SOL    HW132444   1.685   3.560  13.464  0.9427 -0.1080 -0.1492
 6995SOL    HW232445   1.803   3.472  13.461 -0.4041 -0.3150 -0.3279
 6996SOL     OW32446   0.438   4.713   9.815 -0.0158 -0.5279  0.2312
 6996SOL    HW132447   0.481   4.631   9.842  0.4625 -0.3079  0.1380
 6996SOL    HW232448   0.379   4.682   9.746 -0.0763  1.4528 -0.6091
 6997SOL     OW32449   3.249   0.759   3.804  0.1907  0.3549 -0.4352
 6997SOL    HW132450   3.178   0.729   3.862  1.5628 -2.4746 -0.1958
 6997SOL    HW232451   3.192   0.811   3.747  1.9348  1.2863 -1.3097
 6998SOL     OW32452   3.937   4.549   2.525  0.0922  0.5512  0.3209
 6998SOL    HW132453   3.858   4.547   2.579 -0.5476 -0.7212 -0.6710
 6998SOL    HW232454   3.989   4.586   2.597  1.0789  0.8882 -0.5690
 6999SOL     OW32455   4.206   2.579   6.878  0.1524 -0.2928 -0.3325
 6999SOL    HW132456   4.176   2.669   6.865 -2.7147 -1.1732  0.1642
 6999SOL    HW232457   4.199   2.578   6.973 -0.6945  0.2306 -0.3864
 7000SOL     OW32458   2.582   1.285   7.214 -0.4870  0.4163  0.1443
 7000SOL    HW132459   2.669   1.289   7.254 -0.9280  1.3514  1.0266
 7000SOL    HW232460   2.526   1.238   7.276 -0.4621  0.8075  0.4643
 7001SOL     OW32461   0.172   4.253   6.100 -0.6221  0.1385  0.1581
 7001SOL    HW132462   0.257   4.271   6.059 -0.4321 -1.0637  0.0048
 7001SOL    HW232463   0.158   4.170   6.055  1.6878  0.3950 -1.0216
 7002SOL     OW32464   1.442   3.559   8.636 -0.2231  0.1192  0.2059
 7002SOL    HW132465   1.468   3.471   8.661  4.2336  1.9228  1.8889
 7002SOL    HW232466   1.375   3.587   8.698 -1.0209 -0.3239 -0.4587
 7003SOL     OW32467   0.563   0.548   5.771 -0.6421 -0.1580  0.0910
 7003SOL    HW132468   0.570   0.617   5.838 -2.1978 -0.3208  0.4255
 7003SOL    HW232469   0.482   0.571   5.726  0.2912 -2.9208 -3.0155
 7004SOL     OW32470   1.264   1.178   5.549 -0.1552 -0.2091  0.2607
 7004SOL    HW132471   1.188   1.128   5.520 -0.6681 -0.0136  1.2782
 7004SOL    HW232472   1.219   1.261   5.568 -1.0378 -1.5726  4.0410
 7005SOL     OW32473   0.348   0.440  13.108 -0.0373  0.1013  0.2058
 7005SOL    HW132474   0.365   0.517  13.163  0.2697  0.5960 -0.5854
 7005SOL    HW232475   0.358   0.377  13.179 -1.1441  0.9404  1.1095
 7006SOL     OW32476   2.652   3.801   2.378  0.1964 -0.1835 -0.3805
 7006SOL    HW132477   2.622   3.778   2.290 -1.8699  0.3196  0.1797
 7006SOL    HW232478   2.670   3.894   2.359 -0.6416  0.1320  0.3583
 7007SOL     OW32479   2.744   2.612  13.159  0.1171 -0.2058 -0.3271
 7007SOL    HW132480   2.775   2.549  13.224 -0.7774 -0.2542  0.0537
 7007SOL    HW232481   2.824   2.665  13.156  1.7690 -2.7365 -1.0506
 7008SOL     OW32482   4.673   4.313   7.695  0.5082  0.1778 -0.1422
 7008SOL    HW132483   4.590   4.308   7.649  0.8704  0.5009 -0.8353
 7008SOL    HW232484   4.655   4.265   7.776  0.0702 -0.7496 -0.8025
 7009SOL     OW32485   3.774   2.603   6.890 -0.3569 -0.1764  0.1402
 7009SOL    HW132486   3.809   2.520   6.922 -0.4050 -0.0567  0.5064
 7009SOL    HW232487   3.824   2.667   6.942  0.0914  0.1172 -0.6632
 7010SOL     OW32488   3.701   4.526   9.523 -0.3923  0.2293 -0.8643
 7010SOL    HW132489   3.771   4.547   9.461 -0.3195  0.2949 -0.7598
 7010SOL    HW232490   3.745   4.454   9.569  2.5619  0.7110 -2.8955
 7011SOL     OW32491   2.633   0.142   3.341 -0.2437 -0.0184 -0.8413
 7011SOL    HW132492   2.729   0.137   3.340 -0.2276  0.1551  1.9642
 7011SOL    HW232493   2.617   0.227   3.298 -0.5238 -0.7167 -2.1301
 7012SOL     OW32494   3.061   0.859   3.609  0.0102 -0.2823 -0.4641
 7012SOL    HW132495   3.062   0.941   3.560 -0.7237 -0.4701 -0.7953
 7012SOL    HW232496   2.978   0.821   3.579  0.2218  0.3054 -1.7956
 7013SOL     OW32497   1.812   4.362  14.522  0.7246 -0.2883 -0.6880
 7013SOL    HW132498   1.735   4.321  14.484  1.4757 -0.3825 -2.1283
 7013SOL    HW232499   1.782   4.452  14.526 -0.7631 -0.9007  2.0488
 7014SOL     OW32500   1.974   4.218   3.311  0.1451 -0.0200  1.1111
 7014SOL    HW132501   2.017   4.165   3.244  1.4838 -0.4167  2.2735
 7014SOL    HW232502   2.042   4.276   3.345 -1.0333  2.1455 -0.1962
 7015SOL     OW32503   3.528   1.546  12.077 -0.8596  0.4436  0.2049
 7015SOL    HW132504   3.445   1.497  12.080  0.1807 -1.3767 -0.4187
 7015SOL    HW232505   3.503   1.638  12.079 -0.0126  0.6480  1.2075
 7016SOL     OW32506   0.785   0.832   6.388  0.3110  0.1373  0.3803
 7016SOL    HW132507   0.848   0.893   6.425 -0.2503  0.8786  0.1008
 7016SOL    HW232508   0.825   0.751   6.420 -0.7003 -0.0423  1.1799
 7017SOL     OW32509   1.008   4.148   8.938 -0.7990  0.0184 -0.2066
 7017SOL    HW132510   0.953   4.220   8.906  1.9377  2.2885  0.2119
 7017SOL    HW232511   0.944   4.079   8.918  0.4987 -1.3214  0.2987
 7018SOL     OW32512   2.390   0.418  11.508  0.4962 -0.4767  0.3112
 7018SOL    HW132513   2.301   0.389  11.529  1.0541 -1.6399  1.1067
 7018SOL    HW232514   2.423   0.341  11.462  2.7394 -0.2376  1.5011
 7019SOL     OW32515   4.172   3.665  16.780  0.0293  0.0772  0.3327
 7019SOL    HW132516   4.109   3.680  16.850 -2.7465 -0.1614 -2.0860
 7019SOL    HW232517   4.241   3.729  16.796  0.6330 -0.0613 -1.6977
 7020SOL     OW32518   0.152   1.305   7.067 -0.0704 -0.1738 -0.2378
 7020SOL    HW132519   0.207   1.324   6.991  0.3643 -2.1127 -0.3877
 7020SOL    HW232520   0.194   1.353   7.138  0.8204 -1.8274  0.3513
 7021SOL     OW32521   3.631   1.620  10.632  0.0211 -0.2885  0.1998
 7021SOL    HW132522   3.623   1.653  10.721 -0.6064 -1.1864  0.4745
 7021SOL    HW232523   3.545   1.583  10.615  0.5712 -0.4393 -2.2975
 7022SOL     OW32524   1.777   3.824   4.318  0.1821 -0.4325 -0.0916
 7022SOL    HW132525   1.740   3.904   4.282 -0.8534 -1.6987 -1.8658
 7022SOL    HW232526   1.751   3.849   4.406  0.9950  1.3631 -0.3623
 7023SOL     OW32527   3.303   0.792  10.922 -0.2616  0.3505  0.7621
 7023SOL    HW132528   3.220   0.772  10.965 -0.1791 -2.9710 -0.6453
 7023SOL    HW232529   3.265   0.832  10.844  1.2424 -2.4020 -1.3738
 7024SOL     OW32530   2.869   1.828   1.914 -0.7339  0.2517  0.6984
 7024SOL    HW132531   2.943   1.884   1.936 -2.5950  2.0807  2.3768
 7024SOL    HW232532   2.818   1.883   1.854 -2.0577 -1.7304  0.0211
 7025SOL     OW32533   4.404   0.323  15.214  0.5397  0.6373 -0.0444
 7025SOL    HW132534   4.429   0.273  15.136  1.7073  1.7608 -0.3782
 7025SOL    HW232535   4.354   0.394  15.175 -2.2661 -0.3922  1.7075
 7026SOL     OW32536   1.421   3.735   3.135  0.4629  0.4985 -0.1744
 7026SOL    HW132537   1.382   3.659   3.093 -1.0206  0.3716  1.4408
 7026SOL    HW232538   1.434   3.790   3.058  3.8164  0.5000  0.3690
 7027SOL     OW32539   4.690   1.035   0.699 -0.0305 -0.2546  0.2459
 7027SOL    HW132540   0.006   0.964   0.649 -0.0715  0.0400 -0.2105
 7027SOL    HW232541   4.622   0.989   0.748  0.9139 -1.6016  0.3232
 7028SOL     OW32542   2.490   0.668   3.105  0.0984 -0.5135  0.3972
 7028SOL    HW132543   2.550   0.706   3.040 -0.0165 -0.0791  0.5460
 7028SOL    HW232544   2.414   0.654   3.048 -0.1887  2.5546  0.0140
 7029SOL     OW32545   3.746   2.132   3.760  0.6612 -0.0622  0.2706
 7029SOL    HW132546   3.812   2.063   3.751  4.2405  2.9999  2.9852
 7029SOL    HW232547   3.672   2.081   3.794 -0.1557  0.8750 -0.1229
 7030SOL     OW32548   1.377   3.715   3.618 -0.4524 -0.5399  0.0121
 7030SOL    HW132549   1.321   3.791   3.605  0.9763  0.4027 -0.5760
 7030SOL    HW232550   1.367   3.669   3.535  0.5365 -0.4494 -0.1535
 7031SOL     OW32551   2.323   2.254   0.000  0.3058  0.2593 -0.6183
 7031SOL    HW132552   2.254   2.196  17.671  2.5928 -2.3708 -0.8106
 7031SOL    HW232553   2.367   2.273  17.620  1.4101 -3.2423 -0.8626
 7032SOL     OW32554   4.307   0.702   5.580  0.7359  0.4394 -0.2059
 7032SOL    HW132555   4.311   0.771   5.514  0.4428  0.5795 -0.0803
 7032SOL    HW232556   4.217   0.671   5.595  0.7808 -0.1696 -1.2544
 7033SOL     OW32557   2.660   4.550   5.883 -0.5541  0.1794 -0.1504
 7033SOL    HW132558   2.625   4.637   5.862  1.1780  1.4028  1.9741
 7033SOL    HW232559   2.571   4.516   5.892 -1.2913  2.1193 -0.0033
 7034SOL     OW32560   0.901   4.251   3.988  0.3351 -0.1619  0.2422
 7034SOL    HW132561   0.970   4.198   4.026 -1.2192 -2.0617  0.4089
 7034SOL    HW232562   0.941   4.277   3.905  1.5201 -2.4538  0.0954
 7035SOL     OW32563   4.569   0.368   6.058  0.2158 -0.6708  0.1137
 7035SOL    HW132564   4.544   0.391   6.147  2.5202 -1.9926  1.0990
 7035SOL    HW232565   4.492   0.410   6.020  0.8489  1.5073  1.2553
 7036SOL     OW32566   4.488   2.151   6.808 -0.7135  0.2708  0.4324
 7036SOL    HW132567   4.469   2.067   6.851  1.3988 -0.3362  0.1619
 7036SOL    HW232568   4.583   2.156   6.819 -0.7142  1.0609  0.0157
 7037SOL     OW32569   0.050   3.671   3.453 -0.1711  0.9287 -0.3093
 7037SOL    HW132570   0.096   3.730   3.393  0.9662 -1.5108 -1.8200
 7037SOL    HW232571   4.701   3.730   3.470 -1.0363 -0.5882  1.1865
 7038SOL     OW32572   1.598   3.028   8.842  0.1133  0.3752 -0.5179
 7038SOL    HW132573   1.661   3.031   8.914 -0.6296 -0.8713  0.1846
 7038SOL    HW232574   1.522   3.061   8.889  0.1330  2.0954 -1.6966
 7039SOL     OW32575   3.834   4.522   3.962 -0.2008 -0.1226 -0.2242
 7039SOL    HW132576   3.891   4.590   3.998 -1.3140  0.3633  0.6325
 7039SOL    HW232577   3.908   4.479   3.920  0.2046  1.1015 -0.7720
 7040SOL     OW32578   0.562   3.021   3.287 -0.9658  0.0547  0.3721
 7040SOL    HW132579   0.632   2.957   3.292  0.1045  1.0629 -1.5706
 7040SOL    HW232580   0.600   3.090   3.341 -0.9273 -0.8556  1.5019
 7041SOL     OW32581   1.586   1.365  13.499  0.0735  0.0465  0.0383
 7041SOL    HW132582   1.634   1.293  13.459  0.8070  0.7023 -0.2486
 7041SOL    HW232583   1.653   1.432  13.484  0.2409 -0.6214 -2.1553
 7042SOL     OW32584   2.229   3.212  17.452  0.3345  0.1564  0.0399
 7042SOL    HW132585   2.317   3.202  17.416  1.2804 -2.1229  2.9755
 7042SOL    HW232586   2.204   3.298  17.419  2.0287  0.2931 -0.9149
 7043SOL     OW32587   2.482   3.482   7.987  0.1217  0.3680 -0.1758
 7043SOL    HW132588   2.524   3.481   8.074 -1.3480  0.3883  0.5298
 7043SOL    HW232589   2.565   3.476   7.939 -0.5509  0.0985 -1.2997
 7044SOL     OW32590   1.727   0.080   6.476  0.3848 -0.1181 -0.3938
 7044SOL    HW132591   1.721   0.008   6.412  0.8915 -2.4182  2.1609
 7044SOL    HW232592   1.794   0.049   6.536  0.4409 -0.1342 -0.4646
 7045SOL     OW32593   0.920   1.200   7.925 -0.4586  0.3671  0.0268
 7045SOL    HW132594   0.877   1.285   7.918 -4.5005 -1.6648 -0.1163
 7045SOL    HW232595   0.953   1.190   8.014  1.3501  1.3116 -0.5419
 7046SOL     OW32596   0.999   1.586   1.765 -0.1981  0.8444 -0.0981
 7046SOL    HW132597   1.087   1.598   1.800  0.2766  1.1697 -1.3841
 7046SOL    HW232598   0.939   1.615   1.833  0.7904  3.4686 -0.3622
 7047SOL     OW32599   0.145   1.737   9.287  0.3320  0.0176  0.0183
 7047SOL    HW132600   0.239   1.726   9.273  0.1027 -2.2674  0.2536
 7047SOL    HW232601   0.112   1.647   9.284 -0.0865  0.2010 -0.8791
 7048SOL     OW32602   2.195   4.686  11.632  0.3680  0.0882 -0.3127
 7048SOL    HW132603   2.139   0.014  11.575 -0.0860  0.6913  0.7012
 7048SOL    HW232604   2.269   0.021  11.642 -2.1227  3.0694  0.2667
 7049SOL     OW32605   0.638   3.949   7.487 -0.0103  0.1272  0.1574
 7049SOL    HW132606   0.722   3.940   7.442  0.3162  0.5440  0.6823
 7049SOL    HW232607   0.649   3.873   7.544 -1.6349 -1.6020 -1.8512
 7050SOL     OW32608   3.933   3.155   8.141  0.2425 -0.3201  0.4126
 7050SOL    HW132609   3.974   3.148   8.055  1.7418  1.8931  0.9544
 7050SOL    HW232610   4.005   3.186   8.196  0.4915  1.6916 -1.0676
 7051SOL     OW32611   2.316   2.366   5.712 -0.1348 -0.3192 -0.5509
 7051SOL    HW132612   2.232   2.412   5.704  0.9021  1.6043 -0.2907
 7051SOL    HW232613   2.382   2.416   5.665  1.2633 -0.6258  1.0541
 7052SOL     OW32614   2.988   3.211  13.865  0.5236  0.1539 -0.1656
 7052SOL    HW132615   2.942   3.294  13.857 -0.5488 -0.5129 -1.0193
 7052SOL    HW232616   3.035   3.232  13.945 -1.4684 -1.1291  1.3265
 7053SOL     OW32617   0.329   4.397   4.717  0.1608 -0.3129  0.1404
 7053SOL    HW132618   0.269   4.471   4.718  0.2266 -0.2497 -0.8001
 7053SOL    HW232619   0.273   4.320   4.728 -0.3184  0.2649  1.8085
 7054SOL     OW32620   2.480   2.320   5.150 -0.2082 -0.3070  0.0991
 7054SOL    HW132621   2.430   2.392   5.113 -0.4809 -0.5091  0.0791
 7054SOL    HW232622   2.544   2.307   5.080  0.1121 -2.7672  0.8159
 7055SOL     OW32623   3.843   0.847   3.192 -0.0369 -0.1789  0.1418
 7055SOL    HW132624   3.767   0.857   3.248 -0.2359  1.6405 -0.4573
 7055SOL    HW232625   3.850   0.752   3.181  0.6808 -0.0416 -0.6083
 7056SOL     OW32626   3.641   3.933   1.755  0.0333  0.1414 -0.3762
 7056SOL    HW132627   3.551   3.965   1.752 -0.6841 -1.6197  2.1173
 7056SOL    HW232628   3.686   3.996   1.700  2.2129  0.0599  1.2979
 7057SOL     OW32629   3.296   2.290  12.582 -0.3243  0.0901 -0.0179
 7057SOL    HW132630   3.274   2.243  12.501 -1.3937 -0.2538  0.4801
 7057SOL    HW232631   3.390   2.272  12.580 -0.2266  0.5066  1.1729
 7058SOL     OW32632   0.802   3.377   6.645 -0.2810  0.1518 -0.4916
 7058SOL    HW132633   0.896   3.392   6.657 -0.6211  1.8828 -0.0768
 7058SOL    HW232634   0.798   3.397   6.552  1.3583 -0.7488 -0.7703
 7059SOL     OW32635   2.546   4.377  15.592 -0.3940  0.4033 -0.4379
 7059SOL    HW132636   2.617   4.412  15.539 -0.1774  0.3334 -0.1963
 7059SOL    HW232637   2.571   4.425  15.672  1.0587  0.2499 -0.7974
 7060SOL     OW32638   3.168   1.904   1.690  0.2177 -0.2789  0.8224
 7060SOL    HW132639   3.175   1.984   1.639 -1.5454  0.1679  1.2794
 7060SOL    HW232640   3.252   1.864   1.668  0.0543 -1.1897  1.8313
 7061SOL     OW32641   3.900   3.722   5.641 -0.1580 -0.3461  0.2289
 7061SOL    HW132642   3.975   3.663   5.648  0.5913  0.7020  0.9550
 7061SOL    HW232643   3.891   3.712   5.546 -2.2912  2.7742  0.1275
 7062SOL     OW32644   1.595   2.537  17.013  0.0586 -0.0147 -0.4373
 7062SOL    HW132645   1.533   2.591  17.062  1.2167  0.4746  0.4790
 7062SOL    HW232646   1.600   2.564  16.921  0.1219 -1.3703 -0.8444
 7063SOL     OW32647   3.370   1.988   9.549  0.2848 -0.6337  0.4601
 7063SOL    HW132648   3.408   2.058   9.495  0.2589 -0.0428  1.2137
 7063SOL    HW232649   3.328   2.040   9.617 -0.1180  0.9690 -1.0025
 7064SOL     OW32650   0.749   1.274  17.106 -0.0530  0.5986  0.1658
 7064SOL    HW132651   0.773   1.219  17.180  0.1866 -0.8822 -1.0030
 7064SOL    HW232652   0.659   1.248  17.087  0.0926  0.4088 -0.2621
 7065SOL     OW32653   3.733   1.523   8.191  0.5953  0.1544 -0.6769
 7065SOL    HW132654   3.692   1.438   8.173  0.6264  0.0936 -0.4645
 7065SOL    HW232655   3.706   1.585   8.124  0.0592  1.0486  0.3908
 7066SOL     OW32656   0.014   4.111   9.905 -0.2101  0.1370 -0.2356
 7066SOL    HW132657   0.044   4.181   9.963  1.1601 -0.4810 -0.1883
 7066SOL    HW232658   4.679   4.159   9.848  0.4953  0.9569 -0.3038
 7067SOL     OW32659   1.297   2.770   8.089 -0.4358  0.3453  0.2158
 7067SOL    HW132660   1.229   2.836   8.099  0.0367  0.7873  0.5144
 7067SOL    HW232661   1.305   2.770   7.993 -0.6919 -0.6729  0.1910
 7068SOL     OW32662   0.295   3.482   7.573  0.0824 -0.0960  0.2039
 7068SOL    HW132663   0.338   3.519   7.495 -1.8440  2.6829  0.4623
 7068SOL    HW232664   0.371   3.495   7.630 -0.0311  0.0213  0.3259
 7069SOL     OW32665   0.169   2.933   4.088  0.4901  0.1159 -0.2388
 7069SOL    HW132666   0.244   2.906   4.142  0.2197 -1.5375 -0.6876
 7069SOL    HW232667   0.200   2.910   4.000  0.4690  1.4735 -0.6014
 7070SOL     OW32668   1.429   1.785   7.134  0.1012 -0.4019  0.9951
 7070SOL    HW132669   1.400   1.772   7.225  0.2323  1.5800  1.3249
 7070SOL    HW232670   1.347   1.775   7.085  0.7628  0.3216 -0.2586
 7071SOL     OW32671   2.815   4.032   2.649  0.5020 -0.1006 -0.3893
 7071SOL    HW132672   2.845   4.105   2.703 -2.8788  0.8810  0.1745
 7071SOL    HW232673   2.817   3.964   2.716 -0.9455 -1.6849 -1.9564
 7072SOL     OW32674   1.496   3.626  12.580 -0.3639 -0.4753  0.5173
 7072SOL    HW132675   1.531   3.707  12.619  1.6062 -1.1793  0.1723
 7072SOL    HW232676   1.467   3.644  12.491 -1.0575 -0.1695  0.8023
 7073SOL     OW32677   0.630   2.103  12.019  0.6298  0.4189 -0.1891
 7073SOL    HW132678   0.540   2.120  12.046  1.5366  0.9340  2.4324
 7073SOL    HW232679   0.638   2.134  11.928 -1.7894  1.8876  0.0978
 7074SOL     OW32680   4.682   3.397   8.932  0.4926 -0.2070  0.1692
 7074SOL    HW132681   4.619   3.408   8.860 -1.1448 -1.4995  1.4243
 7074SOL    HW232682   4.667   3.478   8.981 -1.5613 -0.8098  0.5250
 7075SOL     OW32683   3.588   2.961   6.549  0.4928 -0.8186 -0.5969
 7075SOL    HW132684   3.563   3.022   6.618  5.1367 -0.8216  1.0959
 7075SOL    HW232685   3.502   2.923   6.531  0.5395 -1.1893 -0.0293
 7076SOL     OW32686   0.064   4.707   1.799 -0.1462 -0.4452 -0.0986
 7076SOL    HW132687   0.001   0.044   1.836 -0.1916 -0.1912 -0.6096
 7076SOL    HW232688   0.088   0.028   1.719  0.5628  2.2899  1.7132
 7077SOL     OW32689   0.559   1.925   2.704 -0.2481  0.3559  0.7488
 7077SOL    HW132690   0.530   1.901   2.616  0.8266 -1.9465  1.0459
 7077SOL    HW232691   0.639   1.873   2.709  0.6063  1.4547 -1.0800
 7078SOL     OW32692   4.242   0.180   3.136  0.1748  0.5434 -0.0390
 7078SOL    HW132693   4.169   0.197   3.196  0.0179  0.9680 -0.3545
 7078SOL    HW232694   4.300   0.254   3.154  1.1233  0.2950 -2.1083
 7079SOL     OW32695   0.471   2.946   6.038  0.0904  0.2392 -0.4513
 7079SOL    HW132696   0.400   2.887   6.063  1.0283 -1.0261 -0.8059
 7079SOL    HW232697   0.488   2.976   6.127  0.5515 -2.1967  0.2850
 7080SOL     OW32698   1.149   3.608   9.490  0.5521 -0.4169  0.4562
 7080SOL    HW132699   1.157   3.666   9.414 -2.3353  0.7424  1.0426
 7080SOL    HW232700   1.238   3.603   9.526  0.5958 -1.3912  0.1970
 7081SOL     OW32701   0.773   4.595   2.129 -0.3429  0.5440 -0.3806
 7081SOL    HW132702   0.867   4.580   2.137  0.0915  3.5081 -0.0432
 7081SOL    HW232703   0.768   4.648   2.049 -1.9603  0.9211 -0.0331
 7082SOL     OW32704   4.566   2.819   5.869  0.1689 -0.1822  0.1435
 7082SOL    HW132705   4.558   2.725   5.884  1.7399  0.0259  2.3103
 7082SOL    HW232706   4.604   2.839   5.955  0.4694 -1.9690  0.4173
 7083SOL     OW32707   3.561   2.932   1.977  0.1478 -0.0784 -0.2124
 7083SOL    HW132708   3.626   2.863   1.992 -0.1908 -0.5183 -0.7665
 7083SOL    HW232709   3.509   2.893   1.906 -0.3730 -0.1999  0.2329
 7084SOL     OW32710   2.814   0.547   8.276 -0.2109  0.5224  0.6273
 7084SOL    HW132711   2.761   0.621   8.308 -1.6707 -0.5741  0.7401
 7084SOL    HW232712   2.846   0.490   8.346 -1.6012 -0.9472  0.0591
 7085SOL     OW32713   3.802   4.295   7.209  0.3272 -0.0269 -0.1715
 7085SOL    HW132714   3.792   4.350   7.131 -0.9321 -0.2415 -0.1547
 7085SOL    HW232715   3.875   4.237   7.186 -0.0080  0.4368 -2.3383
 7086SOL     OW32716   1.826   2.119  17.662  0.0019 -0.0638  0.4584
 7086SOL    HW132717   1.841   2.213  17.671 -0.8794 -0.0035  1.3112
 7086SOL    HW232718   1.885   2.098  17.590  1.3720  3.1482  0.6289
 7087SOL     OW32719   1.313   2.012  14.332  0.0722 -0.0122 -0.2937
 7087SOL    HW132720   1.234   2.041  14.377  1.2965  1.3684  0.9637
 7087SOL    HW232721   1.272   1.947  14.275  2.5243 -0.5817 -1.3935
 7088SOL     OW32722   0.009   3.084   5.922  0.2812  0.0209  0.3014
 7088SOL    HW132723   4.717   3.104   6.013 -1.6607  0.1844 -0.0968
 7088SOL    HW232724   4.650   3.107   5.882 -0.0793  0.1157  1.1123
 7089SOL     OW32725   1.529   3.675   0.488  0.1282 -0.8696 -0.4628
 7089SOL    HW132726   1.451   3.666   0.543  0.4880  2.4887  0.5831
 7089SOL    HW232727   1.480   3.697   0.409  1.4259 -0.2185 -1.0973
 7090SOL     OW32728   1.771   1.519   6.833 -0.6130 -0.3826 -0.2368
 7090SOL    HW132729   1.694   1.489   6.784 -1.8617  3.4147 -0.6353
 7090SOL    HW232730   1.815   1.571   6.766 -1.9617  0.8628 -0.1763
 7091SOL     OW32731   2.669   0.481   3.490  0.5994  0.1328 -0.2862
 7091SOL    HW132732   2.751   0.449   3.528  1.3780 -0.4657 -2.4256
 7091SOL    HW232733   2.706   0.535   3.419 -0.5852 -1.7643 -2.3414
 7092SOL     OW32734   4.374   1.263   2.684 -0.1023  0.2064 -0.4504
 7092SOL    HW132735   4.320   1.201   2.733 -1.8266  0.4767 -2.0156
 7092SOL    HW232736   4.460   1.235   2.715 -1.1124 -0.6044  1.6362
 7093SOL     OW32737   2.595   4.280   5.053  0.4723  0.1950 -0.3074
 7093SOL    HW132738   2.632   4.354   5.102 -0.7626  0.6682 -0.0823
 7093SOL    HW232739   2.513   4.316   5.019  0.1486 -0.3218 -0.0675
 7094SOL     OW32740   2.697   3.210   3.546 -0.0579  0.2966  0.6609
 7094SOL    HW132741   2.746   3.135   3.511  1.2447  0.4610  2.1288
 7094SOL    HW232742   2.607   3.178   3.551  0.5265 -0.8957  3.2120
 7095SOL     OW32743   4.131   4.674   1.073  0.0573  0.0537  0.0564
 7095SOL    HW132744   4.042   4.706   1.087 -1.2430 -3.5571  0.1039
 7095SOL    HW232745   4.162   4.687   0.983  0.3337  1.5716  0.3782
 7096SOL     OW32746   2.955   1.436   5.604 -0.0313 -0.4057  0.2600
 7096SOL    HW132747   2.985   1.444   5.514 -0.5639 -0.0509  0.1152
 7096SOL    HW232748   3.028   1.386   5.642  0.9314 -0.6366 -1.8618
 7097SOL     OW32749   1.090   3.785   9.277 -0.2629  0.3729  0.6068
 7097SOL    HW132750   1.018   3.779   9.214 -0.4764  1.8552  0.7002
 7097SOL    HW232751   1.047   3.836   9.347  0.4919  1.4323  0.2976
 7098SOL     OW32752   1.287   4.085   3.238 -0.5516 -0.3438 -0.1602
 7098SOL    HW132753   1.329   4.163   3.274 -1.0603  0.0545 -0.4375
 7098SOL    HW232754   1.290   4.100   3.144 -1.3846 -1.1762 -0.3278
 7099SOL     OW32755   1.597   4.314   8.736  0.0254 -0.1855  0.1274
 7099SOL    HW132756   1.589   4.247   8.668  0.7710  1.8315 -1.9432
 7099SOL    HW232757   1.691   4.309   8.756  0.0773  0.4259  0.0448
 7100SOL     OW32758   0.055   1.768   1.226 -0.6014  0.1201 -0.3624
 7100SOL    HW132759   4.686   1.768   1.208 -0.6791  1.5188 -0.0123
 7100SOL    HW232760   0.080   1.702   1.162 -0.9306  2.8579 -3.3374
 7101SOL     OW32761   0.837   3.223   0.153 -0.4937  0.0957  0.3536
 7101SOL    HW132762   0.817   3.129   0.153 -1.3336  0.2514 -3.5811
 7101SOL    HW232763   0.855   3.240   0.061 -0.7162 -0.7150  0.1561
 7102SOL     OW32764   1.439   3.303   8.826  0.4860 -0.9930  0.2363
 7102SOL    HW132765   1.388   3.377   8.860 -2.2575 -2.2682 -1.1536
 7102SOL    HW232766   1.411   3.234   8.886  1.2091 -0.5359  1.1142
 7103SOL     OW32767   4.239   3.335   4.975  0.4695  0.2947 -0.2098
 7103SOL    HW132768   4.297   3.301   5.043  0.7156  1.6896  0.2875
 7103SOL    HW232769   4.252   3.262   4.915 -0.6311  0.1124 -0.2180
 7104SOL     OW32770   2.572   1.411   5.227  0.2372  0.3318  0.0813
 7104SOL    HW132771   2.572   1.436   5.135  1.7830 -0.1432 -0.0426
 7104SOL    HW232772   2.621   1.329   5.229  1.0767  0.7896 -2.4442
 7105SOL     OW32773   4.360   1.313   2.182 -0.0562 -0.1698 -0.8200
 7105SOL    HW132774   4.350   1.257   2.259  3.4721  0.1011 -0.1475
 7105SOL    HW232775   4.269   1.332   2.161  0.0840 -1.3552 -2.5208
 7106SOL     OW32776   2.407   1.842   7.391 -0.2625 -0.0089  0.0269
 7106SOL    HW132777   2.351   1.910   7.429 -0.4492 -0.5057  0.6357
 7106SOL    HW232778   2.490   1.887   7.373  0.4483 -0.6425  1.7470
 7107SOL     OW32779   0.677   0.501   7.587  0.3992 -0.2209 -0.1067
 7107SOL    HW132780   0.621   0.508   7.664  1.3003 -1.7523  0.6936
 7107SOL    HW232781   0.725   0.583   7.597 -1.4386  0.7991  0.3280
 7108SOL     OW32782   2.392   2.182  12.353  0.0690 -0.2708 -0.0773
 7108SOL    HW132783   2.366   2.097  12.318  1.4642 -1.0176  0.7101
 7108SOL    HW232784   2.376   2.232  12.272 -0.4988 -0.5132 -0.1141
 7109SOL     OW32785   4.642   1.431   3.959  0.6066 -0.1330 -0.4620
 7109SOL    HW132786   4.571   1.375   3.928  1.1802  0.1042 -2.1947
 7109SOL    HW232787   4.625   1.516   3.918 -1.5609  0.7648  2.2512
 7110SOL     OW32788   4.496   1.383  16.986 -0.3756  0.0417  0.1905
 7110SOL    HW132789   4.457   1.458  16.941  1.8679  1.0939  0.0141
 7110SOL    HW232790   4.421   1.367  17.043  0.1851 -0.4985  0.7709
 7111SOL     OW32791   3.347   2.696   3.578 -0.4656 -0.4453  0.4802
 7111SOL    HW132792   3.407   2.628   3.610 -0.1917 -0.1402  0.6179
 7111SOL    HW232793   3.350   2.680   3.484 -0.5762  1.9873  0.0728
 7112SOL     OW32794   1.796   4.677   2.875  0.1460 -0.2613  0.5360
 7112SOL    HW132795   1.869   4.719   2.831  1.6090 -1.5090  1.7810
 7112SOL    HW232796   1.808   4.701   2.967  0.4870  1.2460  0.1013
 7113SOL     OW32797   4.595   1.132   8.398  0.5917  0.3950 -0.2208
 7113SOL    HW132798   4.571   1.040   8.410  2.2610  0.0181  0.2099
 7113SOL    HW232799   4.530   1.157   8.332  0.9000  0.3544 -0.5419
 7114SOL     OW32800   1.187   2.746   2.683  0.6374 -0.3325  0.6012
 7114SOL    HW132801   1.179   2.679   2.751  1.1722  0.8736  1.8567
 7114SOL    HW232802   1.205   2.692   2.606  1.7249  2.8609 -1.4326
 7115SOL     OW32803   1.305   3.923   6.242  0.7741 -0.0422 -0.6825
 7115SOL    HW132804   1.223   3.905   6.195  0.6092 -0.4463 -0.2461
 7115SOL    HW232805   1.297   4.018   6.248 -1.0455 -0.2247 -0.0279
 7116SOL     OW32806   3.659   4.131   2.169  0.3946 -0.3587 -0.4379
 7116SOL    HW132807   3.603   4.179   2.230  0.7001 -0.9450  0.3221
 7116SOL    HW232808   3.620   4.155   2.086 -0.5254 -2.7220 -0.6803
 7117SOL     OW32809   0.700   2.008  10.998 -0.7947 -0.4528 -0.2128
 7117SOL    HW132810   0.609   2.000  10.969  0.0577 -2.6421 -2.2957
 7117SOL    HW232811   0.684   2.065  11.074 -0.0929 -0.9012  0.2680
 7118SOL     OW32812   1.309   2.553  12.993 -0.0961 -0.3470  0.5171
 7118SOL    HW132813   1.371   2.626  12.985 -1.6625  1.2006  2.4628
 7118SOL    HW232814   1.371   2.482  12.981  0.5141  0.1355  0.8124
 7119SOL     OW32815   2.607   1.383   6.964 -0.2424  0.3118  0.7595
 7119SOL    HW132816   2.600   1.357   7.056  0.6224 -1.1264  0.4034
 7119SOL    HW232817   2.536   1.447   6.965  0.2589  0.8795  0.0356
 7120SOL     OW32818   2.172   1.021   7.497  0.3088  0.5138  0.7096
 7120SOL    HW132819   2.179   0.983   7.585 -0.6405  2.4088  1.5975
 7120SOL    HW232820   2.257   1.058   7.475  0.4789  0.6675  1.6479
 7121SOL     OW32821   4.621   4.645   3.567 -0.5566 -0.1116 -0.9602
 7121SOL    HW132822   4.609   4.602   3.652 -1.8322  2.6525  0.2450
 7121SOL    HW232823   4.539   4.629   3.521  0.0100 -1.4708 -1.5116
 7122SOL     OW32824   2.079   0.338  11.933  0.2466 -0.3407  0.7851
 7122SOL    HW132825   1.989   0.329  11.901 -0.0546  0.4647  1.4053
 7122SOL    HW232826   2.069   0.349  12.028  0.5526 -1.6466  0.9656
 7123SOL     OW32827   0.865   4.616   8.908 -0.1458  0.1305 -0.5094
 7123SOL    HW132828   0.938   4.650   8.960 -1.1113  1.7618 -0.2316
 7123SOL    HW232829   0.887   4.648   8.820  0.9403 -1.8091 -0.9522
 7124SOL     OW32830   1.153   1.929   2.095 -0.2602 -0.5838 -0.2213
 7124SOL    HW132831   1.228   1.911   2.038  1.2006 -0.7513  1.7427
 7124SOL    HW232832   1.128   1.842   2.125 -0.2986 -0.6236 -0.3716
 7125SOL     OW32833   4.002   0.744   6.451  0.4037  0.2521 -0.5257
 7125SOL    HW132834   4.093   0.772   6.441  1.1073 -0.7820  2.7218
 7125SOL    HW232835   3.992   0.744   6.356 -1.1972 -1.0925 -0.3563
 7126SOL     OW32836   2.208   2.879   3.138  0.6736 -0.6989 -0.7182
 7126SOL    HW132837   2.213   2.784   3.124 -1.7562 -1.1575  1.4946
 7126SOL    HW232838   2.163   2.870   3.222 -0.6798  1.0126 -1.2765
 7127SOL     OW32839   3.795   3.762  16.543  0.7631  0.2312 -0.7259
 7127SOL    HW132840   3.825   3.761  16.452  0.6744  1.3135 -0.7629
 7127SOL    HW232841   3.795   3.856  16.560  0.3109 -0.4408  2.9367
 7128SOL     OW32842   3.155   4.002   5.842 -0.2748  0.6139 -0.2079
 7128SOL    HW132843   3.226   4.039   5.894  0.8609 -1.1914 -0.5028
 7128SOL    HW232844   3.095   3.989   5.916  0.0692  1.0944  0.1566
 7129SOL     OW32845   1.640   0.636   8.317 -0.0619  1.5386 -0.4890
 7129SOL    HW132846   1.711   0.598   8.265 -0.8846  0.3672 -0.7450
 7129SOL    HW232847   1.676   0.611   8.403 -1.4412  0.5111 -0.2204
 7130SOL     OW32848   4.108   2.627  10.895  0.4698  0.2922  0.0340
 7130SOL    HW132849   4.191   2.651  10.853 -0.4550  2.5066 -0.4877
 7130SOL    HW232850   4.046   2.675  10.840 -1.6162 -0.0018  2.1424
 7131SOL     OW32851   2.928   4.208  11.039 -0.0716 -0.0677 -0.0489
 7131SOL    HW132852   2.964   4.136  11.090 -2.4229 -0.7185  0.7274
 7131SOL    HW232853   2.912   4.161  10.958  0.2796  0.1230 -0.2269
 7132SOL     OW32854   1.673   3.365   5.449  0.8561 -0.0288  0.0203
 7132SOL    HW132855   1.602   3.353   5.513 -2.7412  2.4887 -3.4811
 7132SOL    HW232856   1.730   3.417   5.506  1.9730 -1.0517 -0.1718
 7133SOL     OW32857   1.048   2.422   8.102  0.4697  0.5775 -0.2742
 7133SOL    HW132858   1.039   2.454   8.192  0.4226 -0.3422  0.0469
 7133SOL    HW232859   1.021   2.491   8.041  0.2434 -0.0105 -0.8314
 7134SOL     OW32860   0.510   4.589   6.565 -0.7132 -0.6598  0.0802
 7134SOL    HW132861   0.489   4.659   6.626 -2.4578 -1.7895  0.7858
 7134SOL    HW232862   0.604   4.605   6.553 -0.8441  0.5903  0.7034
 7135SOL     OW32863   3.570   4.435  14.804 -0.6947  0.0716 -0.6200
 7135SOL    HW132864   3.500   4.482  14.758 -1.8638 -2.1158 -1.0672
 7135SOL    HW232865   3.559   4.347  14.767  1.9883 -0.9174  0.9310
 7136SOL     OW32866   1.121   1.676  12.968 -0.2628 -0.3073 -0.4766
 7136SOL    HW132867   1.195   1.668  13.029 -1.6151  2.2489  1.5247
 7136SOL    HW232868   1.138   1.614  12.897 -0.6609  0.5355 -1.2997
 7137SOL     OW32869   1.481   3.885   8.714 -0.5396 -0.5568  0.3927
 7137SOL    HW132870   1.508   3.808   8.664  1.2883 -0.2832  0.9675
 7137SOL    HW232871   1.489   3.856   8.805 -2.0089  1.6022  1.2129
 7138SOL     OW32872   1.117   2.806   4.051  0.1199 -0.2814 -0.4639
 7138SOL    HW132873   1.175   2.857   3.995  0.9730  1.3591  1.8882
 7138SOL    HW232874   1.061   2.875   4.087 -1.1796 -1.0723 -1.0063
 7139SOL     OW32875   1.709   3.503   9.640 -0.3193 -0.4145  0.3634
 7139SOL    HW132876   1.615   3.493   9.625  0.0594  0.7727 -2.7613
 7139SOL    HW232877   1.704   3.534   9.730  0.3542  2.8578 -0.7059
 7140SOL     OW32878   3.480   4.088   7.146 -0.6038 -0.2279 -0.0553
 7140SOL    HW132879   3.519   4.029   7.211 -0.0806  2.1265  1.7364
 7140SOL    HW232880   3.476   4.163   7.204  1.8325 -0.7931  0.8705
 7141SOL     OW32881   0.142   1.250   0.721 -0.0990  0.0176 -0.6076
 7141SOL    HW132882   0.114   1.274   0.809  0.9980 -2.2142  0.3303
 7141SOL    HW232883   0.085   1.178   0.694 -1.3372  0.9841 -0.6094
 7142SOL     OW32884   4.207   1.974   8.580 -0.2806 -0.6610 -1.1488
 7142SOL    HW132885   4.230   2.057   8.622  1.1304 -1.2082 -0.8444
 7142SOL    HW232886   4.288   1.924   8.576 -0.9018 -1.8553  1.0422
 7143SOL     OW32887   0.858   0.438   4.771 -0.2837 -0.1010  0.1495
 7143SOL    HW132888   0.849   0.525   4.809  1.8288  0.0874  0.2496
 7143SOL    HW232889   0.950   0.431   4.745 -0.2241  0.2257  0.2809
 7144SOL     OW32890   0.323   1.559   6.509  0.4589  0.7081  0.4313
 7144SOL    HW132891   0.287   1.560   6.598  1.0566  0.2618  0.6765
 7144SOL    HW232892   0.352   1.646   6.482 -0.6049  1.0895  0.4986
 7145SOL     OW32893   3.606   0.868   3.346 -0.1782  0.1294  0.4252
 7145SOL    HW132894   3.620   0.963   3.351  1.2680  0.0009 -0.9670
 7145SOL    HW232895   3.522   0.869   3.301 -0.2662  0.7305  0.5965
 7146SOL     OW32896   4.524   2.459   0.244 -0.0332  0.5615 -0.4808
 7146SOL    HW132897   4.596   2.440   0.183  0.8042  3.3678 -0.3378
 7146SOL    HW232898   4.457   2.405   0.203 -0.3497 -0.8054  1.8590
 7147SOL     OW32899   1.853   1.924   8.750 -0.1442  0.1302 -0.4982
 7147SOL    HW132900   1.923   1.952   8.691 -1.4469  2.4078 -0.9623
 7147SOL    HW232901   1.800   2.004   8.744 -1.7836 -0.9179 -0.1089
 7148SOL     OW32902   4.281   4.352   7.971  0.7924  0.0164  0.2728
 7148SOL    HW132903   4.373   4.376   7.963  0.7554  0.2023  0.3901
 7148SOL    HW232904   4.232   4.434   7.960 -1.4427 -1.5636 -1.5796
 7149SOL     OW32905   3.945   1.115   8.973  0.1711  0.0916  0.4674
 7149SOL    HW132906   3.934   1.111   9.068 -2.9402 -0.6312  0.0745
 7149SOL    HW232907   3.990   1.032   8.956 -0.9208  0.1574 -2.8337
 7150SOL     OW32908   0.954   4.088   5.145  0.0744  0.1172 -0.4257
 7150SOL    HW132909   1.045   4.081   5.174 -0.6340 -1.4757  1.3483
 7150SOL    HW232910   0.976   4.152   5.077  1.8421  2.5824  2.4527
 7151SOL     OW32911   4.383   3.113   1.897 -0.2015  0.0114 -0.1820
 7151SOL    HW132912   4.463   3.163   1.909  0.1877 -0.8512  0.8142
 7151SOL    HW232913   4.399   3.050   1.968  1.2366  0.1807 -0.3583
 7152SOL     OW32914   3.575   2.569   9.941  0.3639  0.2587 -0.0459
 7152SOL    HW132915   3.541   2.621  10.014 -0.6297 -2.5946  1.4929
 7152SOL    HW232916   3.660   2.550   9.980 -0.1757 -0.5891  0.6973
 7153SOL     OW32917   1.378   4.171   5.029 -0.3770  0.1495  0.0519
 7153SOL    HW132918   1.434   4.202   5.101 -2.1930 -0.0383  1.5420
 7153SOL    HW232919   1.348   4.086   5.061  0.6034  0.0101  0.6221
 7154SOL     OW32920   3.115   2.424   7.230 -0.4715  0.1224 -0.6854
 7154SOL    HW132921   3.104   2.355   7.296 -2.6436  1.3003  0.1898
 7154SOL    HW232922   3.048   2.402   7.165 -0.2084  0.6726 -1.1457
 7155SOL     OW32923   4.090   4.105   5.783  0.2954  0.4226  0.1765
 7155SOL    HW132924   4.008   4.060   5.765  0.8581 -0.3965 -0.3715
 7155SOL    HW232925   4.059   4.174   5.841  1.1122  1.0161 -0.0883
 7156SOL     OW32926   1.826   0.934   5.656 -0.2360 -0.4357 -0.5512
 7156SOL    HW132927   1.816   1.007   5.718 -1.9299 -0.9829 -0.1755
 7156SOL    HW232928   1.881   0.972   5.588 -0.8090  1.2277 -0.0947
 7157SOL     OW32929   0.938   0.604   5.182  0.2475 -0.4327 -0.9292
 7157SOL    HW132930   0.998   0.575   5.250 -1.4680  0.9331  1.1743
 7157SOL    HW232931   0.873   0.652   5.233  0.9588  0.0077 -0.4587
 7158SOL     OW32932   2.365   2.417   4.544  0.3192  0.0013  0.6596
 7158SOL    HW132933   2.339   2.502   4.580 -0.0721 -0.0655  0.5357
 7158SOL    HW232934   2.327   2.418   4.456 -2.3067 -1.1576  1.7681
 7159SOL     OW32935   4.489   4.527   4.064  0.4317  0.2630 -0.0121
 7159SOL    HW132936   4.547   4.603   4.060  1.8180 -0.7501  1.1455
 7159SOL    HW232937   4.551   4.463   4.100 -0.8644 -0.6235  0.6577
 7160SOL     OW32938   0.890   1.710   2.033 -0.2368 -0.5424  0.5316
 7160SOL    HW132939   0.798   1.724   2.055 -0.2527  0.0264  0.1116
 7160SOL    HW232940   0.916   1.685   2.122  0.8101 -0.3039  0.2949
 7161SOL     OW32941   2.292   1.524  16.941  0.2421  0.2861 -0.5002
 7161SOL    HW132942   2.381   1.540  16.973 -0.7907  2.8636  1.0727
 7161SOL    HW232943   2.270   1.617  16.930 -0.0851  0.2025 -0.5472
 7162SOL     OW32944   0.425   3.171   7.247  0.0047 -0.3503  0.5294
 7162SOL    HW132945   0.437   3.207   7.159 -0.3052  1.2658  1.1329
 7162SOL    HW232946   0.492   3.213   7.301  2.1686  0.2042 -2.6095
 7163SOL     OW32947   2.362   3.955  16.562  0.3815  0.0015  0.4148
 7163SOL    HW132948   2.364   4.036  16.510 -0.2970 -2.2146 -3.0352
 7163SOL    HW232949   2.451   3.919  16.559  0.8178  1.1104  0.0479
 7164SOL     OW32950   2.522   2.055   0.529  0.3754 -0.1126  0.1029
 7164SOL    HW132951   2.471   1.993   0.477 -0.8747  2.4224 -1.6986
 7164SOL    HW232952   2.586   1.987   0.550  0.9236  0.6532  0.9245
 7165SOL     OW32953   4.143   0.015   8.568 -0.2902  0.6223  0.4022
 7165SOL    HW132954   4.075   0.064   8.520 -0.1226 -1.8324 -2.2999
 7165SOL    HW232955   4.177   4.690   8.494 -0.7752  0.1137  0.5239
 7166SOL     OW32956   0.344   0.887   8.535  0.7452  0.2311  0.5651
 7166SOL    HW132957   0.406   0.872   8.606  1.5257  1.5854  0.1729
 7166SOL    HW232958   0.349   0.982   8.527 -0.7756  0.3222  0.7891
 7167SOL     OW32959   0.545   0.969   6.879 -0.0808 -0.4152  0.3844
 7167SOL    HW132960   0.567   1.062   6.880  2.1933 -0.9454 -0.9655
 7167SOL    HW232961   0.502   0.969   6.794  0.1341 -0.4884  0.2744
 7168SOL     OW32962   1.797   4.049  11.932  1.1776 -0.1206 -0.1279
 7168SOL    HW132963   1.728   4.070  11.996  0.0793  0.3315 -1.4693
 7168SOL    HW232964   1.740   4.029  11.858  0.0155 -1.6512  1.1946
 7169SOL     OW32965   2.178   3.955   1.907  0.3921  0.7997  0.5744
 7169SOL    HW132966   2.113   3.885   1.901 -0.3663  1.7178 -2.0572
 7169SOL    HW232967   2.114   4.023   1.930  0.8815  1.9766 -1.5521
 7170SOL     OW32968   3.993   1.674  12.945  0.0831 -0.2787  0.7099
 7170SOL    HW132969   4.062   1.624  12.901  2.1742  1.6990  1.7523
 7170SOL    HW232970   3.966   1.733  12.874 -0.0230 -0.3019  0.7302
 7171SOL     OW32971   1.003   4.130   7.584 -0.5275 -0.1194 -0.2070
 7171SOL    HW132972   1.096   4.140   7.601 -0.0233 -1.3229 -2.1986
 7171SOL    HW232973   1.006   4.136   7.488 -0.0514  0.2336 -0.1711
 7172SOL     OW32974   4.312   0.110   4.689  0.2185 -0.2879 -0.3748
 7172SOL    HW132975   4.241   0.102   4.753  0.6944  2.5023  0.5001
 7172SOL    HW232976   4.346   0.022   4.699  1.1634  0.1136 -0.0970
 7173SOL     OW32977   3.156   3.704  15.006 -0.4582  0.3139  0.0201
 7173SOL    HW132978   3.074   3.677  14.964 -1.1188  3.7744 -0.9208
 7173SOL    HW232979   3.131   3.686  15.097  0.6307 -1.7712 -0.0876
 7174SOL     OW32980   0.716   3.357   2.992  0.0724 -0.5426  0.0598
 7174SOL    HW132981   0.743   3.268   2.968  2.7075  0.4051 -0.5563
 7174SOL    HW232982   0.625   3.343   3.017  0.8504 -2.1062  2.0644
 7175SOL     OW32983   0.339   1.263   6.147 -0.2720  0.1041 -0.1361
 7175SOL    HW132984   0.342   1.183   6.198 -1.2556 -0.3718 -0.8176
 7175SOL    HW232985   0.267   1.240   6.088  0.4399  1.2115 -1.4409
 7176SOL     OW32986   0.819   2.849   1.506 -0.5287  0.1215  0.2130
 7176SOL    HW132987   0.812   2.831   1.600 -2.6766  0.1292  0.0519
 7176SOL    HW232988   0.854   2.766   1.471  0.5240  1.0221 -0.8742
 7177SOL     OW32989   4.283   3.717   4.067 -0.0153 -0.2200 -0.1577
 7177SOL    HW132990   4.299   3.731   4.160  2.5684  1.5826 -0.8890
 7177SOL    HW232991   4.246   3.802   4.042 -0.5896 -0.7089 -0.9679
 7178SOL     OW32992   3.277   0.372   8.774 -0.1255 -0.4938  0.1091
 7178SOL    HW132993   3.190   0.365   8.736  0.0172  3.3882 -0.9452
 7178SOL    HW232994   3.263   0.328   8.858  0.7110 -1.0167 -0.0263
 7179SOL     OW32995   3.766   0.664   7.425 -0.1000 -0.3306  0.1182
 7179SOL    HW132996   3.711   0.601   7.471  0.3467 -0.1439  0.9058
 7179SOL    HW232997   3.702   0.704   7.365  0.0005 -0.0021  0.2284
 7180SOL     OW32998   4.381   0.563   7.036  0.0656  0.6780  0.8272
 7180SOL    HW132999   4.370   0.489   7.096  0.5239  0.1874  0.3218
 7180SOL    HW233000   4.474   0.578   7.055  0.8850 -0.4772 -2.2728
 7181SOL     OW33001   4.610   1.322   9.161 -0.5979  0.0826 -0.1938
 7181SOL    HW133002   4.626   1.312   9.067 -1.0715 -0.0735 -0.2571
 7181SOL    HW233003   4.557   1.401   9.161 -1.2583 -0.4049  3.1135
 7182SOL     OW33004   2.366   0.294   4.493 -1.4366  0.1081 -0.1822
 7182SOL    HW133005   2.450   0.284   4.539 -0.5342 -0.8122 -2.0347
 7182SOL    HW233006   2.401   0.290   4.404  0.8652  0.7032  0.6987
 7183SOL     OW33007   2.641   2.632   0.768  0.3882  0.2736  0.1759
 7183SOL    HW133008   2.662   2.632   0.862  1.0352 -0.9097  0.0394
 7183SOL    HW233009   2.657   2.724   0.746  1.4776  0.0782  0.1545
 7184SOL     OW33010   0.201   3.933  16.899  0.5212  0.4987  0.1643
 7184SOL    HW133011   0.111   3.938  16.932 -0.3480  0.0474 -2.1300
 7184SOL    HW233012   0.174   3.904  16.812 -0.3847  1.5131  0.0963
 7185SOL     OW33013   0.103   0.252   7.970  0.1691 -0.7205  0.1794
 7185SOL    HW133014   0.153   0.255   8.051  0.2609  0.7916  0.0711
 7185SOL    HW233015   0.086   0.159   7.954 -0.7608 -1.2932  4.5349
 7186SOL     OW33016   2.682   4.075   5.269 -0.0078 -0.4802 -0.0186
 7186SOL    HW133017   2.691   3.985   5.235 -1.7656 -0.2821 -1.0107
 7186SOL    HW233018   2.611   4.111   5.216 -0.7704 -0.0549  1.3073
 7187SOL     OW33019   4.051   2.814   5.903 -0.2116  0.2021 -0.3538
 7187SOL    HW133020   4.123   2.864   5.863 -0.0126 -0.6332 -1.0551
 7187SOL    HW233021   4.091   2.774   5.981 -2.8411  3.5299  2.6602
 7188SOL     OW33022   2.147   2.043   2.559 -0.5778 -0.4030  0.1156
 7188SOL    HW133023   2.193   2.108   2.612 -2.0368  0.5639  0.1835
 7188SOL    HW233024   2.130   1.980   2.628  0.0560 -0.7926 -0.0799
 7189SOL     OW33025   0.280   0.584  17.431 -0.3119 -0.0333 -0.0823
 7189SOL    HW133026   0.315   0.670  17.458  1.1413 -0.6394 -0.0073
 7189SOL    HW233027   0.225   0.606  17.356  0.2591  1.4200 -0.0828
 7190SOL     OW33028   1.251   0.005  11.970  0.2413 -0.1587  0.3073
 7190SOL    HW133029   1.257   4.667  12.042 -0.6702  0.3378  0.8231
 7190SOL    HW233030   1.221   4.668  11.904 -0.4233 -2.1487  2.4621
 7191SOL     OW33031   2.256   0.872   5.392 -0.1112 -0.3185 -0.5206
 7191SOL    HW133032   2.343   0.903   5.419 -0.3720 -1.1259  1.2804
 7191SOL    HW233033   2.268   0.858   5.298 -0.1167 -1.0752 -0.4088
 7192SOL     OW33034   0.733   1.776   2.376 -0.1407  0.1573  0.5070
 7192SOL    HW133035   0.686   1.748   2.298  0.4911  0.7112 -0.0763
 7192SOL    HW233036   0.784   1.851   2.344  0.7677 -0.2512  0.9885
 7193SOL     OW33037   3.043   0.014   7.754 -0.5337  0.1884 -0.5648
 7193SOL    HW133038   3.030   4.678   7.682  0.9931 -1.3994  0.5120
 7193SOL    HW233039   2.998   4.693   7.825  1.6636 -1.8154 -0.4622
 7194SOL     OW33040   1.855   1.281   4.961  0.2088  0.0219 -0.5072
 7194SOL    HW133041   1.842   1.375   4.947  0.3887 -0.0383 -1.1025
 7194SOL    HW233042   1.794   1.240   4.899  2.0684 -2.1821 -0.9117
 7195SOL     OW33043   4.685   1.279   4.745  0.5028 -0.2852  0.1519
 7195SOL    HW133044   0.026   1.214   4.723  0.1076 -0.4615 -0.5320
 7195SOL    HW233045   0.009   1.361   4.748 -0.8270  0.4477  1.8285
 7196SOL     OW33046   2.600   0.745   3.964  0.1646 -0.1231 -0.2864
 7196SOL    HW133047   2.560   0.831   3.969 -0.3651 -0.3923  0.0445
 7196SOL    HW233048   2.691   0.761   3.940  0.5507 -0.6333  0.8158
 7197SOL     OW33049   3.112   0.363   5.626  0.0470  0.1257  0.5497
 7197SOL    HW133050   3.131   0.289   5.568 -1.2497 -1.0997  1.6776
 7197SOL    HW233051   3.184   0.356   5.690  1.9171  0.2195 -1.5400
 7198SOL     OW33052   1.818   3.390   0.664  0.1663  0.1789 -0.0468
 7198SOL    HW133053   1.729   3.398   0.629 -0.1546 -2.4824  0.1450
 7198SOL    HW233054   1.814   3.304   0.706 -1.3106  0.2634 -0.0068
 7199SOL     OW33055   3.843   3.988   0.090 -0.2371  0.0567  0.4660
 7199SOL    HW133056   3.798   3.991   0.005 -2.8707 -1.3325  1.8102
 7199SOL    HW233057   3.925   3.943   0.069  0.5517  1.7505 -0.0814
 7200SOL     OW33058   4.411   2.349   6.207  0.6759 -0.7203  0.1850
 7200SOL    HW133059   4.499   2.325   6.178  0.2594 -3.2380  1.0152
 7200SOL    HW233060   4.379   2.418   6.148  0.1276 -0.3106  0.9618
 7201SOL     OW33061   2.053   2.040   7.155 -0.7638  0.5255  0.4730
 7201SOL    HW133062   2.103   2.102   7.208  1.8500  0.5071 -1.9184
 7201SOL    HW233063   2.070   1.958   7.202  2.4895 -0.4590 -2.4439
 7202SOL     OW33064   3.862   2.040   2.030 -0.0666  0.4941  0.3400
 7202SOL    HW133065   3.944   2.057   2.076 -0.6544  0.8052  1.2674
 7202SOL    HW233066   3.867   2.101   1.957  2.1848 -1.6835 -1.3321
 7203SOL     OW33067   3.298   3.172   8.908 -0.2823  0.6952  0.0825
 7203SOL    HW133068   3.337   3.142   8.990 -1.4156 -0.8982  0.0340
 7203SOL    HW233069   3.322   3.264   8.899  0.8493  0.5107  1.1113
 7204SOL     OW33070   1.073   2.191   6.086  0.7287  0.2777 -0.0943
 7204SOL    HW133071   1.052   2.100   6.065 -0.5749  0.5245  0.1246
 7204SOL    HW233072   1.131   2.213   6.014 -1.6702  0.3614 -2.0250
 7205SOL     OW33073   1.069   0.903   8.755 -0.0157  0.5066 -0.3617
 7205SOL    HW133074   1.160   0.911   8.725  0.2342 -1.6443 -0.1548
 7205SOL    HW233075   1.077   0.970   8.823  1.9884  0.0725 -0.1642
 7206SOL     OW33076   3.987   4.533   7.757 -0.3209  0.1660  0.4105
 7206SOL    HW133077   3.918   4.556   7.820  1.7121  2.1831  1.9225
 7206SOL    HW233078   3.968   4.607   7.699  1.5773 -0.2681 -0.7456
 7207SOL     OW33079   3.784   2.261   9.301  0.0507  0.2769  0.0917
 7207SOL    HW133080   3.796   2.225   9.213  1.8896  0.4673  0.2507
 7207SOL    HW233081   3.827   2.345   9.282 -0.1093  0.3807  0.1816
 7208SOL     OW33082   1.506   3.085  17.467 -0.4838 -0.2278 -0.3346
 7208SOL    HW133083   1.522   3.094  17.373 -0.6911  0.8782 -0.2602
 7208SOL    HW233084   1.596   3.095  17.499 -1.5852 -0.8189  2.9840
 7209SOL     OW33085   0.896   2.967   5.302 -0.1600 -0.3215 -0.3598
 7209SOL    HW133086   0.817   3.015   5.327 -0.8984  0.2176 -3.7622
 7209SOL    HW233087   0.849   2.914   5.238  1.5245 -1.7711 -0.4030
 7210SOL     OW33088   3.599   0.191   4.788 -0.0815  0.4378  0.1269
 7210SOL    HW133089   3.552   0.112   4.765  0.1442  0.1298  0.7197
 7210SOL    HW233090   3.542   0.252   4.741 -1.4746 -0.6166  0.4482
 7211SOL     OW33091   2.790   3.064   6.974 -0.1673 -0.6305  0.7903
 7211SOL    HW133092   2.855   3.038   6.909 -1.2565  2.3042 -1.4408
 7211SOL    HW233093   2.819   3.152   6.998 -1.3070  0.0458 -0.3595
 7212SOL     OW33094   4.524   1.299  12.666  0.1380  0.5015 -0.1599
 7212SOL    HW133095   4.496   1.286  12.756  3.1424  0.3576  0.7522
 7212SOL    HW233096   4.444   1.335  12.627  1.7228  0.9881 -3.0023
 7213SOL     OW33097   1.876   4.232   6.144  0.3184 -0.0098  0.0530
 7213SOL    HW133098   1.896   4.178   6.221  0.9739 -0.3653 -0.3714
 7213SOL    HW233099   1.780   4.234   6.149  0.3846  0.4040  1.2520
 7214SOL     OW33100   4.156   4.380   7.128 -0.2869 -0.0599  0.9013
 7214SOL    HW133101   4.133   4.288   7.138  0.9614 -0.3145  1.4235
 7214SOL    HW233102   4.177   4.394   7.036 -4.0936 -1.9376 -0.2888
 7215SOL     OW33103   4.610   3.326   4.916 -0.4621  0.5638 -0.1168
 7215SOL    HW133104   4.590   3.233   4.906  0.6613  0.3248 -0.2057
 7215SOL    HW233105   4.526   3.372   4.920 -0.6609  0.2606 -0.8161
 7216SOL     OW33106   4.725   2.579   3.771  0.2783 -0.0973  0.1397
 7216SOL    HW133107   0.059   2.537   3.708  0.3691  0.4951 -0.1616
 7216SOL    HW233108   4.646   2.587   3.718 -0.3415  1.0414  1.2480
 7217SOL     OW33109   3.005   0.525   8.946 -0.5982  0.3052 -0.4495
 7217SOL    HW133110   3.001   0.620   8.937 -1.3432  0.5092  1.9677
 7217SOL    HW233111   3.089   0.520   8.992 -2.2383 -3.1616  2.1577
 7218SOL     OW33112   1.774   3.810  12.211 -0.3847  0.1508  0.1951
 7218SOL    HW133113   1.807   3.867  12.141  1.7710 -0.0938  1.0174
 7218SOL    HW233114   1.806   3.724  12.185 -3.0150 -0.7076 -0.2143
 7219SOL     OW33115   4.510   0.129   6.360 -0.6348  0.2375 -0.0246
 7219SOL    HW133116   4.484   0.037   6.368  0.6178  0.0324  1.6298
 7219SOL    HW233117   4.458   0.158   6.284 -1.2755  0.3538  0.4531
 7220SOL     OW33118   1.826   2.439   8.702 -0.0154  0.3205  0.2642
 7220SOL    HW133119   1.833   2.460   8.796 -1.2890  0.3881  0.3491
 7220SOL    HW233120   1.742   2.482   8.684  0.6236  0.5036 -2.1513
 7221SOL     OW33121   2.721   3.772   1.981  0.0266 -0.4470 -0.0172
 7221SOL    HW133122   2.659   3.700   1.989 -0.5416 -0.2786 -2.9468
 7221SOL    HW233123   2.678   3.836   2.038  1.9674  0.3330  0.6085
 7222SOL     OW33124   4.200   1.105   7.881 -0.2074  0.0160 -0.1281
 7222SOL    HW133125   4.149   1.092   7.801  1.4153 -0.7864 -1.0248
 7222SOL    HW233126   4.281   1.141   7.846 -1.0158 -0.1763 -2.1603
 7223SOL     OW33127   2.154   3.129   3.901  0.0665 -0.0953 -0.1050
 7223SOL    HW133128   2.085   3.194   3.914 -1.7349 -2.1012  0.3885
 7223SOL    HW233129   2.232   3.170   3.938  1.3569 -2.6787  0.0258
 7224SOL     OW33130   0.226   0.680  11.331  0.5390 -0.0038  0.1783
 7224SOL    HW133131   0.225   0.753  11.269 -0.5385  0.9770  1.3240
 7224SOL    HW233132   0.153   0.622  11.309  1.0950 -0.6341  0.0338
 7225SOL     OW33133   2.044   2.811   8.531  0.3660  0.1854  0.7334
 7225SOL    HW133134   2.132   2.784   8.556  1.6698  1.8710 -2.1080
 7225SOL    HW233135   2.043   2.907   8.536 -1.2484  0.2558 -1.1243
 7226SOL     OW33136   0.895   0.637  15.532  0.1278  0.1353  0.2174
 7226SOL    HW133137   0.801   0.655  15.527  0.4492  1.8746  0.6441
 7226SOL    HW233138   0.893   0.615  15.625 -1.0512  1.5178  0.5147
 7227SOL     OW33139   0.877   1.227   7.289  0.4386 -0.2479 -0.5922
 7227SOL    HW133140   0.795   1.251   7.246  0.6350 -0.1290 -0.9033
 7227SOL    HW233141   0.940   1.276   7.236 -1.1923  1.9907 -0.4490
 7228SOL     OW33142   4.327   0.038   0.159 -0.7113 -0.1031 -0.6522
 7228SOL    HW133143   4.368   0.055   0.074  1.0056  0.2659  0.2525
 7228SOL    HW233144   4.319   4.668   0.163  2.4555 -0.2582  1.8897
 7229SOL     OW33145   3.167   3.295   8.171  0.2120  0.7059  0.4329
 7229SOL    HW133146   3.075   3.270   8.166  0.5544 -0.2411 -1.3871
 7229SOL    HW233147   3.196   3.254   8.089  0.1092 -0.2438  0.8749
 7230SOL     OW33148   3.370   2.077  17.345  0.0804  0.3558 -0.0187
 7230SOL    HW133149   3.428   2.020  17.295 -0.1465 -2.0637  2.4977
 7230SOL    HW233150   3.433   2.148  17.361  1.3383 -1.0128  1.0570
 7231SOL     OW33151   1.571   4.144  12.084 -0.1756  0.2467  0.6974
 7231SOL    HW133152   1.557   4.218  12.142 -0.4998 -0.1927  1.1831
 7231SOL    HW233153   1.530   4.069  12.127  1.2641  0.2457  2.0425
 7232SOL     OW33154   1.593   2.436  11.627  0.1319 -0.2269  0.2886
 7232SOL    HW133155   1.592   2.381  11.705  1.6299  0.2819  0.6602
 7232SOL    HW233156   1.638   2.379  11.564 -2.4506 -1.8547 -0.1217
 7233SOL     OW33157   1.495   4.306  14.691  0.3521  0.0170 -0.1202
 7233SOL    HW133158   1.523   4.398  14.688 -1.9052  0.7374  1.2426
 7233SOL    HW233159   1.445   4.303  14.773  0.1615  0.2503 -0.2280
 7234SOL     OW33160   4.583   1.134   3.769  0.0978 -0.2897 -0.4673
 7234SOL    HW133161   4.555   1.195   3.838  0.1059  0.1758 -0.8714
 7234SOL    HW233162   4.539   1.054   3.795  0.5602 -0.3819  0.0496
 7235SOL     OW33163   1.576   1.263   6.468  0.3531  0.2514 -0.3187
 7235SOL    HW133164   1.496   1.255   6.417 -0.1726  2.3337  0.1843
 7235SOL    HW233165   1.632   1.291   6.395  0.3534 -0.4113 -0.5695
 7236SOL     OW33166   4.105   3.190   7.601  0.1303 -0.0745 -0.1795
 7236SOL    HW133167   4.120   3.199   7.506 -0.0567 -0.8918 -0.2874
 7236SOL    HW233168   4.089   3.095   7.594  0.2829  0.0589 -2.6569
 7237SOL     OW33169   4.517   1.281   6.181  0.3639  0.0915 -0.0539
 7237SOL    HW133170   4.493   1.258   6.271 -0.5347 -3.6838 -1.2565
 7237SOL    HW233171   4.585   1.218   6.157 -1.0531 -2.0598  1.4714
 7238SOL     OW33172   3.370   0.664   6.622  0.2634  0.1892  0.1737
 7238SOL    HW133173   3.397   0.573   6.611  0.8293  0.3310  0.3928
 7238SOL    HW233174   3.303   0.650   6.690  1.8999 -1.4618  1.4528
 7239SOL     OW33175   3.476   1.001   8.219 -0.0362  0.1464 -0.1769
 7239SOL    HW133176   3.438   0.984   8.305 -1.3635  2.2506 -0.3542
 7239SOL    HW233177   3.563   1.023   8.253  0.1620  1.5256 -1.5859
 7240SOL     OW33178   0.469   0.652  15.012  0.3631  0.6146  0.0923
 7240SOL    HW133179   0.483   0.614  14.925  1.1261 -0.6916  0.7803
 7240SOL    HW233180   0.425   0.577  15.052 -0.3819  1.7442  1.3655
 7241SOL     OW33181   4.404   2.323   2.428  0.6307 -0.2791 -0.1237
 7241SOL    HW133182   4.370   2.344   2.341  1.0046  1.9300  0.2700
 7241SOL    HW233183   4.481   2.269   2.408  0.7447 -0.1850  0.0642
 7242SOL     OW33184   2.867   1.558   3.822 -0.0764  0.5699  0.1789
 7242SOL    HW133185   2.912   1.521   3.899 -1.3135  1.0032  1.1155
 7242SOL    HW233186   2.777   1.552   3.853 -0.6684 -2.3994 -2.1345
 7243SOL     OW33187   0.946   4.394   3.472  0.3472 -0.2989  0.0068
 7243SOL    HW133188   0.975   4.485   3.470 -1.1937  0.1494 -0.9697
 7243SOL    HW233189   1.024   4.340   3.460  0.1706 -1.1131  2.4093
 7244SOL     OW33190   4.464   0.938   2.760 -0.0699  0.4436  0.4656
 7244SOL    HW133191   4.467   0.884   2.839  1.1839 -1.5405 -0.9507
 7244SOL    HW233192   4.540   0.997   2.760  0.6599 -0.4963 -0.0435
 7245SOL     OW33193   3.253   3.033   7.083 -0.2703  0.1002  0.3231
 7245SOL    HW133194   3.309   2.986   7.021  1.0978  1.7386  0.3032
 7245SOL    HW233195   3.276   3.001   7.170 -0.8547 -1.8067 -0.2147
 7246SOL     OW33196   2.895   1.294   6.808 -0.2053  0.3396  0.3337
 7246SOL    HW133197   2.956   1.242   6.860 -0.9485 -0.8341  0.0188
 7246SOL    HW233198   2.854   1.223   6.759 -0.4549  1.7993 -1.5518
 7247SOL     OW33199   3.312   2.003   2.402 -0.6279 -0.5668 -0.6641
 7247SOL    HW133200   3.283   2.080   2.451  1.2012 -0.2241 -0.1324
 7247SOL    HW233201   3.280   1.944   2.470  0.7523 -1.0710 -0.4484
 7248SOL     OW33202   3.072   0.465   7.944  0.4402  0.0502  0.1194
 7248SOL    HW133203   3.137   0.423   7.888  1.9054  0.6938  1.3143
 7248SOL    HW233204   3.004   0.398   7.944 -0.3534  0.8564  0.7082
 7249SOL     OW33205   1.760   3.822   6.708  0.0595 -0.2146  0.3190
 7249SOL    HW133206   1.836   3.771   6.680  1.0790  2.2614 -1.4214
 7249SOL    HW233207   1.693   3.772   6.661 -1.5510  1.4083  0.8752
 7250SOL     OW33208   3.062   4.087  16.529  0.2191  0.0436  0.0615
 7250SOL    HW133209   3.099   4.070  16.616  2.5240 -0.9952 -1.1220
 7250SOL    HW233210   3.116   4.165  16.512  0.6288  0.7474  4.3426
 7251SOL     OW33211   3.512   3.557  15.303  0.2767 -0.4723 -0.7992
 7251SOL    HW133212   3.478   3.640  15.336  0.4632 -0.9725  0.6426
 7251SOL    HW233213   3.518   3.513  15.388 -2.3634  1.3385  0.3132
 7252SOL     OW33214   1.471   0.752   8.151 -0.1845 -0.0862 -0.4903
 7252SOL    HW133215   1.534   0.764   8.080  1.0904  2.2243  1.0566
 7252SOL    HW233216   1.516   0.679   8.194  0.7168  0.2315 -0.8926
 7253SOL     OW33217   2.045   3.442   5.578 -0.0873 -0.0017 -0.1095
 7253SOL    HW133218   1.974   3.490   5.535  0.4134  1.5892  0.8570
 7253SOL    HW233219   1.994   3.399   5.647  0.4121  1.5059  1.1886
 7254SOL     OW33220   3.880   3.819   6.704  0.8948  0.0535  0.0771
 7254SOL    HW133221   3.898   3.739   6.753 -0.2336  0.9470  1.9488
 7254SOL    HW233222   3.804   3.857   6.749  0.9606 -0.0441  0.2722
 7255SOL     OW33223   4.603   4.608   5.584  0.4138  0.3263 -0.1418
 7255SOL    HW133224   4.647   4.528   5.614 -0.7895 -1.1839 -2.4249
 7255SOL    HW233225   4.517   4.582   5.551  0.9672 -3.5077  1.4692
 7256SOL     OW33226   3.648   4.494   2.395  0.6781  0.0183  0.2345
 7256SOL    HW133227   3.575   4.480   2.334 -0.1895 -1.7043  1.6645
 7256SOL    HW233228   3.705   4.419   2.380  0.2947  0.1365 -1.8498
 7257SOL     OW33229   0.120   0.522   4.952 -0.1468  0.4218  0.0617
 7257SOL    HW133230   0.162   0.571   5.022 -0.0535  1.6069 -0.8275
 7257SOL    HW233231   0.069   0.465   5.010  0.1000 -0.7966 -0.9034
 7258SOL     OW33232   2.839   3.398  12.324 -0.3941  0.0613  0.2476
 7258SOL    HW133233   2.760   3.396  12.270 -0.0288 -3.1353 -0.1706
 7258SOL    HW233234   2.812   3.361  12.408  1.1420  0.3325  0.8566
 7259SOL     OW33235   0.242   1.658  13.236  0.5471  0.6461  0.0117
 7259SOL    HW133236   0.249   1.564  13.255  0.6230  0.7915  0.6985
 7259SOL    HW233237   0.168   1.654  13.175  0.3843  0.2176  0.2353
 7260SOL     OW33238   3.796   2.874   3.788 -0.1656  0.5347  0.3296
 7260SOL    HW133239   3.839   2.797   3.751 -0.4908  1.0609 -1.1331
 7260SOL    HW233240   3.737   2.891   3.716 -0.7938 -0.8821  0.5175
 7261SOL     OW33241   4.391   1.668   8.043  0.0843 -0.0276 -0.1325
 7261SOL    HW133242   4.467   1.723   8.027 -0.1251  0.1984 -0.3430
 7261SOL    HW233243   4.326   1.697   7.979  0.8771 -1.7395 -1.7322
 7262SOL     OW33244   0.676   1.377  15.951  0.7167 -0.3705 -0.2040
 7262SOL    HW133245   0.658   1.399  15.860 -2.0075 -3.3732 -0.3933
 7262SOL    HW233246   0.608   1.420  16.003 -1.2344 -4.2720  0.4471
 7263SOL     OW33247   1.713   3.581  14.182 -0.1602 -0.1798  0.2894
 7263SOL    HW133248   1.634   3.633  14.198  1.2869  2.5837 -1.5414
 7263SOL    HW233249   1.773   3.608  14.251 -0.5541 -1.1850  1.0324
 7264SOL     OW33250   0.696   2.528  10.494  0.3868  0.9371  0.0404
 7264SOL    HW133251   0.695   2.598  10.428 -1.6355  1.4833  0.6503
 7264SOL    HW233252   0.620   2.548  10.548 -0.8086  1.7317 -1.9179
 7265SOL     OW33253   0.388   3.416   6.350 -0.4164  0.0552 -0.3457
 7265SOL    HW133254   0.370   3.329   6.313  0.2600 -1.3273  2.5175
 7265SOL    HW233255   0.350   3.472   6.284  0.7814 -0.4224 -1.4474
 7266SOL     OW33256   4.591   0.411  10.741  0.1116  0.0684 -0.3828
 7266SOL    HW133257   4.670   0.404  10.687 -0.5682 -2.8107 -1.0064
 7266SOL    HW233258   4.516   0.423  10.682 -0.4312  0.2029  0.3254
 7267SOL     OW33259   3.967   3.807  17.342  0.0143  0.0928 -0.5844
 7267SOL    HW133260   3.980   3.854  17.260 -0.1235  0.9574 -0.1106
 7267SOL    HW233261   4.054   3.767  17.353 -0.0902  0.2756  0.8672
 7268SOL     OW33262   0.810   2.451   4.123  0.0510 -0.3238  0.1633
 7268SOL    HW133263   0.748   2.444   4.050  0.2060  1.4481 -0.1471
 7268SOL    HW233264   0.874   2.501   4.073 -1.1429  1.4230  0.3592
 7269SOL     OW33265   3.290   2.369   4.711  0.2757 -0.4269  0.4701
 7269SOL    HW133266   3.361   2.359   4.648  0.5939 -3.0424  1.2676
 7269SOL    HW233267   3.318   2.454   4.745 -0.8121  0.1981 -0.2147
 7270SOL     OW33268   0.245   0.520   4.145  0.3853 -0.2003  0.8012
 7270SOL    HW133269   0.178   0.515   4.076  0.7972 -1.4155  0.4955
 7270SOL    HW233270   0.195   0.512   4.226  1.6369  1.4150  1.7173
 7271SOL     OW33271   4.610   4.426  10.668 -0.4287  0.3043 -0.1209
 7271SOL    HW133272   4.580   4.424  10.759 -1.2249  1.0479 -0.3652
 7271SOL    HW233273   4.673   4.498  10.667  0.4540 -0.4676  0.3121
 7272SOL     OW33274   0.748   0.330   9.310 -0.4298 -0.8624 -0.2210
 7272SOL    HW133275   0.723   0.406   9.258  0.5389 -0.3354  0.0891
 7272SOL    HW233276   0.843   0.332   9.309 -0.4060 -1.5337  0.4481
 7273SOL     OW33277   1.091   3.079   7.356  0.5498 -0.6924  0.0881
 7273SOL    HW133278   1.158   3.012   7.361  1.5968  0.1791 -2.0254
 7273SOL    HW233279   1.059   3.076   7.265 -0.7816  1.3617  0.4889
 7274SOL     OW33280   3.054   1.976  15.060  0.4826 -0.0093  0.3481
 7274SOL    HW133281   3.007   1.999  15.140 -2.7769  2.3909 -2.2469
 7274SOL    HW233282   2.978   1.970  15.002  0.6732  1.1951 -0.0351
 7275SOL     OW33283   1.581   2.834   2.581  0.3125 -0.4755  0.4670
 7275SOL    HW133284   1.593   2.881   2.664 -0.3794 -0.3785  0.5123
 7275SOL    HW233285   1.512   2.885   2.539  1.5835  1.3911  0.6125
 7276SOL     OW33286   2.871   3.703   8.216 -0.0669 -0.4109  0.1803
 7276SOL    HW133287   2.955   3.720   8.259 -1.6616  1.9696  2.3614
 7276SOL    HW233288   2.890   3.637   8.149 -1.2963 -1.5193  0.9265
 7277SOL     OW33289   0.381   1.428   3.756  0.0738  0.0928 -0.0126
 7277SOL    HW133290   0.430   1.483   3.816  1.2068 -0.7898 -0.1238
 7277SOL    HW233291   0.310   1.482   3.722  0.3558 -0.3121 -1.2685
 7278SOL     OW33292   0.937   3.044   3.219 -0.2643 -0.0095 -0.0289
 7278SOL    HW133293   0.960   3.122   3.270 -3.6957  0.8322  0.2634
 7278SOL    HW233294   0.918   2.981   3.288 -2.3435 -0.1941 -0.7538
 7279SOL     OW33295   4.082   4.294   4.559 -0.4027  0.2431  0.1262
 7279SOL    HW133296   4.072   4.361   4.626 -0.9723 -0.0440  0.3290
 7279SOL    HW233297   4.006   4.309   4.503  0.7499  0.0440 -1.5053
 7280SOL     OW33298   0.133   0.864   9.037  0.1510 -0.0336 -0.2461
 7280SOL    HW133299   0.099   0.829   9.119  0.2020 -1.6162 -0.9075
 7280SOL    HW233300   0.178   0.945   9.062  0.3584  0.3091 -1.7343
 7281SOL     OW33301   3.417   1.500   5.934  0.6421 -1.0051 -0.2855
 7281SOL    HW133302   3.492   1.490   5.993  0.6607 -0.2650 -0.1831
 7281SOL    HW233303   3.463   1.549   5.866  0.7166  2.7722  2.4770
 7282SOL     OW33304   4.215   4.659   8.328  0.3758 -0.2412 -0.6707
 7282SOL    HW133305   4.193   4.688   8.240 -1.4069 -3.2226 -1.1981
 7282SOL    HW233306   4.193   4.566   8.327  2.0851 -0.6709  1.1359
 7283SOL     OW33307   3.285   3.478   1.505 -0.4213  0.1380 -0.0658
 7283SOL    HW133308   3.201   3.472   1.550 -1.7972 -2.2988 -2.9750
 7283SOL    HW233309   3.342   3.468   1.581 -1.5602  1.1720  0.9105
 7284SOL     OW33310   3.694   4.015   6.797 -0.0766 -0.1120 -0.3532
 7284SOL    HW133311   3.634   4.079   6.836  0.5220  0.3409 -0.1790
 7284SOL    HW233312   3.681   4.040   6.706  1.4314  2.4481  0.1361
 7285SOL     OW33313   2.585   3.912  16.269 -0.3637 -0.2136 -0.1422
 7285SOL    HW133314   2.544   3.826  16.261 -1.3990  0.1853  0.8159
 7285SOL    HW233315   2.616   3.901  16.359  0.5065 -2.2509 -0.7008
 7286SOL     OW33316   4.569   3.740  16.150 -0.0193  0.0021  0.3861
 7286SOL    HW133317   4.509   3.786  16.091 -0.4305  1.2966  1.7914
 7286SOL    HW233318   4.524   3.703  16.226 -1.3578  1.1162  0.1292
 7287SOL     OW33319   1.289   4.645   4.269  0.3287 -0.4409  0.3348
 7287SOL    HW133320   1.249   4.629   4.354 -2.3622 -1.7339 -1.1612
 7287SOL    HW233321   1.383   4.643   4.283  0.2685  0.9601  0.9935
 7288SOL     OW33322   2.651   1.270   5.958  0.2632  0.2154  0.3339
 7288SOL    HW133323   2.581   1.207   5.942  2.3134 -1.4823 -2.0372
 7288SOL    HW233324   2.654   1.323   5.879 -3.3849 -0.4857 -0.2805
 7289SOL     OW33325   2.571   1.941   2.172  0.0305  0.4955 -0.1218
 7289SOL    HW133326   2.660   1.973   2.157  0.5076 -0.7205  0.1043
 7289SOL    HW233327   2.599   1.859   2.212  3.8816  1.9556  0.2127
 7290SOL     OW33328   3.037   1.963   0.136  0.2464 -0.4369 -0.5081
 7290SOL    HW133329   3.126   1.941   0.164  0.3304 -0.4435 -0.7893
 7290SOL    HW233330   3.003   1.875   0.118  1.6553 -0.9888 -0.4794
 7291SOL     OW33331   3.509   1.177   7.821  0.3445  0.0503  0.2904
 7291SOL    HW133332   3.561   1.257   7.815  0.0319  0.1411 -1.1488
 7291SOL    HW233333   3.582   1.116   7.806  1.1891  0.8160  1.2870
 7292SOL     OW33334   0.690   0.529   2.227  0.2692  0.2191  0.5520
 7292SOL    HW133335   0.620   0.552   2.288  1.7332  2.6739  1.3016
 7292SOL    HW233336   0.762   0.588   2.247 -0.1994  0.9097  0.2287
 7293SOL     OW33337   4.465   3.655   2.497 -0.3069  0.1010 -0.4966
 7293SOL    HW133338   4.383   3.609   2.510 -0.1701 -0.3605 -1.2465
 7293SOL    HW233339   4.436   3.731   2.547  0.4702  0.2716 -0.3047
 7294SOL     OW33340   0.935   4.601   3.811  0.1094  0.0947  0.1077
 7294SOL    HW133341   0.887   4.519   3.822 -0.7537  0.6514  0.5393
 7294SOL    HW233342   0.950   4.620   3.903 -0.7283  0.9618  0.0629
 7295SOL     OW33343   0.363   0.452   8.152 -0.0061  0.2069  0.2218
 7295SOL    HW133344   0.320   0.379   8.197  1.0140 -0.5809 -0.0729
 7295SOL    HW233345   0.449   0.454   8.194  0.2950 -1.3111 -0.3160
 7296SOL     OW33346   0.331   0.008   7.815 -0.5928  0.4557 -0.2116
 7296SOL    HW133347   0.314   4.682   7.894  0.0407 -1.6080 -1.4081
 7296SOL    HW233348   0.409   4.694   7.777 -1.4287 -1.4694  0.0710
 7297SOL     OW33349   3.487   3.418   0.961 -0.4613  0.0170  0.3196
 7297SOL    HW133350   3.526   3.444   0.877 -0.7426 -0.7787 -0.0503
 7297SOL    HW233351   3.553   3.364   1.006 -0.5650 -1.8248 -1.7765
 7298SOL     OW33352   0.479   0.297   4.030 -0.2758  0.1775  0.0567
 7298SOL    HW133353   0.533   0.245   3.971 -0.3098  0.5349 -0.2903
 7298SOL    HW233354   0.398   0.275   3.985  0.8379 -0.8650 -1.4057
 7299SOL     OW33355   3.640   0.637   5.682  0.4550 -0.1553  0.1505
 7299SOL    HW133356   3.627   0.710   5.742  1.4222 -0.7412  1.0830
 7299SOL    HW233357   3.553   0.598   5.678  0.2384  0.0789  2.2942
 7300SOL     OW33358   3.865   3.306   4.436 -0.7265 -0.5377  0.3472
 7300SOL    HW133359   3.878   3.372   4.368 -0.0837  1.4287  2.3788
 7300SOL    HW233360   3.948   3.257   4.435 -0.2098  0.4344 -3.2180
 7301SOL     OW33361   2.944   0.639   5.266 -0.4190  0.0408 -0.4878
 7301SOL    HW133362   2.943   0.725   5.309 -0.6400  0.4805 -1.3870
 7301SOL    HW233363   2.865   0.642   5.213  0.4057  1.3020 -1.6346
 7302SOL     OW33364   1.681   4.658   8.640  0.2808  0.0583 -0.3480
 7302SOL    HW133365   1.775   4.678   8.630 -0.0208  1.6574 -0.0449
 7302SOL    HW233366   1.681   4.621   8.728  2.7608 -0.9108 -0.7474
 7303SOL     OW33367   2.351   0.584   5.439 -0.8165  0.0011  0.2416
 7303SOL    HW133368   2.391   0.534   5.511  1.7969  0.6339 -0.7517
 7303SOL    HW233369   2.353   0.676   5.468  0.3564  0.8446 -2.5249
 7304SOL     OW33370   0.503   4.226   2.533  0.0737 -0.3336 -0.0649
 7304SOL    HW133371   0.457   4.286   2.592  0.7707  1.3481 -1.2282
 7304SOL    HW233372   0.484   4.265   2.448  0.4126 -0.6218 -0.2752
 7305SOL     OW33373   0.068   2.327   5.657  0.3597  0.1371 -0.6284
 7305SOL    HW133374   0.019   2.302   5.735  0.7505  1.5585  0.0779
 7305SOL    HW233375   0.159   2.322   5.685  0.8825  0.9510 -2.1546
 7306SOL     OW33376   1.462   2.810  12.917 -0.0291 -0.5014 -0.2049
 7306SOL    HW133377   1.550   2.817  12.954  1.4215 -0.8080 -3.6430
 7306SOL    HW233378   1.424   2.889  12.955  0.4323 -0.1159 -0.5532
 7307SOL     OW33379   4.178   2.525  10.125 -0.1638  0.0956  0.5570
 7307SOL    HW133380   4.139   2.577  10.195  0.7888  1.4763  0.0468
 7307SOL    HW233381   4.099   2.483  10.091  0.6862  0.0718 -1.4071
 7308SOL     OW33382   1.399   0.168   2.522  0.7296  0.1444  0.5785
 7308SOL    HW133383   1.472   0.112   2.547  0.8534  0.3570  0.6917
 7308SOL    HW233384   1.329   0.104   2.530  2.5565 -2.1929 -2.4441
 7309SOL     OW33385   2.319   4.433  14.786 -0.3399  0.5143 -0.4330
 7309SOL    HW133386   2.251   4.385  14.740  1.8686 -1.5016 -1.5545
 7309SOL    HW233387   2.401   4.405  14.746 -1.2197 -0.4917 -1.5163
 7310SOL     OW33388   4.718   2.238  16.181  0.2543 -0.1996 -0.2091
 7310SOL    HW133389   0.079   2.224  16.219 -0.1978  0.2178  0.9669
 7310SOL    HW233390   0.008   2.193  16.097  0.2058  0.1823 -0.4252
 7311SOL     OW33391   4.662   2.218   6.139 -0.1667  0.1138  0.0693
 7311SOL    HW133392   4.668   2.134   6.184 -1.8202  0.0047  0.1024
 7311SOL    HW233393   0.031   2.230   6.140 -0.1458 -0.2390  1.5232
 7312SOL     OW33394   3.354   0.072   1.162 -0.5373 -0.1766  0.1887
 7312SOL    HW133395   3.302   0.063   1.082 -1.4419 -0.2231  0.7938
 7312SOL    HW233396   3.442   0.065   1.124 -1.0559 -1.6703 -0.7352
 7313SOL     OW33397   1.085   2.796   1.256 -0.3459  0.0699 -0.1295
 7313SOL    HW133398   1.011   2.764   1.309  1.4035 -0.6080  1.8996
 7313SOL    HW233399   1.048   2.783   1.168  0.3450 -1.7947 -0.1532
 7314SOL     OW33400   2.683   3.606   0.701 -0.0885  0.3372 -0.8372
 7314SOL    HW133401   2.635   3.531   0.664  0.9941 -0.4573 -0.6056
 7314SOL    HW233402   2.605   3.660   0.713 -0.3253 -0.3004  0.4356
 7315SOL     OW33403   3.213   0.561   4.296 -0.1942  0.2219  0.2246
 7315SOL    HW133404   3.194   0.610   4.376  1.0743  0.3526  0.4463
 7315SOL    HW233405   3.195   0.626   4.228 -0.0117  1.2245  1.1263
 7316SOL     OW33406   2.728   0.944   5.113  0.0736  0.1562  0.4306
 7316SOL    HW133407   2.708   0.854   5.142 -0.0393  1.1278  3.3013
 7316SOL    HW233408   2.823   0.952   5.106 -0.2025  0.9565 -2.5374
 7317SOL     OW33409   3.047   3.950  17.304 -0.4584  0.2573  0.3647
 7317SOL    HW133410   3.090   3.865  17.317 -0.4846  0.3803  1.2631
 7317SOL    HW233411   2.987   3.941  17.377  0.0711 -1.9430  0.5350
 7318SOL     OW33412   3.985   2.648   0.620 -0.1834 -0.2235  0.1791
 7318SOL    HW133413   4.069   2.657   0.576  0.3807  1.6441  1.6177
 7318SOL    HW233414   3.923   2.647   0.548  1.3481 -1.7472 -1.0992
 7319SOL     OW33415   0.776   2.360   3.243 -0.2153 -0.2555  0.4981
 7319SOL    HW133416   0.758   2.451   3.219 -1.2217 -0.5098  0.2704
 7319SOL    HW233417   0.694   2.327   3.206  1.3897 -0.5077 -2.7918
 7320SOL     OW33418   2.137   2.657  15.669  0.1498 -0.0788  0.1917
 7320SOL    HW133419   2.144   2.651  15.574  0.3506  1.3488  0.1196
 7320SOL    HW233420   2.227   2.678  15.694  0.4856  0.7682 -1.7110
 7321SOL     OW33421   4.134   0.440   8.429  0.4724  0.6342 -0.6438
 7321SOL    HW133422   4.091   0.521   8.401  1.3604  1.4127  0.2160
 7321SOL    HW233423   4.096   0.426   8.516 -1.5269 -1.4242 -1.8479
 7322SOL     OW33424   0.056   2.848   1.400  0.0720  0.1415  0.1071
 7322SOL    HW133425   0.017   2.901   1.469 -0.6932  0.5846 -0.6642
 7322SOL    HW233426   0.145   2.882   1.413  1.2313 -2.1779 -1.4741
 7323SOL     OW33427   1.452   2.339   0.898 -0.3025  0.0330 -0.1307
 7323SOL    HW133428   1.476   2.333   0.805  1.0096 -0.2245  0.2315
 7323SOL    HW233429   1.358   2.329   0.882 -0.7655  1.6043  1.6531
 7324SOL     OW33430   1.735   2.948   0.458 -0.2001  0.1075  0.0441
 7324SOL    HW133431   1.773   3.013   0.400  1.1907 -2.4038 -1.8311
 7324SOL    HW233432   1.812   2.913   0.503  0.2171  1.1124  0.1181
 7325SOL     OW33433   3.587   3.292   7.718 -0.2137 -0.0590  0.0446
 7325SOL    HW133434   3.652   3.245   7.666  0.2297  0.1376  0.4191
 7325SOL    HW233435   3.514   3.242   7.682 -0.7961  1.2227 -0.5379
 7326SOL     OW33436   3.359   2.106  15.916 -0.1699 -0.2626  0.2636
 7326SOL    HW133437   3.453   2.092  15.925 -0.2895 -2.0884 -1.3065
 7326SOL    HW233438   3.361   2.174  15.849  0.0311 -1.4616 -0.9455
 7327SOL     OW33439   0.394   1.621  14.423 -0.5972  0.5660 -0.1375
 7327SOL    HW133440   0.380   1.708  14.386 -1.5505 -0.3989 -2.0194
 7327SOL    HW233441   0.448   1.645  14.498 -0.8041  1.5928 -0.3249
 7328SOL     OW33442   2.501   2.603   1.459 -0.0171  0.2830  0.9789
 7328SOL    HW133443   2.436   2.533   1.469  0.2096 -0.1500 -0.5783
 7328SOL    HW233444   2.438   2.673   1.478  1.4479  0.9141  3.4905
 7329SOL     OW33445   2.973   3.170   6.234 -1.0320 -0.0908 -0.6966
 7329SOL    HW133446   2.974   3.093   6.291  1.2782  0.5534  0.0881
 7329SOL    HW233447   2.882   3.164   6.204 -1.5559  2.0600  0.4426
 7330SOL     OW33448   3.308   3.492   7.967  0.1623 -0.5798  0.1954
 7330SOL    HW133449   3.355   3.411   7.987  0.2289 -0.9481 -1.4591
 7330SOL    HW233450   3.317   3.485   7.872 -0.0750 -1.5531  0.2380
 7331SOL     OW33451   4.476   4.227   7.357 -0.0994  0.1441 -0.0468
 7331SOL    HW133452   4.436   4.228   7.444  1.0617 -1.7348  0.4875
 7331SOL    HW233453   4.534   4.303   7.353  0.0716  0.1284  2.1676
 7332SOL     OW33454   0.256   2.558   1.271  0.1531  0.1305  0.2776
 7332SOL    HW133455   0.310   2.628   1.234 -0.2969 -1.1560 -2.8776
 7332SOL    HW233456   0.208   2.613   1.332 -0.2375  0.6509 -0.4982
 7333SOL     OW33457   0.902   2.823   3.669 -0.0333 -0.2472 -0.3886
 7333SOL    HW133458   0.946   2.739   3.676 -0.8674 -0.5631  1.0619
 7333SOL    HW233459   0.980   2.874   3.649  0.3130 -0.5313  0.2228
 7334SOL     OW33460   3.346   3.460   2.601  0.3950  0.5193  0.3321
 7334SOL    HW133461   3.404   3.518   2.552  1.7547  0.6538  2.0841
 7334SOL    HW233462   3.302   3.524   2.657 -0.5294 -1.5924  2.0045
 7335SOL     OW33463   0.710   4.098   6.787 -0.1441 -0.7525  0.4108
 7335SOL    HW133464   0.653   4.029   6.819  2.0081 -2.5702  0.3472
 7335SOL    HW233465   0.715   4.072   6.695  1.7220  0.3752  0.1896
 7336SOL     OW33466   4.401   1.787   8.594 -0.2923 -0.4518 -0.0837
 7336SOL    HW133467   4.457   1.804   8.518 -1.2305  0.8376 -0.4878
 7336SOL    HW233468   4.458   1.730   8.645  3.3322  1.5516 -1.8629
 7337SOL     OW33469   1.258   2.953   9.211 -0.1782 -0.4570 -0.4748
 7337SOL    HW133470   1.279   2.909   9.293 -2.7937  0.2848  0.5701
 7337SOL    HW233471   1.164   2.946   9.195 -0.3052 -0.3962  0.2597
 7338SOL     OW33472   1.201   1.077   0.753 -0.1591  0.5937 -0.0394
 7338SOL    HW133473   1.216   1.166   0.720  0.4890  0.0864 -1.1062
 7338SOL    HW233474   1.151   1.101   0.830  0.0009  0.6748  0.0396
 7339SOL     OW33475   3.929   3.426  13.866  0.5248  0.3878  0.1125
 7339SOL    HW133476   3.898   3.455  13.781 -0.1861 -1.1074 -0.1227
 7339SOL    HW233477   3.987   3.496  13.897  2.0798 -1.0241  0.3458
 7340SOL     OW33478   4.029   1.863   5.813 -0.0925 -0.2033  0.2728
 7340SOL    HW133479   4.068   1.852   5.900  1.7641  0.5874 -0.4631
 7340SOL    HW233480   3.968   1.935   5.828 -0.6628  0.0593 -3.2433
 7341SOL     OW33481   0.915   0.398   7.070 -0.0303 -0.9013 -0.4157
 7341SOL    HW133482   0.823   0.396   7.098  0.0916  0.3134  0.0711
 7341SOL    HW233483   0.927   0.493   7.068  0.4251 -1.0020 -1.9183
 7342SOL     OW33484   0.646   3.785   9.277  0.1637 -0.1569 -0.7952
 7342SOL    HW133485   0.680   3.765   9.364 -0.4423 -0.2345 -0.5763
 7342SOL    HW233486   0.600   3.865   9.301 -0.1134 -0.3887 -0.5432
 7343SOL     OW33487   3.529   2.417   8.047 -0.1442  0.1273 -0.0313
 7343SOL    HW133488   3.463   2.433   7.979  1.2459  2.4585 -0.8415
 7343SOL    HW233489   3.469   2.406   8.121  0.8348 -0.2151  0.6997
 7344SOL     OW33490   4.113   0.960  10.424  0.2180  0.6453  0.1533
 7344SOL    HW133491   4.117   0.912  10.507 -1.5840  2.3845  1.2361
 7344SOL    HW233492   4.025   0.992  10.443  0.1953  0.5468  0.2184
 7345SOL     OW33493   1.525   1.026   2.742  0.2459 -0.2716  0.2391
 7345SOL    HW133494   1.462   0.964   2.706 -3.4220  2.0616  2.6193
 7345SOL    HW233495   1.485   1.057   2.823  2.7409 -0.9517  1.7310
 7346SOL     OW33496   3.633   4.012   8.505 -0.9749 -0.3737  0.4159
 7346SOL    HW133497   3.647   4.101   8.471  0.4190 -1.5929 -2.2254
 7346SOL    HW233498   3.538   4.012   8.491 -0.9861  0.3135  0.5109
 7347SOL     OW33499   3.944   4.174   7.526  0.0368 -0.2879 -0.6820
 7347SOL    HW133500   3.973   4.128   7.447  1.4089 -0.8172  0.1346
 7347SOL    HW233501   3.915   4.104   7.585  0.8676  0.5139  0.6817
 7348SOL     OW33502   2.596   2.090   4.708  0.4116  0.2788  0.3804
 7348SOL    HW133503   2.573   2.072   4.617 -0.0091  2.0142  0.1407
 7348SOL    HW233504   2.689   2.111   4.693  0.2052  0.6132 -0.4680
 7349SOL     OW33505   2.922   1.773   6.022 -0.4547  0.4069  0.0265
 7349SOL    HW133506   2.891   1.833   6.089 -1.0165  0.1700 -0.0218
 7349SOL    HW233507   2.852   1.789   5.959 -1.3962 -2.0246  0.4523
 7350SOL     OW33508   0.783   3.053   8.480  0.3221 -0.3221  0.6540
 7350SOL    HW133509   0.765   3.117   8.412 -1.0099 -1.2589  0.1265
 7350SOL    HW233510   0.879   3.052   8.480  0.3438  1.4359  3.6863
 7351SOL     OW33511   0.129   1.426   8.484 -0.5344 -0.1075 -0.0807
 7351SOL    HW133512   0.155   1.438   8.392  0.2494 -0.9230  0.0474
 7351SOL    HW233513   0.138   1.520   8.500  1.6246 -0.3839  0.2463
 7352SOL     OW33514   0.346   2.515   5.991 -0.3249 -0.4276 -0.0393
 7352SOL    HW133515   0.336   2.420   5.978 -1.0528 -0.3788  0.1236
 7352SOL    HW233516   0.427   2.516   6.041 -0.2536  3.4368 -0.2754
 7353SOL     OW33517   3.850   2.295   4.528 -0.3063 -0.3138  0.6262
 7353SOL    HW133518   3.846   2.377   4.578  0.5696  0.2985 -0.3189
 7353SOL    HW233519   3.940   2.275   4.552 -0.1871  0.6002  0.9266
 7354SOL     OW33520   4.449   4.439   6.356  0.1371 -0.1010 -0.1846
 7354SOL    HW133521   4.408   4.384   6.290 -1.3739 -1.1911  1.6590
 7354SOL    HW233522   4.528   4.387   6.365  0.4531  0.7535  2.2027
 7355SOL     OW33523   0.394   3.202   5.146 -0.2546  0.0062  0.1456
 7355SOL    HW133524   0.436   3.266   5.088  1.8278 -2.6079 -1.2128
 7355SOL    HW233525   0.443   3.127   5.112  2.3848  2.8357 -2.2759
 7356SOL     OW33526   0.197   0.837   0.916 -1.4857  0.2944 -0.0933
 7356SOL    HW133527   0.241   0.909   0.871  0.6529 -1.0497 -0.1205
 7356SOL    HW233528   0.107   0.869   0.922 -1.0335  2.0602 -2.6802
 7357SOL     OW33529   2.591   3.781  16.519  0.1087  0.1270 -0.2192
 7357SOL    HW133530   2.568   3.708  16.576 -0.7567  2.5441  2.5129
 7357SOL    HW233531   2.670   3.812  16.562 -0.2018  0.7052 -0.0631
 7358SOL     OW33532   4.052   2.839   5.453  0.1253  0.1550 -0.6367
 7358SOL    HW133533   4.004   2.757   5.460 -1.9190  1.4580  0.4975
 7358SOL    HW233534   3.996   2.896   5.400 -1.5249 -1.9529 -1.1598
 7359SOL     OW33535   0.105   0.993  17.201 -0.3638 -0.1820  0.0617
 7359SOL    HW133536   0.060   1.045  17.135  0.3565 -0.2756 -0.4979
 7359SOL    HW233537   0.041   0.925  17.223 -0.7590  0.8490  2.1348
 7360SOL     OW33538   0.421   0.779   9.017 -0.1183  0.2764  0.1271
 7360SOL    HW133539   0.487   0.829   8.969  0.5970 -0.8439 -0.0444
 7360SOL    HW233540   0.363   0.751   8.946  2.1963 -1.2635 -1.1646
 7361SOL     OW33541   0.764   3.682   7.604  0.1712 -0.3053  0.1891
 7361SOL    HW133542   0.810   3.707   7.684  0.8794  2.4798 -1.1153
 7361SOL    HW233543   0.834   3.634   7.561 -1.5024 -2.1120 -0.5503
 7362SOL     OW33544   2.945   1.057   7.042  0.4367  0.3641  0.4398
 7362SOL    HW133545   3.040   1.065   7.034  0.2206 -0.1631 -2.6371
 7362SOL    HW233546   2.931   0.975   6.996  1.5556  0.7476 -0.5557
 7363SOL     OW33547   3.523   0.517  14.527  0.2671  0.9181  0.3997
 7363SOL    HW133548   3.495   0.606  14.505 -0.4506  0.7962  0.8380
 7363SOL    HW233549   3.434   0.483  14.521  1.8827 -2.9736 -1.3252
 7364SOL     OW33550   2.627   1.050   5.651 -0.0385 -0.2547  0.4463
 7364SOL    HW133551   2.592   1.095   5.574 -2.4238 -1.7970  0.6239
 7364SOL    HW233552   2.571   1.077   5.724  2.0987  3.8573  0.5474
 7365SOL     OW33553   0.527   3.951   2.267 -0.1995  0.1149  0.5103
 7365SOL    HW133554   0.561   4.020   2.211  1.4781  0.5687  2.0829
 7365SOL    HW233555   0.542   3.983   2.356  0.3273  0.4532  0.2956
 7366SOL     OW33556   1.196   2.147   1.420  0.2160  0.0663  0.1093
 7366SOL    HW133557   1.152   2.062   1.423 -0.9899  0.5983 -2.1708
 7366SOL    HW233558   1.247   2.128   1.499  2.0197 -1.2342 -1.3642
 7367SOL     OW33559   3.751   3.616  13.234  0.2722  0.0589 -0.0080
 7367SOL    HW133560   3.799   3.534  13.235 -1.0898 -0.7148  1.5735
 7367SOL    HW233561   3.776   3.667  13.311  3.0131 -0.2037 -0.7357
 7368SOL     OW33562   3.108   1.421   6.467  0.6676  0.1846  0.1018
 7368SOL    HW133563   3.048   1.349   6.447  1.4124 -1.5080  3.9158
 7368SOL    HW233564   3.051   1.497   6.478 -0.1394 -0.0336 -2.3806
 7369SOL     OW33565   3.648   2.824   5.663  0.3477 -0.3906 -0.1649
 7369SOL    HW133566   3.722   2.789   5.713 -2.0317 -1.5754  2.4941
 7369SOL    HW233567   3.592   2.747   5.670 -1.3970  0.9183  0.3486
 7370SOL     OW33568   2.165   0.684   2.608  0.5303 -0.4372  0.1082
 7370SOL    HW133569   2.170   0.779   2.594  0.5919 -0.7331 -1.9068
 7370SOL    HW233570   2.252   0.654   2.579  0.0828 -3.2836  1.7288
 7371SOL     OW33571   2.964   3.441   5.711  0.1299 -0.1668  0.0251
 7371SOL    HW133572   2.939   3.350   5.698 -1.1940  0.0561  0.9908
 7371SOL    HW233573   3.001   3.435   5.799  0.7750 -1.4587 -0.3385
 7372SOL     OW33574   2.476   3.223   4.458  0.3357  0.2826 -0.1387
 7372SOL    HW133575   2.540   3.286   4.490 -1.4053  1.8466  0.2588
 7372SOL    HW233576   2.540   3.152   4.452 -0.0660  0.0234 -1.3913
 7373SOL     OW33577   3.261   1.197   3.922  0.2154 -0.4173  0.2213
 7373SOL    HW133578   3.307   1.115   3.906  2.3576  0.8642 -0.2035
 7373SOL    HW233579   3.272   1.246   3.840  0.6961  0.7641  0.9932
 7374SOL     OW33580   0.661   2.231   7.914 -0.1370 -0.4559 -0.4607
 7374SOL    HW133581   0.750   2.198   7.927  0.2688  0.8686  0.1317
 7374SOL    HW233582   0.660   2.317   7.956  0.2325 -0.4578 -0.4494
 7375SOL     OW33583   0.751   0.713   8.417  0.1947  0.1969 -0.0099
 7375SOL    HW133584   0.782   0.731   8.506  0.3299  1.1915 -0.2552
 7375SOL    HW233585   0.835   0.709   8.373  0.9878 -1.7908  1.6765
 7376SOL     OW33586   1.057   3.636   5.793  0.4877 -0.2704 -0.3876
 7376SOL    HW133587   1.020   3.699   5.855  0.4470 -2.5909  1.9662
 7376SOL    HW233588   0.983   3.618   5.735 -0.7628  0.9278  0.8339
 7377SOL     OW33589   3.376   1.191  12.001  0.5467 -0.0143  0.0456
 7377SOL    HW133590   3.307   1.258  11.998  0.3376 -0.1529  1.9332
 7377SOL    HW233591   3.434   1.195  11.926  0.8066 -0.2079  0.2391
 7378SOL     OW33592   2.796   3.709   6.406  0.1665  0.0166  0.0967
 7378SOL    HW133593   2.819   3.637   6.349  2.1597  0.3358  0.4982
 7378SOL    HW233594   2.727   3.663   6.455 -1.2469  1.9560 -0.0407
 7379SOL     OW33595   0.760   3.551   0.847  0.7190 -0.2192  0.2641
 7379SOL    HW133596   0.697   3.563   0.917  0.5849 -1.3704  0.3401
 7379SOL    HW233597   0.824   3.614   0.881  1.0379 -0.4637  0.1215
 7380SOL     OW33598   1.575   4.720   6.028 -0.0292  0.2651  0.1428
 7380SOL    HW133599   1.567   4.637   6.076 -1.1763  1.6087  2.2723
 7380SOL    HW233600   1.482   0.015   6.030  0.0878  0.7139  0.8850
 7381SOL     OW33601   2.389   3.707   2.559  0.0364  0.2746  0.0590
 7381SOL    HW133602   2.305   3.667   2.535  0.8180 -1.6871  0.6131
 7381SOL    HW233603   2.412   3.747   2.476 -1.7691 -0.1573 -0.6415
 7382SOL     OW33604   3.959   1.916   3.953 -0.2840  0.3266  0.2701
 7382SOL    HW133605   3.966   1.839   3.897  1.2801 -1.1605  2.4853
 7382SOL    HW233606   3.982   1.986   3.892 -2.5840  1.4273  0.6826
 7383SOL     OW33607   3.673   1.990  10.666  0.0472  0.8393 -0.0582
 7383SOL    HW133608   3.597   2.017  10.614 -0.0752  2.7384  1.0823
 7383SOL    HW233609   3.685   2.073  10.712  2.1120  0.6194 -0.2143
 7384SOL     OW33610   0.423   2.171   4.031  0.8714  0.0007 -0.1369
 7384SOL    HW133611   0.405   2.167   3.937  1.7692  1.6017 -0.3745
 7384SOL    HW233612   0.336   2.176   4.071 -0.0033 -0.2541 -2.0062
 7385SOL     OW33613   1.170   4.261  10.670 -0.0986 -0.1268 -0.0250
 7385SOL    HW133614   1.098   4.297  10.721 -0.4076 -2.0401  0.9155
 7385SOL    HW233615   1.145   4.168  10.673  0.8273 -0.3917 -0.5929
 7386SOL     OW33616   2.145   2.020   1.473 -0.4240  0.1364  0.2431
 7386SOL    HW133617   2.084   1.976   1.414  1.9013 -0.2405 -1.8477
 7386SOL    HW233618   2.217   2.051   1.419 -0.6176  0.3942  0.1339
 7387SOL     OW33619   0.075   0.511   3.144 -0.2834 -0.2036  0.1147
 7387SOL    HW133620   0.059   0.465   3.062 -0.2024 -2.3518  1.2829
 7387SOL    HW233621   0.080   0.601   3.112  1.1927  0.0561  1.0726
 7388SOL     OW33622   2.770   0.816   2.630 -0.0802 -0.2281 -0.0095
 7388SOL    HW133623   2.807   0.895   2.671  0.0333 -0.1469 -0.2706
 7388SOL    HW233624   2.853   0.775   2.608  0.5798  2.2538 -2.1592
 7389SOL     OW33625   2.873   0.451   4.004  0.1195 -0.2412  0.0091
 7389SOL    HW133626   2.889   0.386   4.072  1.0931  0.4544  0.4501
 7389SOL    HW233627   2.940   0.428   3.941  0.7433 -0.5428  0.7809
 7390SOL     OW33628   0.364   0.467   2.212  0.2973 -0.6640 -0.1323
 7390SOL    HW133629   0.318   0.527   2.153  0.2969 -0.6964 -0.1648
 7390SOL    HW233630   0.302   0.396   2.194 -0.3260 -0.0552 -0.3836
 7391SOL     OW33631   3.531   0.228   5.733  0.6108 -0.6557 -0.2593
 7391SOL    HW133632   3.585   0.267   5.801 -0.8317  1.8729 -0.5564
 7391SOL    HW233633   3.445   0.256   5.764  0.2664 -1.4002 -0.5393
 7392SOL     OW33634   0.521   4.245   4.351 -0.1630  0.4427  0.0161
 7392SOL    HW133635   0.597   4.235   4.409 -0.6461 -0.4847  0.4924
 7392SOL    HW233636   0.568   4.258   4.269 -0.2288  1.0683  0.0780
 7393SOL     OW33637   3.147   2.379   5.017 -0.0834 -0.3663 -0.1532
 7393SOL    HW133638   3.241   2.370   5.004 -0.4465 -3.2260 -0.7801
 7393SOL    HW233639   3.117   2.301   5.064  1.2784 -1.5959 -1.3086
 7394SOL     OW33640   1.156   2.931  12.930 -0.1223  0.2913  0.2717
 7394SOL    HW133641   1.223   2.997  12.947 -0.5988  0.6223  0.9184
 7394SOL    HW233642   1.161   2.869  13.003 -2.4713 -0.8240 -0.5159
 7395SOL     OW33643   1.052   0.107   2.693 -0.4747  0.1421  0.1278
 7395SOL    HW133644   1.032   0.016   2.714  2.9832  0.6059  5.4299
 7395SOL    HW233645   1.066   0.085   2.601  1.8415 -0.6227  0.6656
 7396SOL     OW33646   0.057   3.836   1.101  0.0216 -0.3590  0.2937
 7396SOL    HW133647   0.091   3.766   1.045 -0.0165  0.4898 -0.7811
 7396SOL    HW233648   0.117   3.824   1.175 -0.9333 -1.5692  0.8807
 7397SOL     OW33649   0.258   1.267   2.392  0.1211 -0.2590  0.1020
 7397SOL    HW133650   0.344   1.306   2.407 -0.5759  1.8225 -1.3124
 7397SOL    HW233651   0.289   1.186   2.351  0.0109  0.4744 -1.3976
 7398SOL     OW33652   3.961   2.483   3.780 -0.4281 -0.3459 -0.8679
 7398SOL    HW133653   3.872   2.472   3.748 -0.5545  0.4886 -0.8128
 7398SOL    HW233654   4.009   2.529   3.711 -1.7611  1.3496 -0.6592
 7399SOL     OW33655   4.401   0.924   5.168 -0.5090 -0.0379 -0.1316
 7399SOL    HW133656   4.382   0.929   5.075  2.4082  2.2475 -0.6088
 7399SOL    HW233657   4.493   0.899   5.154 -0.3052  0.9285 -0.5286
 7400SOL     OW33658   0.760   1.747   2.655 -0.2328  0.1213 -0.4687
 7400SOL    HW133659   0.727   1.720   2.569 -2.0838  0.8167  0.0239
 7400SOL    HW233660   0.851   1.770   2.635 -0.2302 -0.6163 -1.2974
 7401SOL     OW33661   0.749   0.264   7.622 -0.5018 -0.0296  0.0693
 7401SOL    HW133662   0.660   0.229   7.608 -0.8561 -0.5386  3.6488
 7401SOL    HW233663   0.738   0.355   7.595 -0.9204  0.1439  0.8230
 7402SOL     OW33664   2.834   0.485  15.770  0.7668  0.3845 -0.1743
 7402SOL    HW133665   2.927   0.501  15.751  0.8564 -0.6631 -0.6440
 7402SOL    HW233666   2.827   0.391  15.752 -2.7008  0.8668 -1.3208
 7403SOL     OW33667   3.579   0.422   6.730 -0.1582  0.3647 -0.1254
 7403SOL    HW133668   3.669   0.427   6.763 -0.0444  1.0570 -0.5262
 7403SOL    HW233669   3.590   0.449   6.639 -0.9660 -1.4765 -0.7655
 7404SOL     OW33670   4.096   3.914   0.398  0.0854 -0.1924 -0.3337
 7404SOL    HW133671   4.166   3.853   0.375 -0.3391 -1.0283  0.6204
 7404SOL    HW233672   4.094   3.898   0.492 -1.7037 -0.5796 -0.4483
 7405SOL     OW33673   1.975   0.135   7.302 -0.0288 -0.3354 -0.8286
 7405SOL    HW133674   1.888   0.098   7.314 -0.4125 -0.8369 -5.0921
 7405SOL    HW233675   1.953   0.227   7.284  0.2067 -0.0844  0.1466
 7406SOL     OW33676   1.654   0.671  16.179 -0.1418  0.3103 -0.0487
 7406SOL    HW133677   1.643   0.695  16.087  0.3026  2.5035  0.4667
 7406SOL    HW233678   1.575   0.621  16.201  0.0192  0.7501  1.4932
 7407SOL     OW33679   0.132   2.116   3.291 -0.2342  0.1359  0.0500
 7407SOL    HW133680   0.221   2.123   3.254  0.5855 -1.7090  1.6813
 7407SOL    HW233681   0.108   2.207   3.272  0.3415  0.3562  0.3468
 7408SOL     OW33682   2.291   4.505   4.031  0.2323  0.1610 -0.2673
 7408SOL    HW133683   2.264   4.530   3.942  0.3137 -0.8847 -0.5893
 7408SOL    HW233684   2.253   4.418   4.041  1.2188 -0.3069 -0.6130
 7409SOL     OW33685   2.567   2.875  13.562  0.2642  0.1585  0.2386
 7409SOL    HW133686   2.661   2.862  13.568  0.1424 -0.8369  0.0088
 7409SOL    HW233687   2.543   2.890  13.654  3.1316 -0.5639  1.1082
 7410SOL     OW33688   0.593   3.973  10.253  0.5925  0.1602  0.4190
 7410SOL    HW133689   0.666   4.010  10.302  0.7528  0.8773 -0.3621
 7410SOL    HW233690   0.521   4.002  10.310 -0.6359  0.0675 -1.0766
 7411SOL     OW33691   3.655   4.505   4.843 -0.0422 -0.0849  0.3155
 7411SOL    HW133692   3.595   4.555   4.789  1.3561  0.5182 -0.6995
 7411SOL    HW233693   3.591   4.489   4.912  1.4372  0.5482  1.8505
 7412SOL     OW33694   0.796   0.047   1.915  0.0561 -0.4136  0.4673
 7412SOL    HW133695   0.865   0.105   1.881  0.8682 -0.0745  2.7039
 7412SOL    HW233696   0.753   0.017   1.835  2.8614  1.4616 -1.7441
 7413SOL     OW33697   1.379   1.461  16.054 -0.0556 -0.4993 -0.1978
 7413SOL    HW133698   1.396   1.422  16.139  0.7508 -0.0587 -0.1546
 7413SOL    HW233699   1.302   1.511  16.079 -0.3217 -1.0321  0.0282
 7414SOL     OW33700   2.817   2.422   2.767 -0.1420  0.0737  0.7879
 7414SOL    HW133701   2.887   2.482   2.740  0.0514 -0.0848  0.9332
 7414SOL    HW233702   2.752   2.472   2.717  0.4351 -0.0091 -0.0543
 7415SOL     OW33703   2.737   2.972   5.772  0.4804 -0.1000 -0.3075
 7415SOL    HW133704   2.749   2.953   5.865  0.1793 -0.9898 -0.4445
 7415SOL    HW233705   2.741   2.883   5.735  0.9925 -0.9928  1.9101
 7416SOL     OW33706   2.145   1.088  12.945  0.6100 -0.3497  0.4176
 7416SOL    HW133707   2.109   1.089  12.856  1.4579  2.0795  0.1202
 7416SOL    HW233708   2.235   1.111  12.923 -0.5795  2.8336 -1.0573
 7417SOL     OW33709   4.587   0.305   3.164 -0.5013  0.0309 -0.1053
 7417SOL    HW133710   4.512   0.362   3.145 -0.4839  1.4579  4.1814
 7417SOL    HW233711   4.629   0.287   3.080 -0.2876  0.1660 -0.0275
 7418SOL     OW33712   2.153   4.417   3.138 -0.6448 -0.3002 -0.5567
 7418SOL    HW133713   2.133   4.443   3.228  1.6595 -0.9523  0.1259
 7418SOL    HW233714   2.239   4.382   3.157 -1.8007 -3.3219 -0.9174
 7419SOL     OW33715   3.894   2.539   8.469  0.0669  0.2452  0.6136
 7419SOL    HW133716   3.865   2.625   8.499 -0.7240 -0.3716  1.6232
 7419SOL    HW233717   3.908   2.502   8.557  0.1879 -1.0223  0.0599
 7420SOL     OW33718   2.546   2.396   8.665  0.0021 -0.4344  0.0532
 7420SOL    HW133719   2.536   2.380   8.759  1.9729 -1.8262  0.0106
 7420SOL    HW233720   2.472   2.456   8.654  0.0125 -0.3265  0.5601
 7421SOL     OW33721   3.528   2.532   3.138  0.5034  0.2024 -0.2868
 7421SOL    HW133722   3.611   2.526   3.090  0.2215 -1.1503 -0.6078
 7421SOL    HW233723   3.540   2.463   3.204 -0.1139 -1.3165 -1.7874
 7422SOL     OW33724   2.018   2.781   5.693 -0.0787  0.2892 -0.3956
 7422SOL    HW133725   1.990   2.868   5.722 -2.7872 -0.1219 -1.7343
 7422SOL    HW233726   2.094   2.772   5.750 -0.8786 -0.6992  0.4971
 7423SOL     OW33727   0.425   1.777  13.084 -0.4521 -0.1281 -0.1281
 7423SOL    HW133728   0.373   1.742  13.156  1.1153 -0.8694  0.6590
 7423SOL    HW233729   0.363   1.838  13.045  2.1088  2.3245 -0.3825
 7424SOL     OW33730   0.895   3.516   3.957  0.3295 -0.0983 -0.8892
 7424SOL    HW133731   0.988   3.531   3.973 -0.2759  2.7102 -0.0117
 7424SOL    HW233732   0.886   3.600   3.914 -0.6796  0.0185 -0.4527
 7425SOL     OW33733   1.251   4.720   7.884  0.2179 -0.3542  0.3654
 7425SOL    HW133734   1.164   0.008   7.846  0.6611  0.8873 -0.2035
 7425SOL    HW233735   1.242   0.040   7.968  0.7246  0.7768 -0.1947
 7426SOL     OW33736   2.822   2.658   2.421 -0.4397  0.0259  0.0764
 7426SOL    HW133737   2.864   2.650   2.336 -0.8184 -1.3631  0.0119
 7426SOL    HW233738   2.845   2.570   2.453  0.0926  0.0892 -0.1353
 7427SOL     OW33739   2.114   0.341   4.095 -0.4190 -0.3227 -0.1224
 7427SOL    HW133740   2.203   0.367   4.069  0.6390 -3.2174  0.5989
 7427SOL    HW233741   2.097   0.415   4.153  0.8659  0.2117 -0.4197
 7428SOL     OW33742   0.227   1.581  14.063 -0.0484  0.7877 -0.5725
 7428SOL    HW133743   0.295   1.635  14.104  1.1799  0.3301 -2.0121
 7428SOL    HW233744   0.176   1.652  14.024 -0.7110 -1.1442 -3.2468
 7429SOL     OW33745   3.097   0.968   1.174  0.5846  0.0518 -0.4815
 7429SOL    HW133746   3.114   0.974   1.268  1.4549  0.1176 -0.6509
 7429SOL    HW233747   3.004   0.945   1.168  0.9011 -1.3763 -0.0044
 7430SOL     OW33748   0.459   3.257  11.075 -0.0256 -0.1400  0.6676
 7430SOL    HW133749   0.516   3.218  11.009  0.7053  0.9048  0.6783
 7430SOL    HW233750   0.429   3.332  11.023 -0.5367 -0.0498  1.0929
 7431SOL     OW33751   4.169   2.116  14.004 -0.4614 -0.5950  0.4811
 7431SOL    HW133752   4.101   2.051  13.987 -0.8229 -0.1047  0.0616
 7431SOL    HW233753   4.113   2.191  14.023  1.8061  0.5190  2.8145
 7432SOL     OW33754   0.510   1.769   6.723 -0.2031 -0.5188  0.0604
 7432SOL    HW133755   0.546   1.755   6.810 -0.1523 -2.5862 -0.2876
 7432SOL    HW233756   0.418   1.784   6.747 -0.3290  1.5995 -1.6994
 7433SOL     OW33757   1.173   3.087   6.372 -0.5837  0.4019 -0.8463
 7433SOL    HW133758   1.092   3.097   6.421  0.3785  1.7884  0.4220
 7433SOL    HW233759   1.233   3.113   6.441 -0.6483  0.9855 -1.0126
 7434SOL     OW33760   3.687   1.789   8.000  0.0806 -0.6459  0.4764
 7434SOL    HW133761   3.764   1.740   7.971  0.9473  0.5429  0.7679
 7434SOL    HW233762   3.638   1.800   7.918  1.7662 -1.5609 -0.6620
 7435SOL     OW33763   2.724   2.433   6.706  0.5428  0.3977  0.3845
 7435SOL    HW133764   2.695   2.444   6.796  0.9803 -0.5285  0.6335
 7435SOL    HW233765   2.692   2.512   6.661 -1.2482 -0.2242  0.5759
 7436SOL     OW33766   4.719   3.852   2.346  1.2038  0.5866 -0.0236
 7436SOL    HW133767   4.655   3.807   2.290  0.3546  0.7124  0.8481
 7436SOL    HW233768   0.075   3.854   2.295  0.4721  1.7630 -1.1715
 7437SOL     OW33769   2.001   1.009   7.052 -0.0499  0.0771 -0.3086
 7437SOL    HW133770   1.933   1.073   7.072  1.0321  1.3602 -0.6945
 7437SOL    HW233771   2.028   1.030   6.963 -0.1711 -1.4568 -0.7060
 7438SOL     OW33772   2.479   3.661   5.334 -0.1435  0.7326 -0.0426
 7438SOL    HW133773   2.468   3.601   5.260  0.7242 -2.7622  2.6178
 7438SOL    HW233774   2.391   3.659   5.371 -0.5135 -0.0371 -0.9691
 7439SOL     OW33775   2.866   3.207   5.648  0.0184  0.5163 -0.3982
 7439SOL    HW133776   2.783   3.202   5.695  0.3930 -0.9331  0.1166
 7439SOL    HW233777   2.893   3.117   5.666 -1.8856  0.4770  2.3389
 7440SOL     OW33778   2.875   2.527  12.628  0.5249 -0.7025  0.1537
 7440SOL    HW133779   2.919   2.599  12.584 -0.3774  0.1274  0.6180
 7440SOL    HW233780   2.949   2.472  12.655 -0.3338 -0.6456  2.6378
 7441SOL     OW33781   1.372   4.091   1.889 -0.2703  0.2033 -0.3276
 7441SOL    HW133782   1.345   4.180   1.863 -0.9456 -0.2228 -1.0891
 7441SOL    HW233783   1.293   4.063   1.935 -0.2038  1.9366  0.8393
 7442SOL     OW33784   0.008   3.976   4.747  0.5453  0.4741 -0.4479
 7442SOL    HW133785   0.045   4.061   4.725  0.2307  0.9861  1.0215
 7442SOL    HW233786   0.060   3.911   4.700  0.2598 -1.1300  1.4221
 7443SOL     OW33787   1.351   1.048   9.193 -0.4885  0.9894 -0.2874
 7443SOL    HW133788   1.368   0.962   9.232 -0.4408  2.0676  2.0577
 7443SOL    HW233789   1.257   1.042   9.175 -0.5663 -4.8018  1.9468
 7444SOL     OW33790   3.405   0.177   6.451 -1.2593  0.0997  0.7793
 7444SOL    HW133791   3.316   0.161   6.483 -2.0298  0.0978 -1.4034
 7444SOL    HW233792   3.419   0.271   6.461  0.9594 -0.0357 -1.2144
 7445SOL     OW33793   3.737   0.742   3.530  0.0289 -0.3024  0.1663
 7445SOL    HW133794   3.693   0.775   3.452  0.7114 -1.0012 -0.5192
 7445SOL    HW233795   3.687   0.661   3.539 -2.4782  1.1993 -0.3167
 7446SOL     OW33796   1.426   3.628   1.633 -0.2381  0.6745  0.4011
 7446SOL    HW133797   1.374   3.703   1.660 -0.2691  0.3702  1.1786
 7446SOL    HW233798   1.400   3.564   1.698  1.4151 -1.9041 -1.4690
 7447SOL     OW33799   0.691   3.743  17.490 -0.1416 -0.0052 -0.1776
 7447SOL    HW133800   0.601   3.712  17.484 -0.2710  0.3374 -0.0033
 7447SOL    HW233801   0.668   3.834  17.476 -0.4437 -0.3797 -2.0505
 7448SOL     OW33802   4.506   0.791   9.617 -0.1266 -0.3886 -0.0909
 7448SOL    HW133803   4.531   0.769   9.707 -0.6121 -1.4336 -0.2077
 7448SOL    HW233804   4.449   0.718   9.595 -0.9937  0.6496 -1.2987
 7449SOL     OW33805   3.787   3.657  13.702 -0.1484 -0.2924  0.1196
 7449SOL    HW133806   3.716   3.595  13.688  0.5665 -0.8875 -0.8044
 7449SOL    HW233807   3.780   3.662  13.798  0.7836 -0.5383  0.2014
 7450SOL     OW33808   1.696   3.958   1.230  0.3322 -0.5238 -0.2284
 7450SOL    HW133809   1.720   4.013   1.305  1.1621  1.5449 -2.0023
 7450SOL    HW233810   1.603   3.982   1.224  0.1597 -1.1652 -0.0778
 7451SOL     OW33811   2.147   2.821   5.406  0.3464 -0.5108  0.4174
 7451SOL    HW133812   2.081   2.883   5.437 -0.5711 -1.1411 -0.2574
 7451SOL    HW233813   2.130   2.810   5.312  1.8832 -0.4288  0.1334
 7452SOL     OW33814   0.253   0.684  15.946 -0.0069  0.7708 -0.2317
 7452SOL    HW133815   0.347   0.668  15.940 -0.0940  0.2718 -0.2811
 7452SOL    HW233816   0.230   0.614  15.884 -0.5595 -0.6240  1.5497
 7453SOL     OW33817   2.685   2.918  11.808  0.0190  0.2403  0.1539
 7453SOL    HW133818   2.666   2.844  11.866  2.3471  0.7222  1.5514
 7453SOL    HW233819   2.604   2.928  11.757 -0.2646 -0.3073  0.4894
 7454SOL     OW33820   3.823   4.185  13.249  0.2319  0.3326  0.1827
 7454SOL    HW133821   3.857   4.107  13.292  0.1351  0.5589  0.6642
 7454SOL    HW233822   3.903   4.234  13.230 -1.0581  2.0671 -0.7099
 7455SOL     OW33823   3.330   1.682   6.384 -0.0284 -0.3438  0.1289
 7455SOL    HW133824   3.247   1.717   6.350  1.5763  0.6441 -2.7801
 7455SOL    HW233825   3.380   1.763   6.377 -1.0967  0.3961  1.2456
 7456SOL     OW33826   4.050   3.722   2.154 -0.0129  0.0504 -0.0927
 7456SOL    HW133827   3.981   3.782   2.126  0.9527  1.8999  1.4365
 7456SOL    HW233828   4.002   3.655   2.202 -2.9407  1.1162 -1.5266
 7457SOL     OW33829   0.504   0.538   0.583  0.5857 -0.1385 -0.5008
 7457SOL    HW133830   0.513   0.514   0.675 -1.6577  1.0842  0.0489
 7457SOL    HW233831   0.597   0.539   0.561  1.4682  0.7362  3.3689
 7458SOL     OW33832   0.051   3.570   3.866  0.0519  0.3713 -0.3080
 7458SOL    HW133833   0.112   3.584   3.792  1.7841  0.8926  1.2131
 7458SOL    HW233834   0.002   3.650   3.886 -0.8885 -0.1027 -0.7241
 7459SOL     OW33835   1.814   0.073  12.997  0.1345 -0.0058  0.5231
 7459SOL    HW133836   1.731   0.109  13.032 -0.6721 -1.6075  0.2449
 7459SOL    HW233837   1.871   0.145  13.024 -1.9116  1.3644  1.3083
 7460SOL     OW33838   0.242   1.492   5.217 -0.2039  0.2439 -0.4099
 7460SOL    HW133839   0.162   1.450   5.249 -0.9285  0.1706 -2.3233
 7460SOL    HW233840   0.299   1.416   5.211 -0.3946 -0.0415  1.5033
 7461SOL     OW33841   1.716   4.541   6.349  0.4509 -0.2187  0.0597
 7461SOL    HW133842   1.761   4.542   6.434  0.9822  0.4316 -0.2336
 7461SOL    HW233843   1.792   4.534   6.291 -0.8404  0.2126 -1.6740
 7462SOL     OW33844   0.674   3.481   8.222  0.1114  0.1690 -0.1355
 7462SOL    HW133845   0.590   3.477   8.267  0.5145 -1.2806  0.4930
 7462SOL    HW233846   0.656   3.515   8.134  0.1219  1.6829  0.4431
 7463SOL     OW33847   3.749   3.926   3.591  0.1942 -0.1254 -0.1332
 7463SOL    HW133848   3.782   3.904   3.504 -2.0242  0.5741 -1.1546
 7463SOL    HW233849   3.826   3.929   3.648  1.2999 -0.0206 -1.6358
 7464SOL     OW33850   3.903   1.199   2.408  0.0622  0.1251 -0.2082
 7464SOL    HW133851   3.981   1.143   2.412  0.7149  1.0558  0.3155
 7464SOL    HW233852   3.927   1.268   2.470 -1.2128 -0.8603  1.3688
 7465SOL     OW33853   0.918   3.109   1.953  0.4114  0.4585  0.3344
 7465SOL    HW133854   0.977   3.062   1.893 -1.7426  1.3248 -2.4714
 7465SOL    HW233855   0.863   3.044   1.996  2.1261 -0.6747  0.8210
 7466SOL     OW33856   3.699   2.632   0.152  0.5380  0.2663  0.2329
 7466SOL    HW133857   3.639   2.600   0.085 -0.8844  1.4134  0.9632
 7466SOL    HW233858   3.759   2.686   0.100 -0.1805 -1.1367 -2.0455
 7467SOL     OW33859   0.538   4.225  10.949  0.2833 -0.0151  0.1786
 7467SOL    HW133860   0.536   4.131  10.966 -3.5965  0.3966  1.9515
 7467SOL    HW233861   0.601   4.229  10.877 -1.9368 -1.1877 -1.8200
 7468SOL     OW33862   3.667   3.066   9.715  0.2514  0.4108 -0.3920
 7468SOL    HW133863   3.635   3.157   9.717  1.2033  0.7561 -1.4719
 7468SOL    HW233864   3.745   3.068   9.661  0.7977 -0.1714  0.3722
 7469SOL     OW33865   3.107   1.947   1.943 -0.0872 -0.7209  0.2086
 7469SOL    HW133866   3.165   1.890   1.994  0.6154 -2.8083 -2.9389
 7469SOL    HW233867   3.127   1.942   1.850 -0.6448 -1.0650  0.1089
 7470SOL     OW33868   4.293   1.133   6.030  0.0263 -0.3642  0.2586
 7470SOL    HW133869   4.295   1.072   6.103 -0.4163  0.1239  0.6737
 7470SOL    HW233870   4.349   1.204   6.063 -1.9705  2.1176 -1.6504
 7471SOL     OW33871   2.024   1.777   3.337  0.8205  0.8096 -0.6388
 7471SOL    HW133872   2.109   1.784   3.293  1.1956  2.2970  0.3326
 7471SOL    HW233873   1.959   1.817   3.279  0.4211 -1.6900 -1.9654
 7472SOL     OW33874   3.467   4.222   2.351  0.1786 -0.0962 -0.3865
 7472SOL    HW133875   3.405   4.259   2.414  0.5574  0.2562 -0.2172
 7472SOL    HW233876   3.489   4.157   2.418  2.3294  1.5215  0.4613
 7473SOL     OW33877   1.952   0.902   4.603 -0.3709  0.1503 -0.4518
 7473SOL    HW133878   1.945   0.996   4.586 -0.3122 -0.4153 -3.4288
 7473SOL    HW233879   1.933   0.896   4.697 -3.2024  0.0842 -1.0416
 7474SOL     OW33880   4.630   0.041   6.703 -0.3064  0.2996 -0.5041
 7474SOL    HW133881   4.606   4.685   6.747  3.3534 -1.1928 -1.2595
 7474SOL    HW233882   4.722   0.059   6.724 -1.0562  1.3998  1.7800
 7475SOL     OW33883   1.973   3.334   3.961  0.1011 -0.2809  0.0260
 7475SOL    HW133884   1.951   3.330   4.054  1.0303 -0.5730  0.2293
 7475SOL    HW233885   1.959   3.425   3.932  1.1317 -0.3970 -0.7928
 7476SOL     OW33886   3.716   2.007   9.588  0.5116  0.1929  0.1169
 7476SOL    HW133887   3.784   1.948   9.556  0.1230 -0.7271  0.9835
 7476SOL    HW233888   3.649   1.942   9.610  0.0412  0.0286 -1.8310
 7477SOL     OW33889   2.029   3.966   7.058  0.0572 -0.3253 -0.1769
 7477SOL    HW133890   1.946   4.007   7.033 -1.0376 -1.2172  1.9257
 7477SOL    HW233891   2.091   4.039   7.062  1.5992 -1.6850  0.8337
 7478SOL     OW33892   3.917   2.763  14.210  0.4066  0.0723  0.1109
 7478SOL    HW133893   3.925   2.818  14.133 -2.0284  1.0360  0.5479
 7478SOL    HW233894   3.864   2.686  14.189  0.0432  0.2188  0.4757
 7479SOL     OW33895   4.632   2.223   8.337 -0.1900 -0.7595 -0.1451
 7479SOL    HW133896   4.623   2.302   8.283  0.8711 -0.6348 -0.1416
 7479SOL    HW233897   4.725   2.211   8.318  0.4623  4.2326 -0.2209
 7480SOL     OW33898   2.177   0.737   4.825 -0.2351 -0.4668  0.2859
 7480SOL    HW133899   2.149   0.824   4.854 -0.4334 -0.6843  0.7404
 7480SOL    HW233900   2.251   0.770   4.774 -1.0496  4.0205  1.9558
 7481SOL     OW33901   3.267   1.932  14.517  0.8945  0.4411  0.2350
 7481SOL    HW133902   3.330   1.967  14.580  1.1363  0.3789  0.0303
 7481SOL    HW233903   3.182   1.938  14.560  0.9792  1.7730  0.2158
 7482SOL     OW33904   4.635   0.804   7.353  0.0920  0.4562 -0.0309
 7482SOL    HW133905   4.691   0.817   7.429 -1.4898  0.6663  1.0971
 7482SOL    HW233906   4.649   0.890   7.312 -0.1048 -0.0622 -1.1912
 7483SOL     OW33907   0.080   1.937   9.437  0.0211  0.7498 -0.0626
 7483SOL    HW133908   0.112   1.859   9.391  0.1839 -0.1464  1.5551
 7483SOL    HW233909   0.128   1.927   9.519  0.2121 -2.0064 -0.4839
 7484SOL     OW33910   4.585   0.677  16.414 -0.2603  0.4496 -0.3004
 7484SOL    HW133911   4.598   0.583  16.400 -3.0263  0.2078 -1.3986
 7484SOL    HW233912   4.489   0.685  16.415 -0.0559  2.6000  1.5524
 7485SOL     OW33913   3.009   3.619   6.751 -0.5921  0.1244 -0.2979
 7485SOL    HW133914   3.091   3.573   6.769 -1.3634 -1.3080 -0.4589
 7485SOL    HW233915   3.042   3.709   6.753 -1.7501  0.4955  2.2232
 7486SOL     OW33916   3.549   0.841   6.465 -0.1479 -0.5684  0.1859
 7486SOL    HW133917   3.469   0.858   6.416  0.2041  0.0962 -0.1612
 7486SOL    HW233918   3.512   0.806   6.546 -0.2638 -2.3127 -0.6244
 7487SOL     OW33919   2.053   3.075   2.399  0.7200  0.2373 -0.3026
 7487SOL    HW133920   2.097   3.051   2.480 -1.8794 -2.2650  0.3818
 7487SOL    HW233921   1.963   3.046   2.415  0.6879 -0.7019 -2.1002
 7488SOL     OW33922   0.103   1.077   4.025  0.1584  0.0127  0.1093
 7488SOL    HW133923   0.130   1.118   4.107 -1.4615 -1.3726  1.3242
 7488SOL    HW233924   0.121   1.149   3.964  0.4880 -0.1060  0.0696
 7489SOL     OW33925   0.900   0.734  11.248 -0.0174 -0.5511  0.3131
 7489SOL    HW133926   0.975   0.742  11.308 -1.2175 -0.5880  1.8117
 7489SOL    HW233927   0.944   0.666  11.197 -2.2167 -1.8072  0.1115
 7490SOL     OW33928   3.148   2.960  11.197 -0.4899 -0.4402 -0.4717
 7490SOL    HW133929   3.165   2.876  11.240  2.1258 -0.1349 -0.9147
 7490SOL    HW233930   3.095   2.926  11.124 -0.0338 -0.1829 -0.9241
 7491SOL     OW33931   2.184   0.782   6.886  0.8316  0.0068  0.5680
 7491SOL    HW133932   2.188   0.875   6.862  1.4145 -0.3062 -0.5197
 7491SOL    HW233933   2.265   0.741   6.857  0.1494 -1.1080  0.2705
 7492SOL     OW33934   1.364   0.955  11.177  0.1116 -0.2425 -0.6179
 7492SOL    HW133935   1.394   0.925  11.091  1.2222  0.4157 -0.4663
 7492SOL    HW233936   1.292   1.011  11.150  1.6041  1.5122 -0.9803
 7493SOL     OW33937   0.595   4.555  10.265  0.4816 -0.1573 -0.3163
 7493SOL    HW133938   0.661   4.623  10.253  0.2903 -0.1523 -1.3481
 7493SOL    HW233939   0.643   4.485  10.308 -0.7421 -0.8449 -0.0674
 7494SOL     OW33940   3.697   0.928  10.776 -0.1655 -0.3986 -0.1245
 7494SOL    HW133941   3.652   1.013  10.782  3.3167  1.3422  1.5858
 7494SOL    HW233942   3.790   0.949  10.766 -0.6402  1.9749  0.3769
 7495SOL     OW33943   3.066   3.055   6.851 -0.1606 -0.2226 -0.3241
 7495SOL    HW133944   3.110   3.072   6.935  0.7443  1.7742 -1.2257
 7495SOL    HW233945   3.109   2.981   6.807  0.2274 -1.1822  1.6614
 7496SOL     OW33946   1.863   1.002   9.993  0.0904 -0.2437  0.4371
 7496SOL    HW133947   1.823   1.047  10.067 -1.3382 -0.8904  0.0720
 7496SOL    HW233948   1.841   0.912  10.016 -1.2929 -0.1507 -0.4569
 7497SOL     OW33949   1.357   2.948   3.326  0.0737  0.8673 -0.2909
 7497SOL    HW133950   1.434   2.964   3.381 -1.5694  0.3752  2.1679
 7497SOL    HW233951   1.383   2.875   3.269 -2.1781 -1.0177  1.1052
 7498SOL     OW33952   2.995   3.349  14.453 -0.3209  0.6094  0.3227
 7498SOL    HW133953   3.081   3.381  14.425 -0.7273  1.6735  0.2984
 7498SOL    HW233954   2.952   3.428  14.485 -0.7195  1.0641 -1.3458
 7499SOL     OW33955   3.347   0.753   2.469  0.5983 -0.0463  0.5014
 7499SOL    HW133956   3.298   0.823   2.513  0.2923 -0.8144  1.3749
 7499SOL    HW233957   3.414   0.810   2.431 -0.1768  0.2358 -0.4534
 7500SOL     OW33958   2.201   3.895   3.916  0.1739  0.3452  0.1888
 7500SOL    HW133959   2.213   3.807   3.950 -0.0537  0.2946  0.1411
 7500SOL    HW233960   2.120   3.923   3.959 -0.1956  0.1425 -0.3629
 7501SOL     OW33961   3.247   3.597   4.679 -0.1244  0.0566  0.3816
 7501SOL    HW133962   3.215   3.537   4.610  0.0314 -0.7915  1.0437
 7501SOL    HW233963   3.263   3.669   4.618 -0.2970  0.5127  0.8760
 7502SOL     OW33964   4.041   2.852   0.263 -0.0706  0.1975  0.3465
 7502SOL    HW133965   3.962   2.880   0.218  0.7878  0.8595 -0.7757
 7502SOL    HW233966   4.002   2.836   0.348  2.0693  1.5117  1.5905
 7503SOL     OW33967   2.409   3.966   1.150 -0.1400  0.4819 -0.6833
 7503SOL    HW133968   2.454   3.980   1.233  0.6353 -0.2499 -0.9730
 7503SOL    HW233969   2.317   3.966   1.175  0.2426  0.1289  0.6919
 7504SOL     OW33970   1.553   4.305   2.271  0.8469  0.1843 -0.4601
 7504SOL    HW133971   1.591   4.332   2.355 -2.8064 -1.9218  1.8365
 7504SOL    HW233972   1.468   4.349   2.266  0.3791 -0.8593 -1.6806
 7505SOL     OW33973   3.298   0.235   1.435  0.2805  0.4129  0.5023
 7505SOL    HW133974   3.210   0.242   1.398 -0.9500 -1.2694  3.1157
 7505SOL    HW233975   3.342   0.190   1.363 -0.0973 -0.0318  0.5493
 7506SOL     OW33976   0.219   4.103   2.653  0.1931 -0.3123 -0.5203
 7506SOL    HW133977   0.213   4.196   2.677  0.5327 -0.9809  2.1687
 7506SOL    HW233978   0.269   4.072   2.728  1.4641  1.3921 -0.6699
 7507SOL     OW33979   2.368   0.648  15.876 -0.1127 -0.5353 -0.6651
 7507SOL    HW133980   2.389   0.555  15.870  0.5294 -0.4386  0.1502
 7507SOL    HW233981   2.274   0.640  15.893  0.4346 -1.7145  1.8318
 7508SOL     OW33982   4.254   1.005  10.674  0.7094  0.6051 -0.1879
 7508SOL    HW133983   4.325   1.069  10.676  0.1192  1.2531 -0.1884
 7508SOL    HW233984   4.267   0.955  10.755  2.1967  0.7233 -0.3444
 7509SOL     OW33985   0.644   3.111  13.079  0.3930  0.5457  0.8571
 7509SOL    HW133986   0.740   3.120  13.082  0.5564 -1.4998  1.7030
 7509SOL    HW233987   0.616   3.138  12.992  0.6924 -0.3568  0.4844
 7510SOL     OW33988   4.452   1.254   6.510  0.0450 -0.3645  0.1419
 7510SOL    HW133989   4.486   1.166   6.524  0.2496 -0.3022  0.0412
 7510SOL    HW233990   4.445   1.287   6.599  3.3391  0.4151  0.1061
 7511SOL     OW33991   3.882   0.512   0.120 -0.5382 -0.5755 -0.3946
 7511SOL    HW133992   3.935   0.576   0.166 -2.3588  1.3778 -1.0316
 7511SOL    HW233993   3.874   0.571   0.045 -1.0053 -0.3691 -0.1857
 7512SOL     OW33994   1.433   0.936   0.742  0.2801 -0.0861  0.2770
 7512SOL    HW133995   1.473   0.949   0.828  1.0814 -2.7719  0.3140
 7512SOL    HW233996   1.349   0.975   0.767 -1.1008 -1.2053 -2.5281
 7513SOL     OW33997   0.068   2.055   7.770 -0.1812 -0.5058 -0.0829
 7513SOL    HW133998   0.042   2.103   7.848  0.1957  1.8750 -1.4238
 7513SOL    HW233999   0.043   2.120   7.704 -1.7248 -0.9160  0.0945
 7514SOL     OW34000   0.276   0.587  11.035  0.2694  0.4820 -0.4717
 7514SOL    HW134001   0.250   0.669  11.077  3.8566  0.9396  0.8167
 7514SOL    HW234002   0.318   0.531  11.100 -1.0870 -2.8073 -2.4115
 7515SOL     OW34003   2.402   2.900  17.511  0.4041  0.5933  0.0910
 7515SOL    HW134004   2.482   2.954  17.505  0.9352 -0.1987  0.0984
 7515SOL    HW234005   2.425   2.838  17.580  1.6179  1.0456  0.1095
 7516SOL     OW34006   3.221   0.490  17.325 -0.7873 -0.7773 -0.4740
 7516SOL    HW134007   3.269   0.408  17.341  1.8349  1.1473  1.6804
 7516SOL    HW234008   3.189   0.477  17.236  1.0730 -0.2321 -1.2210
 7517SOL     OW34009   4.697   1.618   8.153  0.0021  0.1695  0.4655
 7517SOL    HW134010   0.058   1.594   8.121  0.5027  3.0789 -0.2988
 7517SOL    HW234011   4.647   1.542   8.122  0.0500  0.4068 -0.1829
 7518SOL     OW34012   3.604   4.401   4.320  0.1473 -0.5087  0.3129
 7518SOL    HW134013   3.616   4.484   4.367  0.7651 -0.4234  0.0165
 7518SOL    HW234014   3.554   4.347   4.381  1.4949 -1.7846  0.2901
 7519SOL     OW34015   0.791   2.726   2.279 -0.1146 -0.3463 -0.6253
 7519SOL    HW134016   0.795   2.792   2.209  1.1614 -0.1902 -0.4139
 7519SOL    HW234017   0.698   2.705   2.275 -0.1604 -0.4698  1.0580
 7520SOL     OW34018   3.392   0.291  17.631 -0.2116 -0.2994  0.0584
 7520SOL    HW134019   3.449   0.363  17.657 -1.0490  0.6965 -0.8335
 7520SOL    HW234020   3.338   0.282   0.007  0.4061 -1.0876  0.3910
 7521SOL     OW34021   0.014   3.741   6.013 -0.2600  0.2026 -0.0463
 7521SOL    HW134022   4.718   3.764   6.104  0.0601  2.1249 -0.4646
 7521SOL    HW234023   4.657   3.710   5.976  0.8017 -2.1847 -0.4164
 7522SOL     OW34024   4.533   0.854  12.678 -0.1843 -0.0398  0.4297
 7522SOL    HW134025   4.522   0.860  12.773 -0.0004 -1.8501  0.5678
 7522SOL    HW234026   4.442   0.857  12.648  0.4412 -0.3349 -1.4653
 7523SOL     OW34027   3.506   2.781   0.305 -0.5260  0.1376 -0.0610
 7523SOL    HW134028   3.497   2.713   0.372  2.6497  0.4929  0.7130
 7523SOL    HW234029   3.574   2.736   0.255  0.3762  1.1572  0.2750
 7524SOL     OW34030   1.548   3.745   8.467 -0.0081  0.6054 -0.2236
 7524SOL    HW134031   1.572   3.678   8.403  1.4280 -0.2289  1.1985
 7524SOL    HW234032   1.495   3.690   8.525 -0.7657 -0.9946 -2.4289
 7525SOL     OW34033   3.629   1.841  10.408 -0.1719  0.1311 -0.3451
 7525SOL    HW134034   3.549   1.796  10.381 -0.1042 -1.2829  1.7793
 7525SOL    HW234035   3.630   1.834  10.504 -0.7948  2.8405 -0.1381
 7526SOL     OW34036   2.334   3.109   5.713  1.2459  0.4706  0.1159
 7526SOL    HW134037   2.258   3.103   5.655  2.7211 -0.2785 -1.7587
 7526SOL    HW234038   2.378   3.039   5.665  2.6351  1.6937 -0.3958
 7527SOL     OW34039   2.967   3.288   4.791 -0.2376  0.5775  0.0298
 7527SOL    HW134040   2.994   3.197   4.799  0.1692  0.7764  0.9125
 7527SOL    HW234041   2.885   3.275   4.838  0.0081 -0.8244  0.0754
 7528SOL     OW34042   2.513   3.523   2.783 -0.6645 -0.4254 -0.4146
 7528SOL    HW134043   2.469   3.471   2.851 -2.0927  0.7151 -0.4610
 7528SOL    HW234044   2.440   3.556   2.731  0.8205 -0.3557 -2.4194
 7529SOL     OW34045   4.077   2.003   1.622  1.0325 -0.0432 -0.5559
 7529SOL    HW134046   4.030   1.919   1.627  0.5126  0.4007  1.8682
 7529SOL    HW234047   4.064   2.023   1.529 -2.5003 -1.2804 -0.3549
 7530SOL     OW34048   0.085   0.093   7.411  0.0890  0.5439  0.0056
 7530SOL    HW134049   0.148   0.095   7.482 -0.5890 -1.3867  0.6736
 7530SOL    HW234050   0.073   4.723   7.414 -1.7081  0.8087  1.2322
 7531SOL     OW34051   3.989   0.285   7.985  0.3715 -0.1738  0.0472
 7531SOL    HW134052   4.009   0.375   8.014 -1.7058  0.7245 -1.2907
 7531SOL    HW234053   3.907   0.285   7.935  1.3331 -0.4099 -1.5436
 7532SOL     OW34054   0.548   0.627   3.174  0.0608  0.2331 -0.0264
 7532SOL    HW134055   0.482   0.692   3.150  0.6776  0.6563 -0.5532
 7532SOL    HW234056   0.499   0.550   3.146 -0.8670  0.6536  0.4305
 7533SOL     OW34057   0.503   0.333   8.378  0.1719  0.2661 -0.0730
 7533SOL    HW134058   0.433   0.349   8.442 -0.0618 -1.1742  0.0233
 7533SOL    HW234059   0.467   0.252   8.342 -1.0965  0.7888  0.0255
 7534SOL     OW34060   3.607   1.847   4.613  0.4467  0.6430  0.4461
 7534SOL    HW134061   3.664   1.921   4.593  0.9856 -0.8094 -3.3802
 7534SOL    HW234062   3.646   1.788   4.678  2.5282  0.9962 -0.4983
 7535SOL     OW34063   2.357   2.996  17.163 -0.0533  0.1356  1.0307
 7535SOL    HW134064   2.297   2.973  17.234 -1.0696  1.0094  0.4367
 7535SOL    HW234065   2.424   2.929  17.177 -4.0902 -3.6807  1.7908
 7536SOL     OW34066   3.107   4.274   5.681  0.2915 -0.0112 -0.0528
 7536SOL    HW134067   3.091   4.184   5.707 -1.4154  0.6710  1.2604
 7536SOL    HW234068   3.070   4.315   5.759  0.9860 -0.0297  0.2932
 7537SOL     OW34069   3.842   1.274   7.448 -0.1140  0.1213  0.2819
 7537SOL    HW134070   3.821   1.282   7.355  0.0213  0.7465  0.3026
 7537SOL    HW234071   3.804   1.187   7.459  0.8267 -0.5587 -1.8610
 7538SOL     OW34072   0.144   1.654   8.627  0.0186  0.0333  0.0167
 7538SOL    HW134073   0.236   1.678   8.628  0.0156  0.0622 -0.3528
 7538SOL    HW234074   0.116   1.671   8.717 -0.3689 -0.7757  0.0517
 7539SOL     OW34075   1.136   0.901   2.938 -0.1932 -0.3580  0.5878
 7539SOL    HW134076   1.139   0.884   3.033  0.7332  0.9911  0.8071
 7539SOL    HW234077   1.144   0.997   2.937 -0.5285 -0.3560 -1.8515
 7540SOL     OW34078   0.917   0.303   3.326 -0.2807  0.8716  0.1784
 7540SOL    HW134079   0.984   0.283   3.392 -0.0915 -1.0903 -0.5930
 7540SOL    HW234080   0.927   0.398   3.332  1.1055  0.5080  3.8413
 7541SOL     OW34081   4.182   3.373  10.756  0.0193  0.5285  0.0083
 7541SOL    HW134082   4.141   3.342  10.836  0.6314 -2.5929 -0.8600
 7541SOL    HW234083   4.143   3.460  10.754  1.6546  1.2780  0.4472
 7542SOL     OW34084   0.140   2.616  13.559  0.1447 -0.1179 -0.0295
 7542SOL    HW134085   0.143   2.619  13.463  0.0133  3.1206  0.0792
 7542SOL    HW234086   0.232   2.627  13.580  0.3622 -1.0998 -0.4399
 7543SOL     OW34087   0.289   2.749   5.243 -0.3444  0.0601  0.3016
 7543SOL    HW134088   0.327   2.817   5.188 -0.5941 -1.1550 -1.3879
 7543SOL    HW234089   0.213   2.799   5.273  0.2578  1.0277  0.1947
 7544SOL     OW34090   4.382   0.125   7.473 -0.0681 -0.0255  0.0487
 7544SOL    HW134091   4.304   0.177   7.491  0.7063  0.8808  0.8363
 7544SOL    HW234092   4.356   0.050   7.526  2.0666  0.8347  2.3266
 7545SOL     OW34093   1.742   1.091   4.796  0.2170 -0.5080 -0.5516
 7545SOL    HW134094   1.710   1.064   4.883 -0.7231  1.3981 -0.3267
 7545SOL    HW234095   1.668   1.068   4.740 -0.2879 -4.8798  1.8965
 7546SOL     OW34096   2.160   4.154   4.337  0.1659 -0.3400  0.1021
 7546SOL    HW134097   2.208   4.237   4.335  2.0238 -1.4047 -0.0015
 7546SOL    HW234098   2.078   4.190   4.304  0.7526 -0.1221 -1.1417
 7547SOL     OW34099   0.126   0.811  12.962  0.2705  0.4535  0.0146
 7547SOL    HW134100   0.138   0.743  12.897  0.1707  1.2983 -0.8895
 7547SOL    HW234101   0.210   0.815  13.007 -0.1963 -1.9942  1.0930
 7548SOL     OW34102   1.997   2.631  16.209  0.6675 -0.2946  0.4250
 7548SOL    HW134103   1.913   2.676  16.209  0.4612 -0.6620 -0.3908
 7548SOL    HW234104   2.024   2.628  16.117 -0.5078 -0.2817  0.0893
 7549SOL     OW34105   4.206   2.622   8.123 -0.2447 -0.3483 -0.1280
 7549SOL    HW134106   4.140   2.691   8.125  2.4936  2.3260 -2.1733
 7549SOL    HW234107   4.161   2.551   8.170  0.9258  0.7035  2.6007
 7550SOL     OW34108   3.858   4.665   2.927 -0.4820  0.3536  0.0412
 7550SOL    HW134109   3.764   4.659   2.946 -0.1180 -0.2136  1.6500
 7550SOL    HW234110   3.858   0.006   2.857  1.1325  0.8188  0.4917
 7551SOL     OW34111   1.700   3.337  13.723  0.8418  0.4380 -0.6893
 7551SOL    HW134112   1.738   3.251  13.703 -0.2756  0.0086 -0.9459
 7551SOL    HW234113   1.716   3.388  13.644 -0.6107  0.6060 -0.8717
 7552SOL     OW34114   0.403   2.951   1.020  0.1621 -0.2991 -0.0020
 7552SOL    HW134115   0.341   3.021   1.002 -0.3000 -0.6704  0.1564
 7552SOL    HW234116   0.479   3.006   1.035  1.4131 -1.6665 -1.2322
 7553SOL     OW34117   2.875   0.594   4.265  0.0198 -0.2369  0.1350
 7553SOL    HW134118   2.873   0.554   4.178  1.0116 -0.4459  0.2155
 7553SOL    HW234119   2.797   0.550   4.300 -0.9697  1.4083  0.0022
 7554SOL     OW34120   1.658   2.402   9.269  0.1729 -0.0646 -0.0062
 7554SOL    HW134121   1.617   2.464   9.208 -1.9566 -1.2438  0.2083
 7554SOL    HW234122   1.585   2.378   9.326 -0.1722  0.3728 -0.2601
 7555SOL     OW34123   4.402   0.051  11.619 -0.0626  0.1039 -0.4888
 7555SOL    HW134124   4.464   0.115  11.583 -1.1077  2.1380  1.3357
 7555SOL    HW234125   4.394   4.725  11.538  0.0379  0.2140 -0.5692
 7556SOL     OW34126   3.502   4.148  10.194 -0.1033  0.0261 -0.5480
 7556SOL    HW134127   3.576   4.120  10.247  0.5423  0.2837 -1.3129
 7556SOL    HW234128   3.434   4.092  10.231  0.4458 -1.1307 -1.2997
 7557SOL     OW34129   4.575   0.819   8.190  0.2085  0.3131 -0.4303
 7557SOL    HW134130   4.655   0.770   8.210 -0.7824 -0.5176  1.4538
 7557SOL    HW234131   4.533   0.837   8.273  0.5948 -0.0675 -0.1475
 7558SOL     OW34132   0.403   4.476  15.676 -0.5350  0.0095  0.2949
 7558SOL    HW134133   0.493   4.509  15.670 -0.0494 -1.5868 -1.2212
 7558SOL    HW234134   0.386   4.461  15.584 -0.8587 -1.3090  0.5765
 7559SOL     OW34135   2.732   0.264  11.349 -0.3276 -0.2628  0.4120
 7559SOL    HW134136   2.734   0.284  11.442 -1.5189  1.6137  0.0473
 7559SOL    HW234137   2.654   0.303  11.309  0.0227 -0.4744 -0.4743
 7560SOL     OW34138   2.531   0.638   6.355  0.3563  0.0093  0.1457
 7560SOL    HW134139   2.503   0.634   6.446 -2.2686  1.9178 -0.5808
 7560SOL    HW234140   2.501   0.724   6.325 -1.1503 -0.6877 -0.3287
 7561SOL     OW34141   3.033   2.578  11.559  0.1972 -0.6491 -0.0724
 7561SOL    HW134142   2.979   2.580  11.639 -0.6796  0.6161 -0.6913
 7561SOL    HW234143   3.098   2.512  11.583 -1.6039 -1.5774  2.3077
 7562SOL     OW34144   4.593   3.473   3.154 -0.3926 -0.8357  0.0577
 7562SOL    HW134145   4.579   3.545   3.093 -0.0637 -0.8849 -0.0792
 7562SOL    HW234146   4.520   3.478   3.215 -0.2047 -2.0508  0.3824
 7563SOL     OW34147   0.619   1.245   7.161 -0.1859  0.0275  0.4696
 7563SOL    HW134148   0.570   1.167   7.189  1.3775 -0.7012  1.1706
 7563SOL    HW234149   0.614   1.232   7.066 -0.6000  1.0161  0.3606
 7564SOL     OW34150   0.207   0.042   2.582 -0.0241 -0.1174  0.1799
 7564SOL    HW134151   0.274   0.094   2.538  0.9536 -1.0327  0.5878
 7564SOL    HW234152   0.145   0.049   2.510 -0.3914  1.0672  0.6130
 7565SOL     OW34153   1.784   2.349  17.090  0.1139  0.2964 -0.4148
 7565SOL    HW134154   1.858   2.405  17.114 -1.1976  2.8106 -2.2251
 7565SOL    HW234155   1.715   2.412  17.068 -1.2923 -0.9819  0.3581
 7566SOL     OW34156   3.621   1.734   3.546  0.3039 -0.1929  0.2377
 7566SOL    HW134157   3.554   1.668   3.529 -0.4630  1.4027 -2.9139
 7566SOL    HW234158   3.659   1.747   3.459  0.5744  1.9987  0.6772
 7567SOL     OW34159   2.458   3.159   6.260 -0.3335 -0.2081 -0.0404
 7567SOL    HW134160   2.434   3.240   6.305  0.1521 -0.7720  1.2368
 7567SOL    HW234161   2.410   3.173   6.178  1.0709 -1.0995 -1.0404
 7568SOL     OW34162   3.049   2.563  17.051 -0.0691  0.1272 -0.0031
 7568SOL    HW134163   3.132   2.559  17.099  0.8584 -0.0863 -1.5959
 7568SOL    HW234164   3.065   2.504  16.977 -0.6743  1.4633 -1.1843
 7569SOL     OW34165   0.780   3.368  14.788  0.3565 -0.1782 -0.0125
 7569SOL    HW134166   0.804   3.396  14.700 -1.4702  2.6196  0.3475
 7569SOL    HW234167   0.724   3.443  14.810  0.9848  0.6429 -1.2121
 7570SOL     OW34168   2.014   3.415  13.711 -0.2886 -0.0671 -0.0698
 7570SOL    HW134169   1.930   3.407  13.755 -0.4320  1.9405  0.0068
 7570SOL    HW234170   2.061   3.447  13.788  1.1111  0.9702 -1.3580
 7571SOL     OW34171   1.207   1.032   4.880  0.0348  0.4105  0.6662
 7571SOL    HW134172   1.203   0.978   4.959  1.0833 -2.0549 -0.9830
 7571SOL    HW234173   1.114   1.055   4.876  0.1470  0.7278 -0.0357
 7572SOL     OW34174   1.351   2.774   5.687  0.3959  0.1972 -0.1396
 7572SOL    HW134175   1.387   2.727   5.762 -0.3433 -0.4205 -0.1815
 7572SOL    HW234176   1.316   2.702   5.635  0.4081 -0.5061  0.8364
 7573SOL     OW34177   2.661   3.697   0.133  0.1275  0.0221 -0.1723
 7573SOL    HW134178   2.654   3.786   0.098 -0.0617 -0.2983 -0.9338
 7573SOL    HW234179   2.624   3.712   0.221  0.9915 -0.6839  0.3068
 7574SOL     OW34180   0.751   4.363  14.757  0.7541  0.7652  0.2593
 7574SOL    HW134181   0.778   4.295  14.819  1.3854 -1.0087 -1.9738
 7574SOL    HW234182   0.715   4.317  14.681 -0.7476  0.9446  0.8745
 7575SOL     OW34183   0.066   3.262   7.265 -0.3274 -0.5415  0.1217
 7575SOL    HW134184   0.051   3.175   7.300  0.9443 -1.5271 -1.7749
 7575SOL    HW234185   0.161   3.259   7.253 -0.2595 -2.7975  1.1831
 7576SOL     OW34186   3.048   2.373   1.164 -0.7346  0.2019 -0.0519
 7576SOL    HW134187   3.094   2.446   1.123  0.0049 -0.4745 -0.3965
 7576SOL    HW234188   2.967   2.374   1.114  0.5928  0.3975 -2.1658
 7577SOL     OW34189   1.987   3.106   7.804  0.4791 -0.5551 -0.1157
 7577SOL    HW134190   1.973   3.120   7.710 -1.2560  0.6050  0.3190
 7577SOL    HW234191   2.052   3.036   7.806  1.6172  0.4708 -1.3626
 7578SOL     OW34192   0.116   4.656  17.542  0.1090  0.2444  0.3288
 7578SOL    HW134193   0.135   0.024  17.535  0.2431  0.2200  0.3582
 7578SOL    HW234194   0.022   4.660  17.528  0.3422 -0.9278 -1.6244
 7579SOL     OW34195   3.374   4.317   5.578  0.0050  0.0753 -0.4501
 7579SOL    HW134196   3.408   4.240   5.624  0.7059  2.1142  2.5010
 7579SOL    HW234197   3.280   4.305   5.589 -0.3388  1.9510 -1.3694
 7580SOL     OW34198   4.211   4.603   1.309 -0.3322 -0.3359  0.0691
 7580SOL    HW134199   4.173   4.638   1.228 -0.5252 -1.4062 -0.3070
 7580SOL    HW234200   4.139   4.546   1.337 -0.0957  0.9070  3.1894
 7581SOL     OW34201   2.925   1.062   3.201  0.5885 -0.2232 -0.0730
 7581SOL    HW134202   2.872   1.133   3.165  0.0390 -0.0302  1.0863
 7581SOL    HW234203   2.914   0.992   3.138  0.7346 -0.6974  0.4292
 7582SOL     OW34204   3.261   2.388  11.459  0.0610 -0.0114 -0.4085
 7582SOL    HW134205   3.288   2.296  11.456  1.2489  0.3208  0.1368
 7582SOL    HW234206   3.340   2.424  11.418 -0.2463  2.9741  1.6137
 7583SOL     OW34207   3.766   1.756   7.514 -0.4466 -0.0500  0.1798
 7583SOL    HW134208   3.835   1.792   7.570 -1.1797  2.7022 -0.7198
 7583SOL    HW234209   3.800   1.780   7.428  2.2273  0.3560  1.3551
 7584SOL     OW34210   0.816   1.649   0.499  0.1260 -0.6928 -0.3077
 7584SOL    HW134211   0.786   1.712   0.564 -1.4971 -1.4871 -0.2886
 7584SOL    HW234212   0.747   1.583   0.492  1.7151 -2.3890 -0.1658
 7585SOL     OW34213   4.001   2.585   1.908 -0.0204  0.6427 -0.1421
 7585SOL    HW134214   4.095   2.602   1.906 -0.0615  0.7616 -0.8426
 7585SOL    HW234215   3.990   2.516   1.973 -1.2939 -0.6133 -1.7121
 7586SOL     OW34216   3.633   0.165   1.141  0.0789 -0.0057  0.5187
 7586SOL    HW134217   3.632   0.221   1.219  0.4699 -0.6229  0.9686
 7586SOL    HW234218   3.604   0.222   1.071  1.2711  0.7864  0.6644
 7587SOL     OW34219   3.522   1.723  13.934  0.4782  0.3463 -0.3197
 7587SOL    HW134220   3.470   1.667  13.992  1.3755 -0.8810 -0.7103
 7587SOL    HW234221   3.467   1.801  13.927  0.2004  0.1154 -0.7584
 7588SOL     OW34222   3.721   3.164   1.973 -0.3156 -0.3908 -0.8091
 7588SOL    HW134223   3.808   3.131   1.992 -0.3836 -0.5163 -0.7091
 7588SOL    HW234224   3.662   3.088   1.983 -1.8636  1.2333  2.3077
 7589SOL     OW34225   4.468   4.472   6.739  0.2943  0.5462  0.2524
 7589SOL    HW134226   4.441   4.513   6.657 -1.7592  2.5197  1.8957
 7589SOL    HW234227   4.380   4.445   6.764  0.0829  2.0437  1.1342
 7590SOL     OW34228   4.201   2.784   6.161 -0.1791 -0.2271  0.3413
 7590SOL    HW134229   4.183   2.764   6.253 -1.3226  0.1830  0.2044
 7590SOL    HW234230   4.173   2.875   6.158 -0.3807 -0.2549  1.2700
 7591SOL     OW34231   0.080   3.378   4.636  0.0962  0.2919 -0.0755
 7591SOL    HW134232   0.001   3.324   4.647  1.0266 -0.2557  3.9662
 7591SOL    HW234233   0.151   3.314   4.627 -0.8891 -0.8736  0.3586
 7592SOL     OW34234   1.281   2.185   8.787  0.3652  0.7943 -0.1484
 7592SOL    HW134235   1.262   2.137   8.867 -1.5470 -1.5390 -2.0132
 7592SOL    HW234236   1.327   2.114   8.742  1.2029  0.6349  0.9603
 7593SOL     OW34237   2.528   0.464   6.050 -0.2190 -0.0053 -0.4257
 7593SOL    HW134238   2.447   0.415   6.066 -0.3237 -0.0388 -1.0628
 7593SOL    HW234239   2.570   0.422   5.975  0.1408 -1.5949  0.6789
 7594SOL     OW34240   2.017   1.413  15.177  0.1559 -0.0522 -0.6557
 7594SOL    HW134241   2.048   1.327  15.205 -0.8810 -0.3330 -0.3367
 7594SOL    HW234242   2.059   1.478  15.233  0.5168 -2.4193  1.7948
 7595SOL     OW34243   2.642   1.560   3.969 -0.2088  0.0054 -0.2540
 7595SOL    HW134244   2.548   1.544   3.964  0.2108 -1.4738 -3.5610
 7595SOL    HW234245   2.643   1.610   4.051 -2.9365  0.2603 -0.3923
 7596SOL     OW34246   4.170   0.027   0.792  0.2538  0.0911 -0.5690
 7596SOL    HW134247   4.228   4.706   0.731  0.1004 -1.7879  0.7108
 7596SOL    HW234248   4.216   0.106   0.819  0.3919 -0.1707 -0.0377
 7597SOL     OW34249   1.372   1.454   8.857  0.4051  0.1545 -0.0945
 7597SOL    HW134250   1.463   1.477   8.839  0.3445  1.4755  1.2882
 7597SOL    HW234251   1.377   1.401   8.936  0.0281  0.7017  0.2983
 7598SOL     OW34252   0.444   4.559   4.201 -0.5699  0.3621 -0.2874
 7598SOL    HW134253   0.429   4.506   4.279 -2.9476  1.6110  0.1151
 7598SOL    HW234254   0.537   4.543   4.183 -1.8503 -3.1782 -3.7368
 7599SOL     OW34255   0.295   2.773   6.101 -0.2793 -0.2982 -0.4511
 7599SOL    HW134256   0.200   2.758   6.108 -0.6943  3.4975  2.1181
 7599SOL    HW234257   0.334   2.689   6.077  2.3970  0.9023 -0.2653
 7600SOL     OW34258   4.282   0.799   7.007 -0.2723 -0.3762  0.1710
 7600SOL    HW134259   4.317   0.710   7.001 -4.8789 -2.1742 -0.5139
 7600SOL    HW234260   4.274   0.799   7.103 -1.6511  0.5378  0.0672
 7601SOL     OW34261   2.427   0.119   9.862 -0.3157  0.0208 -0.3489
 7601SOL    HW134262   2.377   0.101   9.782 -2.0296  1.2901  0.4362
 7601SOL    HW234263   2.516   0.120   9.827 -0.0593 -0.3356  0.3016
 7602SOL     OW34264   1.546   2.138   9.409 -0.1378  0.2035  0.7274
 7602SOL    HW134265   1.599   2.201   9.459 -0.0079 -0.2559  1.1670
 7602SOL    HW234266   1.455   2.164   9.424 -0.3167  0.1408 -0.2302
 7603SOL     OW34267   3.759   4.333   5.231 -0.3974  0.5972 -0.6869
 7603SOL    HW134268   3.676   4.357   5.272 -1.5645 -3.2014 -0.7629
 7603SOL    HW234269   3.787   4.423   5.218 -2.0626  1.1150 -0.7643
 7604SOL     OW34270   2.602   3.180   7.630  0.3388  0.5056  0.3532
 7604SOL    HW134271   2.599   3.104   7.571 -0.9725  0.2784  0.7046
 7604SOL    HW234272   2.585   3.140   7.715 -3.1196 -0.1215 -0.6239
 7605SOL     OW34273   3.297   3.420   2.158  0.6924  0.2620 -0.5721
 7605SOL    HW134274   3.304   3.326   2.169 -1.2447  0.5351  3.0105
 7605SOL    HW234275   3.381   3.440   2.117 -0.0248 -1.5775 -2.9314
 7606SOL     OW34276   3.397   1.535  11.627  0.1638  0.4059 -0.1257
 7606SOL    HW134277   3.475   1.484  11.649 -0.1519 -0.8711 -2.0240
 7606SOL    HW234278   3.397   1.598  11.700 -1.5320 -0.2140  0.4104
 7607SOL     OW34279   2.498   3.271   2.430 -0.4085 -0.4833  0.4835
 7607SOL    HW134280   2.492   3.211   2.356 -0.0551 -1.2360  1.0660
 7607SOL    HW234281   2.585   3.254   2.465  0.5094  0.2480 -1.4625
 7608SOL     OW34282   1.394   1.467   3.873 -0.2872  0.1188  0.2172
 7608SOL    HW134283   1.432   1.543   3.917  1.1722  0.2193 -1.2464
 7608SOL    HW234284   1.300   1.489   3.876 -0.3180  0.0153 -0.0009
 7609SOL     OW34285   1.244   0.501   9.443  0.0656 -0.3549  0.4401
 7609SOL    HW134286   1.263   0.582   9.490 -1.2010  0.0163  0.3232
 7609SOL    HW234287   1.278   0.437   9.506 -0.9759 -2.0014 -0.6628
 7610SOL     OW34288   1.411   4.326   4.225 -0.0234  0.5005  0.0913
 7610SOL    HW134289   1.469   4.303   4.153  2.4511 -1.1195  2.6002
 7610SOL    HW234290   1.370   4.411   4.207  0.3407 -0.0077 -3.1231
 7611SOL     OW34291   1.935   4.638   6.133 -0.4809  0.1135 -0.4672
 7611SOL    HW134292   1.862   4.657   6.073 -0.0093  0.9824 -0.7641
 7611SOL    HW234293   1.976   4.724   6.144  1.0450 -0.6326 -0.3545
 7612SOL     OW34294   1.130   4.497  17.100  0.0837  0.1816 -0.1145
 7612SOL    HW134295   1.073   4.423  17.121  2.7216 -2.2044 -1.4974
 7612SOL    HW234296   1.216   4.458  17.113 -0.8487 -0.6546  3.6454
 7613SOL     OW34297   3.082   2.396  12.739  0.1366 -0.2821 -0.2801
 7613SOL    HW134298   3.159   2.365  12.691  0.3429 -0.8192  0.3909
 7613SOL    HW234299   3.131   2.437  12.811  0.2038 -2.4791  0.9292
 7614SOL     OW34300   0.844   3.843  13.298 -0.2014 -0.2732  0.7803
 7614SOL    HW134301   0.892   3.924  13.285  0.4553 -0.5185  1.5992
 7614SOL    HW234302   0.903   3.784  13.251  0.4631  0.9931  0.0374
 7615SOL     OW34303   3.863   2.078   2.811  0.1513 -0.0994 -0.6339
 7615SOL    HW134304   3.860   2.166   2.772 -1.7147 -0.0425 -0.3686
 7615SOL    HW234305   3.902   2.023   2.744  1.2473 -0.6579  0.4690
 7616SOL     OW34306   2.536   2.885  13.177 -0.6587 -0.0585 -0.3842
 7616SOL    HW134307   2.626   2.896  13.145 -0.7371 -0.2450 -0.6617
 7616SOL    HW234308   2.558   2.815  13.239 -0.0991  1.6541  1.3646
 7617SOL     OW34309   4.452   4.702  14.426  0.1809 -0.4359  0.1160
 7617SOL    HW134310   4.473   4.716  14.519 -1.4951 -1.3730  0.6299
 7617SOL    HW234311   4.363   4.671  14.440  0.6503 -1.3905  0.9962
 7618SOL     OW34312   0.301   2.949   3.292 -0.5608  0.3004 -0.4502
 7618SOL    HW134313   0.383   2.998   3.300  0.7122 -1.4425 -2.7701
 7618SOL    HW234314   0.264   2.983   3.211  0.4628 -2.8642 -2.2271
 7619SOL     OW34315   0.718   4.361   7.355 -0.2731  0.3863  0.0450
 7619SOL    HW134316   0.644   4.307   7.382  0.3612  0.2775  1.5777
 7619SOL    HW234317   0.762   4.295   7.303 -4.4015  0.4992 -3.6232
 7620SOL     OW34318   1.944   3.481   2.673 -0.3702  0.5878  0.5204
 7620SOL    HW134319   1.939   3.521   2.760  0.6304 -0.4411  1.0468
 7620SOL    HW234320   1.871   3.527   2.631  1.7266  2.5183 -1.0551
 7621SOL     OW34321   0.586   4.234   8.765  0.0693  0.0111 -0.1913
 7621SOL    HW134322   0.634   4.152   8.750 -0.5137 -0.3286 -0.1855
 7621SOL    HW234323   0.631   4.260   8.846 -2.8857 -2.7925  2.3819
 7622SOL     OW34324   2.256   1.809  10.632  0.1099 -0.3412 -0.4884
 7622SOL    HW134325   2.288   1.844  10.715  2.0185  0.1050 -1.4100
 7622SOL    HW234326   2.203   1.885  10.607 -0.1145 -0.6335 -0.8913
 7623SOL     OW34327   2.988   4.163   4.539  0.5706  0.0244  0.4869
 7623SOL    HW134328   2.945   4.222   4.477  1.7714  1.6382  1.2047
 7623SOL    HW234329   2.972   4.194   4.628  2.1676 -0.2084  0.8519
 7624SOL     OW34330   2.344   2.069   2.352  0.2825  0.5254 -0.4269
 7624SOL    HW134331   2.275   2.036   2.410  1.2599 -0.1772  0.3347
 7624SOL    HW234332   2.328   2.163   2.347 -1.3560  0.3056  0.7528
 7625SOL     OW34333   0.203   3.550   6.129  0.2105 -0.3245  0.9295
 7625SOL    HW134334   0.181   3.469   6.084 -0.9963  0.1229  0.6971
 7625SOL    HW234335   0.138   3.612   6.096  2.7283  1.3935 -0.8221
 7626SOL     OW34336   2.750   3.091   2.560 -0.4013  0.2202 -0.1476
 7626SOL    HW134337   2.792   3.070   2.476 -3.0212 -2.8329 -0.6984
 7626SOL    HW234338   2.806   3.035   2.613 -1.2050  0.9148  1.4360
 7627SOL     OW34339   2.561   1.234   4.961 -0.4877  0.1378  0.0842
 7627SOL    HW134340   2.595   1.324   4.963 -0.4136  0.1332 -1.1520
 7627SOL    HW234341   2.617   1.203   4.890  2.0028 -0.7575  2.4522
 7628SOL     OW34342   3.909   2.374   7.004 -0.0137  0.6142  0.0196
 7628SOL    HW134343   3.973   2.375   7.075  0.1374 -0.7662 -0.0791
 7628SOL    HW234344   3.836   2.323   7.039  0.5610 -0.8445 -0.8723
 7629SOL     OW34345   1.666   2.464   6.057  0.7075  0.5966 -0.5535
 7629SOL    HW134346   1.633   2.506   6.136 -0.6633 -0.9183 -0.3188
 7629SOL    HW234347   1.586   2.426   6.019 -1.0108  1.1660  2.5429
 7630SOL     OW34348   3.790   1.348  13.333 -0.2421  0.1098 -0.2664
 7630SOL    HW134349   3.709   1.374  13.376  0.1926  0.5848  0.2651
 7630SOL    HW234350   3.841   1.424  13.361 -1.7072  0.8529  0.3620
 7631SOL     OW34351   4.043   3.337   8.362 -0.0682 -0.1589 -0.1752
 7631SOL    HW134352   4.099   3.281   8.415 -1.5315 -1.3839  0.0989
 7631SOL    HW234353   4.091   3.419   8.352 -2.7714  1.7054  2.1187
 7632SOL     OW34354   0.966   0.879   6.847 -0.0643 -0.7882  0.4294
 7632SOL    HW134355   0.976   0.784   6.848  0.1523 -0.7565  1.3670
 7632SOL    HW234356   0.900   0.891   6.916 -2.0922 -1.9727 -1.3089
 7633SOL     OW34357   3.730   2.631   6.344 -0.1186  0.3730  0.3509
 7633SOL    HW134358   3.750   2.599   6.256  0.0511  1.9016 -0.1791
 7633SOL    HW234359   3.795   2.699   6.364 -0.1984  0.3351  0.7371
 7634SOL     OW34360   4.365   3.711   4.986  0.0750 -0.0136 -0.0796
 7634SOL    HW134361   4.458   3.693   4.976  0.2690 -0.1813  2.0084
 7634SOL    HW234362   4.331   3.659   4.913  0.7947  0.5905 -0.8466
 7635SOL     OW34363   3.924   4.407   8.042  0.0553  0.4188  0.3561
 7635SOL    HW134364   3.861   4.380   8.110  0.6287 -0.6172  0.4723
 7635SOL    HW234365   3.894   4.497   8.027  0.1863  0.3984 -0.0126
 7636SOL     OW34366   2.780   1.184   0.941 -0.3248  0.2731  0.5689
 7636SOL    HW134367   2.857   1.215   0.893  1.6598 -1.9229  2.3397
 7636SOL    HW234368   2.732   1.262   0.913 -1.3148 -0.6950 -0.4353
 7637SOL     OW34369   4.266   2.595   5.074 -0.5211  0.2000  0.6261
 7637SOL    HW134370   4.176   2.625   5.064  0.1319  1.4015 -1.5905
 7637SOL    HW234371   4.265   2.504   5.105  2.5103  1.1536  3.5631
 7638SOL     OW34372   0.520   4.007  16.674  0.1117  0.3035  0.2192
 7638SOL    HW134373   0.599   3.959  16.697  0.5523  0.3409 -1.2268
 7638SOL    HW234374   0.546   4.039  16.588 -0.2152 -0.4095 -0.1484
 7639SOL     OW34375   4.717   2.994  15.063  0.3094 -0.9244 -0.4921
 7639SOL    HW134376   0.070   2.959  15.106  0.4414 -0.6223 -0.4866
 7639SOL    HW234377   0.045   3.059  15.017  1.1708 -2.1303 -1.1822
 7640SOL     OW34378   3.410   2.592   1.839 -0.2475  0.0603 -0.0865
 7640SOL    HW134379   3.487   2.536   1.844  0.1365  0.4790 -1.4313
 7640SOL    HW234380   3.389   2.600   1.746 -0.0749  1.5568  0.0005
 7641SOL     OW34381   2.203   3.471  17.345  0.2177  0.1558  0.9207
 7641SOL    HW134382   2.262   3.480  17.419  0.3994  2.3243  0.5013
 7641SOL    HW234383   2.250   3.524  17.281  0.3049  0.6888  1.4244
 7642SOL     OW34384   0.659   3.439   2.554  0.5557 -0.4365 -0.2535
 7642SOL    HW134385   0.707   3.458   2.635  0.0868  0.9158 -0.2835
 7642SOL    HW234386   0.723   3.421   2.485  1.2620 -1.1133  0.5649
 7643SOL     OW34387   1.202   3.378   6.302 -0.0114  0.0289  0.0578
 7643SOL    HW134388   1.295   3.371   6.284 -0.4724 -0.8150 -2.0183
 7643SOL    HW234389   1.184   3.285   6.314 -0.5172  0.1907  0.5585
 7644SOL     OW34390   4.118   1.776   7.266  0.2955  0.0068 -0.1524
 7644SOL    HW134391   4.194   1.762   7.322  0.7811  2.0869 -0.2932
 7644SOL    HW234392   4.065   1.708   7.308  1.2740  1.3978  3.3223
 7645SOL     OW34393   1.459   2.333   8.224  0.2026  0.4809 -0.0568
 7645SOL    HW134394   1.368   2.321   8.252  1.0599  1.7306  3.3323
 7645SOL    HW234395   1.440   2.406   8.165 -0.2760 -2.1316 -3.0982
 7646SOL     OW34396   2.687   2.100   7.864 -0.0792 -0.1872  0.9555
 7646SOL    HW134397   2.704   2.050   7.944  0.1222 -0.9983  0.3986
 7646SOL    HW234398   2.612   2.045   7.843  0.3396 -0.1056 -0.6986
 7647SOL     OW34399   2.750   1.026   1.737  0.2539  0.3333 -0.0622
 7647SOL    HW134400   2.828   1.010   1.791 -0.6658  0.0526  1.1839
 7647SOL    HW234401   2.762   0.967   1.663 -1.2019  0.3213 -0.2902
 7648SOL     OW34402   3.374   0.064   3.389  0.0328  0.1764 -0.1682
 7648SOL    HW134403   3.280   0.046   3.400  0.6336 -2.8520  0.0098
 7648SOL    HW234404   3.390   0.121   3.464  0.4215 -0.0604 -0.0734
 7649SOL     OW34405   1.122   2.203  12.565 -0.3037  0.1960 -0.1009
 7649SOL    HW134406   1.084   2.287  12.591  1.6601  0.2552  2.5034
 7649SOL    HW234407   1.169   2.230  12.486  0.1640  1.7273  0.7133
 7650SOL     OW34408   2.067   4.660   2.628 -0.0122  0.1007 -0.0515
 7650SOL    HW134409   2.057   4.712   2.707 -1.3397  3.7215 -2.5774
 7650SOL    HW234410   2.154   4.686   2.597  0.5385 -1.7852 -0.0586
 7651SOL     OW34411   2.360   0.058  16.107 -0.5284  0.4009  0.4054
 7651SOL    HW134412   2.276   0.061  16.060 -0.7569 -0.9791  0.7247
 7651SOL    HW234413   2.417   0.091  16.037 -0.5865 -1.7893 -0.6841
 7652SOL     OW34414   3.189   2.947   2.105  0.1528 -0.0396 -0.5060
 7652SOL    HW134415   3.210   2.860   2.070 -0.7391 -0.1313 -0.8089
 7652SOL    HW234416   3.132   2.923   2.178 -0.8273  0.6152 -1.0443
 7653SOL     OW34417   2.364   1.974  12.037  0.1474 -0.0753 -0.2825
 7653SOL    HW134418   2.294   2.040  12.031  0.0052 -0.2284 -0.3057
 7653SOL    HW234419   2.360   1.950  12.130  1.0919  1.6950  0.2151
 7654SOL     OW34420   2.062   0.998   4.857  0.3259  0.4216  0.2228
 7654SOL    HW134421   2.136   1.042   4.816  1.2898 -1.4917 -0.0591
 7654SOL    HW234422   2.016   1.075   4.891 -2.4502  1.0019 -4.8847
 7655SOL     OW34423   0.088   0.868   7.550  0.4138  0.4916  0.3906
 7655SOL    HW134424   0.051   0.839   7.633 -1.9601  0.0451 -0.8244
 7655SOL    HW234425   0.169   0.817   7.552  1.6328  2.4892  1.2363
 7656SOL     OW34426   3.815   4.598   5.201 -0.5621 -0.1601  0.4166
 7656SOL    HW134427   3.793   4.677   5.249 -0.0293  0.0976  0.2359
 7656SOL    HW234428   3.820   4.628   5.110  1.4421  0.3707  0.6921
 7657SOL     OW34429   1.860   4.088  10.438  0.2598  0.4063  0.1137
 7657SOL    HW134430   1.770   4.073  10.466 -0.6570  0.7130 -2.5960
 7657SOL    HW234431   1.876   3.996  10.418 -0.1900  0.5255 -0.8012
 7658SOL     OW34432   2.805   4.503  14.484 -0.7793 -0.4133 -0.9182
 7658SOL    HW134433   2.754   4.577  14.515  2.0902  0.7873  0.8394
 7658SOL    HW234434   2.771   4.507  14.394 -0.5068 -0.2020 -1.0086
 7659SOL     OW34435   3.299   1.586   0.867  0.1139 -0.6176 -0.2112
 7659SOL    HW134436   3.205   1.581   0.883  0.3531 -3.0577  0.4555
 7659SOL    HW234437   3.334   1.546   0.947 -1.0764 -1.2939 -0.0317
 7660SOL     OW34438   2.605   3.620   4.429 -0.0884  0.3884  0.1733
 7660SOL    HW134439   2.686   3.631   4.379 -1.2155  1.3574 -1.4539
 7660SOL    HW234440   2.621   3.530   4.456  0.8857  0.5834  0.2581
 7661SOL     OW34441   1.322   3.577   5.839  0.3300  0.2623  0.1402
 7661SOL    HW134442   1.336   3.605   5.930  0.6862 -0.3128  0.2636
 7661SOL    HW234443   1.232   3.597   5.813 -0.0065 -0.7583  0.4924
 7662SOL     OW34444   4.571   2.805   4.810 -0.0336 -0.0428 -0.1227
 7662SOL    HW134445   4.518   2.726   4.825 -0.9080  0.0627 -2.7015
 7662SOL    HW234446   4.592   2.799   4.717  1.6664  0.0363  0.2546
 7663SOL     OW34447   4.409   2.751   4.201 -0.2532 -0.6065 -0.6284
 7663SOL    HW134448   4.488   2.785   4.159  0.1124  0.5994  1.0507
 7663SOL    HW234449   4.394   2.814   4.272  3.8373 -1.2936  0.8247
 7664SOL     OW34450   3.893   0.807  13.342 -0.9211 -0.2626 -0.0572
 7664SOL    HW134451   3.891   0.901  13.360  0.6369 -0.0191 -1.1554
 7664SOL    HW234452   3.835   0.777  13.412  0.1271 -0.3164  0.7812
 7665SOL     OW34453   1.522   3.640   1.382 -0.0184  0.3126  0.0636
 7665SOL    HW134454   1.489   3.550   1.378  0.3994  0.1754 -0.3341
 7665SOL    HW234455   1.480   3.653   1.467  0.4116  0.7949  0.2027
 7666SOL     OW34456   4.117   4.353   2.438 -0.3486 -0.1144  0.4896
 7666SOL    HW134457   4.029   4.385   2.456 -0.0997  0.1930  1.1581
 7666SOL    HW234458   4.104   4.259   2.431 -0.4316 -0.0156 -0.7440
 7667SOL     OW34459   0.010   3.938   7.345  0.9414 -0.3695 -0.1171
 7667SOL    HW134460   4.722   3.941   7.440  0.6578 -0.5822 -0.1484
 7667SOL    HW234461   4.671   3.998   7.306  0.0667  0.4300  2.5696
 7668SOL     OW34462   0.533   1.296   4.579  0.4065 -0.0771  0.1007
 7668SOL    HW134463   0.553   1.252   4.662 -5.7877 -1.0379  1.0555
 7668SOL    HW234464   0.448   1.254   4.568  1.0666 -0.9817 -1.7065
 7669SOL     OW34465   4.155   1.257   3.774  0.7725 -0.4178  0.0087
 7669SOL    HW134466   4.098   1.182   3.789  1.1488 -0.8339 -0.5996
 7669SOL    HW234467   4.166   1.264   3.679 -1.1856 -2.7106 -0.3968
 7670SOL     OW34468   1.764   1.612  13.723  0.8915  0.3066  0.0017
 7670SOL    HW134469   1.784   1.574  13.638  1.7074  1.6679 -0.4127
 7670SOL    HW234470   1.755   1.529  13.769  1.1643 -0.2191 -0.9084
 7671SOL     OW34471   0.098   2.767   2.995  0.0491 -0.0772 -0.1892
 7671SOL    HW134472   0.065   2.792   2.909 -0.2446 -0.4384 -0.1804
 7671SOL    HW234473   0.174   2.715   2.967  1.8095  2.3468  0.1135
 7672SOL     OW34474   2.304   2.801   0.728  0.7097 -0.4855  0.1107
 7672SOL    HW134475   2.341   2.820   0.814  1.3444  0.1747 -0.3082
 7672SOL    HW234476   2.346   2.718   0.705  0.6680 -0.5714  0.3418
 7673SOL     OW34477   0.762   2.971  11.456  0.1838  0.0881  0.2422
 7673SOL    HW134478   0.842   2.926  11.427 -0.3816 -1.2018  0.6473
 7673SOL    HW234479   0.723   3.005  11.376 -1.0492  1.1899  1.3315
 7674SOL     OW34480   2.512   0.139  10.345 -0.2054 -0.5029  0.6856
 7674SOL    HW134481   2.521   0.120  10.439 -1.2851 -4.6321 -0.0118
 7674SOL    HW234482   2.602   0.123  10.317 -0.8900  0.1111 -1.8343
 7675SOL     OW34483   2.847   1.782   8.925 -0.3214 -0.9682  0.0606
 7675SOL    HW134484   2.902   1.716   8.884 -0.8143 -2.1375  1.2745
 7675SOL    HW234485   2.823   1.833   8.848 -1.5909  1.3969  2.0294
 7676SOL     OW34486   3.230   1.481   4.552  0.0638 -0.2314  0.1774
 7676SOL    HW134487   3.312   1.433   4.557  0.5741  0.4919 -1.3831
 7676SOL    HW234488   3.200   1.461   4.641  1.1417  2.3821  1.1143
 7677SOL     OW34489   3.273   1.766  16.682 -0.2525  0.0847 -0.0628
 7677SOL    HW134490   3.192   1.756  16.732 -1.4960 -3.5961 -2.7489
 7677SOL    HW234491   3.326   1.799  16.754  2.2595 -0.2624 -1.7358
 7678SOL     OW34492   0.241   0.691   9.322  0.5562  0.3774  0.0500
 7678SOL    HW134493   0.232   0.785   9.337  0.6428  0.5201 -0.7935
 7678SOL    HW234494   0.231   0.658   9.411 -2.8484  1.3094  0.0043
 7679SOL     OW34495   1.434   2.815  15.360 -0.2584  0.5746 -0.3461
 7679SOL    HW134496   1.465   2.755  15.428  0.1364  1.2302  0.0501
 7679SOL    HW234497   1.514   2.858  15.331  0.5154  1.5613  3.1744
 7680SOL     OW34498   3.836   1.852  12.662  0.4867  0.1342  0.0729
 7680SOL    HW134499   3.892   1.777  12.680 -0.2083 -0.0030  1.6968
 7680SOL    HW234500   3.894   1.920  12.628 -1.7969  1.6065 -0.9095
 7681SOL     OW34501   0.813   1.499   1.588  0.4390 -0.2614 -0.2494
 7681SOL    HW134502   0.848   1.470   1.504 -0.0122 -2.7691  0.4262
 7681SOL    HW234503   0.894   1.540   1.616 -0.1988  1.0845 -0.3458
 7682SOL     OW34504   2.571   3.332  17.511  0.6053 -0.2235  0.6629
 7682SOL    HW134505   2.540   3.258  17.563 -0.5538 -0.4421 -0.3235
 7682SOL    HW234506   2.507   3.396  17.542 -1.4231 -1.4039 -1.0305
 7683SOL     OW34507   4.042   1.552   6.856  0.6655  0.0621 -0.3377
 7683SOL    HW134508   3.966   1.610   6.862 -0.5281 -1.6823  1.4497
 7683SOL    HW234509   4.015   1.470   6.814 -1.8968 -0.3259  2.0065
 7684SOL     OW34510   1.088   4.007  12.216 -0.0395 -0.1006  0.0157
 7684SOL    HW134511   1.026   3.957  12.162 -0.2743  0.6577 -0.4276
 7684SOL    HW234512   1.090   4.092  12.173  4.3180  0.0381  0.5530
 7685SOL     OW34513   2.446   1.464   2.733  0.2163  0.2705  0.0256
 7685SOL    HW134514   2.450   1.531   2.665 -1.2259  0.9694  0.6443
 7685SOL    HW234515   2.351   1.453   2.740  0.2199  0.1047 -0.1817
 7686SOL     OW34516   3.418   1.885   1.295  0.4022 -0.1474  0.4026
 7686SOL    HW134517   3.495   1.831   1.310  0.5695  0.7555  2.8581
 7686SOL    HW234518   3.349   1.830   1.259 -0.6318  1.5121 -0.1543
 7687SOL     OW34519   0.615   0.333  14.567 -0.1185 -0.0444  0.2036
 7687SOL    HW134520   0.670   0.310  14.491 -2.0228 -1.5348 -0.7315
 7687SOL    HW234521   0.686   0.343  14.631  1.7101 -2.2573 -1.4754
 7688SOL     OW34522   3.557   1.479   6.720 -0.0619 -0.2461  0.4925
 7688SOL    HW134523   3.565   1.493   6.626 -0.3679  1.7108  0.7547
 7688SOL    HW234524   3.499   1.403   6.716  1.7587 -1.6535  0.7713
 7689SOL     OW34525   4.064   3.653   3.884  0.5703 -0.3761 -0.0238
 7689SOL    HW134526   3.994   3.699   3.931  0.2847 -1.8691  1.0255
 7689SOL    HW234527   4.129   3.654   3.954  1.7365  0.4109 -1.1262
 7690SOL     OW34528   4.120   1.259   6.643  0.3689  0.5965 -0.1051
 7690SOL    HW134529   4.060   1.302   6.705 -0.9324  0.2463 -1.1325
 7690SOL    HW234530   4.209   1.276   6.675  0.2789  1.2700 -0.2108
 7691SOL     OW34531   4.293   1.141   7.183  0.1798  0.0412 -0.6525
 7691SOL    HW134532   4.274   1.228   7.216  0.8614  0.0519 -0.2795
 7691SOL    HW234533   4.252   1.096   7.258 -0.5741  0.6509 -0.7084
 7692SOL     OW34534   2.920   3.909   8.505  0.1443  0.0446 -0.0548
 7692SOL    HW134535   2.945   3.877   8.592  1.8974 -1.7098 -1.2029
 7692SOL    HW234536   2.961   3.844   8.448 -1.2685 -2.7229  2.0769
 7693SOL     OW34537   2.626   3.489  14.088 -0.1505  0.5407  0.1945
 7693SOL    HW134538   2.592   3.526  14.170 -0.4539 -1.2204  0.8475
 7693SOL    HW234539   2.717   3.480  14.116 -0.1909 -1.1767 -0.2331
 7694SOL     OW34540   2.523   3.521  16.633 -0.2708  0.4151 -0.3772
 7694SOL    HW134541   2.513   3.503  16.726 -0.6641 -1.9592 -0.8853
 7694SOL    HW234542   2.608   3.479  16.619 -0.6465 -1.2053  2.4592
 7695SOL     OW34543   4.122   2.724  15.127  0.0590  0.5710 -0.1740
 7695SOL    HW134544   4.031   2.696  15.115 -0.0609  1.2131 -0.8382
 7695SOL    HW234545   4.137   2.721  15.221  1.3582  0.5192 -0.3915
 7696SOL     OW34546   3.571   4.702   2.894 -0.5304  0.7687  0.1028
 7696SOL    HW134547   3.492   4.708   2.840  0.6342 -2.5527 -1.9988
 7696SOL    HW234548   3.574   0.069   2.920  2.1629  0.1403  2.0182
 7697SOL     OW34549   3.073   4.513   2.462 -0.5006 -0.1422 -0.1693
 7697SOL    HW134550   3.089   4.551   2.548  3.1096 -1.1658 -0.3783
 7697SOL    HW234551   3.136   4.559   2.407  0.5055 -0.4213  0.7639
 7698SOL     OW34552   1.689   0.576   4.522  0.4277  0.2234 -0.3950
 7698SOL    HW134553   1.674   0.665   4.490  0.3056  0.2300 -0.3174
 7698SOL    HW234554   1.784   0.575   4.538  0.1705 -1.0687  1.0457
 7699SOL     OW34555   0.415   3.579   5.133  0.2908 -0.1731  0.4441
 7699SOL    HW134556   0.386   3.550   5.046 -1.0922 -0.8576  1.1324
 7699SOL    HW234557   0.506   3.603   5.121 -0.1654  2.0461  1.3792
 7700SOL     OW34558   2.093   3.973   2.779 -0.4053 -0.1792  0.3798
 7700SOL    HW134559   2.099   3.921   2.699  0.1946  0.2065  0.1750
 7700SOL    HW234560   2.146   4.050   2.758 -0.9874 -0.0306 -0.5172
 7701SOL     OW34561   3.586   1.297   4.307 -0.2612 -0.2096  0.5721
 7701SOL    HW134562   3.610   1.250   4.228  0.3806 -0.9763  1.2249
 7701SOL    HW234563   3.622   1.385   4.294 -0.7361 -0.0363  0.4294
 7702SOL     OW34564   0.600   3.941   5.743  0.0279  0.9536 -0.1388
 7702SOL    HW134565   0.660   3.975   5.677 -1.0229  2.1873 -0.4575
 7702SOL    HW234566   0.523   3.906   5.697  0.7340  2.7183 -2.6527
 7703SOL     OW34567   4.048   1.286   2.630 -0.5446  0.3420 -0.4522
 7703SOL    HW134568   4.039   1.233   2.709  0.5489 -0.0269 -0.5715
 7703SOL    HW234569   4.046   1.367   2.682  0.6587 -0.0429  0.1979
 7704SOL     OW34570   2.835   3.003   2.326 -0.1393  0.2165 -0.1881
 7704SOL    HW134571   2.823   2.959   2.242 -1.8819 -1.2228  0.8283
 7704SOL    HW234572   2.930   3.000   2.336 -0.1936 -0.4878  0.0925
 7705SOL     OW34573   1.377   2.092   0.703  0.5646 -0.0977  0.4093
 7705SOL    HW134574   1.326   2.120   0.779 -1.8060  1.9898 -1.9041
 7705SOL    HW234575   1.424   2.015   0.734 -0.2179 -0.1154  1.5371
 7706SOL     OW34576   3.963   0.554   7.139 -0.2825 -1.0918  0.1306
 7706SOL    HW134577   3.920   0.617   7.082 -1.4762  1.1934  3.5878
 7706SOL    HW234578   4.000   0.624   7.192  0.9506 -2.3331  0.8906
 7707SOL     OW34579   4.264   0.739   6.388 -0.2909  0.0014 -0.1993
 7707SOL    HW134580   4.273   0.670   6.322  1.9740 -0.9870  1.1072
 7707SOL    HW234581   4.269   0.682   6.466  1.5715  0.3370 -0.0759
 7708SOL     OW34582   3.081   4.265   6.314  0.2353  0.0935  0.5730
 7708SOL    HW134583   3.048   4.177   6.297  2.4383 -0.6328  0.0976
 7708SOL    HW234584   3.032   4.277   6.396 -1.9471 -1.3200 -0.5260
 7709SOL     OW34585   2.322   2.479  10.291 -0.5905 -0.1818  0.1476
 7709SOL    HW134586   2.270   2.428  10.229 -0.5201  0.9084 -0.8111
 7709SOL    HW234587   2.261   2.476  10.364 -0.8393  0.6240 -0.0292
 7710SOL     OW34588   1.590   2.198   8.961  0.2130 -0.1893  0.1640
 7710SOL    HW134589   1.544   2.150   9.030  0.3829 -0.1528  0.3043
 7710SOL    HW234590   1.540   2.275   8.935 -1.5113 -1.5641 -0.5762
 7711SOL     OW34591   2.519   4.312   7.633 -0.3816 -0.0887  0.4108
 7711SOL    HW134592   2.520   4.231   7.583 -0.2560 -0.7971  1.5686
 7711SOL    HW234593   2.432   4.340   7.607  0.5146  1.6597 -0.6863
 7712SOL     OW34594   3.100   1.232   8.092  0.5642  0.0610 -0.9258
 7712SOL    HW134595   3.193   1.227   8.072 -0.2899 -1.6087 -4.5785
 7712SOL    HW234596   3.101   1.257   8.184 -0.1070  1.2087 -1.2339
 7713SOL     OW34597   2.931   3.322   3.237  0.2391 -0.4364 -0.2667
 7713SOL    HW134598   2.882   3.347   3.316  0.8945 -0.4884  0.1571
 7713SOL    HW234599   2.992   3.254   3.263  0.0091 -0.1430  1.0452
 7714SOL     OW34600   4.307   1.706   4.391 -0.3491  0.7003 -0.2436
 7714SOL    HW134601   4.349   1.770   4.448 -2.1777 -0.1769  2.0911
 7714SOL    HW234602   4.347   1.736   4.310 -0.7488  0.7502 -0.4215
 7715SOL     OW34603   0.789   4.592  17.097 -0.4148 -0.7791  0.2391
 7715SOL    HW134604   0.777   4.685  17.113 -1.9899 -0.7515 -1.0849
 7715SOL    HW234605   0.869   4.590  17.045 -1.0265  1.0993 -0.7547
 7716SOL     OW34606   0.702   0.892  13.811 -0.0826  0.0422  0.3245
 7716SOL    HW134607   0.716   0.803  13.778  2.8793  0.7397 -0.3305
 7716SOL    HW234608   0.608   0.889  13.825 -0.1466 -0.8562 -0.2963
 7717SOL     OW34609   4.282   4.463   1.912 -0.3780 -0.6097 -0.0669
 7717SOL    HW134610   4.287   4.459   2.007 -0.0501 -3.8899 -0.2152
 7717SOL    HW234611   4.338   4.540   1.898  0.8810 -1.4320  0.3757
 7718SOL     OW34612   0.184   2.211   5.140  0.2570 -0.2371  0.2506
 7718SOL    HW134613   0.217   2.273   5.075  2.5536 -0.6565  1.0057
 7718SOL    HW234614   0.154   2.283   5.196  0.7537 -0.0279  0.2531
 7719SOL     OW34615   1.112   0.697   6.581 -0.2317  0.3936 -0.3259
 7719SOL    HW134616   1.035   0.668   6.532  0.4121 -0.6642 -0.7319
 7719SOL    HW234617   1.090   0.790   6.581  0.5950  0.5875  0.6680
 7720SOL     OW34618   0.507   1.512  12.027 -0.5667  0.0924 -0.3308
 7720SOL    HW134619   0.436   1.451  12.010 -0.4279 -0.3660  0.7727
 7720SOL    HW234620   0.577   1.451  12.050 -0.8689  0.7347  2.2631
 7721SOL     OW34621   2.489   0.968  14.815  0.5242  0.3721 -0.0140
 7721SOL    HW134622   2.424   0.910  14.855  1.1247 -0.6352 -0.4994
 7721SOL    HW234623   2.431   1.025  14.765 -1.0161 -0.1183  1.1752
 7722SOL     OW34624   2.600   2.277   4.019  0.1666 -0.0067  0.7853
 7722SOL    HW134625   2.616   2.331   3.942  1.2294  2.4067  2.7264
 7722SOL    HW234626   2.558   2.350   4.064 -0.5896 -0.3115  0.5933
 7723SOL     OW34627   4.156   3.660   9.734  0.3255  0.0066  0.5555
 7723SOL    HW134628   4.249   3.642   9.748  0.0391 -1.8509  0.0601
 7723SOL    HW234629   4.128   3.706   9.813  3.4292  0.4682  1.3787
 7724SOL     OW34630   2.901   1.628   4.635  0.0965  0.1793  0.1641
 7724SOL    HW134631   2.911   1.657   4.544 -5.4470 -0.0285 -0.5583
 7724SOL    HW234632   2.966   1.560   4.649  2.7272  2.4212 -1.0245
 7725SOL     OW34633   3.953   0.501  10.549  0.1600 -0.5020 -0.1739
 7725SOL    HW134634   4.003   0.487  10.468 -0.3813 -0.3389 -0.5350
 7725SOL    HW234635   4.023   0.491  10.613  0.3336 -0.4730 -0.3568
 7726SOL     OW34636   3.177   2.543   8.537  0.1392  0.6049 -0.0861
 7726SOL    HW134637   3.193   2.460   8.492 -0.9199 -0.2576  1.1392
 7726SOL    HW234638   3.082   2.542   8.540  0.0587  0.0218 -2.6448
 7727SOL     OW34639   3.536   3.751   3.229 -0.5030 -0.1689 -0.0692
 7727SOL    HW134640   3.527   3.705   3.312 -1.1450  1.0724  0.5327
 7727SOL    HW234641   3.445   3.779   3.223 -0.5401 -0.8006 -2.5106
 7728SOL     OW34642   4.367   2.962   4.380 -0.4129  0.6019 -0.4639
 7728SOL    HW134643   4.425   2.900   4.422 -0.7280  0.5601 -0.0890
 7728SOL    HW234644   4.322   3.003   4.454 -2.1763  1.1304 -1.7925
 7729SOL     OW34645   2.420   0.336   6.858  0.3346  0.7094 -0.4985
 7729SOL    HW134646   2.451   0.385   6.934 -0.8243 -0.1363  0.5264
 7729SOL    HW234647   2.503   0.305   6.822  1.7129 -0.2080  3.4303
 7730SOL     OW34648   0.924   0.991   1.639 -0.5114 -0.2360 -0.8899
 7730SOL    HW134649   0.848   1.031   1.596 -0.5212  0.5323 -0.1485
 7730SOL    HW234650   0.937   1.042   1.719  0.4958  1.7241 -2.3039
 7731SOL     OW34651   3.453   1.829   1.607  0.0011 -0.8210  0.3141
 7731SOL    HW134652   3.433   1.913   1.566  1.9414 -0.6500 -0.2569
 7731SOL    HW234653   3.521   1.803   1.545  2.4890  1.5641  2.0646
 7732SOL     OW34654   4.159   3.243   3.830 -0.5028 -0.0609  0.4250
 7732SOL    HW134655   4.243   3.288   3.827 -0.7940  0.4197 -0.4938
 7732SOL    HW234656   4.173   3.177   3.898  2.9763 -0.5197 -0.7311
 7733SOL     OW34657   4.323   0.184   6.160 -0.4091  0.1750  0.0377
 7733SOL    HW134658   4.240   0.142   6.180  1.0172 -2.5091  0.4085
 7733SOL    HW234659   4.313   0.200   6.067  1.0931 -2.7657 -0.6436
 7734SOL     OW34660   0.786   4.547  11.138 -0.1822  0.1960 -0.8270
 7734SOL    HW134661   0.805   4.576  11.228 -1.0636 -0.7085 -0.3558
 7734SOL    HW234662   0.857   4.589  11.089  1.3015 -1.4367 -0.1009
 7735SOL     OW34663   2.068   0.312  15.769  0.2068 -0.0330 -0.8787
 7735SOL    HW134664   2.049   0.268  15.852  0.7008 -0.9706 -1.2608
 7735SOL    HW234665   2.048   0.235  15.715 -1.3949 -1.4318  1.6905
 7736SOL     OW34666   0.421   0.230  16.960 -0.2772 -0.1671  0.1340
 7736SOL    HW134667   0.470   0.294  16.908 -3.1386  1.1085 -1.0434
 7736SOL    HW234668   0.457   0.146  16.932  0.3490  0.0748  0.2171
 7737SOL     OW34669   1.275   0.024   5.245  0.2325 -0.2118 -0.2940
 7737SOL    HW134670   1.191   0.059   5.215  0.3483  2.3468  2.4144
 7737SOL    HW234671   1.257   4.655   5.241  0.1036 -0.1323 -1.4331
 7738SOL     OW34672   4.276   4.424   1.059  0.0638  0.1845  0.2475
 7738SOL    HW134673   4.235   4.510   1.071  1.1145  0.7669 -0.3757
 7738SOL    HW234674   4.344   4.449   0.997  0.6809 -2.2716 -0.0622
 7739SOL     OW34675   1.970   2.984   7.391  0.3250  0.0514 -0.1121
 7739SOL    HW134676   1.924   3.026   7.318 -0.3718 -0.9104 -0.2261
 7739SOL    HW234677   1.966   3.058   7.451  0.2127 -1.4740  1.7483
 7740SOL     OW34678   3.519   3.431   8.765 -0.2462  0.2054  0.2206
 7740SOL    HW134679   3.477   3.392   8.689 -0.1418  0.3016  0.1120
 7740SOL    HW234680   3.524   3.525   8.746 -1.3073 -0.4494 -3.1065
 7741SOL     OW34681   3.470   2.860   1.292 -0.1907 -0.0551  0.6014
 7741SOL    HW134682   3.398   2.802   1.266  0.7764 -1.1327  0.3749
 7741SOL    HW234683   3.537   2.793   1.289  0.6295  0.6699  2.9644
 7742SOL     OW34684   0.842   0.268  16.387  0.2112  0.7244 -0.0741
 7742SOL    HW134685   0.810   0.179  16.402 -0.7594  1.2350  0.8742
 7742SOL    HW234686   0.871   0.255  16.297  2.1228  0.0316  0.6506
 7743SOL     OW34687   3.945   2.463   7.995  0.0711  0.6965  0.3623
 7743SOL    HW134688   3.974   2.465   8.087  2.6536 -0.5073 -0.4118
 7743SOL    HW234689   4.002   2.392   7.966  2.2688  2.4836  0.2639
 7744SOL     OW34690   3.402   2.674   8.681  0.0682 -0.3530  0.0897
 7744SOL    HW134691   3.468   2.611   8.709 -0.7381 -0.5129  1.6101
 7744SOL    HW234692   3.339   2.621   8.632  1.7814 -4.4928  2.3935
 7745SOL     OW34693   1.573   2.393  14.945  0.1488  0.1893 -0.6279
 7745SOL    HW134694   1.553   2.487  14.942  0.1530  0.2446  1.2969
 7745SOL    HW234695   1.492   2.354  14.912 -0.4328  1.5921 -0.8838
 7746SOL     OW34696   0.902   0.956   0.791  0.5838 -0.6161  0.2942
 7746SOL    HW134697   0.929   0.866   0.773  3.5859  0.5735 -1.1828
 7746SOL    HW234698   0.991   0.991   0.786  0.5227 -0.4620  0.2809
 7747SOL     OW34699   0.228   0.767  14.966 -0.0408 -0.2279  0.6218
 7747SOL    HW134700   0.299   0.721  15.011 -0.2267 -2.0581 -0.9857
 7747SOL    HW234701   0.239   0.854  15.004  3.2029 -0.3146 -0.1221
 7748SOL     OW34702   0.396   2.079  11.208  0.0587  0.1439  0.1726
 7748SOL    HW134703   0.401   2.059  11.114  0.1060  1.0060 -0.0072
 7748SOL    HW234704   0.382   2.174  11.206  2.1759  0.4538 -0.3524
 7749SOL     OW34705   0.622   3.985   6.270  0.0933 -0.1447  0.5334
 7749SOL    HW134706   0.630   3.957   6.178  0.3679  0.4183  0.3851
 7749SOL    HW234707   0.593   4.076   6.257 -0.1700 -0.2667  0.2602
 7750SOL     OW34708   2.383   2.913   1.228 -0.4256  0.5907  0.0009
 7750SOL    HW134709   2.306   2.864   1.200 -0.1341  1.0404 -1.5717
 7750SOL    HW234710   2.376   2.897   1.322 -0.9367  1.6805  0.1427
 7751SOL     OW34711   4.319   2.211   8.722 -0.0599 -0.1344 -0.2701
 7751SOL    HW134712   4.356   2.276   8.662 -2.2960  2.1277  0.7829
 7751SOL    HW234713   4.402   2.164   8.733 -0.0768 -0.2013 -0.4402
 7752SOL     OW34714   2.371   2.242  11.574 -0.1262 -0.0275 -0.4225
 7752SOL    HW134715   2.315   2.170  11.544 -0.5565  0.6921 -1.3518
 7752SOL    HW234716   2.389   2.204  11.660 -0.4010  0.5135 -0.1260
 7753SOL     OW34717   1.533   2.407   6.442 -0.1128 -0.3040  0.1215
 7753SOL    HW134718   1.547   2.480   6.381 -1.3909  1.1889  1.5828
 7753SOL    HW234719   1.549   2.340   6.375  0.2511  1.2299 -1.3383
 7754SOL     OW34720   4.061   1.931   2.662 -0.1396  0.4652 -0.4749
 7754SOL    HW134721   3.979   1.932   2.614 -0.6026 -0.5841  0.2859
 7754SOL    HW234722   4.127   1.945   2.594 -1.1795 -0.1094 -1.5889
 7755SOL     OW34723   4.147   3.550   5.187  0.2789  0.2878  0.4585
 7755SOL    HW134724   4.174   3.638   5.161  1.3955 -0.0982  0.3360
 7755SOL    HW234725   4.198   3.503   5.121  1.4639  0.7008  1.0752
 7756SOL     OW34726   3.576   4.497   2.080 -0.1710  0.1547  0.4762
 7756SOL    HW134727   3.641   4.567   2.083 -0.1632  0.1203  1.1402
 7756SOL    HW234728   3.501   4.537   2.035 -1.2986 -0.6060  1.6680
 7757SOL     OW34729   4.039   3.466   1.943  0.4464 -0.6370  0.1456
 7757SOL    HW134730   4.094   3.392   1.970  0.7272 -1.1766 -1.9130
 7757SOL    HW234731   3.998   3.418   1.871 -0.4883  1.2985 -0.6099
 7758SOL     OW34732   3.107   0.157   7.036  0.2649  0.1924  0.1134
 7758SOL    HW134733   3.044   0.160   7.108 -1.3254 -0.6055 -1.2444
 7758SOL    HW234734   3.106   0.245   6.998 -0.9523  0.3319  0.4576
 7759SOL     OW34735   4.277   3.034   4.915 -0.0460 -0.1613  0.1467
 7759SOL    HW134736   4.260   3.018   5.008  1.3963  0.0133  0.4428
 7759SOL    HW234737   4.207   2.980   4.880  2.1141 -0.6539 -3.3691
 7760SOL     OW34738   1.339   3.960   1.473  0.3857  0.8945 -0.1330
 7760SOL    HW134739   1.307   3.901   1.541 -0.0102  1.2969  0.0311
 7760SOL    HW234740   1.431   3.975   1.492  0.3396  1.2013 -0.1474
 7761SOL     OW34741   2.976   0.607   6.558  0.1856 -0.5616  0.1990
 7761SOL    HW134742   2.888   0.620   6.594  0.3813 -0.4775  0.6414
 7761SOL    HW234743   3.023   0.576   6.635  0.4198 -2.5946 -0.7437
 7762SOL     OW34744   2.660   0.694   5.229 -0.7491  0.1740 -0.1955
 7762SOL    HW134745   2.596   0.629   5.201 -0.0702 -0.2449 -0.7939
 7762SOL    HW234746   2.618   0.740   5.301 -0.9110 -0.2571 -0.0220
 7763SOL     OW34747   4.160   1.671   6.584  0.2775  0.0505 -0.1296
 7763SOL    HW134748   4.070   1.640   6.574  0.3171 -0.5785  1.5624
 7763SOL    HW234749   4.202   1.595   6.543 -2.3450 -1.1766 -0.5709
 7764SOL     OW34750   2.036   2.510   4.095  0.0567 -0.3657  0.0516
 7764SOL    HW134751   2.013   2.591   4.141 -0.7206 -1.7336  2.0417
 7764SOL    HW234752   1.954   2.462   4.096 -0.6861  0.8860  0.0408
 7765SOL     OW34753   2.551   0.591  11.637 -0.4895 -0.0390  0.2286
 7765SOL    HW134754   2.483   0.536  11.598 -1.3416  0.2563  1.2923
 7765SOL    HW234755   2.575   0.540  11.714  0.1645 -0.7544 -0.4519
 7766SOL     OW34756   3.598   1.260  17.282 -0.1279 -0.1811 -0.0129
 7766SOL    HW134757   3.632   1.326  17.342 -0.8091  0.0779  0.0905
 7766SOL    HW234758   3.672   1.200  17.278 -0.8048 -0.9540 -0.9574
 7767SOL     OW34759   3.188   3.939   5.528 -0.0002  0.2313  0.5939
 7767SOL    HW134760   3.154   4.001   5.463  2.4976  0.5241 -0.4271
 7767SOL    HW234761   3.211   3.990   5.605  0.8755  0.9078 -0.1143
 7768SOL     OW34762   4.292   2.473   7.310 -0.0185 -0.1948  0.1304
 7768SOL    HW134763   4.381   2.443   7.332 -0.4610  0.6894  3.1455
 7768SOL    HW234764   4.280   2.428   7.227  0.8959 -4.5510  2.3935
 7769SOL     OW34765   1.771   3.308  11.914  0.4033 -0.0654  0.2487
 7769SOL    HW134766   1.679   3.284  11.905  0.2694  0.6926 -0.3628
 7769SOL    HW234767   1.803   3.248  11.846  0.0709 -0.0716  0.1008
 7770SOL     OW34768   1.795   2.752  11.048  0.0419 -0.0463  0.1900
 7770SOL    HW134769   1.783   2.753  11.142  1.7385 -2.4539  0.4418
 7770SOL    HW234770   1.830   2.841  11.039 -0.0226  0.2396  2.9146
 7771SOL     OW34771   2.181   0.765   4.187  0.1477  0.0994 -0.6757
 7771SOL    HW134772   2.130   0.768   4.268 -0.3012 -2.1435 -0.8600
 7771SOL    HW234773   2.267   0.742   4.222 -0.5920  1.0425  1.7460
 7772SOL     OW34774   2.087   4.092   5.104  0.4326  0.2312 -0.0651
 7772SOL    HW134775   2.146   4.036   5.052 -1.8488 -0.7446 -1.5894
 7772SOL    HW234776   2.137   4.174   5.099  0.9966 -0.1561 -0.8508
 7773SOL     OW34777   0.567   3.938  14.271  0.4638 -0.6101 -0.9046
 7773SOL    HW134778   0.592   3.976  14.187 -1.3432 -2.2046 -2.1593
 7773SOL    HW234779   0.488   3.889  14.246 -0.1299  0.1957 -0.6202
 7774SOL     OW34780   0.375   0.311   7.054  0.1518 -0.8688  0.4688
 7774SOL    HW134781   0.317   0.384   7.075  2.0951 -0.3470  3.9515
 7774SOL    HW234782   0.347   0.243   7.114 -0.0861  2.0292  3.6421
 7775SOL     OW34783   1.223   0.766  10.167 -0.0105  0.4726 -0.3685
 7775SOL    HW134784   1.200   0.707  10.239 -0.8546 -1.4707 -2.2504
 7775SOL    HW234785   1.204   0.846  10.216 -0.7685 -0.7855  1.4304
 7776SOL     OW34786   0.881   1.322  14.758 -0.0384 -0.0671  0.2224
 7776SOL    HW134787   0.880   1.287  14.847  0.5869 -0.6893 -0.0096
 7776SOL    HW234788   0.940   1.271  14.703 -0.0525  2.2190 -1.8712
 7777SOL     OW34789   3.270   0.925   2.662  0.2000  0.4551 -0.3941
 7777SOL    HW134790   3.194   0.942   2.717 -0.7678 -1.3734 -1.1641
 7777SOL    HW234791   3.324   0.879   2.726  1.7391  0.9777 -1.3194
 7778SOL     OW34792   4.212   3.580   4.600  0.2133  0.1683  0.1583
 7778SOL    HW134793   4.270   3.536   4.539 -0.1618 -1.3413  0.8898
 7778SOL    HW234794   4.250   3.545   4.681  0.9179 -1.6894 -0.9774
 7779SOL     OW34795   3.754   0.270   3.572  0.2200  0.1971 -0.6532
 7779SOL    HW134796   3.803   0.199   3.614 -1.7699 -1.0119 -0.3549
 7779SOL    HW234797   3.708   0.312   3.645  2.9208 -1.5713  2.1080
 7780SOL     OW34798   2.752   4.256   7.283 -0.3795  0.1604 -0.3241
 7780SOL    HW134799   2.802   4.175   7.273 -0.2744  0.3496 -1.3516
 7780SOL    HW234800   2.805   4.289   7.356  0.2646  0.5237 -0.9556
 7781SOL     OW34801   3.671   3.587   4.064 -0.1690 -0.4538  0.3529
 7781SOL    HW134802   3.581   3.575   4.094 -0.3615 -0.7882 -0.3684
 7781SOL    HW234803   3.665   3.652   3.994  1.3863  0.0905  0.7086
 7782SOL     OW34804   1.786   1.347   3.127  0.4704  0.5527  0.4824
 7782SOL    HW134805   1.705   1.354   3.178  0.6673 -1.5943  1.0648
 7782SOL    HW234806   1.758   1.289   3.057  0.0624  0.9372  0.3268
 7783SOL     OW34807   3.694   2.987   7.255 -0.3334 -0.1309 -0.5504
 7783SOL    HW134808   3.779   2.994   7.299 -0.5703 -0.6083 -0.0082
 7783SOL    HW234809   3.654   3.061   7.302  1.2823 -0.7197  1.7332
 7784SOL     OW34810   4.358   0.617  16.641 -0.6821  0.3198 -0.2495
 7784SOL    HW134811   4.340   0.523  16.646  2.2727 -0.2260  0.3614
 7784SOL    HW234812   4.447   0.609  16.677  0.1058  1.8817 -1.8059
 7785SOL     OW34813   4.201   1.633   8.663  0.6296 -0.0560  0.0690
 7785SOL    HW134814   4.264   1.677   8.605 -1.0766  1.2975 -0.7769
 7785SOL    HW234815   4.206   1.701   8.730  1.4363  1.0309 -1.0672
 7786SOL     OW34816   1.782   1.041   8.508  0.0647 -0.1603  0.8078
 7786SOL    HW134817   1.793   1.136   8.504 -0.5732 -0.0822  1.0052
 7786SOL    HW234818   1.809   1.018   8.419 -3.7952 -0.7873 -0.1625
 7787SOL     OW34819   2.500   1.623   7.511  0.5303 -0.3272  0.2127
 7787SOL    HW134820   2.592   1.613   7.489  0.4537 -0.2543 -0.1412
 7787SOL    HW234821   2.473   1.699   7.460  0.1385 -1.1218 -0.7576
 7788SOL     OW34822   2.794   2.210   8.643 -0.0364 -0.2068  1.0856
 7788SOL    HW134823   2.794   2.119   8.672 -2.0054 -1.6691 -3.4678
 7788SOL    HW234824   2.700   2.225   8.647  0.6658  4.7142 -0.8454
 7789SOL     OW34825   0.819   4.453   5.478 -0.4771  0.4120  0.0157
 7789SOL    HW134826   0.837   4.545   5.498  0.4203  1.0698 -3.6590
 7789SOL    HW234827   0.804   4.464   5.384 -3.2484 -1.7797  0.2138
 7790SOL     OW34828   0.286   0.780   3.135  0.0079  0.7721 -0.3023
 7790SOL    HW134829   0.247   0.834   3.204  0.2517  2.6540 -1.6304
 7790SOL    HW234830   0.310   0.852   3.077  0.7659  0.6128 -0.1873
 7791SOL     OW34831   3.836   1.491   5.312  0.2032 -0.1574  0.3935
 7791SOL    HW134832   3.889   1.525   5.240  0.0540 -0.7271  0.0181
 7791SOL    HW234833   3.805   1.405   5.287 -2.6436  0.2891  2.3772
 7792SOL     OW34834   1.801   1.658  10.078  0.2646  0.0894 -0.4589
 7792SOL    HW134835   1.722   1.707  10.098 -0.1983 -0.9248  0.1569
 7792SOL    HW234836   1.776   1.574  10.117 -0.2371  1.4066  1.9989
 7793SOL     OW34837   1.269   2.236   0.119 -0.7872 -0.0139  0.0994
 7793SOL    HW134838   1.259   2.242   0.024  0.6571  3.3365  0.1706
 7793SOL    HW234839   1.199   2.174   0.140  1.1653 -2.1549  0.2165
 7794SOL     OW34840   1.912   3.982   1.062 -0.4006 -0.1212  0.3358
 7794SOL    HW134841   1.825   3.972   1.100 -0.5933  0.4017  0.0396
 7794SOL    HW234842   1.910   3.894   1.023 -2.2787  1.7884 -3.9416
 7795SOL     OW34843   3.523   0.889   7.512  1.0452 -0.3672  0.0429
 7795SOL    HW134844   3.428   0.889   7.506  0.8093  1.0481  3.6230
 7795SOL    HW234845   3.527   0.931   7.598 -1.3274  1.3787 -0.7157
 7796SOL     OW34846   1.964   2.845   4.759  0.3970  0.2915  0.0535
 7796SOL    HW134847   1.879   2.864   4.719  0.1779  2.2467  1.4648
 7796SOL    HW234848   1.961   2.911   4.828 -0.8439  1.2066 -0.8820
 7797SOL     OW34849   0.188   0.731   4.553 -0.3852  0.1752  0.2920
 7797SOL    HW134850   0.262   0.671   4.544 -0.4747  0.0825  0.1815
 7797SOL    HW234851   0.188   0.778   4.470 -3.1143  2.4674  1.5946
 7798SOL     OW34852   0.127   2.050   8.818 -0.4641 -0.1518 -0.2448
 7798SOL    HW134853   0.095   1.984   8.880  0.3948 -1.5814 -1.3132
 7798SOL    HW234854   0.199   2.084   8.872 -0.4441  0.1160 -0.4388
 7799SOL     OW34855   1.953   1.358  10.713 -0.3953  0.0001 -0.4113
 7799SOL    HW134856   1.921   1.285  10.765  3.4553 -0.2157  1.6426
 7799SOL    HW234857   1.871   1.384  10.672 -0.3046  0.0137 -0.5854
 7800SOL     OW34858   1.819   0.639   4.767  0.1948  0.6328 -0.1469
 7800SOL    HW134859   1.839   0.725   4.729  1.5736  0.0059 -0.8036
 7800SOL    HW234860   1.758   0.678   4.831  1.6577 -1.2407  2.3757
 7801SOL     OW34861   1.575   2.609   6.265 -0.5514  0.0802 -0.6225
 7801SOL    HW134862   1.503   2.641   6.211 -2.4411 -1.2844  1.0815
 7801SOL    HW234863   1.614   2.695   6.282  1.5537 -0.5711 -2.0799
 7802SOL     OW34864   1.464   0.151   4.200  0.0155 -0.5780  0.7187
 7802SOL    HW134865   1.512   0.210   4.258  1.0822  0.2950 -1.0606
 7802SOL    HW234866   1.540   0.123   4.148  1.4774  3.4185  0.6503
 7803SOL     OW34867   2.493   2.617   0.153  0.7403 -0.4467  0.2009
 7803SOL    HW134868   2.497   2.603   0.247  1.3450  2.2874  0.5668
 7803SOL    HW234869   2.557   2.547   0.138 -0.3303 -1.2882 -0.4368
 7804SOL     OW34870   1.644   2.427   7.494  0.1000 -0.1363  0.3314
 7804SOL    HW134871   1.662   2.367   7.422 -0.0706  0.3720 -0.1303
 7804SOL    HW234872   1.652   2.369   7.570 -0.9144  3.5062  3.2154
 7805SOL     OW34873   1.566   0.936   7.438 -0.0135  0.1383 -0.5030
 7805SOL    HW134874   1.581   0.977   7.353 -2.2264  2.3143  0.1482
 7805SOL    HW234875   1.478   0.971   7.453 -1.2245 -2.8165 -0.6526
 7806SOL     OW34876   1.925   0.333   6.645  0.2271 -0.2373 -0.0358
 7806SOL    HW134877   1.968   0.340   6.559  1.2966 -1.2612  0.4237
 7806SOL    HW234878   1.963   0.404   6.696 -0.3440  0.6202 -0.7914
 7807SOL     OW34879   0.840   3.647   6.823  0.1155 -0.9066 -0.0746
 7807SOL    HW134880   0.852   3.603   6.739 -0.5255 -1.9418  0.3709
 7807SOL    HW234881   0.882   3.590   6.888  0.2496  0.9619  1.4527
 7808SOL     OW34882   4.618   0.562  13.779  0.0896  0.1969  0.3416
 7808SOL    HW134883   4.672   0.501  13.830  0.3630 -1.0304 -1.4112
 7808SOL    HW234884   4.567   0.492  13.736  1.2159  0.2747 -1.1328
 7809SOL     OW34885   2.006   0.723   1.826 -0.1345  0.7506  0.0257
 7809SOL    HW134886   2.022   0.674   1.906  0.4842  0.6064 -0.1800
 7809SOL    HW234887   1.914   0.743   1.837 -0.4564  0.2791 -1.7389
 7810SOL     OW34888   1.850   1.012  17.033  0.1190  0.1574 -0.2573
 7810SOL    HW134889   1.764   1.035  17.069  0.9602  0.6637  1.4374
 7810SOL    HW234890   1.845   1.001  16.939 -1.2289  2.1539 -0.4334
 7811SOL     OW34891   0.841   3.087   2.971 -0.3641 -0.0777  0.7315
 7811SOL    HW134892   0.862   3.011   2.917 -2.8843 -0.2330 -0.0221
 7811SOL    HW234893   0.879   3.067   3.056  1.3234  1.2244  0.2889
 7812SOL     OW34894   1.431   1.585   3.146 -0.3676 -0.6513  0.1656
 7812SOL    HW134895   1.371   1.516   3.174 -0.1515 -1.4985 -1.4295
 7812SOL    HW234896   1.412   1.647   3.216  1.3388 -0.3176  0.3347
 7813SOL     OW34897   1.768   1.214   6.671  0.3380  0.2409  0.0369
 7813SOL    HW134898   1.693   1.238   6.617 -1.0346 -2.0803  0.9288
 7813SOL    HW234899   1.714   1.175   6.740 -2.0880 -0.3717 -2.1972
 7814SOL     OW34900   1.511   1.046  16.198 -0.6817  0.3816 -0.3332
 7814SOL    HW134901   1.489   1.014  16.111 -1.3061 -0.9661  0.3165
 7814SOL    HW234902   1.596   1.085  16.184  0.1230 -1.7900 -1.5531
 7815SOL     OW34903   0.616   2.403   8.689 -0.3500  0.1153 -0.1063
 7815SOL    HW134904   0.597   2.362   8.774 -0.2571 -2.4670 -1.3419
 7815SOL    HW234905   0.595   2.495   8.705  1.2913  0.2728  1.1568
 7816SOL     OW34906   2.034   0.803  14.960  0.5926  0.4245  0.7093
 7816SOL    HW134907   1.948   0.832  14.929 -0.7075 -1.4970  2.5161
 7816SOL    HW234908   2.013   0.715  14.992  1.0295 -0.0348 -0.2429
 7817SOL     OW34909   1.051   3.038   8.906  0.2868 -0.1269  0.3009
 7817SOL    HW134910   1.060   2.987   8.825 -1.2868 -1.1125  0.7546
 7817SOL    HW234911   1.028   3.119   8.861 -0.3811 -0.0241  0.8313
 7818SOL     OW34912   0.466   0.421  16.774 -0.9594  0.5069 -0.1028
 7818SOL    HW134913   0.526   0.378  16.715 -0.9377  1.6942 -0.9438
 7818SOL    HW234914   0.421   0.471  16.706  0.7535 -1.8598 -2.9845
 7819SOL     OW34915   4.679   4.244   2.406 -0.5340  0.1330  0.1388
 7819SOL    HW134916   0.032   4.190   2.400 -1.7735 -1.7238  0.9338
 7819SOL    HW234917   4.699   4.302   2.333 -0.2771  0.0940  0.1769
 7820SOL     OW34918   1.276   1.878  12.675  0.3206  0.4287  0.2118
 7820SOL    HW134919   1.324   1.796  12.686  0.6134  0.6829  0.8289
 7820SOL    HW234920   1.271   1.881  12.580 -1.3122  0.9966  0.3096
 7821SOL     OW34921   4.217   2.312   3.633  0.1363 -0.2831  0.8978
 7821SOL    HW134922   4.259   2.396   3.652 -0.0437  0.6241 -2.5982
 7821SOL    HW234923   4.291   2.256   3.611 -0.1751  0.8633 -3.1394
 7822SOL     OW34924   2.571   3.052   1.955  0.1621  0.1307 -0.3813
 7822SOL    HW134925   2.497   2.993   1.970 -1.0038  1.7861  0.3795
 7822SOL    HW234926   2.574   3.115   2.027 -5.0256 -0.7208  0.5328
 7823SOL     OW34927   3.917   4.173   5.452 -0.7571 -0.2882  0.3610
 7823SOL    HW134928   3.967   4.091   5.454 -1.2591 -0.5864  0.6291
 7823SOL    HW234929   3.883   4.172   5.363  1.7392  2.9978 -0.6299
 7824SOL     OW34930   2.637   0.996   6.937  0.0834 -0.1692 -0.9991
 7824SOL    HW134931   2.720   1.039   6.956 -0.8062  0.5616  1.3128
 7824SOL    HW234932   2.565   1.046   6.975 -1.2049 -2.0397 -0.9554
 7825SOL     OW34933   1.496   1.689   4.540  0.5018 -0.3725  0.2966
 7825SOL    HW134934   1.435   1.615   4.538  1.3561 -1.0995  1.0917
 7825SOL    HW234935   1.538   1.686   4.625  0.6838  3.3513  0.3333
 7826SOL     OW34936   1.070   4.407  11.267 -0.8390  0.2417  0.4219
 7826SOL    HW134937   1.118   4.409  11.184 -0.6193 -0.4062  0.5376
 7826SOL    HW234938   1.111   4.478  11.316 -0.9637  1.6517 -1.4918
 7827SOL     OW34939   0.788   4.105   7.789  0.0089  0.2503 -0.0916
 7827SOL    HW134940   0.862   4.109   7.728 -0.5509 -0.1661 -0.8039
 7827SOL    HW234941   0.834   4.112   7.873 -1.2556 -0.6656  0.6618
 7828SOL     OW34942   4.214   3.943   5.018  0.2299 -0.2742 -0.5144
 7828SOL    HW134943   4.146   3.898   5.066  0.7582 -1.3885 -0.7969
 7828SOL    HW234944   4.270   3.866   5.005  2.0890  0.7200  1.4978
 7829SOL     OW34945   4.283   0.377  17.389 -0.0161  0.0105 -1.2297
 7829SOL    HW134946   4.193   0.405  17.405  0.1700 -0.9761  1.4684
 7829SOL    HW234947   4.314   0.401  17.476  3.0501 -0.4341 -2.1848
 7830SOL     OW34948   2.545   4.051   3.728  1.3831  0.1522  0.3276
 7830SOL    HW134949   2.631   4.061   3.768  0.9139 -0.8925  1.6070
 7830SOL    HW234950   2.488   4.072   3.801 -2.0085 -2.5376 -1.5473
 7831SOL     OW34951   3.819   0.460  11.769 -0.3429  0.1128  0.1278
 7831SOL    HW134952   3.787   0.545  11.738 -1.0897 -0.8249 -1.6494
 7831SOL    HW234953   3.871   0.436  11.693 -0.4920 -0.4441  0.2036
 7832SOL     OW34954   3.642   0.374  16.848  0.9386 -0.1154  0.4653
 7832SOL    HW134955   3.628   0.407  16.760  1.3404  1.9875  1.1945
 7832SOL    HW234956   3.673   0.449  16.899 -2.5444  1.6960 -0.1639
 7833SOL     OW34957   1.223   2.637  15.261  0.3358 -0.4956 -0.2110
 7833SOL    HW134958   1.290   2.687  15.308  0.5980 -1.1272  0.0849
 7833SOL    HW234959   1.217   2.688  15.180 -0.1904  1.9985  1.4080
 7834SOL     OW34960   3.696   1.509   5.538  0.5537  0.5552  0.2865
 7834SOL    HW134961   3.731   1.494   5.451  2.5529 -1.8886  1.5188
 7834SOL    HW234962   3.661   1.598   5.534 -1.0350 -0.0218  1.0152
 7835SOL     OW34963   4.256   1.735  10.806  0.7727 -0.3956  0.2604
 7835SOL    HW134964   4.323   1.708  10.745  0.7143 -1.3876  0.6335
 7835SOL    HW234965   4.302   1.706  10.885  2.7496 -1.7732 -1.4044
 7836SOL     OW34966   2.428   4.469   8.193  0.2061 -0.0928 -0.0326
 7836SOL    HW134967   2.337   4.446   8.210  0.2295  1.3051  2.0336
 7836SOL    HW234968   2.415   4.520   8.113 -0.1477 -2.4380 -1.4646
 7837SOL     OW34969   4.045   1.804   8.355 -0.1148 -0.1482  0.4098
 7837SOL    HW134970   4.141   1.806   8.359 -0.0443 -0.9506 -0.8050
 7837SOL    HW234971   4.042   1.730   8.294  0.3420  2.0063 -2.2399
 7838SOL     OW34972   0.535   0.227  13.492  0.0817  0.4457 -0.0178
 7838SOL    HW134973   0.582   0.175  13.427 -1.7701  0.6885 -1.5718
 7838SOL    HW234974   0.467   0.265  13.437  0.4423 -0.2511 -0.9407
 7839SOL     OW34975   3.370   3.756  17.607 -0.0103 -0.3574  0.7100
 7839SOL    HW134976   3.333   3.830  17.559  3.6368  0.2051 -1.2170
 7839SOL    HW234977   3.287   3.716  17.633 -0.8501 -0.9554 -2.8110
 7840SOL     OW34978   0.651   0.620  11.216 -0.3463  0.3619 -0.0019
 7840SOL    HW134979   0.606   0.656  11.292 -1.8305 -0.7032 -0.3647
 7840SOL    HW234980   0.744   0.635  11.235  0.2555 -0.9729 -1.9158
 7841SOL     OW34981   0.373   3.659   5.619  0.2504 -0.1257  0.5092
 7841SOL    HW134982   0.363   3.670   5.525  0.9640 -1.1526  0.3242
 7841SOL    HW234983   0.291   3.621   5.651 -0.0265  1.0985  1.2746
 7842SOL     OW34984   4.172   0.654   9.070 -0.1664  0.2990 -0.1551
 7842SOL    HW134985   4.166   0.627   9.161  1.3716 -1.8228 -0.6838
 7842SOL    HW234986   4.253   0.703   9.077 -2.0191  3.3588 -0.0955
 7843SOL     OW34987   2.920   4.272  13.205  0.5583 -0.0445 -0.2088
 7843SOL    HW134988   2.894   4.364  13.196  0.1979 -0.0060  1.2628
 7843SOL    HW234989   2.844   4.227  13.242  0.8526  0.9369  1.5479
 7844SOL     OW34990   2.228   1.954   0.024  0.2480 -0.0106 -0.2244
 7844SOL    HW134991   2.231   1.884  17.662  2.6678  0.4566 -0.6117
 7844SOL    HW234992   2.163   1.914   0.082 -1.4413  0.7975 -1.5531
 7845SOL     OW34993   0.123   3.097   7.800 -0.8416  0.5555 -0.5352
 7845SOL    HW134994   0.095   3.055   7.882  0.9509  0.3284 -0.0410
 7845SOL    HW234995   0.100   3.018   7.752 -2.1946  2.4666 -3.0054
 7846SOL     OW34996   3.091   3.626   0.631 -0.3616 -0.4500 -0.3700
 7846SOL    HW134997   3.095   3.714   0.592  3.3068  1.1029  3.5165
 7846SOL    HW234998   3.048   3.643   0.715 -1.9877 -0.6657 -1.1459
 7847SOL     OW34999   1.843   2.376   2.077  0.5922 -0.0212  0.6152
 7847SOL    HW135000   1.853   2.281   2.069  2.6811  0.3789 -1.5770
 7847SOL    HW235001   1.929   2.407   2.050  0.1316  1.0267  0.3489
 7848SOL     OW35002   2.599   2.752   8.193 -0.6932 -0.4626  0.2419
 7848SOL    HW135003   2.511   2.763   8.156 -2.6964 -0.8094  4.8162
 7848SOL    HW235004   2.631   2.839   8.168  0.2633 -0.9558 -0.2256
 7849SOL     OW35005   1.889   4.207   7.392  0.0711 -0.3043 -0.0280
 7849SOL    HW135006   1.835   4.143   7.346  1.0576  0.3416 -2.1059
 7849SOL    HW235007   1.979   4.190   7.362  0.2932 -0.5915  0.8018
 7850SOL     OW35008   0.540   2.620  10.155  0.4525 -0.7380 -0.3661
 7850SOL    HW135009   0.606   2.577  10.100 -1.2032  0.5515 -3.3874
 7850SOL    HW235010   0.602   2.668  10.209 -1.4428  1.9239 -0.5223
 7851SOL     OW35011   4.020   1.986  16.223 -0.1572  0.1021 -0.6224
 7851SOL    HW135012   4.048   2.076  16.205 -0.7777  0.4931  0.3904
 7851SOL    HW235013   3.941   1.995  16.277 -0.2297 -1.1520 -0.5221
 7852SOL     OW35014   3.871   3.178  17.593 -0.3426 -0.3222  0.3164
 7852SOL    HW135015   3.887   3.084  17.587 -0.7130 -0.5298  2.5234
 7852SOL    HW235016   3.780   3.180  17.623 -0.7730 -2.4174 -0.7988
 7853SOL     OW35017   3.111   2.707   5.135 -0.1047  0.4266  0.5740
 7853SOL    HW135018   3.129   2.614   5.121 -0.0283  0.5535 -0.1557
 7853SOL    HW235019   3.186   2.755   5.099  0.3800  1.2333  2.6777
 7854SOL     OW35020   2.744   3.389   7.115  0.2232  0.5545 -0.1263
 7854SOL    HW135021   2.673   3.356   7.060  0.8009  0.1214 -0.6110
 7854SOL    HW235022   2.757   3.477   7.079  2.2282  0.3050 -0.0005
 7855SOL     OW35023   0.419   2.554   0.640 -0.1305  0.4118  0.2625
 7855SOL    HW135024   0.360   2.613   0.593 -1.4480 -0.8335  0.3301
 7855SOL    HW235025   0.493   2.550   0.579 -2.0049  1.8280 -2.0970
 7856SOL     OW35026   3.239   3.434  15.497  0.1770  0.5261 -0.1156
 7856SOL    HW135027   3.291   3.514  15.489  1.1483 -0.0929  0.0098
 7856SOL    HW235028   3.306   3.371  15.474 -0.0743  1.3786 -3.3349
 7857SOL     OW35029   4.610   4.478   7.284  0.1867 -0.3308 -0.8438
 7857SOL    HW135030   4.603   4.572   7.268 -1.8383 -0.1977  0.7997
 7857SOL    HW235031   4.699   4.469   7.320  0.8959  0.0121 -2.5223
 7858SOL     OW35032   0.402   4.354   2.289  0.0639 -0.2097  0.1025
 7858SOL    HW135033   0.333   4.419   2.274  0.0734  0.2205  1.9196
 7858SOL    HW235034   0.445   4.372   2.205  0.1191  0.4004  0.2624
 7859SOL     OW35035   0.246   4.638   3.679  0.1064 -0.6956 -0.2683
 7859SOL    HW135036   0.302   4.647   3.602  1.7212 -1.8498  0.7519
 7859SOL    HW235037   0.240   0.006   3.697 -4.1134 -0.9478 -0.3643
 7860SOL     OW35038   2.692   3.255   4.839 -0.2454 -0.2898 -0.2234
 7860SOL    HW135039   2.610   3.304   4.842 -0.7528 -1.1122 -0.7946
 7860SOL    HW235040   2.665   3.170   4.873 -1.0563  0.2972  0.5721
 7861SOL     OW35041   0.706   4.389   6.354  0.4628 -0.3267  0.3457
 7861SOL    HW135042   0.702   4.485   6.354 -1.6104 -0.4045 -0.5577
 7861SOL    HW235043   0.700   4.359   6.263  0.6079 -0.0869  0.2548
 7862SOL     OW35044   3.700   0.241   4.374 -0.0336 -0.2930 -0.6838
 7862SOL    HW135045   3.752   0.274   4.447  0.5987 -1.3221 -0.6696
 7862SOL    HW235046   3.625   0.300   4.375 -0.1704 -0.4990  1.6421
 7863SOL     OW35047   4.542   2.455   0.776 -0.1997  0.1291 -0.2095
 7863SOL    HW135048   4.464   2.457   0.831  0.8306  0.3530  1.2352
 7863SOL    HW235049   4.512   2.467   0.686  0.5419  0.8695 -0.3607
 7864SOL     OW35050   0.700   1.444  13.416  0.0489 -0.0710 -0.2282
 7864SOL    HW135051   0.663   1.531  13.402  0.1649  0.4084  2.3955
 7864SOL    HW235052   0.695   1.431  13.511  0.2454  3.3761  0.2650
 7865SOL     OW35053   4.156   0.780   1.070 -0.1719  0.4944 -0.4610
 7865SOL    HW135054   4.097   0.781   0.995  1.0214  3.5710 -1.3689
 7865SOL    HW235055   4.095   0.799   1.141  2.9942  1.4914  2.0249
 7866SOL     OW35056   4.048   4.123   3.891  0.3625  0.5978  0.6745
 7866SOL    HW135057   3.963   4.081   3.904  0.8517 -0.9923 -1.1553
 7866SOL    HW235058   4.068   4.082   3.806  2.2903 -0.2963  1.5437
 7867SOL     OW35059   1.459   2.625   0.260  0.3151 -0.4035  0.4244
 7867SOL    HW135060   1.546   2.652   0.229  0.1256  0.2403  0.4348
 7867SOL    HW235061   1.436   2.687   0.330  2.0721 -0.6637  1.2287
 7868SOL     OW35062   1.918   2.546   6.383  0.4653  0.1763 -1.2546
 7868SOL    HW135063   1.969   2.627   6.392 -1.3815  1.0256  1.5792
 7868SOL    HW235064   1.835   2.561   6.428  0.9311 -1.9456  0.2869
 7869SOL     OW35065   3.309   1.745   4.597  0.0758 -0.2956 -0.0696
 7869SOL    HW135066   3.283   1.659   4.565 -0.6146 -0.9453  2.2734
 7869SOL    HW235067   3.405   1.743   4.590  0.0804  2.3762 -0.9532
 7870SOL     OW35068   4.450   1.915   7.015 -0.4593 -0.0007 -0.0371
 7870SOL    HW135069   4.536   1.886   7.044 -0.6878 -1.5397 -0.9352
 7870SOL    HW235070   4.426   1.830   6.980  1.0044 -1.3129  2.1412
 7871SOL     OW35071   1.224   0.250   3.325 -0.2280 -0.2368 -0.3059
 7871SOL    HW135072   1.230   0.165   3.283  3.9105 -0.3726  0.5146
 7871SOL    HW235073   1.173   0.230   3.403  0.5335 -2.2083 -0.3168
 7872SOL     OW35074   1.699   4.572  11.413  0.0071  0.9379 -0.2910
 7872SOL    HW135075   1.641   4.500  11.389  1.7643 -1.1607  1.7468
 7872SOL    HW235076   1.781   4.527  11.435 -0.9617  0.3738  2.0839
 7873SOL     OW35077   3.605   3.668   1.493 -0.4717 -0.0585  0.3592
 7873SOL    HW135078   3.657   3.744   1.467 -1.2837  0.0819 -0.8475
 7873SOL    HW235079   3.601   3.681   1.588  0.7896  1.2391  0.2364
 7874SOL     OW35080   1.217   1.681   9.129  0.3218 -0.3741  0.6040
 7874SOL    HW135081   1.168   1.760   9.151 -0.2367 -0.7438  0.6812
 7874SOL    HW235082   1.252   1.651   9.213  1.4674 -0.2861  0.1616
 7875SOL     OW35083   0.801   2.295  11.018 -0.2302 -0.0937  0.5191
 7875SOL    HW135084   0.867   2.287  10.949  1.2772  0.6505  1.8645
 7875SOL    HW235085   0.726   2.297  10.959 -1.7736 -1.7855  2.4239
 7876SOL     OW35086   4.262   1.684  12.435  0.0654 -0.0382 -0.3241
 7876SOL    HW135087   4.324   1.752  12.407 -0.2044 -0.4281 -1.8662
 7876SOL    HW235088   4.185   1.741  12.426 -0.2885 -0.6537 -1.1184
 7877SOL     OW35089   2.784   0.562   2.772 -0.2784  0.1600  0.1662
 7877SOL    HW135090   2.839   0.540   2.697 -0.6434  0.9646 -0.3473
 7877SOL    HW235091   2.745   0.645   2.742  0.0376 -0.5611 -2.2663
 7878SOL     OW35092   0.622   1.386  14.707  0.0104 -0.4752 -0.3246
 7878SOL    HW135093   0.704   1.339  14.724  0.2716 -0.6210 -2.0143
 7878SOL    HW235094   0.565   1.353  14.776  1.2925 -1.7189  0.1295
 7879SOL     OW35095   2.137   3.115  16.862  0.5429 -0.1505 -0.1930
 7879SOL    HW135096   2.184   3.032  16.853  2.6092  0.8056  1.7245
 7879SOL    HW235097   2.059   3.074  16.900 -0.1507  1.8967  0.5962
 7880SOL     OW35098   3.047   0.635   6.151 -0.3429  0.4755 -0.3573
 7880SOL    HW135099   2.958   0.658   6.179  0.6875  2.7036  1.1574
 7880SOL    HW235100   3.047   0.540   6.142 -0.9849  0.4336  0.0936
 7881SOL     OW35101   3.381   2.275   7.550  0.3562  0.9221 -0.9404
 7881SOL    HW135102   3.398   2.248   7.640  0.5220  1.1820 -0.8928
 7881SOL    HW235103   3.448   2.343   7.547  0.7812  0.5234 -0.6696
 7882SOL     OW35104   2.889   1.444   7.753 -0.1126  0.6217  0.1735
 7882SOL    HW135105   2.881   1.539   7.742 -0.6024  0.3217 -2.0578
 7882SOL    HW235106   2.976   1.441   7.715 -0.5914  0.3674 -0.9171
 7883SOL     OW35107   2.758   1.614  11.942 -0.7756 -0.2643  0.7929
 7883SOL    HW135108   2.716   1.658  11.868  2.1487  1.2926  0.0867
 7883SOL    HW235109   2.684   1.559  11.970 -1.0154 -0.3267  0.0543
 7884SOL     OW35110   2.196   3.745   3.315  0.1656  0.5470 -0.5661
 7884SOL    HW135111   2.103   3.760   3.296  0.3094  2.2622  0.0922
 7884SOL    HW235112   2.218   3.680   3.249  0.4392 -0.5659  0.6193
 7885SOL     OW35113   1.592   1.602   5.593 -0.4340  0.4272 -0.7739
 7885SOL    HW135114   1.576   1.661   5.666 -1.5673 -1.0168  0.1281
 7885SOL    HW235115   1.550   1.654   5.524  1.8869  1.3770 -1.4968
 7886SOL     OW35116   2.874   0.140   3.865  0.0627 -0.2892 -0.6120
 7886SOL    HW135117   2.946   0.202   3.852 -1.5110  1.6954 -0.0093
 7886SOL    HW235118   2.846   0.109   3.779 -1.1128 -1.0504  0.0526
 7887SOL     OW35119   3.408   0.241   8.430 -0.5767 -0.5244  0.3093
 7887SOL    HW135120   3.316   0.268   8.432 -1.2683 -2.8879  0.2127
 7887SOL    HW235121   3.448   0.299   8.495 -0.8052  0.0908 -0.0979
 7888SOL     OW35122   0.112   2.316   7.382 -0.1443 -0.3583 -0.8478
 7888SOL    HW135123   0.032   2.359   7.350 -0.6125 -1.4576 -1.1446
 7888SOL    HW235124   0.181   2.351   7.326  0.6924 -3.5305 -1.7675
 7889SOL     OW35125   2.680   4.084  14.550  0.1739  0.6356  0.8602
 7889SOL    HW135126   2.771   4.075  14.522  0.2580  1.6038  0.8289
 7889SOL    HW235127   2.654   4.009  14.602  2.0341 -0.9757 -0.5609
 7890SOL     OW35128   0.021   0.990   2.713  0.1292 -0.6924  0.1296
 7890SOL    HW135129   4.720   0.946   2.632  0.2458  1.8465 -1.3000
 7890SOL    HW235130   0.074   0.920   2.750 -0.4460 -0.6229  1.0913
 7891SOL     OW35131   3.377   1.998   6.920 -0.2477  0.0118 -0.2844
 7891SOL    HW135132   3.302   2.051   6.947 -0.5034 -0.3124 -0.3638
 7891SOL    HW235133   3.443   2.062   6.891 -0.6862 -0.0584 -1.4591
 7892SOL     OW35134   4.145   4.678   6.391  0.3829 -0.3399 -0.0481
 7892SOL    HW135135   4.144   4.660   6.297  2.3126  0.3792 -0.2217
 7892SOL    HW235136   4.057   4.655   6.418  0.1856 -0.3377 -0.6887
 7893SOL     OW35137   2.026   1.450   8.190  0.1364 -0.3020 -0.4969
 7893SOL    HW135138   2.030   1.432   8.284 -0.6368  0.4743 -0.3172
 7893SOL    HW235139   1.955   1.514   8.193 -1.1449 -1.7075 -0.4427
 7894SOL     OW35140   1.652   4.432   1.848 -0.1582  0.3441 -0.3392
 7894SOL    HW135141   1.574   4.433   1.793  0.1352  0.6946 -0.7471
 7894SOL    HW235142   1.718   4.418   1.780  1.0567  2.6684  0.3830
 7895SOL     OW35143   1.775   4.682   7.790  0.0519  0.3127  0.1377
 7895SOL    HW135144   1.855   4.653   7.833 -0.0770 -0.1857  0.0415
 7895SOL    HW235145   1.702   4.638   7.833  0.2228  0.8935  1.0048
 7896SOL     OW35146   1.876   1.956   5.334  0.1326  0.0633  0.1072
 7896SOL    HW135147   1.832   2.025   5.384 -0.6463 -1.3381  1.3430
 7896SOL    HW235148   1.815   1.888   5.362  1.0101 -1.0581 -0.6971
 7897SOL     OW35149   1.019   2.771  16.564 -0.2398  0.4349  0.0228
 7897SOL    HW135150   1.084   2.767  16.494  0.0470 -0.0550  0.3145
 7897SOL    HW235151   1.030   2.684  16.602  2.3591 -0.1055 -1.9633
 7898SOL     OW35152   1.015   3.363   7.104 -0.1385 -0.0719  0.5623
 7898SOL    HW135153   0.929   3.405   7.113 -0.7042 -0.8915 -1.0018
 7898SOL    HW235154   1.059   3.423   7.044 -2.2358  0.5107 -0.3927
 7899SOL     OW35155   0.086   4.387   8.076  0.3698  0.3441 -0.5059
 7899SOL    HW135156   0.147   4.380   8.002  1.1877  1.8278  0.0267
 7899SOL    HW235157   0.025   4.314   8.066 -1.1369  1.5132  0.0719
 7900SOL     OW35158   0.538   0.547   9.403 -0.0594  0.5528  0.2895
 7900SOL    HW135159   0.627   0.536   9.437 -0.4142  2.2817  1.8322
 7900SOL    HW235160   0.509   0.459   9.425  3.3568 -0.2451  1.6172
 7901SOL     OW35161   1.815   0.354   7.221 -0.1216 -0.3847  0.4631
 7901SOL    HW135162   1.820   0.364   7.126  0.8202  1.0676  0.6702
 7901SOL    HW235163   1.783   0.440   7.249 -0.3978 -0.5824  0.7567
 7902SOL     OW35164   3.329   3.163   3.080 -0.0533  0.7298 -0.0125
 7902SOL    HW135165   3.348   3.252   3.050  1.5605 -0.7098 -3.2241
 7902SOL    HW235166   3.276   3.118   3.014 -0.4600 -2.5078  2.5100
 7903SOL     OW35167   4.182   2.447  12.262  0.0771 -0.7456 -0.0011
 7903SOL    HW135168   4.088   2.450  12.248 -0.2580 -1.6174  2.0663
 7903SOL    HW235169   4.212   2.424  12.174  0.6511  2.4757 -0.6544
 7904SOL     OW35170   1.090   3.927   5.534 -0.0823  0.0419 -0.5957
 7904SOL    HW135171   1.100   3.956   5.625  0.2799 -0.7983 -0.3738
 7904SOL    HW235172   1.089   3.832   5.539 -0.5620  0.0807  0.1092
 7905SOL     OW35173   2.661   3.567   8.773 -0.0083  0.3213 -0.3173
 7905SOL    HW135174   2.745   3.593   8.812  0.1269  2.2460 -1.8920
 7905SOL    HW235175   2.604   3.629   8.820 -0.1793  0.5329 -0.8027
 7906SOL     OW35176   1.245   4.036  13.948  0.1617 -0.2999  0.1011
 7906SOL    HW135177   1.230   4.045  14.043 -0.1092 -2.4606  0.2651
 7906SOL    HW235178   1.162   4.001  13.917  0.5463 -0.0947 -1.1393
 7907SOL     OW35179   2.255   2.485  17.116 -0.8897 -0.2222  0.2642
 7907SOL    HW135180   2.347   2.460  17.119 -0.3199  1.9692  1.0480
 7907SOL    HW235181   2.267   2.575  17.085 -1.4801  0.3891  1.7647
 7908SOL     OW35182   3.467   2.165   7.797  0.4263  0.0854 -0.5380
 7908SOL    HW135183   3.409   2.089   7.805 -0.0095  0.1982 -2.4899
 7908SOL    HW235184   3.475   2.189   7.889 -4.1409  0.6135 -0.2527
 7909SOL     OW35185   0.441   0.927   0.644  0.6602 -0.3025 -0.5333
 7909SOL    HW135186   0.514   0.877   0.606 -1.1921 -2.8826 -0.7257
 7909SOL    HW235187   0.479   1.013   0.658  0.7206 -0.5655  0.9402
 7910SOL     OW35188   0.628   4.583   7.929  0.3957  0.6072 -0.2655
 7910SOL    HW135189   0.594   4.534   8.003 -1.8849  0.7993 -1.2026
 7910SOL    HW235190   0.712   4.540   7.911  0.8196  0.3717  2.3233
 7911SOL     OW35191   0.841   1.433   4.285  0.4596 -0.5404  0.5303
 7911SOL    HW135192   0.761   1.458   4.332 -0.2807  1.4506 -1.8135
 7911SOL    HW235193   0.809   1.353   4.244 -0.6606 -0.1876  0.6902
 7912SOL     OW35194   0.498   0.649   6.120 -0.4533 -0.5057  0.0542
 7912SOL    HW135195   0.554   0.717   6.082 -1.4114 -0.7710 -1.8180
 7912SOL    HW235196   0.559   0.606   6.180  1.4086 -0.0737 -1.5108
 7913SOL     OW35197   1.083   3.381   6.681 -0.1197 -0.0388 -0.1508
 7913SOL    HW135198   1.123   3.333   6.608  1.6315  2.1474 -0.6293
 7913SOL    HW235199   1.155   3.357   6.739 -0.5046  2.4125  1.3406
 7914SOL     OW35200   4.028   4.367   4.986 -0.4022  0.1603  0.2328
 7914SOL    HW135201   4.023   4.437   4.921 -0.0971  1.4283  1.5714
 7914SOL    HW235202   4.075   4.303   4.931  0.3052 -0.2616  1.3311
 7915SOL     OW35203   3.397   0.555   5.447  0.0152  0.3335  0.4876
 7915SOL    HW135204   3.372   0.582   5.535 -0.4143 -2.8486  1.3498
 7915SOL    HW235205   3.332   0.613   5.407 -0.5837 -0.9583 -0.4026
 7916SOL     OW35206   2.487   2.523  10.709 -0.3670 -0.3520  0.2844
 7916SOL    HW135207   2.524   2.485  10.629  0.3296  1.0495 -0.0560
 7916SOL    HW235208   2.552   2.585  10.741 -2.7642  1.4072  1.7917
 7917SOL     OW35209   2.037   2.048  12.248 -0.5042  0.6852 -0.6287
 7917SOL    HW135210   2.049   2.057  12.343 -0.4246  1.5431 -0.7162
 7917SOL    HW235211   2.112   2.092  12.209  0.2493  0.3665  0.4511
 7918SOL     OW35212   2.273   1.827   3.172  0.5097 -0.0058  0.1813
 7918SOL    HW135213   2.280   1.894   3.105  1.5244  1.2531  1.5477
 7918SOL    HW235214   2.319   1.752   3.135 -0.9305 -0.6917 -0.2365
 7919SOL     OW35215   3.038   1.256  13.025 -0.0061  0.2569 -0.2310
 7919SOL    HW135216   3.050   1.177  13.079  0.4911 -0.1590 -0.9458
 7919SOL    HW235217   3.083   1.324  13.075 -1.3173  0.1615  1.0785
 7920SOL     OW35218   3.293   4.145   0.613  0.4006 -0.5287  0.3992
 7920SOL    HW135219   3.247   4.223   0.583  0.0557 -0.8878  0.0018
 7920SOL    HW235220   3.252   4.075   0.563 -0.8141 -0.0695  0.7318
 7921SOL     OW35221   1.371   4.358   3.278 -0.6070 -0.0656  0.4221
 7921SOL    HW135222   1.367   4.435   3.335 -0.8300 -0.0753  0.4178
 7921SOL    HW235223   1.435   4.396   3.217  1.9223  1.1591  3.8368
 7922SOL     OW35224   1.190   4.216   4.099 -0.2154  0.3528  0.5921
 7922SOL    HW135225   1.274   4.226   4.143 -0.2460 -0.4409  0.8412
 7922SOL    HW235226   1.213   4.247   4.012 -1.2382 -1.5548 -0.3673
 7923SOL     OW35227   2.064   0.854  13.785 -0.0830  0.4351 -0.0262
 7923SOL    HW135228   2.082   0.941  13.821 -0.4468 -0.2554  1.8197
 7923SOL    HW235229   2.030   0.885  13.701  0.3071  0.6006 -0.1263
 7924SOL     OW35230   1.704   2.074   3.002 -0.2589  0.3526 -0.5456
 7924SOL    HW135231   1.620   2.090   2.959 -0.0901  0.3452 -0.8831
 7924SOL    HW235232   1.758   2.102   2.928 -0.3058 -0.0944 -0.7484
 7925SOL     OW35233   1.113   1.772  15.130  0.4036  0.0763  0.2001
 7925SOL    HW135234   1.157   1.754  15.047  0.9746  2.0179  0.0736
 7925SOL    HW235235   1.028   1.804  15.101  0.9740  0.2242 -1.2853
 7926SOL     OW35236   3.854   0.414  14.152  0.5050  0.2763 -0.6300
 7926SOL    HW135237   3.765   0.408  14.116 -0.8569  1.4508  2.5499
 7926SOL    HW235238   3.858   0.333  14.202  2.5275 -0.1336 -1.4504
 7927SOL     OW35239   1.450   1.572  14.933  0.3337 -0.2158 -0.4118
 7927SOL    HW135240   1.527   1.608  14.890  0.1539 -2.0877 -2.3181
 7927SOL    HW235241   1.375   1.627  14.910 -1.5395 -2.1990  0.9773
 7928SOL     OW35242   3.516   3.201   9.473 -0.4934  0.4154 -0.3661
 7928SOL    HW135243   3.574   3.251   9.531 -1.9351 -0.3942  1.7490
 7928SOL    HW235244   3.577   3.165   9.409 -0.3130 -1.3297  0.8150
 7929SOL     OW35245   1.129   2.838   9.950 -0.3267 -0.6235  0.3811
 7929SOL    HW135246   1.166   2.781   9.884  0.3498 -0.2367  0.4301
 7929SOL    HW235247   1.056   2.788   9.987 -0.3992 -0.9109 -0.1612
 7930SOL     OW35248   1.366   1.614  12.614  0.2047  0.0983 -0.0495
 7930SOL    HW135249   1.371   1.605  12.519 -0.2797  1.9161 -0.2453
 7930SOL    HW235250   1.456   1.598  12.643  0.8656 -0.5533 -2.5152
 7931SOL     OW35251   1.916   3.595   7.086 -0.0975  0.0781 -0.4288
 7931SOL    HW135252   1.981   3.661   7.063 -0.8585  2.3468  3.9798
 7931SOL    HW235253   1.965   3.558   7.160 -1.8962 -2.8672 -0.7100
 7932SOL     OW35254   1.588   2.844   0.791  0.3010  0.3370 -0.7936
 7932SOL    HW135255   1.602   2.842   0.885  0.3504 -0.3871 -0.8190
 7932SOL    HW235256   1.648   2.771   0.774  2.9646  2.0182  1.6229
 7933SOL     OW35257   0.714   4.369   4.143 -0.0971 -0.0205 -0.1104
 7933SOL    HW135258   0.774   4.321   4.085 -0.5759 -1.0076  0.2048
 7933SOL    HW235259   0.771   4.388   4.217 -0.5579  1.6251 -0.1789
 7934SOL     OW35260   3.166   4.711  11.947 -0.1767  0.3799 -0.6544
 7934SOL    HW135261   3.218   0.066  11.947  1.5088 -0.7076 -0.9391
 7934SOL    HW235262   3.128   4.715  12.035  0.6023 -0.3325 -0.2909
 7935SOL     OW35263   0.260   3.174   0.980 -0.3346 -0.0958  0.2391
 7935SOL    HW135264   0.242   3.268   0.980  0.9355  0.1480  0.3360
 7935SOL    HW235265   0.221   3.151   0.895  1.6094  1.5189 -1.0854
 7936SOL     OW35266   0.325   3.504   4.857  0.1149 -0.2872  0.3657
 7936SOL    HW135267   0.329   3.575   4.793 -0.5292 -0.1644  0.4649
 7936SOL    HW235268   0.232   3.482   4.862 -0.3225  1.5009  0.3901
 7937SOL     OW35269   2.577   4.493   7.267 -0.3222 -0.4758  0.4548
 7937SOL    HW135270   2.609   4.551   7.336  0.4082 -0.5987  0.2213
 7937SOL    HW235271   2.633   4.417   7.284 -0.3124 -0.3037  1.2059
 7938SOL     OW35272   2.686   2.227   5.779  0.6270 -0.3568 -0.4384
 7938SOL    HW135273   2.743   2.153   5.759 -0.4220 -1.6941  1.5184
 7938SOL    HW235274   2.696   2.282   5.701 -2.7321  0.4697 -0.2859
 7939SOL     OW35275   1.343   0.173  17.027 -0.2694  0.4663  0.2360
 7939SOL    HW135276   1.252   0.170  17.058  0.2599 -0.6395  1.6803
 7939SOL    HW235277   1.372   0.082  17.028  1.0220  0.8685 -1.9201
 7940SOL     OW35278   0.507   4.181   7.938  0.4430 -0.2946  0.1167
 7940SOL    HW135279   0.524   4.088   7.950  1.4832 -0.1736 -0.4560
 7940SOL    HW235280   0.537   4.188   7.847 -1.1887  0.5956 -0.3550
 7941SOL     OW35281   1.205   3.702  10.623  0.1953 -0.0021 -0.0892
 7941SOL    HW135282   1.118   3.698  10.663  0.8440 -2.0077  1.1084
 7941SOL    HW235283   1.232   3.611  10.622 -1.2035 -0.4110 -0.9331
 7942SOL     OW35284   0.876   3.747  14.665 -1.1016 -0.4092 -0.5090
 7942SOL    HW135285   0.826   3.703  14.733 -1.1739 -0.9554 -0.9129
 7942SOL    HW235286   0.927   3.673  14.633  1.4167  1.9915 -2.0859
 7943SOL     OW35287   1.150   2.599   8.614 -0.0014  0.0230 -0.3222
 7943SOL    HW135288   1.098   2.640   8.545  0.4432 -0.8042 -1.1463
 7943SOL    HW235289   1.101   2.518   8.622 -0.8499  0.5304 -0.3226
 7944SOL     OW35290   3.077   0.269   6.215  0.1630  0.4400  0.2284
 7944SOL    HW135291   2.984   0.278   6.237 -0.3593  1.2680 -2.2908
 7944SOL    HW235292   3.119   0.304   6.293  0.1503  0.1442  0.3686
 7945SOL     OW35293   3.135   2.839   8.441 -0.2712 -1.1006  0.0644
 7945SOL    HW135294   3.170   2.866   8.357  3.0543  0.3989  1.9387
 7945SOL    HW235295   3.133   2.743   8.436  1.9265 -1.1175 -0.1902
 7946SOL     OW35296   0.107   4.602  14.058  0.0669 -0.3821  0.1970
 7946SOL    HW135297   0.135   4.636  14.143  2.0699 -2.1125  0.2206
 7946SOL    HW235298   0.080   4.675  14.001 -1.2528  0.5871  2.0733
 7947SOL     OW35299   0.895   4.568   8.380 -0.5570 -1.1898 -0.1671
 7947SOL    HW135300   0.969   4.628   8.382 -2.5115  1.2182  0.0577
 7947SOL    HW235301   0.883   4.580   8.286  0.2564 -0.7976 -0.2178
 7948SOL     OW35302   1.911   2.788  15.636  0.3964 -0.2424  0.3106
 7948SOL    HW135303   1.935   2.880  15.648 -1.2380  0.1842  0.3630
 7948SOL    HW235304   1.994   2.741  15.645 -0.2623 -1.1663  1.6434
 7949SOL     OW35305   0.449   1.736   4.684  0.3804  0.3303 -0.4264
 7949SOL    HW135306   0.520   1.781   4.730  0.0899  0.4802 -0.1130
 7949SOL    HW235307   0.376   1.798   4.694 -0.0840 -0.6589  2.3757
 7950SOL     OW35308   0.325   3.347   9.297  0.7431 -0.2425  0.2655
 7950SOL    HW135309   0.299   3.279   9.359  0.0126 -0.2518 -0.0399
 7950SOL    HW235310   0.385   3.299   9.240  0.4029 -0.6762  0.2738
 7951SOL     OW35311   1.790   4.062   5.509 -0.0213  0.1547  0.1472
 7951SOL    HW135312   1.751   4.014   5.436 -1.2518  1.9707 -0.3682
 7951SOL    HW235313   1.879   4.082   5.479 -0.2611  0.1470 -0.5748
 7952SOL     OW35314   3.846   1.477  13.068 -0.5049  0.1158  0.0585
 7952SOL    HW135315   3.759   1.505  13.096  0.7089  1.4936  2.4140
 7952SOL    HW235316   3.898   1.553  13.043 -1.0999  0.9818  1.4791
 7953SOL     OW35317   2.090   3.838   3.003 -0.1429  0.1747 -0.6497
 7953SOL    HW135318   2.026   3.889   3.054 -0.1644  0.3885 -0.8919
 7953SOL    HW235319   2.097   3.887   2.921 -1.6781 -1.5802 -1.8308
 7954SOL     OW35320   3.915   2.400  16.569 -0.2892  0.2763 -0.3836
 7954SOL    HW135321   3.982   2.466  16.581  0.0249  0.1228 -1.3179
 7954SOL    HW235322   3.919   2.395  16.474 -1.5136  0.9208 -0.4692
 7955SOL     OW35323   4.665   3.569   5.586  0.0108  0.1931 -0.2917
 7955SOL    HW135324   4.719   3.527   5.519  0.6443 -0.4920  0.6652
 7955SOL    HW235325   0.004   3.599   5.649  1.9860 -1.1248 -1.6842
 7956SOL     OW35326   0.392   1.692   4.402  0.3181  0.4844  0.2290
 7956SOL    HW135327   0.449   1.754   4.356  1.4015 -0.3594  0.4200
 7956SOL    HW235328   0.415   1.690   4.494 -0.9782  0.7520  0.5614
 7957SOL     OW35329   3.829   3.819  14.655  0.3992 -0.1437 -0.0216
 7957SOL    HW135330   3.798   3.751  14.715 -1.8319 -0.5579 -1.6578
 7957SOL    HW235331   3.859   3.764  14.583 -0.5838  2.1336 -2.1656
 7958SOL     OW35332   4.039   0.179   5.150 -0.3072  0.1138 -0.6057
 7958SOL    HW135333   3.948   0.186   5.178  0.3790 -0.3538  1.7170
 7958SOL    HW235334   4.061   0.094   5.187  0.8570  0.7692  0.2169
 7959SOL     OW35335   2.062   2.918   2.844  0.5745 -0.1977  0.1421
 7959SOL    HW135336   1.993   2.905   2.908  0.8102 -0.0628  0.4231
 7959SOL    HW235337   2.113   2.994   2.873  2.7903 -1.2777 -0.9425
 7960SOL     OW35338   1.834   2.293   5.687 -0.1248  0.2129 -0.1987
 7960SOL    HW135339   1.886   2.305   5.766  1.5993  1.5553 -1.5291
 7960SOL    HW235340   1.808   2.384   5.674  2.2238  0.9896  0.5603
 7961SOL     OW35341   2.203   4.199  16.306  0.5883  0.2706 -0.1002
 7961SOL    HW135342   2.135   4.208  16.373 -0.2467 -2.8217 -0.5561
 7961SOL    HW235343   2.201   4.291  16.280 -0.6759  0.0119 -0.9014
 7962SOL     OW35344   1.622   1.006   1.587 -0.4180  0.6238  0.1143
 7962SOL    HW135345   1.548   0.947   1.575  0.3436 -0.0982 -1.0201
 7962SOL    HW235346   1.693   0.942   1.581  0.5943  1.6565  1.0373
 7963SOL     OW35347   1.495   1.496  15.815  0.0252  0.1101 -0.2662
 7963SOL    HW135348   1.441   1.470  15.890 -0.2346  1.6081  0.0560
 7963SOL    HW235349   1.578   1.466  15.851 -1.0007 -1.4528  0.7985
 7964SOL     OW35350   2.096   2.397   4.658  0.0412  0.1183  0.2061
 7964SOL    HW135351   2.079   2.470   4.718  1.1741  0.9442 -0.4713
 7964SOL    HW235352   2.190   2.401   4.639  0.0020  0.4057  0.0756
 7965SOL     OW35353   3.793   3.469   0.992  0.5873 -0.5088 -0.2527
 7965SOL    HW135354   3.719   3.528   1.008  0.4540 -0.0845 -2.4637
 7965SOL    HW235355   3.812   3.432   1.078  1.5326 -1.2679 -0.7916
 7966SOL     OW35356   1.618   3.584   2.302 -0.3406  0.5617 -0.4296
 7966SOL    HW135357   1.612   3.679   2.292  1.1414  0.8315  1.1318
 7966SOL    HW235358   1.536   3.550   2.267 -1.4662  2.7304  0.0767
 7967SOL     OW35359   2.951   1.902   4.526  0.8603  0.1551 -0.2244
 7967SOL    HW135360   2.991   1.943   4.603  0.7696 -0.1889  0.0089
 7967SOL    HW235361   3.012   1.924   4.457  3.7061 -0.0704  2.2155
 7968SOL     OW35362   4.459   1.003   6.964  0.5651  0.1117 -0.0454
 7968SOL    HW135363   4.417   1.049   7.036  0.6278  0.7964 -0.4421
 7968SOL    HW235364   4.412   0.920   6.970 -0.0855  0.4603 -0.3630
 7969SOL     OW35365   0.762   3.776   6.396  0.4454 -0.2076 -0.0673
 7969SOL    HW135366   0.698   3.841   6.365  0.1957  0.1851  1.2943
 7969SOL    HW235367   0.743   3.777   6.490 -3.7152 -1.5457 -0.8623
 7970SOL     OW35368   0.176   4.667  16.972  0.2936 -0.4799 -0.3693
 7970SOL    HW135369   0.265   4.699  16.957  0.3420 -0.9482 -1.0755
 7970SOL    HW235370   0.195   4.594  17.032 -0.5992 -0.7309 -0.3953
 7971SOL     OW35371   3.496   0.835   5.376 -0.0881  0.1577 -0.6862
 7971SOL    HW135372   3.574   0.805   5.330  0.6729  1.1741 -0.0378
 7971SOL    HW235373   3.432   0.803   5.311  0.5853  1.2219 -1.8859
 7972SOL     OW35374   3.691   1.620  12.846  0.0303 -0.2574 -0.0713
 7972SOL    HW135375   3.613   1.587  12.891 -0.4192  1.4875  0.4204
 7972SOL    HW235376   3.733   1.534  12.834  0.5163 -0.3631  2.4843
 7973SOL     OW35377   1.086   0.985  16.179 -0.1607 -0.6466  0.0048
 7973SOL    HW135378   1.122   1.047  16.242  0.6034 -0.0639 -0.9953
 7973SOL    HW235379   1.137   0.914  16.218 -0.5489 -0.3753  0.9894
 7974SOL     OW35380   0.436   2.721  11.571  0.1825  0.5946 -0.0346
 7974SOL    HW135381   0.485   2.798  11.601 -2.2936  2.4161 -0.7598
 7974SOL    HW235382   0.494   2.705  11.497 -1.1455 -3.3659 -0.2177
 7975SOL     OW35383   0.378   3.580   9.151  0.4727  0.0715  0.5731
 7975SOL    HW135384   0.370   3.643   9.222 -1.1503 -0.9696  1.3084
 7975SOL    HW235385   0.345   3.501   9.194 -0.3037  1.3554  2.3162
 7976SOL     OW35386   3.892   1.714  16.893 -0.2318 -0.5414 -0.1831
 7976SOL    HW135387   3.808   1.742  16.855 -0.5760  1.6283  2.1477
 7976SOL    HW235388   3.870   1.720  16.986 -1.6301  2.6938 -0.6925
 7977SOL     OW35389   2.024   1.254   8.770 -0.6705 -0.1674 -0.6975
 7977SOL    HW135390   2.001   1.269   8.862 -0.2473  2.1867 -0.9903
 7977SOL    HW235391   1.935   1.244   8.736 -1.5373  3.4753  0.5557
 7978SOL     OW35392   3.256   2.413  12.952 -0.6620 -0.5699 -0.1139
 7978SOL    HW135393   3.296   2.337  12.996 -0.3729 -1.3412 -1.7078
 7978SOL    HW235394   3.185   2.436  13.012 -0.2097 -0.4780  0.3847
 7979SOL     OW35395   3.931   1.819  14.613 -0.2456 -0.3671 -0.1408
 7979SOL    HW135396   4.027   1.815  14.616 -0.1550  1.8946 -0.2008
 7979SOL    HW235397   3.912   1.733  14.575  0.4637 -0.5217 -0.1489
 7980SOL     OW35398   3.078   1.994   8.707  0.1029  0.0633  0.2070
 7980SOL    HW135399   3.103   2.086   8.714 -0.9597  0.1683  2.6870
 7980SOL    HW235400   3.019   2.005   8.633  0.8079  0.0856 -0.3617
 7981SOL     OW35401   1.078   1.584   7.394  0.0448 -0.0219 -0.3405
 7981SOL    HW135402   1.005   1.580   7.457  1.5070 -0.0049  1.3566
 7981SOL    HW235403   1.072   1.500   7.347  0.3896 -0.3743  0.2386
 7982SOL     OW35404   1.198   3.208   1.115 -0.0018 -0.2779  0.3707
 7982SOL    HW135405   1.175   3.301   1.108  2.7857  0.3484 -0.7461
 7982SOL    HW235406   1.168   3.175   1.030 -0.1571 -1.0712  0.7372
 7983SOL     OW35407   4.259   2.301   1.852 -0.1314  0.7894  0.3221
 7983SOL    HW135408   4.331   2.238   1.844 -1.4233 -0.8002  1.3079
 7983SOL    HW235409   4.295   2.379   1.810  0.8908  0.4156  0.5115
 7984SOL     OW35410   1.836   3.060   9.019 -0.1382 -0.4852 -0.4351
 7984SOL    HW135411   1.914   3.044   9.073 -0.6227 -0.9295  0.1308
 7984SOL    HW235412   1.767   3.036   9.080 -0.2303  0.3324 -0.2233
 7985SOL     OW35413   2.054   0.486   4.815  0.2630 -0.2842  0.0591
 7985SOL    HW135414   1.963   0.505   4.793  0.2400 -0.5183 -0.0509
 7985SOL    HW235415   2.084   0.576   4.830  0.1455 -0.1445 -0.5099
 7986SOL     OW35416   1.175   2.392   7.425  0.2546 -0.4819 -0.5558
 7986SOL    HW135417   1.117   2.321   7.453  0.1360 -0.1773 -0.0440
 7986SOL    HW235418   1.210   2.419   7.510 -0.0618  2.4659 -1.3847
 7987SOL     OW35419   0.319   1.504  11.738 -0.3871  0.3594  0.2984
 7987SOL    HW135420   0.319   1.423  11.789  1.4386  0.3355  0.2727
 7987SOL    HW235421   0.299   1.567  11.807 -2.3148 -2.3452  2.1714
 7988SOL     OW35422   0.329   2.896   1.373  0.2728  0.3518  0.1946
 7988SOL    HW135423   0.352   2.965   1.312 -0.2369  0.9114  0.6294
 7988SOL    HW235424   0.404   2.837   1.369 -1.4726 -1.9322  1.1247
 7989SOL     OW35425   4.255   2.669   1.953 -0.0012  0.3485 -0.0847
 7989SOL    HW135426   4.322   2.626   1.899 -1.3245 -0.2415 -1.2485
 7989SOL    HW235427   4.295   2.676   2.040 -0.7926  2.1123  0.1216
 7990SOL     OW35428   0.159   2.845   7.137  0.0548  0.5582 -0.3497
 7990SOL    HW135429   0.177   2.756   7.106 -0.4832  1.1324 -2.3507
 7990SOL    HW235430   0.223   2.872   7.203  1.0990  1.0071 -1.5415
 7991SOL     OW35431   2.659   0.295   2.239  0.1581  0.2607  0.3790
 7991SOL    HW135432   2.585   0.234   2.251  1.3727 -1.7530 -2.2492
 7991SOL    HW235433   2.667   0.284   2.144 -3.3557 -2.7690  0.3952
 7992SOL     OW35434   1.816   0.627  12.038  0.4826  0.2853 -0.4771
 7992SOL    HW135435   1.879   0.620  12.110 -0.3505 -1.8815  0.0200
 7992SOL    HW235436   1.840   0.552  11.983  0.4862  0.6011 -0.9121
 7993SOL     OW35437   3.119   4.565   2.995  1.0203 -0.5198 -0.5345
 7993SOL    HW135438   3.064   4.563   3.074  1.5519  1.9153 -0.1237
 7993SOL    HW235439   3.193   4.606   3.039  0.3843  0.2762 -0.2010
 7994SOL     OW35440   3.657   3.303   0.774 -0.0307 -0.0525  0.2359
 7994SOL    HW135441   3.614   3.221   0.798  1.0726  0.0868  2.8096
 7994SOL    HW235442   3.718   3.306   0.848  0.7512 -0.0051 -0.4161
 7995SOL     OW35443   1.297   3.739   1.216 -0.7640 -0.7784  0.2389
 7995SOL    HW135444   1.373   3.755   1.273 -1.9162 -0.4902  1.7127
 7995SOL    HW235445   1.279   3.827   1.184  4.6865  0.1050 -0.2834
 7996SOL     OW35446   0.359   1.116   0.900 -0.0619 -0.0397  0.3339
 7996SOL    HW135447   0.369   1.181   0.830  0.7649 -2.6737 -2.0096
 7996SOL    HW235448   0.406   1.051   0.847  0.4975  2.1829 -1.9247
 7997SOL     OW35449   3.851   4.644   6.888  0.1885 -0.5196 -0.1688
 7997SOL    HW135450   3.942   4.652   6.916  0.1049  0.3153 -0.1285
 7997SOL    HW235451   3.835   4.550   6.892 -3.6012  0.1940  1.3153
 7998SOL     OW35452   0.599   0.966  15.101 -0.5131  0.7275  0.9923
 7998SOL    HW135453   0.630   0.888  15.055 -0.9702  0.0855  1.7761
 7998SOL    HW235454   0.613   0.932  15.190  0.2451 -0.1082  0.5427
 7999SOL     OW35455   4.183   2.616   3.611 -0.2758  0.1748  0.1855
 7999SOL    HW135456   4.218   2.664   3.685 -0.3515 -0.0232  0.3518
 7999SOL    HW235457   4.209   2.683   3.548 -2.3062 -0.2916 -1.1713
 8000SOL     OW35458   1.641   4.592   6.981 -0.2090 -0.0794  0.5547
 8000SOL    HW135459   1.686   4.550   6.908  0.5240  0.6787  0.5703
 8000SOL    HW235460   1.616   4.678   6.947 -0.8158  0.3341  2.0075
 8001SOL     OW35461   1.376   1.906   3.041 -0.6992 -0.9142  0.1313
 8001SOL    HW135462   1.441   1.938   2.978  0.0458 -0.2776  1.2428
 8001SOL    HW235463   1.439   1.863   3.098 -0.1586  2.0121  1.7490
 8002SOL     OW35464   3.000   2.027   3.150 -0.0860 -0.2394 -0.2416
 8002SOL    HW135465   3.095   2.022   3.144 -0.2147 -1.2743 -1.5899
 8002SOL    HW235466   2.976   1.956   3.090  0.4487  0.2442 -1.0319
 8003SOL     OW35467   0.579   2.671   7.224 -1.0933  0.1565 -0.0900
 8003SOL    HW135468   0.597   2.744   7.283  0.8332 -0.0433 -0.4215
 8003SOL    HW235469   0.495   2.637   7.255 -0.7340  0.1389  0.8517
 8004SOL     OW35470   1.784   0.764  12.663  0.3910  0.1557 -0.1530
 8004SOL    HW135471   1.813   0.842  12.712 -1.2132  1.2240 -0.9265
 8004SOL    HW235472   1.692   0.787  12.654 -0.1644 -1.1564  2.2412
 8005SOL     OW35473   3.897   0.467  12.027  0.2787 -0.5884 -0.4735
 8005SOL    HW135474   3.893   0.471  11.932  0.0491 -1.6793 -0.4994
 8005SOL    HW235475   3.818   0.515  12.051 -0.0835 -0.8382 -1.1867
 8006SOL     OW35476   0.646   4.333  17.126 -0.5883 -0.4107  0.8802
 8006SOL    HW135477   0.557   4.362  17.109  0.7490  1.3253 -3.1185
 8006SOL    HW235478   0.692   4.417  17.120 -0.7178 -0.4867 -1.0824
 8007SOL     OW35479   4.376   4.062   8.821 -0.2746 -0.4308 -0.2576
 8007SOL    HW135480   4.329   4.037   8.900 -0.4843 -0.2531 -0.3271
 8007SOL    HW235481   4.319   4.131   8.787 -0.8728 -1.3275 -1.0645
 8008SOL     OW35482   0.906   1.972   5.992  0.1166 -0.2316  0.3766
 8008SOL    HW135483   0.818   1.937   5.975  0.3873  0.0699 -1.6659
 8008SOL    HW235484   0.919   1.945   6.083 -0.8683  0.9278  0.8701
 8009SOL     OW35485   3.162   3.276  17.033 -0.5550  0.0390 -0.3379
 8009SOL    HW135486   3.214   3.235  17.102 -2.1216  0.6476  1.1906
 8009SOL    HW235487   3.116   3.353  17.067  0.5262 -0.5238  2.3864
 8010SOL     OW35488   2.482   4.528   4.503  0.2232 -0.1129  0.0749
 8010SOL    HW135489   2.482   4.577   4.420  0.6476 -0.7540 -0.3067
 8010SOL    HW235490   2.535   4.452   4.479  1.7450  1.0664 -0.3088
 8011SOL     OW35491   1.872   3.580  17.477 -0.6349 -0.7098 -0.2589
 8011SOL    HW135492   1.934   3.581  17.404 -0.1427  2.1108  0.1772
 8011SOL    HW235493   1.829   3.664  17.460 -2.4359 -1.6653 -0.3726
 8012SOL     OW35494   2.483   1.220   9.062  0.6337 -0.6030  0.4206
 8012SOL    HW135495   2.392   1.232   9.089  0.8561  0.0233  0.9230
 8012SOL    HW235496   2.482   1.255   8.973 -2.8399  0.3729  0.8498
 8013SOL     OW35497   0.935   3.344   2.090 -0.2916 -0.3394 -0.0168
 8013SOL    HW135498   0.887   3.409   2.039 -1.6062 -2.4261 -1.4585
 8013SOL    HW235499   0.922   3.264   2.038 -0.6542 -0.2555 -0.0527
 8014SOL     OW35500   2.208   0.885   5.990  0.3493 -0.3896  0.7355
 8014SOL    HW135501   2.232   0.811   6.045 -1.0083 -0.4738  1.1994
 8014SOL    HW235502   2.117   0.876   5.960 -0.0553  0.1837  1.7987
 8015SOL     OW35503   0.903   4.035  10.600 -0.1176  0.2098 -0.1679
 8015SOL    HW135504   0.871   3.955  10.642 -0.1909  0.4285  0.2007
 8015SOL    HW235505   0.993   4.029  10.630 -1.0609  1.4852  3.0119
 8016SOL     OW35506   1.411   4.350  11.503  0.3205 -0.1571 -0.1804
 8016SOL    HW135507   1.453   4.345  11.417 -0.5739  2.2648 -0.7580
 8016SOL    HW235508   1.387   4.442  11.512  0.9730 -0.2001  1.9702
 8017SOL     OW35509   0.222   1.870   2.133 -0.2004 -0.1515  0.6568
 8017SOL    HW135510   0.147   1.924   2.159  0.3765  0.4697  1.0082
 8017SOL    HW235511   0.206   1.787   2.179 -1.9322  0.6785  1.5975
 8018SOL     OW35512   4.582   4.076   8.229 -0.8175 -0.1467 -0.0029
 8018SOL    HW135513   4.644   4.095   8.299 -1.0223  0.6045 -0.0258
 8018SOL    HW235514   4.599   4.147   8.167 -0.7843  0.7071  0.9995
 8019SOL     OW35515   2.469   0.923  15.945 -0.3385  0.0567  0.1830
 8019SOL    HW135516   2.444   0.851  16.004  0.1850  2.9228  3.9149
 8019SOL    HW235517   2.420   1.002  15.964  0.7197  1.0130 -1.0768
 8020SOL     OW35518   0.339   3.971   2.879 -0.0374 -0.5551 -0.3474
 8020SOL    HW135519   0.432   3.977   2.856  0.3972 -2.4353  0.9459
 8020SOL    HW235520   0.339   4.028   2.956  0.5239  0.2926 -0.9659
 8021SOL     OW35521   2.248   1.610   0.538 -0.0411  0.1435 -0.3237
 8021SOL    HW135522   2.311   1.642   0.603 -0.8821  1.7469 -0.3048
 8021SOL    HW235523   2.273   1.519   0.524 -0.1103 -0.2219  1.8680
 8022SOL     OW35524   4.059   2.190   8.847 -0.2499 -0.4258  0.1642
 8022SOL    HW135525   4.146   2.199   8.808  0.5338 -0.4165  1.9283
 8022SOL    HW235526   4.044   2.097   8.830  1.9557 -0.8429  0.5038
 8023SOL     OW35527   1.202   0.440  16.240  0.2018 -0.0119  0.7507
 8023SOL    HW135528   1.252   0.469  16.163 -0.8576  3.2944  1.3044
 8023SOL    HW235529   1.263   0.471  16.307  0.4188  0.0038  0.5461
 8024SOL     OW35530   4.453   3.165   7.216 -0.3816  0.3863 -0.1500
 8024SOL    HW135531   4.461   3.197   7.305  2.3104 -0.0507 -0.2434
 8024SOL    HW235532   4.375   3.212   7.186 -0.4738 -0.1398 -0.7487
 8025SOL     OW35533   0.096   2.896   1.784 -1.0003 -0.3908 -0.1706
 8025SOL    HW135534   0.016   2.901   1.731 -0.3070  1.0371 -1.1017
 8025SOL    HW235535   0.097   2.803   1.805 -1.6766 -0.4204 -0.2586
 8026SOL     OW35536   1.249   2.104   5.352 -0.3323  0.5339  0.5392
 8026SOL    HW135537   1.306   2.158   5.298  0.7007 -0.4060  0.6776
 8026SOL    HW235538   1.221   2.034   5.294 -0.0579  0.3488  0.6329
 8027SOL     OW35539   3.400   1.785  12.090 -0.1836 -0.1169 -0.6204
 8027SOL    HW135540   3.478   1.836  12.112 -0.3807 -0.9341  1.9739
 8027SOL    HW235541   3.341   1.855  12.116 -0.5742 -1.0487  1.0187
 8028SOL     OW35542   3.669   0.347   5.970 -0.3481  0.2528  0.0631
 8028SOL    HW135543   3.647   0.291   6.044  0.2508  0.9937  0.7980
 8028SOL    HW235544   3.650   0.434   6.006 -0.4973  1.7166 -3.5611
 8029SOL     OW35545   0.450   4.512   8.381 -0.6406 -0.1107  0.3591
 8029SOL    HW135546   0.500   4.458   8.442  0.7685  0.1219 -0.5803
 8029SOL    HW235547   0.376   4.454   8.361 -1.3739  0.3319  1.8007
 8030SOL     OW35548   0.569   0.530   1.985  0.7194 -0.3647  0.4800
 8030SOL    HW135549   0.589   0.620   1.961  0.2583 -0.7441 -1.3194
 8030SOL    HW235550   0.618   0.532   2.067 -1.1293 -0.0056  1.5728
 8031SOL     OW35551   0.380   0.611   6.417  0.0353  0.5443  0.3462
 8031SOL    HW135552   0.361   0.519   6.400  1.8190  0.6211 -2.1169
 8031SOL    HW235553   0.428   0.636   6.338 -0.9538  1.6928  0.1113
 8032SOL     OW35554   3.369   0.347   3.232  0.0594  0.1793  0.3531
 8032SOL    HW135555   3.318   0.356   3.313  1.2437  0.1804  1.0864
 8032SOL    HW235556   3.444   0.301   3.269  1.4655  1.8627 -0.4568
 8033SOL     OW35557   4.160   1.708   3.277  0.5157 -0.3662  0.2589
 8033SOL    HW135558   4.197   1.675   3.359  0.8159  0.8034  0.5971
 8033SOL    HW235559   4.181   1.801   3.292  0.9140 -0.6619  1.5500
 8034SOL     OW35560   2.803   4.324   3.025  0.0869 -0.1540  0.2663
 8034SOL    HW135561   2.754   4.279   3.094  0.7527 -1.9866 -0.4490
 8034SOL    HW235562   2.855   4.251   2.991  1.5710  0.8917  0.3144
 8035SOL     OW35563   3.016   1.930  14.596 -0.2515 -0.4993 -0.3403
 8035SOL    HW135564   2.970   1.991  14.653  1.3279  1.0226 -0.6879
 8035SOL    HW235565   2.990   1.962  14.509 -0.6131 -1.8723 -0.7293
 8036SOL     OW35566   3.301   1.317   2.845  0.0646  0.3025  0.2988
 8036SOL    HW135567   3.304   1.284   2.755 -1.2754  1.4219 -0.1553
 8036SOL    HW235568   3.371   1.381   2.856  1.3871 -0.9673 -0.7896
 8037SOL     OW35569   0.564   1.906   5.298 -0.2307  0.1739 -0.0279
 8037SOL    HW135570   0.512   1.884   5.221 -0.1273 -0.5641  0.1123
 8037SOL    HW235571   0.639   1.847   5.291  1.1671  1.9313 -0.1477
 8038SOL     OW35572   0.134   1.110   1.187  0.0609  0.3549 -0.0507
 8038SOL    HW135573   0.214   1.059   1.178 -1.0161 -1.5137  0.8751
 8038SOL    HW235574   0.080   1.037   1.156 -0.6135 -0.7281  3.6666
 8039SOL     OW35575   4.335   0.635  11.443 -0.0415 -0.1302 -0.6963
 8039SOL    HW135576   4.312   0.552  11.402  0.1340 -0.3403 -0.3752
 8039SOL    HW235577   4.386   0.597  11.515  0.7751 -0.0427 -1.2293
 8040SOL     OW35578   2.827   2.016   2.148 -0.3292  0.2530  0.3870
 8040SOL    HW135579   2.913   2.007   2.107 -1.0328  0.3448 -1.1173
 8040SOL    HW235580   2.841   1.978   2.235 -0.3831  0.2579  0.3983
 8041SOL     OW35581   1.250   0.203   6.308  0.4180  0.3589  0.1857
 8041SOL    HW135582   1.333   0.251   6.307  0.8284 -0.3616 -0.8709
 8041SOL    HW235583   1.224   0.210   6.400 -0.1113  0.4032  0.0335
 8042SOL     OW35584   4.115   3.580  13.954  0.3773 -0.2442  0.0622
 8042SOL    HW135585   4.173   3.655  13.963  0.4031 -0.3518  0.7855
 8042SOL    HW235586   4.084   3.556  14.042  2.9213 -2.8457  0.2499
 8043SOL     OW35587   0.759   2.754   7.566  0.3592  0.1399 -0.2861
 8043SOL    HW135588   0.806   2.677   7.533  3.2466  0.6673  2.5788
 8043SOL    HW235589   0.754   2.713   7.652 -0.5390 -0.4074 -0.5990
 8044SOL     OW35590   0.228   0.787   3.632 -0.0452 -0.1148 -0.8063
 8044SOL    HW135591   0.242   0.811   3.540  0.9284  1.6522 -0.2004
 8044SOL    HW235592   0.175   0.860   3.664 -0.3574 -0.0979 -1.3528
 8045SOL     OW35593   3.944   3.870   4.711  0.4300 -0.1189  0.1994
 8045SOL    HW135594   3.958   3.800   4.775 -1.3975 -0.6379  0.0228
 8045SOL    HW235595   3.982   3.939   4.767  1.1374  0.6649 -1.2572
 8046SOL     OW35596   2.091   0.271   7.102 -0.2872  0.4634 -0.3268
 8046SOL    HW135597   2.077   0.180   7.075  1.9274  1.1018 -3.5861
 8046SOL    HW235598   2.013   0.302   7.054 -0.9340  1.8219  1.6171
 8047SOL     OW35599   0.909   4.561   6.648  0.6228 -0.8269 -0.2596
 8047SOL    HW135600   0.842   4.544   6.714  1.9165 -0.3128  1.1920
 8047SOL    HW235601   0.856   4.613   6.587 -0.6798 -1.8800 -0.0443
 8048SOL     OW35602   2.112   3.101   5.988  0.1272  0.2870  0.2730
 8048SOL    HW135603   2.186   3.149   6.025 -1.8420  3.9925 -0.5961
 8048SOL    HW235604   2.135   3.017   6.029  0.1653  0.1578 -0.0110
 8049SOL     OW35605   3.700   3.284   7.169  0.0612 -0.7940 -0.2205
 8049SOL    HW135606   3.621   3.246   7.209  0.8323 -1.7763  0.3526
 8049SOL    HW235607   3.737   3.340   7.238 -0.1176  0.4967 -1.1829
 8050SOL     OW35608   3.076   3.929  14.154 -0.7197 -0.3516 -0.0215
 8050SOL    HW135609   3.112   3.981  14.226  3.2875 -1.1373 -1.4549
 8050SOL    HW235610   3.102   3.841  14.182  0.2660 -0.2686 -0.6631
 8051SOL     OW35611   4.163   4.675   4.917  0.6142  0.3599  0.1146
 8051SOL    HW135612   4.220   4.609   4.878  0.9764  1.9846 -2.1047
 8051SOL    HW235613   4.215   4.708   4.990 -0.4178  0.1774  0.9351
 8052SOL     OW35614   2.321   3.955  16.231 -0.2531  0.2939  0.0131
 8052SOL    HW135615   2.272   4.029  16.267 -1.4185  0.0695 -1.1023
 8052SOL    HW235616   2.409   3.970  16.266 -0.5667  0.2298  0.8240
 8053SOL     OW35617   1.405   2.422   6.007  0.2663 -0.2621 -0.1378
 8053SOL    HW135618   1.356   2.429   6.089  2.4297 -0.7547  1.1991
 8053SOL    HW235619   1.347   2.375   5.948 -1.0734  1.4459 -0.1792
 8054SOL     OW35620   1.829   0.739   0.641  0.7769  0.2886  0.5463
 8054SOL    HW135621   1.895   0.683   0.681  0.8771  1.3704  1.8831
 8054SOL    HW235622   1.885   0.789   0.582  1.8257 -1.8459 -0.2720
 8055SOL     OW35623   4.180   1.058   7.436 -0.8734  0.4671  0.3978
 8055SOL    HW135624   4.108   1.066   7.373 -0.8031  0.9229  0.3739
 8055SOL    HW235625   4.130   1.071   7.516 -0.2121  0.7012  0.7748
 8056SOL     OW35626   2.962   3.238  15.885  0.1857 -0.1700  0.1890
 8056SOL    HW135627   2.985   3.307  15.822  0.3582 -0.1583  0.2670
 8056SOL    HW235628   3.007   3.167  15.841 -0.4841 -0.1129 -0.5957
 8057SOL     OW35629   0.980   3.105   7.108  0.0257 -0.0770 -0.0414
 8057SOL    HW135630   1.000   3.193   7.079 -0.8397  0.3613  0.6951
 8057SOL    HW235631   0.959   3.051   7.032 -1.4291 -1.3749  1.2555
 8058SOL     OW35632   4.021   3.055  13.186  0.3109  0.5692  0.0821
 8058SOL    HW135633   3.990   3.145  13.195  0.0665  0.5585 -0.6360
 8058SOL    HW235634   3.999   3.026  13.275 -1.0013 -0.8164 -0.7061
 8059SOL     OW35635   3.403   2.243   4.107 -0.2173 -0.2895 -0.0738
 8059SOL    HW135636   3.437   2.154   4.113  2.9604  1.0415  1.6355
 8059SOL    HW235637   3.440   2.266   4.022  0.1775  1.9309  0.6931
 8060SOL     OW35638   2.330   1.145   5.228  0.1310 -0.2700 -0.1749
 8060SOL    HW135639   2.376   1.081   5.173 -1.8165 -1.0126 -0.9559
 8060SOL    HW235640   2.249   1.155   5.178 -1.1860  1.2565  2.2770
 8061SOL     OW35641   2.402   3.637   9.740  0.2948 -0.0712 -0.4549
 8061SOL    HW135642   2.497   3.643   9.742  0.1610  1.6255  1.3388
 8061SOL    HW235643   2.387   3.624   9.834  1.7781 -1.3678 -0.4070
 8062SOL     OW35644   2.255   4.221   2.038 -0.0953  0.1186 -0.0987
 8062SOL    HW135645   2.170   4.266   2.038 -0.4210 -0.5059  2.8757
 8062SOL    HW235646   2.221   4.142   1.996  0.0178  1.3050 -2.4410
 8063SOL     OW35647   3.832   4.384   1.824 -0.4726 -0.0800  0.1722
 8063SOL    HW135648   3.919   4.408   1.794 -1.3074  1.5253 -0.9430
 8063SOL    HW235649   3.850   4.417   1.911  0.8540  1.8859 -0.8560
 8064SOL     OW35650   1.596   0.168   8.401  0.1633  0.1855 -0.0473
 8064SOL    HW135651   1.564   0.227   8.333 -1.1572  0.4166  0.7658
 8064SOL    HW235652   1.560   0.083   8.374 -0.5315  0.1746  0.9236
 8065SOL     OW35653   3.334   4.415   3.961  0.3250  0.0922 -0.1213
 8065SOL    HW135654   3.421   4.412   4.000  1.0663  3.9573 -1.4951
 8065SOL    HW235655   3.348   4.442   3.870  1.3068 -0.2240 -0.0568
 8066SOL     OW35656   0.376   4.231   8.563 -0.2915  0.6046 -0.0451
 8066SOL    HW135657   0.446   4.223   8.498  0.9902 -2.5674  1.7567
 8066SOL    HW235658   0.419   4.239   8.648 -3.6826 -0.4789  1.7771
 8067SOL     OW35659   0.290   0.702   7.254  0.1711  0.2017  0.4717
 8067SOL    HW135660   0.292   0.776   7.193 -0.2716  0.0453  0.2670
 8067SOL    HW235661   0.292   0.631   7.189  0.3610  1.5889 -1.0583
 8068SOL     OW35662   3.356   3.640   3.854  0.6186 -0.4827  0.0444
 8068SOL    HW135663   3.272   3.595   3.845  0.8081 -0.7242 -0.5213
 8068SOL    HW235664   3.393   3.639   3.765 -1.0978 -0.9167 -0.6724
 8069SOL     OW35665   2.388   0.729   7.211 -0.2060 -0.2575  0.0754
 8069SOL    HW135666   2.325   0.798   7.235  0.9464  1.1197 -0.8652
 8069SOL    HW235667   2.337   0.648   7.212  2.2088 -1.7574  0.7847
 8070SOL     OW35668   1.169   0.456   3.809 -0.3166 -0.2417  0.4785
 8070SOL    HW135669   1.087   0.493   3.776 -0.5882 -0.6695  0.6715
 8070SOL    HW235670   1.129   0.376   3.841  2.1181 -1.5031  0.3165
 8071SOL     OW35671   3.163   0.460   0.634 -0.4363 -0.2251 -0.1289
 8071SOL    HW135672   3.109   0.439   0.709 -3.0196  1.2762 -1.5716
 8071SOL    HW235673   3.251   0.474   0.670 -0.9555  0.7438  0.7355
 8072SOL     OW35674   3.572   4.637  13.685  0.2554 -0.2602 -0.3707
 8072SOL    HW135675   3.496   4.580  13.697  0.1132  0.1705  0.7907
 8072SOL    HW235676   3.578   4.675  13.773 -0.1474  3.0342 -1.7860
 8073SOL     OW35677   1.559   4.514   3.953  0.1598  0.4519  0.1392
 8073SOL    HW135678   1.653   4.529   3.959  0.2416 -0.7261  1.6468
 8073SOL    HW235679   1.533   4.581   4.016  0.2215  0.1957  0.4405
 8074SOL     OW35680   1.070   1.050   6.237 -0.0120 -0.4350 -0.2908
 8074SOL    HW135681   0.987   1.092   6.259  0.2482  1.3057 -2.6013
 8074SOL    HW235682   1.071   1.070   6.143 -1.7035 -1.2485 -0.4739
 8075SOL     OW35683   1.648   2.665   1.925  0.0421 -0.3684 -0.6172
 8075SOL    HW135684   1.625   2.753   1.894 -0.4148  0.1976  1.3322
 8075SOL    HW235685   1.704   2.637   1.853  2.9091 -1.1088  1.8737
 8076SOL     OW35686   3.224   3.268  11.796 -0.0689 -0.3460 -0.2317
 8076SOL    HW135687   3.255   3.294  11.710 -0.9576  2.7928  0.3927
 8076SOL    HW235688   3.261   3.180  11.806 -2.7719 -1.5675 -1.1418
 8077SOL     OW35689   3.947   4.097   9.162  0.6319 -0.4242  0.5129
 8077SOL    HW135690   3.959   4.157   9.236  2.0909 -0.7611  0.5374
 8077SOL    HW235691   3.896   4.151   9.101 -0.5378 -1.4191  0.5998
 8078SOL     OW35692   1.693   2.902   1.802  0.1256  0.0965 -0.1080
 8078SOL    HW135693   1.624   2.967   1.811  0.9528  1.1189 -1.1320
 8078SOL    HW235694   1.746   2.944   1.735  2.8205 -2.5282  0.3650
 8079SOL     OW35695   2.857   1.688   5.085 -0.2212  0.1636 -0.2455
 8079SOL    HW135696   2.834   1.665   5.175 -0.9323 -1.6375 -0.8852
 8079SOL    HW235697   2.825   1.778   5.092  1.0625  0.6063 -0.0886
 8080SOL     OW35698   1.511   3.163   7.224  0.2191  0.0368  0.0386
 8080SOL    HW135699   1.488   3.071   7.237  3.2552 -0.5173  1.6371
 8080SOL    HW235700   1.518   3.192   7.315  3.0333 -0.1382 -0.1144
 8081SOL     OW35701   3.287   3.396   5.262 -0.5063  0.1428 -0.5372
 8081SOL    HW135702   3.288   3.414   5.168  0.6857 -0.0407 -0.5672
 8081SOL    HW235703   3.211   3.452   5.274 -0.2875  0.1116  0.9932
 8082SOL     OW35704   0.619   1.993  16.580 -0.5722 -0.3687  0.4644
 8082SOL    HW135705   0.527   1.991  16.552 -1.1417  1.4488  2.2497
 8082SOL    HW235706   0.606   2.005  16.674 -0.9520  0.0784  0.3550
 8083SOL     OW35707   2.995   4.009   0.638  0.0968  0.2579 -0.3939
 8083SOL    HW135708   3.043   3.962   0.570  1.4743  0.1028  0.6828
 8083SOL    HW235709   2.907   4.002   0.600 -0.3627  3.1831  0.1113
 8084SOL     OW35710   4.540   3.413   6.771 -0.1057 -0.4310 -0.2499
 8084SOL    HW135711   4.587   3.497   6.772  2.2969 -1.8047  3.6733
 8084SOL    HW235712   4.488   3.430   6.850 -1.6597  2.1904 -1.8129
 8085SOL     OW35713   2.798   0.636   7.077 -0.2499 -0.1803 -0.9519
 8085SOL    HW135714   2.888   0.663   7.093 -1.0492  0.7527  1.9413
 8085SOL    HW235715   2.770   0.638   7.169 -1.6332  1.8365 -1.4438
 8086SOL     OW35716   1.435   4.692   2.977  0.1983  0.3202  0.0684
 8086SOL    HW135717   1.386   4.613   3.001 -1.0378  0.5164 -1.8149
 8086SOL    HW235718   1.441   4.715   3.070 -1.6999  1.9194 -0.1969
 8087SOL     OW35719   0.407   3.784  17.679 -0.5024 -0.3181 -0.2210
 8087SOL    HW135720   0.403   3.718  17.610 -0.4049  0.2707 -0.7901
 8087SOL    HW235721   0.340   3.845  17.649 -0.1050  0.5345  0.6126
 8088SOL     OW35722   1.396   0.434  12.448 -0.7522 -0.4829 -0.4654
 8088SOL    HW135723   1.452   0.448  12.372  1.1086 -0.1911  0.9588
 8088SOL    HW235724   1.416   0.342  12.462 -0.4103 -0.6570 -2.0707
 8089SOL     OW35725   2.910   3.538   1.311  0.3123  0.5277  0.0134
 8089SOL    HW135726   2.844   3.564   1.375  1.2969 -0.6864  1.5117
 8089SOL    HW235727   2.916   3.443   1.319  0.8780  0.5361 -0.3406
 8090SOL     OW35728   3.190   1.543   8.149  0.3310 -0.7073 -0.0355
 8090SOL    HW135729   3.263   1.598   8.175 -0.5586  0.3001  0.3393
 8090SOL    HW235730   3.236   1.460   8.160 -2.6180 -2.3943 -0.3442
 8091SOL     OW35731   2.025   3.208   7.549  0.1590 -0.4930  0.2691
 8091SOL    HW135732   1.967   3.277   7.517  1.4323  0.9111  1.0039
 8091SOL    HW235733   2.108   3.254   7.565  0.3911 -1.6547  2.4693
 8092SOL     OW35734   2.379   3.973   7.641  0.8432 -0.0156  0.2441
 8092SOL    HW135735   2.434   3.998   7.568 -0.7442  1.5824 -0.4217
 8092SOL    HW235736   2.444   3.971   7.711  0.1823  3.3375  0.9810
 8093SOL     OW35737   1.834   0.145   6.894 -0.0553 -0.1589 -0.3392
 8093SOL    HW135738   1.856   0.236   6.872  0.8181 -0.3429 -0.2252
 8093SOL    HW235739   1.739   0.147   6.903  0.0665 -1.1825  1.2377
 8094SOL     OW35740   0.838   1.109   3.768  0.0301 -0.0648  0.2559
 8094SOL    HW135741   0.782   1.132   3.842 -1.7965 -0.3265 -1.0363
 8094SOL    HW235742   0.813   1.019   3.747 -1.0021  0.3173 -0.1371
 8095SOL     OW35743   0.004   1.273  16.512 -0.0155 -0.1800  0.0463
 8095SOL    HW135744   4.676   1.194  16.524  0.7698 -0.2187  3.2420
 8095SOL    HW235745   0.014   1.292  16.605 -0.7701  1.2734 -0.1817
 8096SOL     OW35746   2.568   1.802   2.859  0.2829  0.2609  0.7534
 8096SOL    HW135747   2.476   1.784   2.840  0.3100 -0.0471  0.9090
 8096SOL    HW235748   2.566   1.829   2.951  0.2676 -1.1242  1.1490
 8097SOL     OW35749   4.090   4.402   9.018  0.2606 -0.6190  0.6928
 8097SOL    HW135750   4.182   4.418   8.997  0.4378  0.3183  2.1820
 8097SOL    HW235751   4.054   4.402   8.929  0.0940  0.0802  0.7576
 8098SOL     OW35752   0.914   3.438   9.503  0.1312 -0.4354 -0.5060
 8098SOL    HW135753   0.911   3.426   9.598  1.8658 -1.9571 -0.6377
 8098SOL    HW235754   1.004   3.467   9.489  0.2017  0.2412  1.3563
 8099SOL     OW35755   0.478   4.356   3.275 -0.0170 -0.6809  1.2017
 8099SOL    HW135756   0.478   4.450   3.293  1.6691 -0.2487 -1.2226
 8099SOL    HW235757   0.568   4.349   3.243 -0.4911  1.1562 -0.5590
 8100SOL     OW35758   0.000   0.095  13.897 -0.1675 -0.5927  0.0455
 8100SOL    HW135759   0.023   0.185  13.919 -2.3088  0.7076 -3.0584
 8100SOL    HW235760   4.637   0.097  13.861 -0.1608 -1.3319 -0.0217
 8101SOL     OW35761   3.066   2.180  11.597  0.2146  0.1274  0.1158
 8101SOL    HW135762   3.077   2.170  11.502 -1.2743 -0.4566  0.0198
 8101SOL    HW235763   3.157   2.187  11.626  0.3589 -0.4812 -0.1880
 8102SOL     OW35764   1.234   1.101   7.761 -0.6727 -0.3337  0.3103
 8102SOL    HW135765   1.311   1.148   7.794  1.3555 -2.4846 -1.3371
 8102SOL    HW235766   1.187   1.055   7.831 -0.6011 -0.6480  0.1521
 8103SOL     OW35767   2.839   3.448   3.481 -0.1317  0.0130  0.2321
 8103SOL    HW135768   2.785   3.526   3.468  1.5480  0.9120 -1.4322
 8103SOL    HW235769   2.784   3.387   3.529  0.3785 -0.1238  0.6473
 8104SOL     OW35770   2.878   2.593   9.556 -0.1096 -0.9360  0.0887
 8104SOL    HW135771   2.964   2.597   9.596 -0.4570 -1.0386  0.8480
 8104SOL    HW235772   2.883   2.508   9.513  0.3783 -1.8362  1.8999
 8105SOL     OW35773   4.260   2.352   5.229  0.3461  0.2663 -0.4585
 8105SOL    HW135774   4.267   2.393   5.315 -1.5626  1.8505 -1.0745
 8105SOL    HW235775   4.167   2.330   5.221  0.4876 -0.7661  0.6902
 8106SOL     OW35776   1.037   2.182   7.523 -0.4639  0.6397 -0.5439
 8106SOL    HW135777   1.007   2.104   7.477 -0.2281 -0.2084  0.7316
 8106SOL    HW235778   0.959   2.203   7.575 -1.5714  0.2594 -2.0638
 8107SOL     OW35779   3.487   3.551   7.719  0.0125  0.0011  0.1362
 8107SOL    HW135780   3.536   3.469   7.718  1.2782  0.7457 -0.1171
 8107SOL    HW235781   3.515   3.587   7.635  0.9083  1.6197  1.1148
 8108SOL     OW35782   0.476   2.445   7.661  0.1529  0.6761 -0.2422
 8108SOL    HW135783   0.448   2.381   7.726  0.2383  0.7894 -0.0914
 8108SOL    HW235784   0.403   2.507   7.669 -1.0211 -0.7413 -0.1609
 8109SOL     OW35785   0.785   4.584   7.502 -0.3063 -0.3022 -0.1280
 8109SOL    HW135786   0.758   4.642   7.430  1.1020 -1.2674 -1.4465
 8109SOL    HW235787   0.748   4.509   7.455  0.4911 -0.5026 -0.4390
 8110SOL     OW35788   2.151   3.681   2.166 -0.4196  0.2829  0.6293
 8110SOL    HW135789   2.210   3.612   2.135 -0.9143  0.4678 -0.7637
 8110SOL    HW235790   2.065   3.645   2.143 -0.1773 -0.5939  1.1038
 8111SOL     OW35791   0.203   3.275   8.895 -0.4617 -0.2755  0.0992
 8111SOL    HW135792   0.167   3.219   8.827  2.5743 -1.1584 -0.7955
 8111SOL    HW235793   0.120   3.312   8.925 -0.5377  1.4049 -2.2266
 8112SOL     OW35794   0.737   2.630   3.188  0.5015  0.3640  0.2423
 8112SOL    HW135795   0.733   2.721   3.220 -0.3692  1.4780 -3.0297
 8112SOL    HW235796   0.788   2.641   3.108  1.3123 -0.9071  0.5857
 8113SOL     OW35797   3.531   4.296  12.499  0.2907  0.2136 -0.2265
 8113SOL    HW135798   3.584   4.217  12.507  3.1686  2.2942  1.2559
 8113SOL    HW235799   3.484   4.283  12.417 -1.8991  2.1958  0.6813
 8114SOL     OW35800   1.650   3.842  11.068 -0.1009 -0.1685 -0.2331
 8114SOL    HW135801   1.636   3.747  11.070  0.1219 -0.2351 -1.9209
 8114SOL    HW235802   1.724   3.846  11.008  0.0484 -0.7248 -0.0853
 8115SOL     OW35803   3.736   0.742   8.310 -0.8812 -0.1232  0.1226
 8115SOL    HW135804   3.664   0.686   8.280  0.0001 -1.9551  1.3662
 8115SOL    HW235805   3.705   0.764   8.398 -0.7009  0.7075 -0.0270
 8116SOL     OW35806   4.364   1.145  17.513 -0.1500 -0.0650 -0.1712
 8116SOL    HW135807   4.308   1.122  17.588 -1.4002  1.0685 -0.7503
 8116SOL    HW235808   4.430   1.076  17.511  0.8168  0.8512  0.6340
 8117SOL     OW35809   4.152   3.026   4.526 -0.2362 -0.6397  0.1703
 8117SOL    HW135810   4.157   2.931   4.542 -1.0593 -0.8718 -0.9613
 8117SOL    HW235811   4.111   3.032   4.440 -0.1345 -0.0351  0.1699
 8118SOL     OW35812   2.420   0.293  10.082 -0.7336 -0.9524  0.4125
 8118SOL    HW135813   2.392   0.231  10.149 -0.6745  0.2718  1.5675
 8118SOL    HW235814   2.442   0.242  10.004 -0.9764 -0.5905  0.1075
 8119SOL     OW35815   2.917   2.813   7.352  0.5827 -0.1312 -0.0185
 8119SOL    HW135816   2.933   2.794   7.260  1.4991  1.6435 -0.2302
 8119SOL    HW235817   2.832   2.858   7.351 -0.6564 -2.4653 -0.2966
 8120SOL     OW35818   1.257   3.604   2.272 -0.3996 -0.1201  0.0342
 8120SOL    HW135819   1.254   3.531   2.333 -1.2538 -0.2696 -0.1871
 8120SOL    HW235820   1.271   3.682   2.327  1.2144  0.2993 -0.9818
 8121SOL     OW35821   2.139   2.966   4.282 -0.1579 -0.3766 -0.1862
 8121SOL    HW135822   2.128   2.956   4.377 -0.3018  0.3306 -0.1295
 8121SOL    HW235823   2.193   3.046   4.276 -0.4866 -0.1009  0.5369
 8122SOL     OW35824   2.577   1.425   2.966  0.1163 -0.0156 -0.0651
 8122SOL    HW135825   2.526   1.444   2.888 -1.1217 -2.0285  0.2435
 8122SOL    HW235826   2.611   1.339   2.941 -2.3264 -0.7267 -0.9769
 8123SOL     OW35827   1.786   2.478   7.929  0.4242 -0.1863 -0.2536
 8123SOL    HW135828   1.693   2.483   7.907  0.2743  2.3531  0.9394
 8123SOL    HW235829   1.780   2.442   8.017  0.5214 -1.5956 -0.8278
 8124SOL     OW35830   1.838   1.637   8.135 -0.1645 -0.2220 -0.1091
 8124SOL    HW135831   1.796   1.553   8.152 -0.8604  0.4836  1.6277
 8124SOL    HW235832   1.799   1.699   8.197 -0.3023  0.4400 -0.8582
 8125SOL     OW35833   1.715   0.939   5.956  0.1619 -0.2350  0.0051
 8125SOL    HW135834   1.709   0.991   6.036 -0.7636  2.3165 -1.7412
 8125SOL    HW235835   1.732   1.017   5.903 -1.6744  0.1251 -0.0628
 8126SOL     OW35836   2.575   4.567  15.874 -0.3269 -0.2143  0.3947
 8126SOL    HW135837   2.544   4.551  15.963 -2.6683  2.1732  0.0067
 8126SOL    HW235838   2.669   4.579  15.883 -0.2936  0.3354 -0.6761
 8127SOL     OW35839   4.529   1.423   8.047  0.1951 -0.1787  0.4875
 8127SOL    HW135840   4.474   1.500   8.033  0.6059 -0.2873 -1.6905
 8127SOL    HW235841   4.485   1.370   8.113 -1.1031 -0.3571 -0.5212
 8128SOL     OW35842   0.660   0.382   7.945  0.1781 -0.0008  0.6961
 8128SOL    HW135843   0.673   0.312   7.881  0.0859  0.9471 -0.3738
 8128SOL    HW235844   0.598   0.334   8.000 -1.3085 -0.0566 -1.0227
 8129SOL     OW35845   0.355   1.291  11.900 -0.1893 -0.2293 -0.1733
 8129SOL    HW135846   0.351   1.254  11.988 -0.2543 -1.0822 -0.5371
 8129SOL    HW235847   0.373   1.212  11.850  2.1115  0.5763 -0.6099
 8130SOL     OW35848   1.912   3.056   6.761  0.0415 -0.7339  0.6540
 8130SOL    HW135849   1.983   3.120   6.768 -0.7531  0.4368 -1.7365
 8130SOL    HW235850   1.898   3.034   6.852 -1.0651  1.4091  1.0114
 8131SOL     OW35851   2.807   4.581   2.446 -0.5644  0.6743 -0.6580
 8131SOL    HW135852   2.887   4.529   2.454 -1.3156 -0.2542  0.6071
 8131SOL    HW235853   2.770   4.530   2.517  1.8479  3.3806  2.5733
 8132SOL     OW35854   2.023   0.911   2.811 -0.4706  0.4696 -0.5642
 8132SOL    HW135855   2.029   0.849   2.738 -1.8618 -0.8279  0.4316
 8132SOL    HW235856   1.931   0.928   2.828 -0.6340 -0.4269 -0.5322
 8133SOL     OW35857   4.687   3.614  10.111 -0.5499 -0.2480 -0.0094
 8133SOL    HW135858   4.712   3.705  10.124  3.7499 -0.9418 -3.2122
 8133SOL    HW235859   0.003   3.567  10.183 -1.6301  0.6204  1.1666
 8134SOL     OW35860   4.039   0.762  10.639  0.1903 -0.0843 -0.2935
 8134SOL    HW135861   3.991   0.712  10.574 -1.0934 -0.0637  0.6517
 8134SOL    HW235862   4.082   0.689  10.685  2.1093  0.7289 -0.7878
 8135SOL     OW35863   0.590   4.246  17.538  0.0994  0.2293 -0.1517
 8135SOL    HW135864   0.626   4.307  17.603  1.3859  1.2041 -1.7815
 8135SOL    HW235865   0.521   4.300  17.500  0.4491  0.8502  0.0846
 8136SOL     OW35866   4.261   0.582   3.922 -0.6494 -0.1925  0.5338
 8136SOL    HW135867   4.278   0.538   3.839  0.5292  0.7857  0.2475
 8136SOL    HW235868   4.244   0.505   3.976 -1.2329  0.1990  0.9188
 8137SOL     OW35869   0.030   2.681   7.359 -0.4223  0.2975  0.0235
 8137SOL    HW135870   4.692   2.752   7.359 -0.2548  0.4432 -0.5011
 8137SOL    HW235871   0.106   2.710   7.309 -0.5184 -1.5847 -1.2103
 8138SOL     OW35872   1.149   1.038  10.204  0.1446 -0.4415 -0.2141
 8138SOL    HW135873   1.155   1.037  10.299 -1.5132  0.2004 -0.0998
 8138SOL    HW235874   1.239   1.038  10.173  0.1865  1.8433 -0.0857
 8139SOL     OW35875   1.886   4.140   2.880 -0.2704  0.3693 -0.5163
 8139SOL    HW135876   1.905   4.095   2.797  1.5890  3.3146 -1.6979
 8139SOL    HW235877   1.934   4.088   2.944 -0.9165 -1.6185 -1.6169
 8140SOL     OW35878   1.198   4.128   2.657  0.1958 -0.1149  0.0579
 8140SOL    HW135879   1.155   4.197   2.608  1.5069  0.7743  0.1508
 8140SOL    HW235880   1.167   4.051   2.609  0.3724 -0.6741  0.8354
 8141SOL     OW35881   1.856   3.677  14.392  0.4337  0.4808  0.5732
 8141SOL    HW135882   1.892   3.764  14.410  0.0858  0.6541  0.4273
 8141SOL    HW235883   1.848   3.659  14.486  1.3854 -1.0594  0.3528
 8142SOL     OW35884   2.389   4.636   7.988  0.2826  0.2195  0.0530
 8142SOL    HW135885   2.364   4.625   7.896  0.8011 -0.9481  0.0440
 8142SOL    HW235886   2.474   4.677   7.973  1.7563 -2.5042  0.8278
 8143SOL     OW35887   0.664   2.182   2.401 -0.4082 -0.2191  0.5822
 8143SOL    HW135888   0.661   2.262   2.349 -1.5556 -0.1171  0.8033
 8143SOL    HW235889   0.573   2.153   2.404 -0.7125  0.7056  0.3346
 8144SOL     OW35890   4.635   2.275   5.870  0.0905 -0.5353  0.5668
 8144SOL    HW135891   4.656   2.261   5.963 -2.2129 -1.0182  1.0172
 8144SOL    HW235892   4.586   2.194   5.858 -1.2499  0.4357 -0.5276
 8145SOL     OW35893   3.709   0.829   5.866  0.0664  0.5120 -0.0964
 8145SOL    HW135894   3.681   0.911   5.906 -2.8752  0.0830 -1.3128
 8145SOL    HW235895   3.725   0.865   5.779  2.2174  0.9249  0.4478
 8146SOL     OW35896   1.019   3.514   3.599  0.3637  0.0408 -0.4729
 8146SOL    HW135897   1.061   3.434   3.627 -1.4875  0.0785  2.4540
 8146SOL    HW235898   1.063   3.529   3.515 -0.4004 -0.8109 -1.0349
 8147SOL     OW35899   3.788   2.330   5.914 -0.0680 -0.2848 -0.4331
 8147SOL    HW135900   3.740   2.256   5.951 -0.7551  0.7891  0.8580
 8147SOL    HW235901   3.718   2.357   5.854  1.0942  3.6709 -0.0111
 8148SOL     OW35902   0.594   1.686  13.484  0.5928  0.1349 -0.2260
 8148SOL    HW135903   0.629   1.772  13.457  1.9702 -0.4299 -0.2478
 8148SOL    HW235904   0.500   1.705  13.486  0.9868  2.1934 -0.7063
 8149SOL     OW35905   4.299   3.741   0.260  0.1774  0.2192  0.2136
 8149SOL    HW135906   4.279   3.787   0.178 -0.5896  0.2737  0.4378
 8149SOL    HW235907   4.393   3.751   0.276  0.0157 -0.5583  1.6386
 8150SOL     OW35908   4.650   1.962   6.232 -0.4796 -0.4600 -0.0374
 8150SOL    HW135909   4.651   1.870   6.208 -0.4051 -0.7540  1.0777
 8150SOL    HW235910   4.569   1.968   6.282  0.6539  2.9381  1.3960
 8151SOL     OW35911   4.071   4.507  13.355  0.2168 -0.0403 -0.2039
 8151SOL    HW135912   4.091   4.416  13.374  0.4234 -0.2752 -1.5316
 8151SOL    HW235913   3.988   4.532  13.396 -0.4987 -2.3247 -0.3002
 8152SOL     OW35914   2.412   1.982   4.160  0.2055 -0.3531 -0.5096
 8152SOL    HW135915   2.333   1.930   4.179 -0.1133 -0.4714 -2.1160
 8152SOL    HW235916   2.411   1.989   4.064 -2.0680  1.5000 -0.3380
 8153SOL     OW35917   2.470   0.758   3.496 -0.0157 -0.4862 -0.2909
 8153SOL    HW135918   2.516   0.786   3.417 -0.8893 -2.8101 -1.6117
 8153SOL    HW235919   2.419   0.690   3.453  1.2825 -0.5885 -1.6573
 8154SOL     OW35920   4.232   1.005   2.626 -0.3719  0.1275 -0.1687
 8154SOL    HW135921   4.317   0.966   2.647  0.3241  1.0930 -1.1547
 8154SOL    HW235922   4.198   0.928   2.581  0.0926 -0.6018  0.7257
 8155SOL     OW35923   3.240   2.458   4.098 -0.1189  0.0617  0.2119
 8155SOL    HW135924   3.309   2.392   4.101 -0.2885 -0.0670  1.5827
 8155SOL    HW235925   3.283   2.530   4.052  1.1400  0.3708  1.8591
 8156SOL     OW35926   0.932   1.278  15.322  0.1514  0.0853 -0.7381
 8156SOL    HW135927   0.962   1.364  15.293 -1.5017  1.0896  0.5166
 8156SOL    HW235928   1.015   1.235  15.341  0.1132 -0.1368 -1.0848
 8157SOL     OW35929   0.266   0.205   5.807 -0.8424 -0.2687  0.4129
 8157SOL    HW135930   0.225   0.204   5.894 -0.9244 -0.4884  0.3712
 8157SOL    HW235931   0.191   0.240   5.758  1.7488 -0.1843 -3.5055
 8158SOL     OW35932   2.882   4.198   3.566  0.0126 -0.3324 -0.2534
 8158SOL    HW135933   2.957   4.142   3.588  1.9056  2.0708 -0.5419
 8158SOL    HW235934   2.918   4.283   3.594  2.0339 -1.3808  0.3440
 8159SOL     OW35935   3.200   0.933   8.440 -0.0036 -0.1740  0.0238
 8159SOL    HW135936   3.293   0.925   8.460  0.8097  2.1935 -2.8784
 8159SOL    HW235937   3.185   0.871   8.368  0.6165 -1.6090  1.1159
 8160SOL     OW35938   4.620   1.764   1.740  0.1738 -0.6756 -0.3456
 8160SOL    HW135939   4.669   1.804   1.668  0.8509 -0.8669  0.0075
 8160SOL    HW235940   4.608   1.677   1.701  1.2269 -0.3029 -1.4840
 8161SOL     OW35941   1.465   4.159   0.850  0.0919 -0.1486 -0.3679
 8161SOL    HW135942   1.496   4.193   0.766 -1.9950 -1.2312 -1.5694
 8161SOL    HW235943   1.516   4.078   0.860  0.1657  0.1849  1.9669
 8162SOL     OW35944   0.900   1.560   5.710 -0.4235  0.3015 -0.1168
 8162SOL    HW135945   0.833   1.492   5.719  1.8538 -2.0165 -0.9687
 8162SOL    HW235946   0.840   1.616   5.661  1.6214  1.4108 -1.3318
 8163SOL     OW35947   4.584   1.521   3.215 -0.4195 -0.1673 -0.3943
 8163SOL    HW135948   4.670   1.481   3.210 -1.0398 -1.6193  0.5008
 8163SOL    HW235949   4.593   1.584   3.143  2.1702  0.9865  0.9349
 8164SOL     OW35950   0.772   3.299   6.111  0.3721 -0.2140  0.3657
 8164SOL    HW135951   0.677   3.291   6.098  0.2489  1.6003  0.1700
 8164SOL    HW235952   0.774   3.328   6.202 -0.2507 -0.2227  0.3842
 8165SOL     OW35953   1.429   3.666   4.216 -0.2044  0.1533 -0.1909
 8165SOL    HW135954   1.409   3.758   4.199  1.2334 -0.4201 -5.0677
 8165SOL    HW235955   1.350   3.650   4.268  1.3809 -1.0480  1.8563
 8166SOL     OW35956   0.412   4.158  13.385 -0.1804  0.4418  0.5165
 8166SOL    HW135957   0.395   4.116  13.301  0.0483 -0.4218  0.8973
 8166SOL    HW235958   0.507   4.143  13.388 -0.4443 -1.1651  0.9051
 8167SOL     OW35959   0.736   1.628  15.073  0.2194 -0.2455  0.6453
 8167SOL    HW135960   0.672   1.560  15.090  1.7508 -1.5994  0.9445
 8167SOL    HW235961   0.687   1.707  15.047 -1.2732 -1.4516 -0.1743
 8168SOL     OW35962   3.763   3.670  15.208 -0.3199 -0.3687  0.2350
 8168SOL    HW135963   3.687   3.613  15.202 -1.3896  0.8393  2.3737
 8168SOL    HW235964   3.727   3.744  15.257  0.0225 -0.7716  1.1054
 8169SOL     OW35965   2.290   3.002  15.771 -0.1088 -0.3397 -0.6324
 8169SOL    HW135966   2.265   3.051  15.849 -1.1419 -2.3114  0.2710
 8169SOL    HW235967   2.210   2.992  15.719 -1.4600  0.0264  1.3985
 8170SOL     OW35968   3.407   4.559   9.809  0.0484 -0.6267  0.4885
 8170SOL    HW135969   3.394   4.515   9.892  0.7492 -0.9316  0.4386
 8170SOL    HW235970   3.416   4.490   9.743  0.2430 -0.6049  0.4922
 8171SOL     OW35971   0.819   1.278   2.736 -0.3209  0.4240 -0.6037
 8171SOL    HW135972   0.868   1.277   2.653  0.0441 -2.3836 -0.3631
 8171SOL    HW235973   0.887   1.232   2.785 -2.4868 -1.6987  0.4054
 8172SOL     OW35974   4.328   0.653  10.060  0.6901 -0.2813 -0.0299
 8172SOL    HW135975   4.307   0.626   9.971  0.3531  3.2430 -1.0061
 8172SOL    HW235976   4.264   0.722  10.080  0.4659 -0.1907 -1.1035
 8173SOL     OW35977   4.100   1.367  15.447  0.2930  0.0833  0.5057
 8173SOL    HW135978   4.166   1.324  15.503 -1.4360  3.3019  5.0269
 8173SOL    HW235979   4.136   1.455  15.443 -0.4466  0.3713  0.2146
 8174SOL     OW35980   2.685   3.134   9.666  0.1455 -0.1855  0.1504
 8174SOL    HW135981   2.695   3.055   9.614  1.0082  1.0236 -1.5460
 8174SOL    HW235982   2.616   3.113   9.728 -2.7238  2.3486 -2.1495
 8175SOL     OW35983   2.642   2.630   8.436  0.2612 -0.2624 -0.1506
 8175SOL    HW135984   2.600   2.650   8.352  0.4981  1.1100  0.0695
 8175SOL    HW235985   2.617   2.700   8.496 -1.2397 -0.0883 -0.9895
 8176SOL     OW35986   2.349   1.524   7.000 -0.2507  0.4081  0.0471
 8176SOL    HW135987   2.322   1.610   6.969 -0.3041  0.2363 -0.3867
 8176SOL    HW235988   2.309   1.522   7.087  0.1413  0.0087  0.2151
 8177SOL     OW35989   0.816   1.483  12.406  0.3389 -0.5734 -0.3654
 8177SOL    HW135990   0.886   1.538  12.373  0.5343  0.8073  2.3008
 8177SOL    HW235991   0.752   1.549  12.434  0.9268 -0.1934  0.0888
 8178SOL     OW35992   4.211   2.378  16.141  0.0198 -0.7615  0.2200
 8178SOL    HW135993   4.295   2.334  16.124  0.3433 -0.3013  0.6308
 8178SOL    HW235994   4.245   2.458  16.180 -1.6110 -0.7345  1.5439
 8179SOL     OW35995   2.536   0.223   5.094  0.5820  0.2022  0.4752
 8179SOL    HW135996   2.444   0.198   5.089  0.4344  1.1104 -1.8884
 8179SOL    HW235997   2.574   0.141   5.125  1.8303  0.4621 -0.3647
 8180SOL     OW35998   3.351   2.574   1.561  0.1283  0.3159  1.0905
 8180SOL    HW135999   3.321   2.573   1.470 -1.6283  2.6930  1.6357
 8180SOL    HW236000   3.424   2.634   1.554  0.7122 -0.4628  0.5155
 8181SOL     OW36001   3.548   4.722   3.992  0.4238  0.3922 -0.0361
 8181SOL    HW136002   3.504   0.019   4.073 -1.5911 -1.6063 -0.5670
 8181SOL    HW236003   3.614   4.657   4.019 -1.0457 -0.5998  1.1579
 8182SOL     OW36004   3.160   0.141   5.449 -0.6889 -0.7508  0.0464
 8182SOL    HW136005   3.212   0.062   5.461  1.9780  0.9043 -0.5836
 8182SOL    HW236006   3.187   0.170   5.362  0.2720 -2.2592 -0.1621
 8183SOL     OW36007   4.114   4.457   4.276 -0.3302  0.8135 -0.1817
 8183SOL    HW136008   4.146   4.433   4.189 -1.3409 -1.3412  0.0386
 8183SOL    HW236009   4.055   4.385   4.299 -0.6042  1.6085  1.5941
 8184SOL     OW36010   0.183   2.699   3.359  0.6855  0.4701  0.8985
 8184SOL    HW136011   0.112   2.701   3.296  0.7629  0.4852  0.8115
 8184SOL    HW236012   0.241   2.771   3.332 -0.6788  1.4659  0.6518
 8185SOL     OW36013   3.179   2.575  15.967  0.1836 -0.0450  0.2954
 8185SOL    HW136014   3.084   2.570  15.970  0.2555 -1.6067 -0.1929
 8185SOL    HW236015   3.199   2.499  16.021 -1.5666  0.4489  1.6449
 8186SOL     OW36016   2.451   4.717  15.029  0.2569 -0.0027 -1.0800
 8186SOL    HW136017   2.534   4.692  15.068  0.2427 -0.3045 -1.2433
 8186SOL    HW236018   2.477   0.056  14.962 -1.7408  1.4129 -0.4901
 8187SOL     OW36019   2.603   0.737  12.058 -0.5535 -0.4015  0.0820
 8187SOL    HW136020   2.613   0.755  11.965  0.2745  1.1770  0.4770
 8187SOL    HW236021   2.686   0.769  12.094 -0.7142  0.0605  0.0420
 8188SOL     OW36022   1.812   1.788   1.687 -0.5065 -0.1877  0.0561
 8188SOL    HW136023   1.795   1.880   1.668  1.4378  0.3871  1.0354
 8188SOL    HW236024   1.848   1.768   1.601  0.0904 -0.7289  0.4346
 8189SOL     OW36025   2.098   4.660   7.513  0.0146  0.2530 -0.4637
 8189SOL    HW136026   2.032   0.003   7.522 -1.1419 -0.8223 -0.8230
 8189SOL    HW236027   2.040   4.584   7.509  1.0511 -0.4690 -1.9007
 8190SOL     OW36028   2.322   1.877  14.444  0.3692  0.3400 -0.1567
 8190SOL    HW136029   2.266   1.955  14.442 -1.8698 -1.2501  0.1515
 8190SOL    HW236030   2.371   1.894  14.363 -0.0251  0.5192 -0.3604
 8191SOL     OW36031   2.066   3.267   4.412 -0.2334  0.4121  0.1539
 8191SOL    HW136032   2.074   3.196   4.476 -4.2300  0.6757  0.9349
 8191SOL    HW236033   2.123   3.244   4.338  0.7940  1.2387  0.6977
 8192SOL     OW36034   2.375   3.307  10.628 -0.0599 -0.6121  0.3546
 8192SOL    HW136035   2.429   3.379  10.598 -2.7828  0.8775 -0.9910
 8192SOL    HW236036   2.285   3.336  10.612 -0.8979 -2.0995  2.3405
 8193SOL     OW36037   4.052   1.331  12.595  0.4134  0.6451  0.2090
 8193SOL    HW136038   3.993   1.279  12.650 -1.0680  0.4605 -1.5570
 8193SOL    HW236039   3.989   1.361  12.529  0.4485 -0.5518 -0.3676
 8194SOL     OW36040   3.673   0.959   7.797 -0.3484 -0.1592  0.9158
 8194SOL    HW136041   3.751   0.919   7.757  0.4630  1.3484  0.9819
 8194SOL    HW236042   3.671   0.909   7.879  2.1076  0.0119  1.0827
 8195SOL     OW36043   2.516   3.944   1.695  0.2505 -0.4570  0.0320
 8195SOL    HW136044   2.577   4.018   1.691  0.8303 -0.7813  2.4595
 8195SOL    HW236045   2.585   3.878   1.698  0.8503  0.0688 -2.8524
 8196SOL     OW36046   2.495   2.271   7.115 -0.4581  0.4742  0.2769
 8196SOL    HW136047   2.428   2.202   7.107 -0.1080  0.0100  1.3178
 8196SOL    HW236048   2.500   2.277   7.210  0.6458 -3.1827  0.4533
 8197SOL     OW36049   0.191   2.456  11.170 -0.3192 -0.5030 -0.6566
 8197SOL    HW136050   0.192   2.501  11.254 -0.3569 -3.4031  0.9040
 8197SOL    HW236051   0.101   2.428  11.156 -0.0608 -0.8169 -1.7010
 8198SOL     OW36052   0.851   1.950   5.628 -0.0382  0.8197 -0.0179
 8198SOL    HW136053   0.892   1.898   5.559 -1.8789  1.0969 -1.3262
 8198SOL    HW236054   0.785   1.889   5.660  1.0156 -0.6016 -0.5851
 8199SOL     OW36055   3.126   1.827   5.751  0.4149  0.0423 -0.2541
 8199SOL    HW136056   3.196   1.776   5.710 -0.2936 -1.1494  0.0180
 8199SOL    HW236057   3.047   1.780   5.722  2.5797 -2.8351 -1.5288
 8200SOL     OW36058   4.452   1.639   6.956  0.3831 -0.4263 -0.5390
 8200SOL    HW136059   4.378   1.656   6.898 -0.9477  0.8867  1.5424
 8200SOL    HW236060   4.440   1.548   6.984 -1.1718  0.7764  2.7422
 8201SOL     OW36061   4.572   3.904   5.100 -0.9437 -0.0259 -0.3870
 8201SOL    HW136062   4.648   3.888   5.156 -0.4216  1.3275 -0.7117
 8201SOL    HW236063   4.586   3.852   5.020  0.9678 -1.9491  1.1750
 8202SOL     OW36064   3.696   0.330   3.821 -0.5690 -0.4868  0.3475
 8202SOL    HW136065   3.772   0.287   3.859  0.5307 -1.4274 -2.8938
 8202SOL    HW236066   3.617   0.293   3.862 -0.8976  0.5358  0.6276
 8203SOL     OW36067   2.509   4.375   2.412 -0.0112  0.3608 -0.5509
 8203SOL    HW136068   2.489   4.364   2.320 -2.1235 -1.1385  0.1031
 8203SOL    HW236069   2.555   4.292   2.423 -0.8753 -0.1754 -1.0465
 8204SOL     OW36070   3.572   2.713  11.240  0.1438 -0.2301  0.0417
 8204SOL    HW136071   3.634   2.710  11.313  1.6056 -1.1311 -1.2610
 8204SOL    HW236072   3.547   2.805  11.253  0.1680  0.0952 -2.2974
 8205SOL     OW36073   0.117   0.489   5.688 -0.1755  0.1073 -0.0262
 8205SOL    HW136074   0.131   0.466   5.780 -0.3459  1.9460  0.4621
 8205SOL    HW236075   0.025   0.469   5.672 -0.5514  0.2251  1.9027
 8206SOL     OW36076   0.845   1.907  15.096  0.6348  0.4858 -0.1899
 8206SOL    HW136077   0.756   1.911  15.131  1.0419 -2.0018  1.1540
 8206SOL    HW236078   0.876   1.997  15.094  0.5503  0.4866 -1.4738
 8207SOL     OW36079   2.557   2.000   8.646 -0.4501 -0.4848  0.6235
 8207SOL    HW136080   2.512   1.920   8.619  0.4236 -1.2263  1.3669
 8207SOL    HW236081   2.488   2.036   8.702 -0.2908  0.4344  0.2338
 8208SOL     OW36082   4.432   1.668   2.954  0.1227  0.2753  0.5588
 8208SOL    HW136083   4.491   1.740   2.932  0.8480 -1.1807 -2.2829
 8208SOL    HW236084   4.371   1.662   2.880  2.6066  1.4932 -1.6000
 8209SOL     OW36085   2.097   0.638   3.274 -0.0592 -0.4844  0.0076
 8209SOL    HW136086   2.010   0.636   3.235 -0.7010 -1.8497  1.5279
 8209SOL    HW236087   2.117   0.726   3.244 -0.5601  0.4283  2.3896
 8210SOL     OW36088   1.428   0.523   5.003  0.3537  0.0803  0.0318
 8210SOL    HW136089   1.470   0.438   5.021 -0.7948 -0.3697  0.6115
 8210SOL    HW236090   1.430   0.523   4.907 -1.5811 -2.9543 -0.0285
 8211SOL     OW36091   2.046   4.076   5.394 -0.3771 -0.1522  0.5149
 8211SOL    HW136092   2.079   3.987   5.378  0.3493  0.3057 -0.5124
 8211SOL    HW236093   2.061   4.115   5.308  1.5419 -0.9819  0.4540
 8212SOL     OW36094   3.603   2.727   8.266  0.1201 -0.4478 -0.1641
 8212SOL    HW136095   3.634   2.715   8.356 -0.4154 -1.2202 -0.0880
 8212SOL    HW236096   3.508   2.719   8.269 -0.1004  2.3275  0.8517
 8213SOL     OW36097   0.106   4.048   7.648 -0.4786 -0.5958 -0.2693
 8213SOL    HW136098   0.170   4.117   7.634 -0.3134 -0.8335 -0.6701
 8213SOL    HW236099   0.025   4.098   7.661  0.7511  2.1732 -3.3459
 8214SOL     OW36100   1.149   2.034  11.271 -0.1764 -0.0234  0.8828
 8214SOL    HW136101   1.099   2.082  11.337  0.4434 -0.0639  1.3855
 8214SOL    HW236102   1.099   1.953  11.278  0.3487 -0.3302  1.0957
 8215SOL     OW36103   0.982   3.333   5.964  0.1646  0.6182 -0.5406
 8215SOL    HW136104   0.903   3.324   6.018  1.2372  0.4789  0.9921
 8215SOL    HW236105   0.936   3.333   5.880 -0.1325  2.9468 -0.3704
 8216SOL     OW36106   0.472   4.101   9.988 -0.1808  0.3406  0.4769
 8216SOL    HW136107   0.553   4.145   9.962  0.0002 -0.6833 -0.6767
 8216SOL    HW236108   0.482   4.110  10.083 -0.9606  2.7411  0.3141
 8217SOL     OW36109   0.637   1.150   3.976  0.0096  0.5687 -0.2393
 8217SOL    HW136110   0.629   1.058   4.000 -1.1289  0.2438 -1.8171
 8217SOL    HW236111   0.597   1.194   4.051 -1.2831 -0.9782 -0.0386
 8218SOL     OW36112   3.735   2.764   4.934 -0.1583  0.2843  0.1995
 8218SOL    HW136113   3.664   2.823   4.960 -0.2720 -1.2467  3.4814
 8218SOL    HW236114   3.736   2.770   4.839 -2.4458  3.0867  0.3487
 8219SOL     OW36115   3.722   0.594  10.288 -0.2338  0.3046 -0.2577
 8219SOL    HW136116   3.702   0.632  10.373  1.5431  0.5073  0.0624
 8219SOL    HW236117   3.815   0.609  10.273 -0.2720  0.5907 -0.2098
 8220SOL     OW36118   0.925   3.801   4.198  0.0573 -0.3857  0.0707
 8220SOL    HW136119   0.868   3.820   4.123  1.9351  1.5184 -0.8824
 8220SOL    HW236120   1.003   3.856   4.191  0.7309 -1.4029 -0.4368
 8221SOL     OW36121   4.411   0.478  10.568  0.3151 -0.0723  0.1708
 8221SOL    HW136122   4.411   0.439  10.481  0.1640 -2.3223  1.1813
 8221SOL    HW236123   4.421   0.567  10.535 -2.7076 -0.5842 -2.0422
 8222SOL     OW36124   4.163   0.240   0.600  0.4443  0.7492  0.1664
 8222SOL    HW136125   4.168   0.149   0.630 -1.0895  1.8283  3.6738
 8222SOL    HW236126   4.159   0.232   0.505  0.4736  1.1520  0.1322
 8223SOL     OW36127   0.152   3.198  14.925 -0.5635  0.0192 -0.1235
 8223SOL    HW136128   0.149   3.289  14.952 -0.5653 -0.1864  0.5667
 8223SOL    HW236129   0.243   3.178  14.945 -0.6991  1.2999  1.6578
 8224SOL     OW36130   4.311   4.625   7.652  0.0447 -0.2353 -0.0543
 8224SOL    HW136131   4.261   4.546   7.629 -1.2127 -0.1230  2.3556
 8224SOL    HW236132   4.300   4.626   7.747 -2.8323 -1.1860 -0.3503
 8225SOL     OW36133   3.436   0.808   5.081  0.3003  0.3417  0.0059
 8225SOL    HW136134   3.382   0.807   5.003  1.6924 -4.0513 -0.9243
 8225SOL    HW236135   3.507   0.855   5.038  2.4316 -1.9096  1.0801
 8226SOL     OW36136   4.442   2.575   4.862  0.0289  0.5624  0.7374
 8226SOL    HW136137   4.364   2.575   4.917 -0.2334  1.7240  0.3636
 8226SOL    HW236138   4.480   2.491   4.890  1.1525  1.3841  1.6664
 8227SOL     OW36139   3.320   3.262   6.055  0.4417  0.0110 -0.3329
 8227SOL    HW136140   3.401   3.286   6.011  0.1160  0.3643 -0.7480
 8227SOL    HW236141   3.340   3.321   6.128 -3.0375  0.9234 -0.1074
 8228SOL     OW36142   2.017   1.755   7.196  0.0661  0.0738 -0.0107
 8228SOL    HW136143   2.025   1.752   7.101  0.0808  0.6455 -0.0279
 8228SOL    HW236144   1.924   1.739   7.214 -0.3851  2.7417  0.0375
 8229SOL     OW36145   0.515   3.355   0.313 -0.4870  0.1637  0.0388
 8229SOL    HW136146   0.564   3.398   0.382 -0.2686 -0.2215  0.1229
 8229SOL    HW236147   0.529   3.410   0.236  1.9408  2.6054  2.2479
 8230SOL     OW36148   1.488   4.389   1.009  0.1773  0.1644  0.0603
 8230SOL    HW136149   1.580   4.414   1.019  0.6458 -1.1658 -0.8813
 8230SOL    HW236150   1.499   4.318   0.945 -0.5506 -0.7061  0.9059
 8231SOL     OW36151   3.494   2.490   2.160 -0.4392  0.1721  0.0074
 8231SOL    HW136152   3.549   2.474   2.084  0.6960 -0.6023  0.9909
 8231SOL    HW236153   3.507   2.410   2.211 -0.5389 -1.0577 -1.9038
 8232SOL     OW36154   3.732   1.928   6.995  0.0915 -0.0752  0.1591
 8232SOL    HW136155   3.648   1.929   7.042 -0.2496 -1.4713 -0.4276
 8232SOL    HW236156   3.693   1.977   6.922 -0.2966  0.2490  0.5826
 8233SOL     OW36157   3.241   1.640   5.324  0.5515 -0.3020 -0.4854
 8233SOL    HW136158   3.222   1.655   5.231  1.6096 -2.0850 -0.9908
 8233SOL    HW236159   3.160   1.595   5.347 -0.1438  0.7433 -0.8609
 8234SOL     OW36160   3.630   3.697  17.571  0.2625 -0.8976 -0.6232
 8234SOL    HW136161   3.567   3.729  17.636 -0.4320 -1.8916 -0.8196
 8234SOL    HW236162   3.597   3.727  17.487 -1.8309  0.1194  0.5736
 8235SOL     OW36163   4.565   2.371   8.964  0.4452 -0.1533 -0.1502
 8235SOL    HW136164   4.533   2.282   8.949  0.5878 -0.2509  0.1152
 8235SOL    HW236165   4.654   2.355   8.997 -0.0425 -1.1868  0.6588
 8236SOL     OW36166   1.566   2.475   1.147 -0.6724  0.5171  0.2260
 8236SOL    HW136167   1.495   2.469   1.211 -1.1179  1.0099 -0.2321
 8236SOL    HW236168   1.527   2.439   1.068 -0.6584  0.1578  0.3822
 8237SOL     OW36169   3.099   4.416  12.571 -0.5295 -0.1322 -0.3647
 8237SOL    HW136170   3.163   4.419  12.641  0.2210 -1.2897 -0.9992
 8237SOL    HW236171   3.036   4.354  12.609 -0.4195  0.5711  0.9403
 8238SOL     OW36172   0.604   2.412   5.789  0.8401 -0.1903 -0.3456
 8238SOL    HW136173   0.683   2.361   5.810  1.8406  1.0902 -0.9804
 8238SOL    HW236174   0.585   2.453   5.873 -1.0076  0.0272 -0.8791
 8239SOL     OW36175   3.379   1.795   2.917  0.1368 -0.1661 -0.2043
 8239SOL    HW136176   3.364   1.758   2.830 -0.5064  1.6189 -0.8626
 8239SOL    HW236177   3.466   1.762   2.935 -0.4432 -1.3569  0.4076
 8240SOL     OW36178   0.102   4.435   6.642  0.5427 -0.5627  0.6873
 8240SOL    HW136179   0.144   4.493   6.580  0.2397 -0.8749  0.1843
 8240SOL    HW236180   0.107   4.488   6.722 -1.0383 -0.4433  0.7190
 8241SOL     OW36181   2.602   4.526   7.794 -0.0403  0.7288 -0.4923
 8241SOL    HW136182   2.508   4.529   7.811 -0.4414  0.4774 -2.6119
 8241SOL    HW236183   2.596   4.448   7.739  2.0523  1.6002 -1.9493
 8242SOL     OW36184   4.180   1.328   5.598 -0.0915  0.1366 -0.7497
 8242SOL    HW136185   4.240   1.397   5.626 -0.3851 -0.1476  0.5802
 8242SOL    HW236186   4.204   1.271   5.671  0.4582 -1.6928 -2.3548
 8243SOL     OW36187   1.034   3.270   1.604  0.4743  0.0348 -0.0103
 8243SOL    HW136188   0.973   3.326   1.653 -0.2118 -0.9215  0.2314
 8243SOL    HW236189   0.994   3.271   1.517 -4.1608 -0.0780  2.1144
 8244SOL     OW36190   2.488   0.488   9.770  0.3201 -0.0615  0.0661
 8244SOL    HW136191   2.399   0.490   9.734  0.9985  2.2911 -1.4771
 8244SOL    HW236192   2.464   0.489   9.863 -0.9924 -1.9312 -0.2571
 8245SOL     OW36193   4.294   0.427   3.720  0.4058 -0.2842 -0.0656
 8245SOL    HW136194   4.347   0.438   3.642 -0.7903 -0.9333 -0.9742
 8245SOL    HW236195   4.323   0.340   3.748 -1.0404 -1.0405 -0.8840
 8246SOL     OW36196   1.712   0.660   5.774  0.2763 -0.3022 -0.0163
 8246SOL    HW136197   1.770   0.693   5.706  1.6157 -4.5569 -0.9738
 8246SOL    HW236198   1.709   0.738   5.829 -0.4015  0.2130 -0.7901
 8247SOL     OW36199   2.075   2.496   8.232 -0.2196  0.0706 -0.2110
 8247SOL    HW136200   2.055   2.588   8.215 -1.5668 -0.2351 -0.2802
 8247SOL    HW236201   1.998   2.468   8.282 -0.7146 -0.4550 -1.2708
 8248SOL     OW36202   3.025   2.793   1.069 -0.3884  0.6037  0.3588
 8248SOL    HW136203   3.104   2.841   1.095 -0.2699  0.8782 -0.5095
 8248SOL    HW236204   3.065   2.707   1.053 -1.3642  0.4674 -1.3625
 8249SOL     OW36205   0.385   0.531  12.278 -0.4022  0.0867  0.1108
 8249SOL    HW136206   0.299   0.494  12.300 -0.7863  0.5903 -0.5267
 8249SOL    HW236207   0.373   0.614  12.325 -2.1810  0.2935 -0.7012
 8250SOL     OW36208   2.204   2.419   6.562  0.0807 -1.0265 -0.1596
 8250SOL    HW136209   2.239   2.343   6.516 -0.5307  0.6795 -3.4323
 8250SOL    HW236210   2.115   2.393   6.585 -0.4949 -0.6377 -1.9550
 8251SOL     OW36211   1.801   2.617   0.327 -0.0508 -0.5141  0.4084
 8251SOL    HW136212   1.737   2.686   0.311 -1.2663 -1.6987  0.1373
 8251SOL    HW236213   1.877   2.656   0.370 -1.1950  1.6846  0.3966
 8252SOL     OW36214   3.070   3.284   5.914  0.0753 -0.1434 -0.1387
 8252SOL    HW136215   3.158   3.290   5.951 -0.5571  1.1212  1.1603
 8252SOL    HW236216   3.099   3.230   5.840  0.2951 -0.3140  0.0744
 8253SOL     OW36217   2.114   0.965  17.058 -0.0795 -0.3448 -0.3179
 8253SOL    HW136218   2.022   0.990  17.056  0.1330  0.1725 -3.4378
 8253SOL    HW236219   2.145   0.993  17.144  0.5847  0.2082 -0.7320
 8254SOL     OW36220   2.609   3.130   0.253  0.0511 -0.0933  0.1565
 8254SOL    HW136221   2.679   3.067   0.272 -1.2707 -1.8724 -0.8177
 8254SOL    HW236222   2.553   3.119   0.329 -0.8867 -0.9322 -0.6494
 8255SOL     OW36223   1.266   0.023   3.982  0.1987  0.0773  0.8162
 8255SOL    HW136224   1.345   0.069   4.010  1.7271 -2.0940  0.0502
 8255SOL    HW236225   1.221   0.017   4.066 -0.0788  0.3530  0.6908
 8256SOL     OW36226   2.087   3.018   8.155 -0.3869  0.1825 -0.4060
 8256SOL    HW136227   2.109   3.058   8.239  0.7572 -1.7777  0.2060
 8256SOL    HW236228   2.098   3.096   8.101  0.1162  0.4821  0.1348
 8257SOL     OW36229   3.644   1.948   2.161  0.4983 -0.3739 -0.4989
 8257SOL    HW136230   3.714   1.985   2.106  0.4877  1.0551  0.4585
 8257SOL    HW236231   3.588   1.915   2.091 -0.8299  0.4343  0.2057
 8258SOL     OW36232   3.933   4.462   2.084  0.1509  0.0250 -0.1584
 8258SOL    HW136233   3.903   4.403   2.153  2.3157 -0.5811  0.2602
 8258SOL    HW236234   4.026   4.440   2.080 -0.4011 -2.7819  1.7639
 8259SOL     OW36235   3.260   3.638   8.806 -0.1041 -0.7686 -0.2368
 8259SOL    HW136236   3.200   3.565   8.790 -1.3494  0.2762 -0.3448
 8259SOL    HW236237   3.329   3.619   8.743 -0.3474  2.1877 -1.3664
 8260SOL     OW36238   3.952   3.729   8.440 -0.1014 -0.5357 -0.1582
 8260SOL    HW136239   3.990   3.677   8.369  1.6308 -0.3554  0.6250
 8260SOL    HW236240   3.872   3.758   8.396 -0.6586 -0.7313  0.7415
 8261SOL     OW36241   4.186   1.201   8.811 -0.6162 -0.0128 -0.0959
 8261SOL    HW136242   4.112   1.236   8.861  0.3671  0.6432  0.9091
 8261SOL    HW236243   4.185   1.111   8.844 -1.2938  0.2615  0.6286
 8262SOL     OW36244   2.606   2.977   4.025  0.2166  0.1500 -0.1186
 8262SOL    HW136245   2.642   3.062   4.050  1.4114 -0.0864 -1.0664
 8262SOL    HW236246   2.678   2.916   4.042  1.2972  1.2406 -0.7827
 8263SOL     OW36247   0.162   1.857  10.016 -0.0517 -0.3983  0.1589
 8263SOL    HW136248   0.255   1.847  10.039  0.1363 -0.8540 -0.8007
 8263SOL    HW236249   0.152   1.792   9.947  0.0732 -0.5374  0.2708
 8264SOL     OW36250   2.360   3.624   7.233 -0.7099 -0.4740 -0.1437
 8264SOL    HW136251   2.391   3.619   7.142  0.0057 -0.4027  0.1048
 8264SOL    HW236252   2.363   3.531   7.254  1.7048  0.1080  2.0046
 8265SOL     OW36253   1.937   0.359   2.853  0.5247 -0.1257  0.1423
 8265SOL    HW136254   1.914   0.448   2.879 -2.5414 -0.7820 -0.3823
 8265SOL    HW236255   2.004   0.377   2.787  2.9127 -2.1967  1.9807
 8266SOL     OW36256   1.205   0.230   4.304  0.1563 -0.6378 -0.4245
 8266SOL    HW136257   1.289   0.211   4.263  0.8896 -1.2995  1.3937
 8266SOL    HW236258   1.186   0.145   4.342 -2.2761  0.7819  1.5551
 8267SOL     OW36259   2.793   0.183   6.013  0.3365 -0.3912  1.0223
 8267SOL    HW136260   2.832   0.096   6.008 -2.6888 -1.8358  2.6774
 8267SOL    HW236261   2.784   0.200   5.920 -0.1927  0.4210  1.2193
 8268SOL     OW36262   4.023   2.771   5.052 -0.2948 -0.2201 -0.2584
 8268SOL    HW136263   3.947   2.747   5.001 -0.1038 -1.3235 -0.0171
 8268SOL    HW236264   4.057   2.830   4.985  1.1588 -1.7388 -0.8580
 8269SOL     OW36265   1.435   3.511  13.499 -0.0966  0.1174 -0.5432
 8269SOL    HW136266   1.413   3.428  13.456  0.4159 -3.2318  5.7649
 8269SOL    HW236267   1.507   3.490  13.559 -0.9585 -1.4570 -0.0623
 8270SOL     OW36268   2.558   3.635   3.151  0.3174  0.3136  0.0479
 8270SOL    HW136269   2.483   3.672   3.106 -0.0565 -0.3681  0.1126
 8270SOL    HW236270   2.539   3.542   3.141 -0.6245  0.4883  0.2477
 8271SOL     OW36271   0.247   2.147  16.254  0.6524 -0.2010  0.2523
 8271SOL    HW136272   0.232   2.061  16.215  0.4561  0.2039 -0.5577
 8271SOL    HW236273   0.343   2.150  16.248  0.7068 -0.2137  1.0990
 8272SOL     OW36274   3.411   3.962  14.768 -0.3432  0.0871  0.2940
 8272SOL    HW136275   3.322   3.981  14.798 -1.4132 -0.7626 -2.3124
 8272SOL    HW236276   3.446   3.912  14.841 -1.6215 -0.4537  0.5379
 8273SOL     OW36277   0.438   4.495   2.543 -0.5225  0.1329 -0.5980
 8273SOL    HW136278   0.360   4.495   2.488  0.3284 -2.0983 -1.7799
 8273SOL    HW236279   0.501   4.539   2.485  0.9142 -3.1114 -1.4724
 8274SOL     OW36280   0.901   4.666  11.355 -0.0863  0.2243 -0.6118
 8274SOL    HW136281   0.993   4.658  11.379 -0.6694 -0.9501  1.2682
 8274SOL    HW236282   0.860   4.637  11.437  0.4814 -2.8441 -1.3834
 8275SOL     OW36283   1.491   3.367   7.051 -0.4404 -0.4052  0.3237
 8275SOL    HW136284   1.508   3.329   7.138 -1.5042  1.6398  1.4070
 8275SOL    HW236285   1.539   3.307   6.994  0.1185  0.5941 -0.2319
 8276SOL     OW36286   2.886   4.665   6.003 -0.0439  0.0733  0.2562
 8276SOL    HW136287   2.892   4.585   6.055  0.8870 -0.7822 -1.1591
 8276SOL    HW236288   2.821   4.642   5.936  1.4554 -1.3340 -0.7011
 8277SOL     OW36289   1.121   4.602  11.747 -0.3645  0.7741 -0.3725
 8277SOL    HW136290   1.081   4.523  11.711  0.8412  0.1638 -0.3703
 8277SOL    HW236291   1.202   4.611  11.698 -0.4842 -1.4595 -0.9659
 8278SOL     OW36292   4.208   1.512  10.162 -0.2106  0.8090 -0.1178
 8278SOL    HW136293   4.179   1.527  10.072 -0.1207  1.6513 -0.0056
 8278SOL    HW236294   4.276   1.579  10.169 -0.0017  0.5116  0.6990
 8279SOL     OW36295   1.317   2.714   6.121 -0.8923  0.3492  0.1176
 8279SOL    HW136296   1.307   2.809   6.116  3.0736  0.8544  2.4823
 8279SOL    HW236297   1.231   2.678   6.143 -0.6428  0.4551  1.2283
 8280SOL     OW36298   2.939   3.685   7.340  0.2924  0.4224  0.2277
 8280SOL    HW136299   2.877   3.664   7.270  0.1552 -1.1577  0.8113
 8280SOL    HW236300   2.992   3.605   7.343  0.1064  0.2737 -0.4182
 8281SOL     OW36301   2.355   2.641   5.629  0.7372 -0.7813 -0.2326
 8281SOL    HW136302   2.350   2.736   5.615 -3.7901 -1.0112 -0.1537
 8281SOL    HW236303   2.297   2.639   5.705  0.2153 -1.0213 -0.6341
 8282SOL     OW36304   2.887   3.583   3.137 -0.2819 -0.3391  0.6513
 8282SOL    HW136305   2.814   3.563   3.078 -1.8719  0.5453  2.3183
 8282SOL    HW236306   2.908   3.492   3.152 -0.0341 -0.2366  0.9167
 8283SOL     OW36307   0.140   3.450   2.690 -0.1814  0.3616  0.3339
 8283SOL    HW136308   0.167   3.517   2.752 -2.1813  1.0495  0.4581
 8283SOL    HW236309   0.097   3.509   2.628 -0.7176  0.1408  0.4931
 8284SOL     OW36310   2.046   2.123   4.519 -0.0133  0.3350  0.2012
 8284SOL    HW136311   2.138   2.130   4.544 -0.3369  0.4440  1.3735
 8284SOL    HW236312   2.012   2.184   4.585 -0.8920 -0.1718  0.2143
 8285SOL     OW36313   4.009   3.171   6.847 -0.1047 -0.2059 -0.0014
 8285SOL    HW136314   4.103   3.164   6.864  0.0837  0.7886 -0.6193
 8285SOL    HW236315   3.997   3.157   6.753  0.1281  2.0293 -0.3804
 8286SOL     OW36316   1.986   2.202  13.975 -0.4730 -0.1398  1.2298
 8286SOL    HW136317   1.977   2.293  13.947  0.8812 -0.0574  1.0306
 8286SOL    HW236318   1.897   2.180  14.001 -0.4264 -1.9157 -0.1820
 8287SOL     OW36319   1.998   0.443   7.940 -0.0156  0.8012  0.1747
 8287SOL    HW136320   2.088   0.448   7.908  0.2461  0.8217  0.9097
 8287SOL    HW236321   1.964   0.355   7.926  2.5013  0.1170 -1.5982
 8288SOL     OW36322   4.398   4.040   7.787  0.0965 -0.1764 -0.0270
 8288SOL    HW136323   4.395   3.964   7.728 -0.1528 -0.2700  0.1028
 8288SOL    HW236324   4.361   4.007   7.869 -0.5527  0.3597 -0.1032
 8289SOL     OW36325   0.860   4.526  12.213  0.3566 -0.0724  0.1164
 8289SOL    HW136326   0.889   4.532  12.122 -0.1573  0.6506  0.0045
 8289SOL    HW236327   0.854   4.430  12.207 -1.2977  0.1015 -0.9490
 8290SOL     OW36328   4.056   0.016   8.964  0.2227  0.1918 -0.0219
 8290SOL    HW136329   4.017   4.699   8.887  3.3908  1.5165 -2.3627
 8290SOL    HW236330   4.143   4.702   8.963  0.4864  0.7791 -0.4240
 8291SOL     OW36331   2.151   0.130  12.304 -0.1914 -0.5770  0.6383
 8291SOL    HW136332   2.227   0.132  12.245  0.3881 -1.0645  1.3724
 8291SOL    HW236333   2.092   0.190  12.258 -0.8034 -1.8142 -0.1777
 8292SOL     OW36334   4.066   3.431   2.287 -0.3849  0.1614  0.1109
 8292SOL    HW136335   4.110   3.395   2.210  1.3180 -0.5794  1.4271
 8292SOL    HW236336   3.987   3.377   2.290  0.2045 -0.5975  2.3674
 8293SOL     OW36337   0.057   3.040  17.673  0.2480  0.2957 -0.1559
 8293SOL    HW136338   0.015   3.010  17.593  1.0123  1.5328 -1.0232
 8293SOL    HW236339   0.133   2.983  17.681 -0.2483 -1.0376 -4.8776
 8294SOL     OW36340   2.472   0.327   8.103 -0.1014  0.0502  0.3773
 8294SOL    HW136341   2.400   0.303   8.161 -1.2312 -1.9868 -1.8781
 8294SOL    HW236342   2.461   0.422   8.100 -0.2499  0.0882  2.6492
 8295SOL     OW36343   2.707   2.117   6.975 -0.3670 -0.3488 -0.2167
 8295SOL    HW136344   2.724   2.038   7.026 -3.4753 -0.6349  0.3685
 8295SOL    HW236345   2.656   2.163   7.041 -0.0986  1.7094 -1.4444
 8296SOL     OW36346   1.522   3.783   6.107 -0.0484 -0.3131 -0.1863
 8296SOL    HW136347   1.440   3.817   6.143  1.2753  2.1785  0.4807
 8296SOL    HW236348   1.588   3.785   6.176  1.1065  1.3335 -1.3273
 8297SOL     OW36349   0.249   4.516   9.617 -0.2269 -0.0187 -0.1289
 8297SOL    HW136350   0.322   4.454   9.612 -0.5743 -0.5040  0.7910
 8297SOL    HW236351   0.217   4.516   9.526 -0.1454 -0.6214 -0.1603
 8298SOL     OW36352   1.316   3.797   2.812 -0.3095  0.3286  0.1986
 8298SOL    HW136353   1.319   3.890   2.791 -2.3838  0.0581 -1.2584
 8298SOL    HW236354   1.395   3.763   2.770 -1.9157  0.3852 -2.8181
 8299SOL     OW36355   0.899   2.611   2.567 -0.3641  0.3873 -0.2740
 8299SOL    HW136356   0.994   2.597   2.575 -0.8952 -2.7058  0.5203
 8299SOL    HW236357   0.891   2.610   2.471 -1.6542  0.6678 -0.1692
 8300SOL     OW36358   4.495   2.931   6.593  0.3368  0.6004  0.4731
 8300SOL    HW136359   4.567   2.910   6.653  1.1198  0.9503 -0.3426
 8300SOL    HW236360   4.462   2.846   6.564  1.4185  0.8581 -1.5305
 8301SOL     OW36361   2.015   4.444   8.609  0.4414  0.2659 -0.2068
 8301SOL    HW136362   2.091   4.485   8.568 -1.8135  2.0283 -2.5924
 8301SOL    HW236363   1.961   4.518   8.636 -0.4661 -0.2007 -0.7536
 8302SOL     OW36364   0.143   2.970  16.356 -0.7115 -0.8001  0.3221
 8302SOL    HW136365   0.145   2.924  16.440  2.1700 -1.5312 -0.1471
 8302SOL    HW236366   0.145   3.062  16.382 -2.1985 -1.4335  2.7451
 8303SOL     OW36367   0.788   1.063   0.540 -0.0488 -0.6308  0.1056
 8303SOL    HW136368   0.811   1.046   0.631 -1.7203  1.0769  0.8496
 8303SOL    HW236369   0.731   0.989   0.523 -0.3497 -0.2875 -0.3761
 8304SOL     OW36370   4.618   3.489  17.251  0.2883  0.5540 -0.1598
 8304SOL    HW136371   4.624   3.397  17.226 -2.4050 -0.0873  1.5100
 8304SOL    HW236372   4.577   3.472  17.336 -0.4904 -0.8894 -0.8096
 8305SOL     OW36373   3.300   0.247  17.373  0.4397  0.6433 -0.7026
 8305SOL    HW136374   3.342   0.242  17.459  1.9666  0.9933 -1.4079
 8305SOL    HW236375   3.211   0.226  17.400 -0.1754  0.8048 -2.5775
 8306SOL     OW36376   3.825   0.749   2.748  0.0308 -0.2695  0.3135
 8306SOL    HW136377   3.763   0.773   2.679  0.0197  0.7710  0.6849
 8306SOL    HW236378   3.800   0.659   2.769  3.6297 -1.2238  0.5106
 8307SOL     OW36379   4.518   3.527   8.741  0.1451 -0.1676 -0.4365
 8307SOL    HW136380   4.480   3.615   8.737 -0.1005 -0.3001 -0.9806
 8307SOL    HW236381   4.443   3.468   8.740  0.1036 -0.1692  1.4625
 8308SOL     OW36382   3.028   2.464  13.084 -0.3431 -0.4524  0.2614
 8308SOL    HW136383   2.970   2.432  13.015 -2.3358 -2.5369  2.8673
 8308SOL    HW236384   2.971   2.465  13.161 -0.2885 -0.7093  0.3066
 8309SOL     OW36385   0.563   0.518   7.351  0.2445 -0.1286  0.3753
 8309SOL    HW136386   0.618   0.498   7.428  0.5852  0.1714  0.2118
 8309SOL    HW236387   0.488   0.550   7.401  0.0303  1.3351 -0.9003
 8310SOL     OW36388   2.610   4.190   3.486  0.3302 -0.6379  0.3338
 8310SOL    HW136389   2.702   4.163   3.497  0.7473 -0.1095 -1.7427
 8310SOL    HW236390   2.570   4.155   3.565  0.7238  2.3363  1.8589
 8311SOL     OW36391   0.001   0.320   2.936  0.2113 -0.7903  0.1750
 8311SOL    HW136392   4.700   0.363   2.854  0.2761 -0.4521  0.3346
 8311SOL    HW236393   0.094   0.310   2.917  0.3726  0.6024  0.2933
 8312SOL     OW36394   4.065   2.400   6.163  0.0926  0.4994  0.4807
 8312SOL    HW136395   4.142   2.437   6.120 -0.5150 -0.5705 -1.5253
 8312SOL    HW236396   4.050   2.464   6.232 -3.5351  0.6641 -0.4663
 8313SOL     OW36397   3.284   2.057   5.842  0.2400 -0.4570 -0.2848
 8313SOL    HW136398   3.342   2.071   5.767  2.3004 -3.6443  0.7419
 8313SOL    HW236399   3.230   1.986   5.807 -1.3928  1.2137 -1.1559
 8314SOL     OW36400   0.644   1.806   4.300 -0.4295 -0.1245  0.4735
 8314SOL    HW136401   0.676   1.896   4.310  0.1890 -0.3033  0.1495
 8314SOL    HW236402   0.725   1.754   4.306  0.0826  0.5430 -0.7179
 8315SOL     OW36403   2.820   2.180  11.747 -0.0870  0.2805  0.0984
 8315SOL    HW136404   2.888   2.177  11.680  1.0822  0.7324  1.2584
 8315SOL    HW236405   2.740   2.162  11.699  1.4273 -0.5717 -2.0823
 8316SOL     OW36406   1.369   1.042   0.996  1.0096 -0.2305 -0.2627
 8316SOL    HW136407   1.381   1.059   1.089 -2.3933 -0.3566  0.1970
 8316SOL    HW236408   1.308   0.969   0.988  1.0875 -0.2096 -1.0845
 8317SOL     OW36409   1.004   0.202   1.031  0.2469  0.3309  0.4248
 8317SOL    HW136410   1.001   0.171   0.941 -0.8392  1.0951  0.2004
 8317SOL    HW236411   0.998   0.297   1.022 -0.3132  0.6002  3.5391
 8318SOL     OW36412   4.520   2.358   7.672  0.1850 -0.0839  0.0925
 8318SOL    HW136413   4.432   2.396   7.668  0.3858  0.6456  2.8389
 8318SOL    HW236414   4.539   2.343   7.764 -2.7825 -0.6675  0.6165
 8319SOL     OW36415   3.459   2.482  11.304  0.4918 -0.3716  0.1306
 8319SOL    HW136416   3.521   2.431  11.252  0.4423  1.0258 -1.2828
 8319SOL    HW236417   3.496   2.569  11.288  0.0623 -0.2698 -0.3169
 8320SOL     OW36418   2.056   1.490  13.327 -0.5442  1.2130 -0.6403
 8320SOL    HW136419   2.126   1.424  13.329 -0.3626  1.4357  0.1403
 8320SOL    HW236420   2.102   1.573  13.326  0.6239  0.5748  0.0773
 8321SOL     OW36421   4.069   3.474   5.710  0.1375 -0.2363  0.0294
 8321SOL    HW136422   4.146   3.524   5.682 -0.3209 -0.1724 -1.1001
 8321SOL    HW236423   4.053   3.421   5.632  2.4933  0.0160 -0.6235
 8322SOL     OW36424   2.343   0.406   4.834  0.2455  0.0642  0.1635
 8322SOL    HW136425   2.291   0.486   4.830  0.4005  0.1756  0.3486
 8322SOL    HW236426   2.412   0.431   4.773  0.5024 -3.2826 -0.9222
 8323SOL     OW36427   0.163   1.922   4.140 -0.1437 -0.2989  0.4594
 8323SOL    HW136428   0.089   1.926   4.200 -2.8821  1.2441 -2.9637
 8323SOL    HW236429   0.242   1.911   4.191  1.0378 -2.3045 -1.7881
 8324SOL     OW36430   3.384   0.217   0.711  0.0887 -0.3429 -0.4743
 8324SOL    HW136431   3.465   0.173   0.687 -0.1550  0.1193 -2.0765
 8324SOL    HW236432   3.408   0.306   0.686 -0.7903 -0.0096 -0.1367
 8325SOL     OW36433   0.916   3.731   8.611  0.1556 -0.3061 -0.7759
 8325SOL    HW136434   0.986   3.673   8.580 -0.7904 -1.1869 -1.2510
 8325SOL    HW236435   0.904   3.699   8.701  3.2661 -0.2615 -0.3374
 8326SOL     OW36436   0.166   1.872   2.937  0.1090  0.1019 -0.4951
 8326SOL    HW136437   0.199   1.786   2.909 -0.9176 -0.2669 -0.5745
 8326SOL    HW236438   0.237   1.936   2.942 -0.9827  1.1766  1.5304
 8327SOL     OW36439   4.588   3.957   8.697  0.1944  0.3035 -0.0078
 8327SOL    HW136440   4.508   3.989   8.740  0.1481 -0.9241  0.8138
 8327SOL    HW236441   4.554   3.966   8.607 -0.0189  1.7650  0.2212
 8328SOL     OW36442   1.003   3.913  13.008  0.3541  0.1949  0.2540
 8328SOL    HW136443   1.047   3.878  13.086  0.2779  2.3422  1.2399
 8328SOL    HW236444   0.997   3.833  12.955  0.2687 -0.0614  0.6474
 8329SOL     OW36445   4.187   2.773   2.591  0.6525  0.5438 -0.2074
 8329SOL    HW136446   4.116   2.759   2.654 -0.0128  0.1658 -1.0262
 8329SOL    HW236447   4.183   2.697   2.533 -0.9417 -0.6410  1.4524
 8330SOL     OW36448   2.645   2.802  15.833 -0.2015 -0.0853  0.1859
 8330SOL    HW136449   2.568   2.760  15.794 -0.7433  2.6897 -1.6688
 8330SOL    HW236450   2.619   2.894  15.837 -1.4011 -0.4814  1.6900
 8331SOL     OW36451   3.095   0.071   8.761 -0.3321  0.3067  0.2920
 8331SOL    HW136452   3.021   0.036   8.810  0.7527  0.4087  2.0353
 8331SOL    HW236453   3.084   0.166   8.773 -1.3978  0.1235  0.7427
 8332SOL     OW36454   3.665   0.353   8.570 -0.1798 -0.1469 -0.3109
 8332SOL    HW136455   3.703   0.348   8.483 -0.5024 -1.0714 -0.3958
 8332SOL    HW236456   3.721   0.302   8.628 -0.4276 -1.2500 -1.0527
 8333SOL     OW36457   2.143   0.335  11.573  0.2793  0.1028  0.7614
 8333SOL    HW136458   2.112   0.250  11.542  0.0010 -0.1457  1.7349
 8333SOL    HW236459   2.077   0.352  11.640 -1.2487  1.5362 -1.0950
 8334SOL     OW36460   4.533   3.462  11.014  0.1889  1.1024  0.5804
 8334SOL    HW136461   4.612   3.511  10.993  0.0274  1.2596  0.3424
 8334SOL    HW236462   4.561   3.417  11.094 -1.6747 -0.9836  0.0348
 8335SOL     OW36463   2.614   0.564  15.608  0.1414  0.6058 -0.2573
 8335SOL    HW136464   2.523   0.541  15.626 -0.4375  0.0875 -3.8935
 8335SOL    HW236465   2.675   0.516  15.664  0.3514  1.6863  0.4460
 8336SOL     OW36466   1.087   1.884   9.293  0.0390 -0.1844  0.4914
 8336SOL    HW136467   1.157   1.915   9.350  1.9453  0.6227 -2.2712
 8336SOL    HW236468   1.028   1.836   9.351  0.7397 -0.9261  0.6087
 8337SOL     OW36469   1.994   3.079  17.287 -0.0512 -0.3721  0.2620
 8337SOL    HW136470   2.060   3.009  17.292 -1.1814 -1.4974 -0.6190
 8337SOL    HW236471   2.031   3.150  17.339 -0.2010  0.9262 -1.4100
 8338SOL     OW36472   2.298   3.711   3.602 -0.6210  0.4424 -0.1148
 8338SOL    HW136473   2.380   3.754   3.578 -0.1861  0.2544  1.0001
 8338SOL    HW236474   2.250   3.701   3.520 -2.1969  0.4739  0.8061
 8339SOL     OW36475   4.623   2.277  13.525 -0.4411  0.2842  0.1967
 8339SOL    HW136476   4.692   2.261  13.589  0.9217  2.8277 -0.6414
 8339SOL    HW236477   4.587   2.188  13.517  0.0846  0.2259 -1.5732
 8340SOL     OW36478   2.481   1.279   8.086 -0.2390  0.0920  0.0191
 8340SOL    HW136479   2.538   1.355   8.074  0.1369 -0.2728 -0.4797
 8340SOL    HW236480   2.450   1.272   7.996  1.5775  1.1109 -0.6974
 8341SOL     OW36481   1.401   1.546  12.358 -0.2213 -0.0675  0.3553
 8341SOL    HW136482   1.414   1.459  12.395  0.9971  0.8416  2.0511
 8341SOL    HW236483   1.388   1.545  12.263 -0.7092  0.8473  0.4140
 8342SOL     OW36484   0.416   2.780   2.015 -0.3067 -0.0805  0.2331
 8342SOL    HW136485   0.373   2.704   1.976  2.3014 -1.8025  0.7337
 8342SOL    HW236486   0.498   2.791   1.967 -1.6601  0.2660 -2.0304
 8343SOL     OW36487   3.130   2.580   8.132 -0.3510 -0.1135  0.1167
 8343SOL    HW136488   3.097   2.494   8.107 -1.3950  0.1994  0.4081
 8343SOL    HW236489   3.049   2.630   8.124 -1.0350 -1.4063 -0.9373
 8344SOL     OW36490   2.904   4.511   0.994  0.2198  0.9647 -0.2914
 8344SOL    HW136491   2.893   4.428   1.040 -0.3471  0.5785 -1.1245
 8344SOL    HW236492   2.913   4.494   0.900 -1.6731  0.4549 -0.3834
 8345SOL     OW36493   3.944   0.026   2.051  0.1685  0.2284 -0.2944
 8345SOL    HW136494   3.955   4.711   2.138 -3.0623 -0.6404 -0.3067
 8345SOL    HW236495   3.971   4.677   1.997 -1.7207 -1.1743  0.6937
 8346SOL     OW36496   3.184   1.273   5.651  0.2141  0.1476  0.2279
 8346SOL    HW136497   3.273   1.292   5.621 -0.0377  2.7726  1.1461
 8346SOL    HW236498   3.183   1.178   5.654 -2.3043  0.0871 -2.5974
 8347SOL     OW36499   3.474   2.875   0.913  0.0420  0.0842 -0.9013
 8347SOL    HW136500   3.505   2.897   1.001  3.6881 -2.1480 -1.6053
 8347SOL    HW236501   3.512   2.788   0.897  0.4696  0.1093 -0.0304
 8348SOL     OW36502   2.424   3.563   6.951  0.4256 -0.1787 -0.8663
 8348SOL    HW136503   2.499   3.504   6.948 -0.6673 -1.5274 -1.5108
 8348SOL    HW236504   2.463   3.646   6.925 -0.0832  0.0074 -1.0358
 8349SOL     OW36505   4.660   0.219   9.332 -0.4360 -0.0569  0.3162
 8349SOL    HW136506   4.685   0.311   9.320 -1.5492  0.5567  2.5294
 8349SOL    HW236507   4.623   0.225   9.420 -0.7601  1.1543  0.1084
 8350SOL     OW36508   4.680   3.925   3.030 -0.0535  0.3854 -0.3393
 8350SOL    HW136509   4.632   3.998   2.993  0.8768  0.3736 -1.5710
 8350SOL    HW236510   0.044   3.960   3.023 -0.7299  2.5674  1.9493
 8351SOL     OW36511   2.268   1.256  16.702  0.2315 -0.3781 -0.3073
 8351SOL    HW136512   2.229   1.182  16.748  0.1099 -0.5799 -0.7413
 8351SOL    HW236513   2.264   1.227  16.611  0.0855 -0.9051 -0.1284
 8352SOL     OW36514   4.278   1.085  12.769 -0.4756  0.3866  0.0156
 8352SOL    HW136515   4.226   1.165  12.775 -0.5049  0.3730 -0.0507
 8352SOL    HW236516   4.354   1.106  12.823  1.5649 -1.6199 -2.0459
 8353SOL     OW36517   0.239   4.008  10.789 -0.1113 -0.3301 -0.2437
 8353SOL    HW136518   0.319   3.960  10.771  2.5561  3.4995  1.4994
 8353SOL    HW236519   0.182   3.931  10.798  2.3346 -1.9026  1.7908
 8354SOL     OW36520   2.281   2.181   6.403  0.1841 -0.1232 -0.3767
 8354SOL    HW136521   2.185   2.185   6.401  0.1482 -0.2265  0.9268
 8354SOL    HW236522   2.289   2.088   6.382 -4.7681 -0.3465 -1.3375
 8355SOL     OW36523   3.505   4.569   7.309  0.1758  0.2103  0.0306
 8355SOL    HW136524   3.600   4.573   7.319  0.2166  1.5142 -0.8043
 8355SOL    HW236525   3.496   4.658   7.273 -0.6037 -0.7697 -2.2076
 8356SOL     OW36526   2.284   3.379   0.994 -0.0109  0.4091 -0.2125
 8356SOL    HW136527   2.282   3.284   1.006  2.9306  0.4418  0.4906
 8356SOL    HW236528   2.204   3.403   1.041  0.1596 -0.0709  0.3257
 8357SOL     OW36529   0.389   0.414   3.346 -0.1517 -0.1938  0.1800
 8357SOL    HW136530   0.318   0.369   3.299 -0.2667 -0.5550  0.7018
 8357SOL    HW236531   0.467   0.376   3.305  0.2585  1.5840 -0.6941
 8358SOL     OW36532   2.914   0.661   8.045 -0.2916 -0.0685 -0.2109
 8358SOL    HW136533   2.982   0.600   8.016 -2.0704 -1.0562 -2.3042
 8358SOL    HW236534   2.889   0.620   8.129 -0.0714 -4.1264 -2.1148
 8359SOL     OW36535   4.542   0.540  14.437 -0.4409 -0.6848  0.3359
 8359SOL    HW136536   4.564   0.462  14.386  0.9646  1.3324 -2.1742
 8359SOL    HW236537   4.630   0.567  14.465 -2.0763  3.4381  1.4857
 8360SOL     OW36538   3.899   0.458   3.399 -0.2149  0.3583  0.0196
 8360SOL    HW136539   3.983   0.412   3.407  1.3154  3.3156  1.0025
 8360SOL    HW236540   3.835   0.390   3.420 -0.2210  0.8123  1.4260
 8361SOL     OW36541   1.358   1.399   7.628 -0.1252  0.5058  0.1756
 8361SOL    HW136542   1.362   1.493   7.643  0.6291  0.2707  1.4479
 8361SOL    HW236543   1.366   1.374   7.720 -2.0108  0.8788  0.4364
 8362SOL     OW36544   2.424   4.627   5.448  0.5455 -1.0389 -0.0156
 8362SOL    HW136545   2.380   4.712   5.448  0.2253 -1.2022 -1.5012
 8362SOL    HW236546   2.447   4.633   5.355  0.3432  0.1622  0.0167
 8363SOL     OW36547   1.907   2.601   0.058  0.2343 -0.2462 -0.6651
 8363SOL    HW136548   1.930   2.603   0.151 -2.8618  1.3305  0.0786
 8363SOL    HW236549   1.960   2.677   0.035  2.2822 -0.6165  2.7357
 8364SOL     OW36550   0.800   2.466   5.244  0.0209 -0.4333 -0.0059
 8364SOL    HW136551   0.807   2.545   5.297  2.0722 -1.4201  1.2129
 8364SOL    HW236552   0.708   2.481   5.222 -0.7093 -4.2664  0.3847
 8365SOL     OW36553   4.362   2.027   7.604 -0.2779  0.0967  0.0112
 8365SOL    HW136554   4.364   2.098   7.540 -0.8978 -0.2184 -0.3475
 8365SOL    HW236555   4.300   1.964   7.569  1.2388 -1.6349  0.4194
 8366SOL     OW36556   3.514   3.738   7.987 -0.1300  0.5807  0.1229
 8366SOL    HW136557   3.466   3.662   7.954  0.6348  0.4427 -0.6526
 8366SOL    HW236558   3.601   3.700   7.976 -0.4120  0.0171 -0.1882
 8367SOL     OW36559   1.935   3.836   0.836 -0.1179  0.1496 -0.9095
 8367SOL    HW136560   1.904   3.916   0.794  0.4171  0.9253  0.1833
 8367SOL    HW236561   1.922   3.764   0.774 -1.8615 -0.2087 -0.1190
 8368SOL     OW36562   0.209   4.578   2.823  0.7540  0.6119  0.1513
 8368SOL    HW136563   0.215   4.631   2.744 -1.4060  2.1274  1.0288
 8368SOL    HW236564   0.217   4.648   2.888  1.0820  1.6208 -0.9832
 8369SOL     OW36565   3.544   4.022   4.091 -0.2778  0.3031 -0.3963
 8369SOL    HW136566   3.451   4.003   4.079 -0.7788  0.1702  3.5741
 8369SOL    HW236567   3.547   4.052   4.182 -0.1463  0.4470 -0.4479
 8370SOL     OW36568   2.389   0.123   8.826  0.7809  0.0803  0.1562
 8370SOL    HW136569   2.439   0.069   8.766  1.7743  0.0245  1.0187
 8370SOL    HW236570   2.468   0.149   8.874  1.8278 -0.8016 -1.1032
 8371SOL     OW36571   3.369   4.378   2.550 -0.2254  0.3600 -0.1082
 8371SOL    HW136572   3.378   4.466   2.512  0.1958  0.3340 -0.0692
 8371SOL    HW236573   3.327   4.387   2.635  0.8165  1.6432  0.2641
 8372SOL     OW36574   3.205   1.389   5.034 -0.5875  0.3805 -0.7828
 8372SOL    HW136575   3.238   1.305   5.002 -0.1083 -0.0619  0.8323
 8372SOL    HW236576   3.256   1.383   5.115  0.9679  1.0037 -1.7355
 8373SOL     OW36577   2.193   4.078   1.603 -0.3963  0.7027 -0.6339
 8373SOL    HW136578   2.217   4.156   1.552  1.0192 -0.0983 -1.1814
 8373SOL    HW236579   2.183   4.126   1.686  0.0878 -1.4302  0.6530
 8374SOL     OW36580   3.077   1.952   1.379 -0.0130  0.2466  0.2483
 8374SOL    HW136581   3.140   1.896   1.334 -0.8793 -0.1186 -0.5252
 8374SOL    HW236582   3.022   1.885   1.420  1.7055 -1.0100  0.5037
 8375SOL     OW36583   0.951   1.191   2.153  0.1477 -0.2326  0.7837
 8375SOL    HW136584   0.941   1.213   2.245  1.5338  2.9405  0.1718
 8375SOL    HW236585   0.997   1.267   2.117 -0.2650 -0.2726  0.1598
 8376SOL     OW36586   2.009   2.832  17.698  0.2119  0.9022  0.4304
 8376SOL    HW136587   2.060   2.913  17.687 -0.7231  1.4810  0.3502
 8376SOL    HW236588   1.977   2.818  17.610  1.5954 -3.1017  0.5551
 8377SOL     OW36589   3.292   0.966  14.243 -0.1493 -0.2931 -0.0225
 8377SOL    HW136590   3.366   0.919  14.282  1.0511  0.4753 -1.3477
 8377SOL    HW236591   3.332   1.053  14.249 -0.7491 -0.0753  0.6775
 8378SOL     OW36592   1.708   1.675   2.370  0.3188 -0.1299 -0.2251
 8378SOL    HW136593   1.713   1.629   2.286 -1.0963  1.0213 -0.9564
 8378SOL    HW236594   1.798   1.700   2.389  0.5543  0.4775 -2.0437
 8379SOL     OW36595   0.490   1.008   7.261  0.0170  0.6756 -0.0249
 8379SOL    HW136596   0.451   1.069   7.324  0.1316  0.5343  0.1815
 8379SOL    HW236597   0.423   1.012   7.193  1.6004 -1.1262 -1.6708
 8380SOL     OW36598   2.131   4.112   8.223  0.1278 -0.7072  0.1636
 8380SOL    HW136599   2.080   4.095   8.302  0.9471 -1.5162  0.5201
 8380SOL    HW236600   2.128   4.023   8.188  3.2239 -0.9623  0.4960
 8381SOL     OW36601   3.502   0.653   3.739 -0.1271 -0.2689 -0.4183
 8381SOL    HW136602   3.514   0.589   3.669  0.6928  0.4165 -0.9093
 8381SOL    HW236603   3.413   0.686   3.733 -0.6891 -1.3035  2.2882
 8382SOL     OW36604   4.108   2.049  16.518 -0.0274 -0.7475 -0.8803
 8382SOL    HW136605   4.046   2.098  16.572 -1.1241 -1.1266 -1.7843
 8382SOL    HW236606   4.164   2.122  16.491 -2.0258  0.4622 -1.7976
 8383SOL     OW36607   2.364   2.526   2.671  0.1922  0.7938 -0.1628
 8383SOL    HW136608   2.319   2.577   2.739  0.0748  0.7713 -0.2232
 8383SOL    HW236609   2.366   2.585   2.596  1.1728 -0.1164 -0.8497
 8384SOL     OW36610   3.439   4.474  16.124 -0.6454 -0.1645 -0.0117
 8384SOL    HW136611   3.492   4.532  16.178 -0.4881 -0.4600  0.1467
 8384SOL    HW236612   3.463   4.385  16.150 -0.8363 -0.2717 -0.2040
 8385SOL     OW36613   2.463   3.888   7.893 -0.2026  0.3070  0.5838
 8385SOL    HW136614   2.413   3.814   7.930  0.7504 -0.5851  0.0799
 8385SOL    HW236615   2.539   3.853   7.847 -1.3333 -2.4231  0.7618
 8386SOL     OW36616   3.534   4.075   6.225 -0.0830  0.5385 -0.0799
 8386SOL    HW136617   3.524   4.163   6.262 -1.1060 -0.1185  1.1907
 8386SOL    HW236618   3.477   4.071   6.148  0.5249 -0.1344 -0.4896
 8387SOL     OW36619   3.725   3.580   7.972  0.3800 -0.4554  0.3276
 8387SOL    HW136620   3.710   3.517   8.042  1.4297  0.5018  1.4048
 8387SOL    HW236621   3.768   3.523   7.908 -2.4596 -3.7428  1.3806
 8388SOL     OW36622   3.419   3.053   4.569  0.2761 -0.5172 -0.6245
 8388SOL    HW136623   3.351   3.052   4.637  0.4301 -0.7077 -0.4708
 8388SOL    HW236624   3.494   3.098   4.609 -0.5008  0.1106  0.1259
 8389SOL     OW36625   0.720   2.954   8.126  0.4802 -0.5246  0.3576
 8389SOL    HW136626   0.740   3.041   8.091  1.1387  0.1847  2.5046
 8389SOL    HW236627   0.806   2.913   8.133  0.8349  0.2502  0.5472
 8390SOL     OW36628   3.012   0.889   5.416  0.7995 -0.0508  0.9162
 8390SOL    HW136629   3.090   0.920   5.462 -0.1542 -0.6288  2.9381
 8390SOL    HW236630   2.962   0.971   5.419  0.6997 -0.0602 -0.6770
 8391SOL     OW36631   1.865   1.474   9.435 -0.6123  0.1754 -0.3275
 8391SOL    HW136632   1.791   1.532   9.417  0.6599  2.7005  2.4306
 8391SOL    HW236633   1.850   1.455   9.528  2.7539 -0.6825  0.0162
 8392SOL     OW36634   0.952   2.461   1.106  0.2871 -0.0139  0.0635
 8392SOL    HW136635   0.870   2.439   1.150  1.1328  2.6118  2.9163
 8392SOL    HW236636   0.912   2.505   1.031 -1.6612 -1.1107  0.4519
 8393SOL     OW36637   4.284   1.186   5.188  0.3634  0.3234 -0.0356
 8393SOL    HW136638   4.311   1.221   5.103 -0.8048  2.1235  0.3209
 8393SOL    HW236639   4.327   1.101   5.187 -1.3800 -0.5400 -0.9445
 8394SOL     OW36640   2.701   0.754   2.380  0.2016 -0.5537  0.3603
 8394SOL    HW136641   2.757   0.677   2.390  0.9581 -0.0128  0.3105
 8394SOL    HW236642   2.734   0.806   2.452  0.1067 -0.3560  0.2619
 8395SOL     OW36643   4.092   3.810  14.865 -0.1754 -0.2358  0.3887
 8395SOL    HW136644   4.186   3.810  14.884 -0.0072  1.0828 -0.4129
 8395SOL    HW236645   4.095   3.752  14.790 -1.0256 -1.0850  1.0226
 8396SOL     OW36646   2.771   3.567   5.504 -0.1903  0.2205 -0.1344
 8396SOL    HW136647   2.771   3.496   5.439  1.8979 -1.6562  1.9167
 8396SOL    HW236648   2.807   3.519   5.578 -2.0943  1.1990  1.4291
 8397SOL     OW36649   1.585   2.002   4.958 -0.3230 -0.1235 -0.0798
 8397SOL    HW136650   1.593   2.091   4.991 -0.7097 -0.1553  0.1079
 8397SOL    HW236651   1.670   1.965   4.981 -0.3198  1.1888  1.9592
 8398SOL     OW36652   0.085   3.590   7.878 -0.0133  0.1060  0.0757
 8398SOL    HW136653   0.109   3.683   7.884 -0.4465 -0.0076  3.6613
 8398SOL    HW236654   4.723   3.615   7.848 -0.4989  0.4473  1.7673
 8399SOL     OW36655   2.466   1.933  10.878  0.3660  0.1998  0.1436
 8399SOL    HW136656   2.486   2.026  10.886 -2.1734  0.6667  0.7771
 8399SOL    HW236657   2.535   1.894  10.932 -0.4685  0.0242  1.0578
 8400SOL     OW36658   1.401   0.960   4.480  0.1967 -0.2206  0.2673
 8400SOL    HW136659   1.455   1.013   4.421  0.4576  0.7275  1.3609
 8400SOL    HW236660   1.412   0.874   4.438 -0.9544 -1.2869  2.1328
 8401SOL     OW36661   0.735   3.635   9.503  0.0851 -0.0118 -0.2038
 8401SOL    HW136662   0.790   3.561   9.476  3.3041  2.4243 -0.3024
 8401SOL    HW236663   0.651   3.593   9.483 -0.5720  0.2990  1.9427
 8402SOL     OW36664   4.161   0.290   5.466 -0.4271 -0.2441 -0.0633
 8402SOL    HW136665   4.105   0.346   5.412 -0.7705 -0.7783 -0.2649
 8402SOL    HW236666   4.086   0.232   5.480  0.7712 -1.8576 -0.3024
 8403SOL     OW36667   2.507   4.518  10.766 -0.3063 -0.2402  0.0545
 8403SOL    HW136668   2.497   4.578  10.840 -2.6113 -1.2543  0.5755
 8403SOL    HW236669   2.592   4.478  10.785 -1.2467 -2.5159 -0.4482
 8404SOL     OW36670   0.863   3.354   2.353 -0.0037  0.1209 -0.3206
 8404SOL    HW136671   0.958   3.344   2.366 -0.1071 -1.8573 -1.0179
 8404SOL    HW236672   0.852   3.398   2.269 -0.4300 -0.0324 -0.3436
 8405SOL     OW36673   0.894   2.734  12.404  0.5701 -0.0868  0.1804
 8405SOL    HW136674   0.895   2.797  12.476 -1.1379 -0.2357  0.3372
 8405SOL    HW236675   0.809   2.747  12.362  0.0212 -1.0124  0.9789
 8406SOL     OW36676   1.772   3.289  10.355  0.4355  0.1935 -0.0229
 8406SOL    HW136677   1.723   3.365  10.384 -0.0299  0.7880 -2.3968
 8406SOL    HW236678   1.822   3.271  10.435 -1.6631 -1.2267  0.9788
 8407SOL     OW36679   2.880   1.976  15.269 -0.3002 -0.2719 -0.1924
 8407SOL    HW136680   2.810   1.956  15.206  1.0787 -0.5115 -1.6577
 8407SOL    HW236681   2.838   2.009  15.348  1.6474 -1.3177  1.2810
 8408SOL     OW36682   3.330   0.025   2.796 -0.1429 -0.3866  0.0049
 8408SOL    HW136683   3.270   0.024   2.721  0.0100  0.3062 -0.1269
 8408SOL    HW236684   3.276   0.052   2.870  1.1726 -1.8351  1.4953
 8409SOL     OW36685   0.307   0.521   7.495  0.1771 -0.2783  0.2879
 8409SOL    HW136686   0.244   0.450   7.485 -0.3356  0.6525 -2.9293
 8409SOL    HW236687   0.281   0.583   7.427 -0.3474 -1.4240 -0.5471
 8410SOL     OW36688   0.466   2.853   8.053  0.7653  0.3921 -0.0252
 8410SOL    HW136689   0.541   2.888   8.100 -1.1453 -0.1387  3.5098
 8410SOL    HW236690   0.437   2.927   8.001  0.1969 -1.0148 -1.7130
 8411SOL     OW36691   1.134   2.461   3.463 -0.4932 -0.5343 -0.0026
 8411SOL    HW136692   1.193   2.434   3.392  0.0824 -2.1673  1.0811
 8411SOL    HW236693   1.191   2.473   3.539 -2.3505  1.2665  1.0952
 8412SOL     OW36694   0.760   0.721   5.344  0.1381 -0.1541  0.4613
 8412SOL    HW136695   0.741   0.803   5.391 -2.9836 -0.8432  0.3955
 8412SOL    HW236696   0.675   0.679   5.358  0.5797 -1.2237 -0.0826
 8413SOL     OW36697   3.073   2.461   9.988 -0.0724  0.5638  0.3574
 8413SOL    HW136698   3.055   2.502  10.073 -0.7157 -0.5879  0.7787
 8413SOL    HW236699   3.163   2.483   9.965  0.1040 -0.4898  0.0468
 8414SOL     OW36700   1.950   2.473  13.883  0.4859  0.0173  0.0043
 8414SOL    HW136701   1.963   2.478  13.789  3.1859  0.1484  0.3906
 8414SOL    HW236702   2.025   2.523  13.918  1.6616 -0.2725 -2.1405
 8415SOL     OW36703   4.110   1.989   0.276  0.2497 -0.0709 -0.0829
 8415SOL    HW136704   4.081   1.899   0.261 -0.8289 -0.1068  2.3168
 8415SOL    HW236705   4.040   2.042   0.237  1.0798 -0.4745 -2.1484
 8416SOL     OW36706   4.546   0.147   8.776  0.1531  0.0844 -0.7686
 8416SOL    HW136707   4.528   0.081   8.709 -1.5341 -0.2046 -0.0482
 8416SOL    HW236708   4.453   0.171   8.781  0.2631 -0.0181  1.8085
 8417SOL     OW36709   2.442   4.393   5.570 -0.1775 -0.0940  0.3913
 8417SOL    HW136710   2.448   4.483   5.537 -0.5308 -0.4031 -0.5199
 8417SOL    HW236711   2.402   4.350   5.494  0.2065 -0.2111  0.2573
 8418SOL     OW36712   1.082   3.496   9.224 -0.3885  0.4038 -0.6152
 8418SOL    HW136713   1.074   3.588   9.250  0.1516  0.5359 -0.9178
 8418SOL    HW236714   1.170   3.492   9.186 -0.7725 -1.7426 -1.2239
 8419SOL     OW36715   3.218   4.069   4.751  0.4978  0.5067  0.1548
 8419SOL    HW136716   3.281   4.002   4.723  1.9145  1.6820  0.4927
 8419SOL    HW236717   3.144   4.062   4.692  0.9455 -0.4138 -0.3045
 8420SOL     OW36718   1.051   0.109   5.785  0.0368 -0.5643  0.6799
 8420SOL    HW136719   0.964   0.145   5.769 -0.1536 -0.9974  0.7433
 8420SOL    HW236720   1.087   0.100   5.697 -0.9133 -1.9177  0.4307
 8421SOL     OW36721   1.373   0.693   5.206  0.4079  0.3554  0.0677
 8421SOL    HW136722   1.444   0.670   5.266  0.3014  0.6577  0.3103
 8421SOL    HW236723   1.384   0.622   5.143 -0.0803  1.2379 -1.0178
 8422SOL     OW36724   2.808   1.324   2.697  0.0129 -0.3927 -0.2869
 8422SOL    HW136725   2.748   1.380   2.648 -0.3299  0.0496  0.6346
 8422SOL    HW236726   2.805   1.352   2.789  0.9744 -1.2689  0.0060
 8423SOL     OW36727   4.501   3.990   3.517 -0.4891  0.1112  0.3809
 8423SOL    HW136728   4.570   3.974   3.452  0.5196  1.2606  1.1709
 8423SOL    HW236729   4.472   3.901   3.537  1.1946 -1.0813 -2.3320
 8424SOL     OW36730   4.075   3.706   7.835 -0.0717 -0.2121  0.0040
 8424SOL    HW136731   3.993   3.660   7.821 -0.4230  0.6715 -0.8721
 8424SOL    HW236732   4.100   3.684   7.924 -0.0862 -0.0488  0.0499
 8425SOL     OW36733   0.947   1.290  10.570  0.4389 -0.6330  0.0276
 8425SOL    HW136734   0.988   1.224  10.626  1.6208  0.7591  0.8120
 8425SOL    HW236735   0.877   1.318  10.629  0.0662  1.3455 -1.3447
 8426SOL     OW36736   4.064   2.522  14.652  0.1356 -0.3909 -0.1626
 8426SOL    HW136737   4.093   2.575  14.726  0.2242  1.3814 -1.4600
 8426SOL    HW236738   3.973   2.550  14.647  0.0148 -1.1495 -2.5048
 8427SOL     OW36739   3.083   1.036  13.163  0.3777 -0.4339  0.7478
 8427SOL    HW136740   3.091   1.064  13.254  1.3261  0.7019  0.3136
 8427SOL    HW236741   3.165   0.992  13.140  1.5705  2.1705  0.0313
 8428SOL     OW36742   4.305   1.017  11.096 -0.0552  0.1927  0.4081
 8428SOL    HW136743   4.375   1.079  11.073 -0.5299 -0.1559 -1.9911
 8428SOL    HW236744   4.292   0.984  11.007  0.7208  1.7314 -0.2820
 8429SOL     OW36745   3.940   4.216   1.457 -0.0306 -0.2625  0.1468
 8429SOL    HW136746   4.031   4.189   1.440 -0.1734 -0.3090 -0.5656
 8429SOL    HW236747   3.898   4.233   1.372  1.8506 -0.6646 -0.8819
 8430SOL     OW36748   0.552   2.964   8.950  0.2602  0.7312 -0.3194
 8430SOL    HW136749   0.631   2.914   8.929  1.1808  1.5194  1.2090
 8430SOL    HW236750   0.484   2.897   8.953  1.8622 -0.8539  0.3422
 8431SOL     OW36751   0.608   2.833  16.457 -0.0660 -0.1389 -0.3009
 8431SOL    HW136752   0.570   2.797  16.537  1.2837 -2.3355 -0.6557
 8431SOL    HW236753   0.530   2.865  16.412 -0.2693 -0.1248  0.0587
 8432SOL     OW36754   4.213   0.718  12.104  0.1591 -0.0585  0.6294
 8432SOL    HW136755   4.186   0.644  12.159  1.2586 -1.1749 -0.3540
 8432SOL    HW236756   4.129   0.758  12.084  0.0970  0.3226  1.6438
 8433SOL     OW36757   3.284   3.121   9.570 -0.0918 -0.2292 -0.7735
 8433SOL    HW136758   3.375   3.150   9.569 -0.1889  0.1266  0.9557
 8433SOL    HW236759   3.252   3.140   9.482 -2.0269 -0.3365 -0.0920
 8434SOL     OW36760   2.597   4.175  17.347  0.0224  0.3066 -0.5390
 8434SOL    HW136761   2.641   4.093  17.325 -1.7427 -0.1489 -2.3042
 8434SOL    HW236762   2.559   4.198  17.262 -0.2149  1.6764 -0.0708
 8435SOL     OW36763   2.741   2.365   7.570 -0.2502 -0.2341 -0.1765
 8435SOL    HW136764   2.812   2.300   7.565  0.5881  0.4525  2.5631
 8435SOL    HW236765   2.788   2.446   7.588 -2.2527  1.2311 -1.5711
 8436SOL     OW36766   1.071   3.207   5.277 -0.3574  0.0464  0.1025
 8436SOL    HW136767   0.993   3.251   5.243 -0.9904 -0.5855  0.7407
 8436SOL    HW236768   1.035   3.118   5.272 -0.2867  0.0768 -0.9762
 8437SOL     OW36769   3.301   0.012   7.137 -0.2012  0.3975 -0.6461
 8437SOL    HW136770   3.241   0.076   7.100  1.1961  1.1518 -1.6196
 8437SOL    HW236771   3.381   0.060   7.161 -0.5769 -0.0344  1.4311
 8438SOL     OW36772   2.355   3.391  16.446  0.2097 -0.1710 -0.4241
 8438SOL    HW136773   2.404   3.456  16.498 -0.8197 -1.0365  1.6448
 8438SOL    HW236774   2.423   3.341  16.401 -0.4587 -1.5102  0.0476
 8439SOL     OW36775   0.613   1.193   3.265 -0.1935  0.2464 -0.3399
 8439SOL    HW136776   0.698   1.180   3.223  0.3526 -2.6362  1.6414
 8439SOL    HW236777   0.584   1.235   3.184 -1.1038  0.7411  0.2347
 8440SOL     OW36778   0.105   2.151   9.254 -0.1889 -0.0245 -0.1260
 8440SOL    HW136779   0.068   2.074   9.296 -1.0190  1.2621  1.5241
 8440SOL    HW236780   0.067   2.219   9.311  1.1788  0.6997 -0.0790
 8441SOL     OW36781   4.122   4.590   3.649  0.2723  0.7334  0.0063
 8441SOL    HW136782   4.081   4.547   3.724  0.2222 -0.6914 -0.8291
 8441SOL    HW236783   4.211   4.557   3.657 -0.1246 -0.0172  1.3468
 8442SOL     OW36784   0.111   0.011   8.355 -0.1203 -0.0331 -0.4452
 8442SOL    HW136785   0.051   4.678   8.309 -1.4988 -0.3199  1.6826
 8442SOL    HW236786   0.051   0.045   8.422  0.6412  2.8747 -1.2246
 8443SOL     OW36787   2.288   1.008  11.118  0.5291 -0.1233  0.1777
 8443SOL    HW136788   2.341   0.936  11.085  0.0844  1.1879 -3.4513
 8443SOL    HW236789   2.344   1.045  11.186 -0.3538 -0.8991  1.3158
 8444SOL     OW36790   4.238   0.236  15.881 -0.4111  0.5122  0.5682
 8444SOL    HW136791   4.177   0.271  15.816 -0.5833  1.2755  1.1368
 8444SOL    HW236792   4.319   0.282  15.860  0.6810 -0.2636  3.0757
 8445SOL     OW36793   4.163   2.035  17.200 -0.6275 -0.0708  0.3699
 8445SOL    HW136794   4.236   1.974  17.211 -1.8754 -1.6408 -0.0438
 8445SOL    HW236795   4.162   2.072  17.288  2.9757 -0.2804  0.4970
 8446SOL     OW36796   1.608   2.294  15.192  0.6071  0.1317  0.1553
 8446SOL    HW136797   1.622   2.374  15.243  2.5286  1.1158 -1.8964
 8446SOL    HW236798   1.594   2.325  15.102  2.6358  0.3719 -0.0882
 8447SOL     OW36799   4.146   1.648  17.643  0.0537 -0.1305  0.3061
 8447SOL    HW136800   4.136   1.701   0.019 -2.5459  2.7120 -1.9700
 8447SOL    HW236801   4.225   1.690  17.608 -0.3121  0.3610  0.0775
 8448SOL     OW36802   0.736   2.052  13.929 -0.0273  0.1190  0.3818
 8448SOL    HW136803   0.786   2.063  14.009  1.4976  2.4365 -0.8986
 8448SOL    HW236804   0.651   2.078  13.964  0.7522  1.1589  1.4942
 8449SOL     OW36805   0.368   3.295   3.457  0.1598  0.6414  0.1712
 8449SOL    HW136806   0.429   3.317   3.387 -2.5781 -0.4741 -2.5710
 8449SOL    HW236807   0.289   3.269   3.408 -1.2622 -1.6020  3.5793
 8450SOL     OW36808   3.656   0.971   3.685  0.2821  0.6327 -0.1552
 8450SOL    HW136809   3.698   0.981   3.600 -0.0332  2.4697 -0.0827
 8450SOL    HW236810   3.664   0.876   3.700  2.3172  0.5871 -1.6134
 8451SOL     OW36811   2.479   4.312   2.145  0.1476  0.1518 -0.0628
 8451SOL    HW136812   2.399   4.271   2.113 -0.1080  1.1306 -0.7031
 8451SOL    HW236813   2.539   4.288   2.074 -1.3499 -1.0342 -0.9330
 8452SOL     OW36814   3.732   3.018  13.096  0.0305 -0.4096  0.4070
 8452SOL    HW136815   3.781   2.938  13.075 -1.1490 -0.8391 -0.7313
 8452SOL    HW236816   3.782   3.079  13.041  0.3999 -0.9016  0.1930
 8453SOL     OW36817   4.523   3.167   7.499 -0.3344 -0.1495 -0.2790
 8453SOL    HW136818   4.575   3.246   7.488 -0.8543  0.3437  0.7938
 8453SOL    HW236819   4.556   3.131   7.582 -0.2843  3.1287  1.1087
 8454SOL     OW36820   1.614   2.244   6.255 -0.2508  0.6158  0.1264
 8454SOL    HW136821   1.689   2.236   6.196  1.3719  0.0157  2.2849
 8454SOL    HW236822   1.555   2.172   6.231 -2.1432  1.1287  3.1527
 8455SOL     OW36823   3.594   2.568   3.737  0.0693 -0.3530 -0.4206
 8455SOL    HW136824   3.636   2.592   3.820 -1.9193 -2.2830  1.1243
 8455SOL    HW236825   3.522   2.508   3.755 -2.4112  2.7657  0.0041
 8456SOL     OW36826   0.048   4.541   8.657  0.0256  0.5375 -0.3485
 8456SOL    HW136827   0.053   4.460   8.606 -0.3441  0.3775 -0.1248
 8456SOL    HW236828   0.141   4.562   8.672  0.0584  0.0753  0.0888
 8457SOL     OW36829   3.342   2.048   2.136  0.2593  0.1951 -0.2641
 8457SOL    HW136830   3.342   1.952   2.130  1.3007  0.0312  2.4685
 8457SOL    HW236831   3.315   2.057   2.227 -1.2400 -2.1894 -0.4757
 8458SOL     OW36832   3.053   1.046   8.636  0.1539  0.9681  0.5651
 8458SOL    HW136833   3.085   0.995   8.561  0.1579 -0.2430  1.3835
 8458SOL    HW236834   2.959   1.032   8.626  0.1943 -0.1955  1.8129
 8459SOL     OW36835   0.290   4.173   1.288 -0.3818  0.5168 -0.1114
 8459SOL    HW136836   0.307   4.255   1.333 -2.7779  1.2231 -0.4841
 8459SOL    HW236837   0.315   4.114   1.359  0.0041 -1.8865 -2.2507
 8460SOL     OW36838   3.557   0.545   3.484 -0.0282  0.0820  0.7227
 8460SOL    HW136839   3.573   0.484   3.412  2.2972  0.2829  1.0736
 8460SOL    HW236840   3.484   0.599   3.456  0.4969  0.7540  0.6416
 8461SOL     OW36841   4.357   1.039  10.340 -0.0285 -0.1495 -0.6550
 8461SOL    HW136842   4.351   1.135  10.343  1.5181 -0.0490 -1.1265
 8461SOL    HW236843   4.268   1.021  10.371  0.1142 -0.4146 -0.3997
 8462SOL     OW36844   4.392   3.340   9.808 -0.3383 -0.0069  0.0416
 8462SOL    HW136845   4.411   3.380   9.893  2.8293  2.2145 -1.7171
 8462SOL    HW236846   4.379   3.421   9.758  0.8471 -0.4593 -0.9893
 8463SOL     OW36847   3.288   0.988  16.614 -0.1195  0.6083  0.0666
 8463SOL    HW136848   3.256   0.960  16.700  1.4472 -1.9615 -0.1921
 8463SOL    HW236849   3.210   1.021  16.569  0.0880  0.5676 -0.3266
 8464SOL     OW36850   4.569   1.861   1.432 -0.3480 -0.6894 -0.5840
 8464SOL    HW136851   4.539   1.778   1.396 -0.7856 -0.9301  0.3284
 8464SOL    HW236852   4.489   1.915   1.430 -0.8402 -1.4282 -0.6887
 8465SOL     OW36853   1.988   0.394  16.831 -0.0469 -0.2794  0.0558
 8465SOL    HW136854   1.899   0.376  16.801  0.4395 -0.1111 -1.5111
 8465SOL    HW236855   1.975   0.475  16.880  1.2528 -0.5121  0.7904
 8466SOL     OW36856   4.602   2.102   3.116 -0.3000 -0.0147 -0.6128
 8466SOL    HW136857   4.678   2.160   3.124 -1.5626  1.3473  1.4303
 8466SOL    HW236858   4.539   2.170   3.092  1.0389  1.8920  1.2562
 8467SOL     OW36859   0.900   3.120   6.509 -0.1609 -0.2206 -0.2034
 8467SOL    HW136860   0.853   3.195   6.546  0.3793 -0.1678  0.3698
 8467SOL    HW236861   0.845   3.090   6.437 -2.3677 -0.1571  1.4244
 8468SOL     OW36862   4.268   2.798  13.987  0.0301 -0.8920 -0.1859
 8468SOL    HW136863   4.284   2.751  14.069 -0.7569 -2.9326 -1.1863
 8468SOL    HW236864   4.352   2.843  13.977  1.0034 -2.0591  2.7077
 8469SOL     OW36865   0.477   3.354   6.077  0.0143 -0.6031 -0.2195
 8469SOL    HW136866   0.390   3.319   6.094 -0.4105  0.8346  0.5063
 8469SOL    HW236867   0.463   3.353   5.983 -1.1072  1.7672 -0.0693
 8470SOL     OW36868   1.812   0.622  14.618 -0.2377 -0.4697 -0.6123
 8470SOL    HW136869   1.865   0.702  14.617 -2.8732  1.2627 -0.3250
 8470SOL    HW236870   1.741   0.649  14.675 -0.5595 -2.2959 -0.1292
 8471SOL     OW36871   3.768   1.410  15.072  0.1449  0.5213  0.3223
 8471SOL    HW136872   3.680   1.372  15.069 -0.2035  1.4274 -0.9274
 8471SOL    HW236873   3.809   1.351  15.135 -1.5028 -0.9583  0.0093
 8472SOL     OW36874   3.304   1.955   5.188 -0.4354 -0.1291  0.2704
 8472SOL    HW136875   3.255   1.939   5.107  1.6643 -0.1781 -0.9838
 8472SOL    HW236876   3.283   2.047   5.205 -2.6815 -0.0214 -3.0127
 8473SOL     OW36877   2.815   1.837   2.342 -0.2083  0.1580  0.1963
 8473SOL    HW136878   2.805   1.744   2.324  0.7310  0.0777  0.1174
 8473SOL    HW236879   2.762   1.849   2.421 -3.3920  0.0988 -1.9312
 8474SOL     OW36880   4.445   2.480   0.530 -0.3603 -0.7292  0.0283
 8474SOL    HW136881   4.386   2.555   0.532  0.9612  0.3479 -1.0483
 8474SOL    HW236882   4.473   2.470   0.439 -1.0320 -0.8611 -0.1580
 8475SOL     OW36883   2.356   3.597   9.998 -0.9818 -0.0218  0.1569
 8475SOL    HW136884   2.359   3.671  10.058  2.5157  1.7765 -2.2636
 8475SOL    HW236885   2.262   3.578  10.001 -1.4533  1.9328 -2.3144
 8476SOL     OW36886   0.987   0.936   6.583 -0.4334  0.2448 -0.1183
 8476SOL    HW136887   0.925   1.001   6.548 -0.9714 -0.2192 -0.0272
 8476SOL    HW236888   0.961   0.918   6.674  0.0862 -0.6868 -0.1550
 8477SOL     OW36889   2.277   0.753  13.220  0.8280  0.0919 -0.2384
 8477SOL    HW136890   2.282   0.767  13.314 -1.0006  0.9926 -0.2754
 8477SOL    HW236891   2.368   0.740  13.191  0.4631  1.2543 -1.8959
 8478SOL     OW36892   3.745   1.498   2.069 -0.0251 -0.4193  0.5285
 8478SOL    HW136893   3.741   1.470   1.978  1.3196  1.3307 -0.0582
 8478SOL    HW236894   3.774   1.417   2.112 -1.6051 -1.2170  0.0815
 8479SOL     OW36895   2.064   0.665   3.936  1.1864 -0.1120 -0.4448
 8479SOL    HW136896   2.130   0.676   3.867  1.2074  0.9885 -0.2422
 8479SOL    HW236897   2.104   0.683   4.021  1.7386 -1.8753 -0.3439
 8480SOL     OW36898   0.144   0.832   5.876 -0.1312  0.2452  0.9721
 8480SOL    HW136899   0.052   0.840   5.901  0.0246  0.0036  1.6450
 8480SOL    HW236900   0.153   0.757   5.936 -0.0554  0.7284  1.5629
 8481SOL     OW36901   0.131   0.144   7.132  0.1930 -0.1181  0.1455
 8481SOL    HW136902   0.060   0.118   7.190  1.3150 -1.1262  1.0790
 8481SOL    HW236903   0.209   0.104   7.171  0.1712  0.1532  0.4603
 8482SOL     OW36904   1.915   2.897   1.342 -0.1060 -0.0985  0.3211
 8482SOL    HW136905   1.911   2.975   1.287 -2.2880  0.0297  0.6567
 8482SOL    HW236906   1.856   2.843   1.290 -0.9916  0.4735  0.7432
 8483SOL     OW36907   4.182   3.278   7.349 -0.0084 -0.2518 -0.2351
 8483SOL    HW136908   4.163   3.227   7.271 -0.3370  0.1959 -0.4516
 8483SOL    HW236909   4.219   3.355   7.306  0.9545 -0.1928  0.7026
 8484SOL     OW36910   2.779   0.145   1.416  0.8928  0.1093 -1.1971
 8484SOL    HW136911   2.780   0.240   1.416  3.2555  0.0808 -0.6381
 8484SOL    HW236912   2.824   0.123   1.498 -0.8236 -1.6794 -0.7201
 8485SOL     OW36913   3.723   4.333   0.816  0.0778  0.1670  0.4703
 8485SOL    HW136914   3.629   4.323   0.802  0.4795 -0.0365 -2.1434
 8485SOL    HW236915   3.763   4.377   0.741  0.8514  2.8367  2.4309
 8486SOL     OW36916   1.599   0.889  15.534 -0.2203  0.0047  0.2936
 8486SOL    HW136917   1.669   0.929  15.585 -0.5030  0.4282  0.3442
 8486SOL    HW236918   1.602   0.800  15.571 -0.1189 -0.0471  0.1599
 8487SOL     OW36919   4.094   0.461  11.106 -0.3086  0.0922 -0.7505
 8487SOL    HW136920   4.023   0.524  11.119 -1.6376 -1.2300 -1.5785
 8487SOL    HW236921   4.053   0.402  11.042 -1.1281 -1.0715  0.8495
 8488SOL     OW36922   0.159   0.932   9.403  0.1327 -0.0197  0.5561
 8488SOL    HW136923   0.075   0.916   9.361  0.3288 -4.1163  1.7573
 8488SOL    HW236924   0.170   1.024   9.380 -2.0324  0.4770  1.5362
 8489SOL     OW36925   2.767   3.681  12.453  0.0991 -0.2011  0.1088
 8489SOL    HW136926   2.700   3.648  12.393  0.5653  1.1307 -1.1676
 8489SOL    HW236927   2.844   3.630  12.429 -0.7153 -1.2065 -0.3552
 8490SOL     OW36928   0.590   0.913   2.672  0.0748 -0.4517  0.2063
 8490SOL    HW136929   0.512   0.941   2.624 -0.4539 -0.2403  1.1925
 8490SOL    HW236930   0.561   0.831   2.713  0.7644 -0.4303  0.7353
 8491SOL     OW36931   4.416   0.960  16.298 -0.0200 -0.2565 -0.0802
 8491SOL    HW136932   4.376   0.884  16.340  0.7769  0.2698  1.6347
 8491SOL    HW236933   4.449   1.002  16.378  1.2733 -1.0679 -0.1893
 8492SOL     OW36934   0.696   3.365  17.058  0.1115 -0.1282 -0.1799
 8492SOL    HW136935   0.673   3.425  16.987  1.0686  0.2453 -0.1661
 8492SOL    HW236936   0.789   3.377  17.076  0.0002 -2.7400  2.1699
 8493SOL     OW36937   2.151   3.775  11.212  0.3722  0.0803  0.1480
 8493SOL    HW136938   2.235   3.736  11.237 -0.0976 -1.2414 -0.3540
 8493SOL    HW236939   2.160   3.771  11.117  1.0317  0.3277  0.1957
 8494SOL     OW36940   1.303   2.094   7.041 -0.6037 -0.1291  0.8138
 8494SOL    HW136941   1.209   2.080   7.045 -0.6292  0.4332  2.0599
 8494SOL    HW236942   1.329   2.127   7.127 -0.2306 -1.2982  1.1488
 8495SOL     OW36943   0.374   2.702   5.749 -0.3235  0.4410 -0.4447
 8495SOL    HW136944   0.352   2.622   5.798  0.9744  0.0597 -0.4870
 8495SOL    HW236945   0.321   2.759   5.805  0.0501  0.4939 -0.1532
 8496SOL     OW36946   1.418   0.639   3.475  0.3808 -0.1161  0.8170
 8496SOL    HW136947   1.496   0.622   3.528  1.4348  2.0304 -0.0736
 8496SOL    HW236948   1.460   0.674   3.396  0.9325 -0.4513  0.9619
 8497SOL     OW36949   0.689   2.841   4.019 -0.4663  0.2605 -0.2223
 8497SOL    HW136950   0.740   2.911   3.978  1.3018  0.3768  2.1843
 8497SOL    HW236951   0.745   2.768   3.991 -1.6027 -1.3852  1.8866
 8498SOL     OW36952   0.389   1.616   2.329  0.0315 -0.1122  0.1260
 8498SOL    HW136953   0.418   1.531   2.296  0.1018 -0.3276  0.7378
 8498SOL    HW236954   0.295   1.607   2.319  0.0571  0.1697 -0.3361
 8499SOL     OW36955   2.548   0.100  15.407 -0.1823 -0.1834  0.1530
 8499SOL    HW136956   2.582   0.183  15.373 -1.2624  0.4127  0.5258
 8499SOL    HW236957   2.517   0.113  15.496 -0.1835  2.3520 -0.2097
 8500SOL     OW36958   0.843   3.997  12.020  0.1418 -0.7555 -0.5552
 8500SOL    HW136959   0.922   3.986  11.966  0.4943  1.3363 -0.4983
 8500SOL    HW236960   0.777   4.020  11.955 -0.7253 -1.5019  0.0705
 8501SOL     OW36961   1.955   2.103   7.598  0.3202  0.8885  0.3762
 8501SOL    HW136962   1.867   2.081   7.567  0.2302  0.9059  0.6206
 8501SOL    HW236963   1.958   2.196   7.622 -0.5990  1.0720 -0.1937
 8502SOL     OW36964   2.360   1.573  13.463 -0.1664  0.0767 -0.1678
 8502SOL    HW136965   2.348   1.569  13.557  2.6375  1.5189  0.2443
 8502SOL    HW236966   2.350   1.480  13.443  0.8063 -0.0069 -0.2539
 8503SOL     OW36967   3.232   3.375   4.498  0.3549 -0.3977 -0.1070
 8503SOL    HW136968   3.327   3.360   4.492  0.9038  3.5138 -1.2788
 8503SOL    HW236969   3.194   3.392   4.412 -0.4359  1.5231  0.6258
 8504SOL     OW36970   0.262   2.624   4.423  0.4858 -0.3015  0.2529
 8504SOL    HW136971   0.195   2.584   4.366  0.1706  2.1007 -1.0486
 8504SOL    HW236972   0.229   2.615   4.512 -0.1912  0.1094  0.0385
 8505SOL     OW36973   2.520   2.099   0.223 -0.1336 -0.0846  0.4915
 8505SOL    HW136974   2.440   2.047   0.215  1.2466 -2.2449  0.6846
 8505SOL    HW236975   2.593   2.037   0.227 -0.7155 -0.7065  1.6577
 8506SOL     OW36976   2.799   1.441   9.250 -0.3151 -0.2743 -0.5996
 8506SOL    HW136977   2.792   1.354   9.290  0.2047  0.7008  1.5961
 8506SOL    HW236978   2.883   1.426   9.205  0.6899  1.4938  0.7037
 8507SOL     OW36979   1.608   3.524   8.308 -0.1988  0.4241  0.1793
 8507SOL    HW136980   1.519   3.498   8.286  1.2068 -2.5050 -2.0001
 8507SOL    HW236981   1.643   3.443   8.345 -0.1714  0.4544  0.2196
 8508SOL     OW36982   3.009   0.850   6.809  0.0284  0.0174  0.1293
 8508SOL    HW136983   3.045   0.881   6.726  0.0886 -0.0645  0.1248
 8508SOL    HW236984   3.085   0.825   6.861 -0.0347 -1.5793 -0.5488
 8509SOL     OW36985   3.817   2.480   4.710  0.2217  0.1166  0.1431
 8509SOL    HW136986   3.797   2.572   4.693  1.9707  0.6033  0.6672
 8509SOL    HW236987   3.900   2.482   4.758  0.8430  1.1994 -0.9812
 8510SOL     OW36988   2.909   4.068   6.574 -0.1693 -0.6331 -0.2529
 8510SOL    HW136989   2.893   4.161   6.559 -1.9685 -0.4998  2.6807
 8510SOL    HW236990   2.939   4.073   6.664 -0.5360 -0.1958 -0.1544
 8511SOL     OW36991   0.603   3.730  10.108  0.6022  0.0609  0.1730
 8511SOL    HW136992   0.624   3.811  10.155  0.5892  0.5086 -0.5840
 8511SOL    HW236993   0.663   3.742  10.035 -0.6419  1.3263 -0.6495
 8512SOL     OW36994   2.452   0.285   3.132 -0.1803 -0.0438  0.0615
 8512SOL    HW136995   2.486   0.215   3.077  0.3879 -1.5760  2.3886
 8512SOL    HW236996   2.506   0.355   3.093 -0.1875 -0.7769 -1.2647
 8513SOL     OW36997   2.202   3.637   0.029  0.2207 -0.3375 -0.0905
 8513SOL    HW136998   2.123   3.640   0.083 -0.7537 -0.7760 -1.4844
 8513SOL    HW236999   2.225   3.728   0.046  1.1273 -1.0732  2.7456
 8514SOL     OW37000   1.648   1.378   4.590 -0.2475  0.1741 -0.2596
 8514SOL    HW137001   1.636   1.371   4.495  0.8135  3.3320 -0.6282
 8514SOL    HW237002   1.744   1.371   4.590 -0.3401 -0.9672  1.5869
 8515SOL     OW37003   3.541   2.733   4.581 -0.0375  0.0538 -0.7351
 8515SOL    HW137004   3.499   2.819   4.586 -1.6026 -0.8930  2.5135
 8515SOL    HW237005   3.542   2.712   4.487  0.9715  1.4965 -1.0403
 8516SOL     OW37006   2.925   3.677   1.695 -0.3855  1.0363  0.0534
 8516SOL    HW137007   2.969   3.598   1.662 -1.4680  1.0242 -1.3426
 8516SOL    HW237008   2.839   3.683   1.654 -1.2974 -1.7380  1.5337
 8517SOL     OW37009   3.751   4.044   0.607 -0.7670 -0.1695  0.4357
 8517SOL    HW137010   3.668   3.998   0.595 -0.4979 -0.2689 -1.0890
 8517SOL    HW237011   3.784   4.017   0.521 -0.2003 -0.7033  0.8233
 8518SOL     OW37012   2.495   1.297   4.525  0.0836  0.1930 -0.3239
 8518SOL    HW137013   2.491   1.350   4.446  1.0140  0.4847 -0.1767
 8518SOL    HW237014   2.491   1.371   4.586 -0.0601 -0.4862  0.4896
 8519SOL     OW37015   2.890   0.270   7.867  0.2607 -0.1252 -0.4030
 8519SOL    HW137016   2.824   0.285   7.934  0.3955 -1.5010  0.0325
 8519SOL    HW237017   2.886   0.175   7.855 -1.8765 -0.2277  1.3564
 8520SOL     OW37018   1.253   2.458   8.853  0.0959  0.1495  0.0026
 8520SOL    HW137019   1.169   2.492   8.823 -0.3177  0.2218  1.2238
 8520SOL    HW237020   1.248   2.366   8.827  0.8137 -0.7231  2.9164
 8521SOL     OW37021   0.172   4.017   3.594 -0.2932  0.1275  0.0221
 8521SOL    HW137022   0.214   3.937   3.561  0.2258 -0.0918  1.2016
 8521SOL    HW237023   0.189   4.073   3.518  0.0614  0.4811  0.3637
 8522SOL     OW37024   1.464   0.801   7.187  0.4000 -0.4718 -0.4124
 8522SOL    HW137025   1.553   0.816   7.217 -1.0642  2.2999  2.5062
 8522SOL    HW237026   1.426   0.756   7.262  0.8454 -1.2487 -0.6562
 8523SOL     OW37027   0.380   3.121  15.057 -0.6578  0.1950 -0.5752
 8523SOL    HW137028   0.319   3.065  15.105 -0.8759  0.8281 -0.1190
 8523SOL    HW237029   0.463   3.095  15.099 -0.0802  1.7404 -0.7677
 8524SOL     OW37030   4.281   0.520   9.815  0.5642 -0.7192  0.0818
 8524SOL    HW137031   4.365   0.476   9.796 -0.3970 -2.4344 -0.1887
 8524SOL    HW237032   4.281   0.581   9.742 -0.1575 -0.8944 -0.0580
 8525SOL     OW37033   0.165   1.118   7.594 -0.9792  0.5234 -0.3260
 8525SOL    HW137034   0.136   1.120   7.685 -2.5590  1.3718 -0.8397
 8525SOL    HW237035   0.129   1.033   7.566  0.6379  0.0338 -0.9721
 8526SOL     OW37036   3.296   3.525   6.763 -0.3031  0.5050 -0.2268
 8526SOL    HW137037   3.363   3.486   6.818  0.0341  0.8210 -0.4198
 8526SOL    HW237038   3.338   3.508   6.679  2.4880  1.4231  0.9875
 8527SOL     OW37039   1.970   1.221   7.555  0.3606  0.4442  0.2173
 8527SOL    HW137040   1.936   1.236   7.466  0.1109 -0.7795  0.1024
 8527SOL    HW237041   2.039   1.158   7.536 -1.5110 -1.3343 -0.7584
 8528SOL     OW37042   0.924   4.007  14.459  0.3834  0.2125  0.0544
 8528SOL    HW137043   0.972   4.060  14.522  2.4024 -0.5117 -0.8884
 8528SOL    HW237044   0.880   3.951  14.523  0.6718 -2.3045 -1.9785
 8529SOL     OW37045   3.774   4.279   2.797  0.4043 -0.1534  0.0839
 8529SOL    HW137046   3.860   4.307   2.826 -0.8632  3.1686  0.5382
 8529SOL    HW237047   3.749   4.355   2.744 -0.8509 -0.1326  0.7075
 8530SOL     OW37048   0.040   3.604   8.678 -0.0179  0.5626 -0.3256
 8530SOL    HW137049   4.683   3.570   8.715  0.5336 -1.4879 -0.9739
 8530SOL    HW237050   0.074   3.528   8.631  1.1868  1.6205 -1.1501
 8531SOL     OW37051   0.210   1.675  16.124  0.1573  0.4125  0.5411
 8531SOL    HW137052   0.288   1.620  16.117 -0.0924  0.1708 -0.3754
 8531SOL    HW237053   0.138   1.616  16.147 -0.6556  2.3194  2.8042
 8532SOL     OW37054   2.085   0.551  15.936 -0.3067 -0.0799  0.1590
 8532SOL    HW137055   2.092   0.497  15.858  0.4761 -3.5824  2.6544
 8532SOL    HW237056   2.071   0.492  16.010  0.5084 -0.9291 -0.3726
 8533SOL     OW37057   0.449   4.395   6.881  0.2779 -0.4303  0.2137
 8533SOL    HW137058   0.441   4.425   6.972 -2.9148  3.5858 -1.3862
 8533SOL    HW237059   0.406   4.310   6.890 -0.3770  0.4892  5.6603
 8534SOL     OW37060   3.930   1.952  10.586  0.3106  0.6317  0.2250
 8534SOL    HW137061   3.900   1.936  10.497 -0.0892 -2.7540  0.9811
 8534SOL    HW237062   3.845   1.948  10.630 -0.4518  0.5502 -1.2945
 8535SOL     OW37063   4.283   3.471   7.184 -0.2305  0.3276  0.1376
 8535SOL    HW137064   4.270   3.557   7.223 -0.8083  0.6697 -0.7904
 8535SOL    HW237065   4.369   3.468   7.142  1.3779 -1.5393  3.5764
 8536SOL     OW37066   3.243   2.030  12.069  0.1066  0.0593 -0.1385
 8536SOL    HW137067   3.155   2.039  12.032 -0.5461 -0.5279  1.2677
 8536SOL    HW237068   3.224   2.059  12.158  0.2140 -1.1674  0.2765
 8537SOL     OW37069   1.787   3.825  11.626  0.0643  0.8319 -0.2585
 8537SOL    HW137070   1.841   3.766  11.574 -2.9840 -1.6457 -0.6193
 8537SOL    HW237071   1.699   3.807  11.593 -0.5761  1.8244  0.8949
 8538SOL     OW37072   3.831   1.683   6.018 -0.0997  0.1952  0.1793
 8538SOL    HW137073   3.895   1.616   5.994 -1.5577 -1.2267  0.2840
 8538SOL    HW237074   3.881   1.759   6.047 -0.8399  0.8270 -0.1960
 8539SOL     OW37075   3.712   0.642  16.899 -0.1753  0.3406  0.5633
 8539SOL    HW137076   3.723   0.655  16.993 -1.1069  0.3029  0.6798
 8539SOL    HW237077   3.618   0.658  16.889 -1.1062 -3.7152  3.1553
 8540SOL     OW37078   2.615   0.743   8.401  0.1512 -0.0768 -0.0280
 8540SOL    HW137079   2.632   0.832   8.371 -0.0412 -0.0908 -0.1779
 8540SOL    HW237080   2.676   0.744   8.474  1.8875  0.4045 -1.4945
 8541SOL     OW37081   2.637   4.439   8.702 -0.5244 -0.5397  0.2868
 8541SOL    HW137082   2.558   4.406   8.660 -0.7430 -1.3156  1.3083
 8541SOL    HW237083   2.696   4.369   8.675  1.4107  1.0381  0.4305
 8542SOL     OW37084   4.250   0.864  16.694 -0.2967  0.3706 -0.3674
 8542SOL    HW137085   4.298   0.893  16.616 -1.3748 -1.0600 -1.5710
 8542SOL    HW237086   4.245   0.769  16.693  0.8393  0.3049  0.1961
 8543SOL     OW37087   4.303   1.301  10.377  0.5355 -0.0115  0.2540
 8543SOL    HW137088   4.295   1.346  10.293 -3.2439  0.7924  1.0407
 8543SOL    HW237089   4.251   1.356  10.436  2.8659  0.3478  1.9439
 8544SOL     OW37090   3.327   0.713   3.483 -0.8432 -0.0154  0.5048
 8544SOL    HW137091   3.339   0.808   3.487 -0.2316 -0.0790  0.2119
 8544SOL    HW237092   3.273   0.715   3.404  0.3680  1.2756 -0.3001
 8545SOL     OW37093   2.377   1.590   8.811 -0.0815  0.3583 -0.0253
 8545SOL    HW137094   2.388   1.580   8.905  0.4319  0.2212 -0.1000
 8545SOL    HW237095   2.288   1.571   8.781 -0.0395 -1.2129  0.8709
 8546SOL     OW37096   1.959   2.820   7.616 -0.1650 -0.2069  0.7789
 8546SOL    HW137097   1.985   2.850   7.529 -2.0629 -0.5846  0.0743
 8546SOL    HW237098   1.936   2.727   7.610  1.3153 -0.4787 -0.5829
 8547SOL     OW37099   1.213   1.156  11.095  0.1876  0.0211  0.4502
 8547SOL    HW137100   1.160   1.234  11.078  1.3409  0.5366 -0.8274
 8547SOL    HW237101   1.237   1.174  11.186  3.6754  2.0809 -0.8311
 8548SOL     OW37102   1.212   3.335   0.487  0.3032 -0.0284 -0.2919
 8548SOL    HW137103   1.246   3.307   0.402  0.9491  0.2666 -0.1308
 8548SOL    HW237104   1.122   3.359   0.464  0.7869  0.9861 -1.0748
 8549SOL     OW37105   2.990   2.380  11.326  0.0868  0.3198 -0.4070
 8549SOL    HW137106   3.061   2.430  11.284  1.2305 -0.7116  0.3103
 8549SOL    HW237107   3.029   2.387  11.413 -0.2127 -0.4171 -0.2166
 8550SOL     OW37108   0.586   2.430   2.231  0.0300  0.8702  0.1342
 8550SOL    HW137109   0.663   2.441   2.176 -0.0157 -1.4206 -0.3819
 8550SOL    HW237110   0.562   2.520   2.249  1.1759  1.4187 -1.0878
 8551SOL     OW37111   2.076   1.074   6.796  0.1241  0.2742  1.0700
 8551SOL    HW137112   2.079   0.990   6.749 -1.9103  1.5449 -1.3215
 8551SOL    HW237113   2.073   1.138   6.725 -1.8616 -0.5163  0.4475
 8552SOL     OW37114   3.792   3.657  11.986  0.8139 -0.1676  0.3149
 8552SOL    HW137115   3.877   3.645  12.029  1.2857 -0.2038 -0.6398
 8552SOL    HW237116   3.818   3.739  11.944  2.5955 -1.9044 -1.9805
 8553SOL     OW37117   4.190   1.568  15.629  0.3859  0.1637  0.0468
 8553SOL    HW137118   4.235   1.646  15.596 -1.1198  1.5872  1.3844
 8553SOL    HW237119   4.166   1.603  15.715 -0.4561  0.6503 -0.3793
 8554SOL     OW37120   4.101   3.957   5.506 -0.3285 -0.8871  0.1583
 8554SOL    HW137121   4.173   4.016   5.484 -1.2693 -0.5792 -2.0503
 8554SOL    HW237122   4.083   3.991   5.594  0.6228 -0.2171  0.0967
 8555SOL     OW37123   3.806   2.241   1.791 -0.1117 -0.1407 -0.1253
 8555SOL    HW137124   3.838   2.293   1.717  3.4853 -1.3996  0.5524
 8555SOL    HW237125   3.732   2.199   1.747  0.1391 -0.3136 -0.3781
 8556SOL     OW37126   0.711   2.348   8.251  0.2492 -0.2735 -0.3236
 8556SOL    HW137127   0.632   2.339   8.305  0.5937 -0.1025  0.2135
 8556SOL    HW237128   0.773   2.293   8.301 -0.2666 -1.6354 -1.1937
 8557SOL     OW37129   0.320   2.502   9.683  0.1036 -0.0498 -0.1010
 8557SOL    HW137130   0.317   2.410   9.710  2.6653  0.1687  0.9069
 8557SOL    HW237131   0.409   2.523   9.712  0.7291 -1.4408 -1.0092
 8558SOL     OW37132   3.543   4.229   6.916  0.1812 -0.2750  0.3570
 8558SOL    HW137133   3.553   4.212   7.010  0.0779  2.3110  0.8526
 8558SOL    HW237134   3.469   4.290   6.922 -0.1142 -0.7125  1.0827
 8559SOL     OW37135   1.502   3.850  17.483 -0.6982  0.6145 -0.2979
 8559SOL    HW137136   1.423   3.896  17.455 -1.6445  0.3988  2.0413
 8559SOL    HW237137   1.545   3.831  17.399 -0.4926 -0.4491  0.0463
 8560SOL     OW37138   2.904   3.566   4.501 -0.4609  0.2661  0.0305
 8560SOL    HW137139   2.894   3.590   4.593  0.3976 -0.6333  0.3585
 8560SOL    HW237140   2.961   3.631   4.460  1.1196 -0.4872  1.0642
 8561SOL     OW37141   0.716   2.355   1.775  0.3537 -0.2625 -0.0129
 8561SOL    HW137142   0.802   2.341   1.734  0.2951  1.8609 -0.8561
 8561SOL    HW237143   0.734   2.342   1.868  1.0897  1.2965  0.0620
 8562SOL     OW37144   0.050   3.516   4.404 -0.3961 -0.1257 -0.4014
 8562SOL    HW137145   0.138   3.554   4.396 -0.7944  0.6563 -1.0717
 8562SOL    HW237146   0.058   3.469   4.487 -0.4466  0.5017 -0.0408
 8563SOL     OW37147   0.369   2.917   7.296  0.0118 -0.3305  0.3291
 8563SOL    HW137148   0.341   3.008   7.302  1.9450  0.2972 -0.4174
 8563SOL    HW237149   0.460   2.935   7.275 -0.3898  1.6707  0.2658
 8564SOL     OW37150   0.532   4.570   9.256  0.0692 -0.5538 -0.2025
 8564SOL    HW137151   0.572   4.562   9.342 -3.1588  2.0448  1.5292
 8564SOL    HW237152   0.531   4.665   9.262 -0.2781 -0.4606 -1.6891
 8565SOL     OW37153   1.190   3.396   1.998  0.2663  0.4835 -0.2443
 8565SOL    HW137154   1.106   3.359   2.027 -0.6942  1.7206 -1.4109
 8565SOL    HW237155   1.173   3.490   2.009 -1.1390  0.2363 -0.2185
 8566SOL     OW37156   1.433   2.256   5.239  0.7602  0.5926  0.4109
 8566SOL    HW137157   1.415   2.350   5.230 -0.2548  0.4342  0.7884
 8566SOL    HW237158   1.510   2.256   5.182 -0.4467  0.2549 -1.2358
 8567SOL     OW37159   1.659   1.283  15.540  0.3467 -0.1470 -0.4573
 8567SOL    HW137160   1.737   1.339  15.550  0.7121 -0.4024 -1.9076
 8567SOL    HW237161   1.601   1.345  15.496 -0.9837 -0.3430  1.0228
 8568SOL     OW37162   0.262   3.357   3.159 -0.8877 -0.1551  0.2432
 8568SOL    HW137163   0.225   3.392   3.078 -2.0955 -0.4195  0.6731
 8568SOL    HW237164   0.199   3.394   3.221  1.4042  1.4316  1.6245
 8569SOL     OW37165   4.034   3.549  15.918  0.5723  0.2955 -0.2767
 8569SOL    HW137166   4.019   3.637  15.953  0.1410  0.7280 -1.5407
 8569SOL    HW237167   4.001   3.558  15.828  0.5026  0.4680 -0.2341
 8570SOL     OW37168   2.780   4.480   4.682 -0.5247  0.1727  0.1159
 8570SOL    HW137169   2.753   4.390   4.663 -1.4914  0.4166  0.3349
 8570SOL    HW237170   2.863   4.470   4.730 -1.0002 -0.3831  0.8161
 8571SOL     OW37171   0.756   3.113   7.254 -0.3428 -0.0774  0.5066
 8571SOL    HW137172   0.697   3.121   7.179  1.3976  1.1772 -0.7020
 8571SOL    HW237173   0.843   3.112   7.216 -0.4858  0.4189  0.1697
 8572SOL     OW37174   1.685   1.530   7.589  0.4091  0.1002 -0.6681
 8572SOL    HW137175   1.611   1.495   7.640  0.0246 -0.8678 -1.8665
 8572SOL    HW237176   1.754   1.525   7.655  0.8434 -2.7613 -1.3163
 8573SOL     OW37177   4.115   3.941   6.749  0.4821  0.4395 -0.1320
 8573SOL    HW137178   4.155   3.924   6.663 -1.3089  1.0131 -1.0847
 8573SOL    HW237179   4.028   3.912   6.724 -0.3062 -0.0345  3.1511
 8574SOL     OW37180   3.370   0.165  12.217  0.3473 -0.0265 -0.2005
 8574SOL    HW137181   3.294   0.184  12.163 -0.6468 -2.1050  0.4527
 8574SOL    HW237182   3.334   0.148  12.304  0.3653 -2.1220 -0.5942
 8575SOL     OW37183   4.397   0.532  10.279 -0.1537  0.3197  0.1984
 8575SOL    HW137184   4.386   0.592  10.205  2.9179  0.6130  0.0030
 8575SOL    HW237185   4.481   0.566  10.310 -0.6676  1.4082  0.4163
 8576SOL     OW37186   1.738   2.650  15.992  0.3923 -0.3762 -0.0723
 8576SOL    HW137187   1.786   2.728  16.019 -1.0074 -0.0984  1.6244
 8576SOL    HW237188   1.805   2.590  15.960 -0.7707 -0.9765 -1.3664
 8577SOL     OW37189   4.288   0.204   5.884  0.2147  0.0259 -0.5138
 8577SOL    HW137190   4.292   0.122   5.834 -0.0628 -0.5136  0.3595
 8577SOL    HW237191   4.209   0.243   5.845 -0.8982 -1.2265  0.4868
 8578SOL     OW37192   0.377   4.125   3.084 -0.0920 -0.0036 -0.5807
 8578SOL    HW137193   0.313   4.186   3.121 -1.4871 -0.5441 -2.1391
 8578SOL    HW237194   0.438   4.194   3.058 -0.1585  0.1198 -0.4134
 8579SOL     OW37195   0.386   3.660   0.606  0.0928  0.5995 -0.2136
 8579SOL    HW137196   0.344   3.658   0.692  2.0210  0.7093  0.7321
 8579SOL    HW237197   0.325   3.688   0.538 -1.1790 -0.5602  0.4651
 8580SOL     OW37198   3.362   3.151   0.433  0.0445 -0.2885 -0.1054
 8580SOL    HW137199   3.383   3.228   0.487 -0.9251 -0.7530  0.9139
 8580SOL    HW237200   3.322   3.098   0.501  1.8497  2.6437  3.2643
 8581SOL     OW37201   4.317   2.964   5.843 -0.3574  0.6248  0.8226
 8581SOL    HW137202   4.363   3.028   5.897 -1.7753  0.1696  2.5438
 8581SOL    HW237203   4.390   2.907   5.819 -1.1077  0.6748 -1.6319
 8582SOL     OW37204   0.649   1.067   1.073 -0.0587 -0.0369  0.1870
 8582SOL    HW137205   0.569   1.034   1.114 -1.6241  0.7150 -2.2529
 8582SOL    HW237206   0.712   1.050   1.143 -0.2651 -0.1361  0.3494
 8583SOL     OW37207   4.589   1.995   2.679 -0.1498 -0.2097  0.3782
 8583SOL    HW137208   4.634   1.937   2.742  0.9620  1.2114  0.9059
 8583SOL    HW237209   4.521   1.932   2.655 -1.1170  0.9501  0.0988
 8584SOL     OW37210   1.736   2.925   4.622 -0.3473 -0.3107  0.0955
 8584SOL    HW137211   1.688   2.874   4.686  0.9414  0.9368  2.0819
 8584SOL    HW237212   1.712   2.878   4.542  3.3718  0.4183 -1.4721
 8585SOL     OW37213   4.650   2.505  13.683  0.7186  0.0427 -0.1065
 8585SOL    HW137214   4.615   2.450  13.613  0.3616  0.0151  0.0919
 8585SOL    HW237215   0.000   2.549  13.645  0.3348  2.8161  2.3995
 8586SOL     OW37216   3.121   1.651   5.086  0.0039  0.2014 -0.2525
 8586SOL    HW137217   3.026   1.649   5.092 -0.1155 -0.3705 -2.3242
 8586SOL    HW237218   3.147   1.561   5.066 -0.6856  0.1936 -1.1245
 8587SOL     OW37219   4.494   2.141   3.557  0.3544 -0.8572 -0.1437
 8587SOL    HW137220   4.551   2.218   3.557  1.2599 -1.5151  1.3614
 8587SOL    HW237221   4.457   2.147   3.469 -1.0115 -1.4749  0.3757
 8588SOL     OW37222   2.425   4.405   3.437  0.0406 -0.1775  0.3468
 8588SOL    HW137223   2.482   4.335   3.468  3.2813  2.2846 -0.0676
 8588SOL    HW237224   2.411   4.375   3.347  1.2261 -0.8150  0.3777
 8589SOL     OW37225   2.461   3.939   0.374  0.4667 -0.0101 -0.5475
 8589SOL    HW137226   2.499   4.021   0.341  1.6684 -0.3917 -0.1182
 8589SOL    HW237227   2.535   3.879   0.377  1.7738  1.6487  0.5372
 8590SOL     OW37228   4.607   2.339   5.457  0.3469 -0.0008 -0.2829
 8590SOL    HW137229   4.679   2.352   5.519 -0.4608  1.5443  0.3492
 8590SOL    HW237230   4.645   2.354   5.371  1.7696  1.0204  0.5254
 8591SOL     OW37231   3.828   4.682   0.211  0.0625  0.4297  0.2096
 8591SOL    HW137232   3.855   0.036   0.165 -2.6566  0.8636 -0.6141
 8591SOL    HW237233   3.868   4.622   0.148  0.0115  0.3205  0.2810
 8592SOL     OW37234   0.414   1.767  12.802  0.3837 -0.4967  0.3958
 8592SOL    HW137235   0.485   1.711  12.770  1.3816 -0.1024  1.9306
 8592SOL    HW237236   0.419   1.757  12.897  2.4872  0.4551  0.3933
 8593SOL     OW37237   3.851   3.336   0.131 -0.3516  0.4014 -0.2668
 8593SOL    HW137238   3.805   3.292   0.203 -0.8733  1.5938  0.1277
 8593SOL    HW237239   3.852   3.266   0.065 -0.0169 -1.3459  1.5884
 8594SOL     OW37240   0.919   2.859   2.815 -0.3232 -0.1107 -0.6629
 8594SOL    HW137241   0.874   2.784   2.776  0.1693 -1.2784  1.0314
 8594SOL    HW237242   1.006   2.855   2.774 -0.1225  0.7402 -0.3043
 8595SOL     OW37243   0.280   2.764   8.764  0.1327  0.1697  0.0718
 8595SOL    HW137244   0.225   2.686   8.762 -0.2676  0.4354  0.7345
 8595SOL    HW237245   0.277   2.787   8.856  0.9678 -1.7996  0.5857
 8596SOL     OW37246   0.391   2.441   6.356  0.1039 -0.4649  0.4413
 8596SOL    HW137247   0.474   2.463   6.314 -0.3326  0.5909  0.1262
 8596SOL    HW237248   0.421   2.434   6.446 -0.5267 -0.0363  0.6808
 8597SOL     OW37249   1.803   3.236  10.656  0.3245  0.1512  0.3786
 8597SOL    HW137250   1.757   3.154  10.633  0.5418  0.9708 -3.0302
 8597SOL    HW237251   1.855   3.210  10.732  1.2838  1.3581  0.1150
 8598SOL     OW37252   0.451   4.342   4.964 -0.4129 -0.4003  0.0574
 8598SOL    HW137253   0.542   4.313   4.969 -1.3890 -3.5049 -0.1758
 8598SOL    HW237254   0.422   4.349   4.873  1.9311 -0.8638 -0.7297
 8599SOL     OW37255   3.881   0.948   9.518  0.3429 -0.2466  0.4636
 8599SOL    HW137256   3.837   1.004   9.582  1.1330 -0.3099  1.0665
 8599SOL    HW237257   3.842   0.866   9.549 -0.7264  0.6518  1.5344
 8600SOL     OW37258   4.133   0.482   6.891  0.3890 -0.0189  0.2616
 8600SOL    HW137259   4.139   0.393   6.928 -0.3459  0.1312  0.7440
 8600SOL    HW237260   4.156   0.538   6.965  1.8443 -1.1456  0.6622
 8601SOL     OW37261   3.182   1.503  13.469  0.2751 -0.3499 -0.4451
 8601SOL    HW137262   3.169   1.482  13.562 -2.3737 -0.3647 -0.8345
 8601SOL    HW237263   3.223   1.589  13.472  0.7264 -0.5041 -2.0762
 8602SOL     OW37264   0.858   0.223   8.814  0.2927 -0.1231 -0.3323
 8602SOL    HW137265   0.947   0.245   8.840  0.3220 -0.8225  0.1695
 8602SOL    HW237266   0.877   0.160   8.744  1.7718 -1.8854  1.6559
 8603SOL     OW37267   2.426   1.354   9.833  0.5209 -0.5008  0.4557
 8603SOL    HW137268   2.396   1.295   9.764 -2.0612 -0.4128  1.5191
 8603SOL    HW237269   2.509   1.308   9.849  1.0394 -0.1776 -1.3369
 8604SOL     OW37270   3.145   3.374   1.942  0.0461 -0.1482 -0.1162
 8604SOL    HW137271   3.069   3.429   1.960 -0.4975 -0.2127 -2.2015
 8604SOL    HW237272   3.198   3.395   2.019 -0.6643  0.0800  0.3099
 8605SOL     OW37273   2.115   3.353   2.377  0.4592  0.8426 -0.4775
 8605SOL    HW137274   2.077   3.270   2.347  1.9002  0.2861 -0.7607
 8605SOL    HW237275   2.191   3.338   2.433 -1.3529 -2.0741  1.1608
 8606SOL     OW37276   2.693   3.239   1.175  0.2365 -0.2301  0.0909
 8606SOL    HW137277   2.723   3.149   1.163  0.1418  0.0099 -1.9550
 8606SOL    HW237278   2.777   3.282   1.196  1.2770 -1.9810 -0.5072
 8607SOL     OW37279   1.132   3.860   3.594  0.1825 -0.5222 -0.5841
 8607SOL    HW137280   1.043   3.829   3.608  0.1338  0.1943  0.7088
 8607SOL    HW237281   1.122   3.949   3.559 -1.4017 -0.0908  0.9476
 8608SOL     OW37282   2.190   4.432   4.348 -0.4073  0.4769 -0.1136
 8608SOL    HW137283   2.205   4.521   4.315  1.5398  0.5322  0.9271
 8608SOL    HW237284   2.098   4.436   4.373  0.5956 -0.4949  3.6825
 8609SOL     OW37285   3.933   4.186   6.473  0.0357 -0.0245 -0.2060
 8609SOL    HW137286   3.882   4.251   6.520 -3.2440 -0.5181 -3.1095
 8609SOL    HW237287   3.884   4.148   6.400 -0.1939 -0.3889  0.1359
 8610SOL     OW37288   3.780   3.222   5.884  0.0140 -0.1765 -0.0903
 8610SOL    HW137289   3.826   3.174   5.815 -0.5368 -2.3694  1.0656
 8610SOL    HW237290   3.726   3.151   5.918 -1.1653  1.1175  0.7220
 8611SOL     OW37291   3.429   0.352   9.622  0.0979  0.2782 -0.4770
 8611SOL    HW137292   3.363   0.337   9.690  0.1867 -0.8430 -0.6367
 8611SOL    HW237293   3.501   0.377   9.680 -0.2779  1.9758 -0.7463
 8612SOL     OW37294   1.365   1.116   3.803 -0.0302 -0.3069  0.5594
 8612SOL    HW137295   1.413   1.053   3.749 -0.2781  2.1507 -2.5666
 8612SOL    HW237296   1.435   1.181   3.806  1.1142 -1.5707  1.5883
 8613SOL     OW37297   3.180   1.701   3.935  0.3313 -0.7770  0.2469
 8613SOL    HW137298   3.093   1.671   3.958  0.7058 -0.7213  1.7405
 8613SOL    HW237299   3.233   1.630   3.972  1.5878 -1.5640 -3.0327
 8614SOL     OW37300   0.338   2.871  11.899  0.2439  0.2542  0.0069
 8614SOL    HW137301   0.404   2.941  11.898  0.4053  0.0845 -2.6831
 8614SOL    HW237302   0.305   2.874  11.809 -0.4161 -0.0527  0.2415
 8615SOL     OW37303   4.197   4.290  14.271 -0.9411  0.4084 -0.0766
 8615SOL    HW137304   4.177   4.211  14.321  0.9859  0.8576  1.4230
 8615SOL    HW237305   4.122   4.314  14.217  0.4686 -1.2573 -2.8192
 8616SOL     OW37306   0.378   4.509  14.146  0.1081 -0.2736 -0.1238
 8616SOL    HW137307   0.407   4.570  14.078  2.8686 -0.9056  0.4734
 8616SOL    HW237308   0.312   4.464  14.093  0.3799 -0.8943  0.0544
 8617SOL     OW37309   2.632   3.307   8.849 -0.0622  0.7667 -1.2253
 8617SOL    HW137310   2.658   3.288   8.939 -0.1097  0.0800 -1.3597
 8617SOL    HW237311   2.663   3.397   8.835  1.3147  0.4793 -0.0820
 8618SOL     OW37312   3.846   0.841   9.771  0.3645  0.2372  0.6091
 8618SOL    HW137313   3.841   0.763   9.715 -1.6835  1.0218 -0.3207
 8618SOL    HW237314   3.938   0.843   9.798 -0.2300  0.1376  2.6614
 8619SOL     OW37315   2.253   3.110   5.257 -0.8938  0.0819  0.1381
 8619SOL    HW137316   2.321   3.157   5.209 -0.0724 -1.9706 -0.7373
 8619SOL    HW237317   2.210   3.068   5.182 -0.7742  0.0667  0.0776
 8620SOL     OW37318   3.218   3.837  11.588  0.1815 -0.0198  0.1598
 8620SOL    HW137319   3.230   3.877  11.674  2.0465 -3.2734  1.4074
 8620SOL    HW237320   3.307   3.802  11.596 -0.3576 -1.5794 -0.6823
 8621SOL     OW37321   0.531   4.706  17.280  0.5413  0.1715 -0.2411
 8621SOL    HW137322   0.588   4.718  17.356 -1.6332  1.7744  1.1176
 8621SOL    HW237323   0.488   0.066  17.276  0.0866  0.0652  2.5914
 8622SOL     OW37324   3.812   3.284   1.268  1.0314 -0.6836  0.0387
 8622SOL    HW137325   3.852   3.227   1.334  0.8912  0.1277  0.8074
 8622SOL    HW237326   3.857   3.367   1.283  0.6798 -0.4180 -0.3750
 8623SOL     OW37327   0.395   2.140  10.909 -0.2497 -0.0094  0.3052
 8623SOL    HW137328   0.448   2.218  10.894  1.1060 -0.2754  3.6380
 8623SOL    HW237329   0.314   2.160  10.863 -0.5931 -0.3782  0.7476
 8624SOL     OW37330   3.095   4.581   4.368  0.3999 -0.5406  0.4211
 8624SOL    HW137331   3.032   4.509   4.366 -0.1027 -0.0412 -1.5600
 8624SOL    HW237332   3.043   4.661   4.361 -0.8935 -1.5685 -1.2956
 8625SOL     OW37333   1.738   3.234   1.030  0.0694 -0.3996  0.3242
 8625SOL    HW137334   1.721   3.236   0.936  1.0211  1.8656  0.2084
 8625SOL    HW237335   1.770   3.324   1.035 -1.1053  0.0036  0.7566
 8626SOL     OW37336   3.903   1.303   6.809 -0.0697 -1.0480  0.5814
 8626SOL    HW137337   3.843   1.249   6.757 -0.2397 -0.5265  0.2331
 8626SOL    HW237338   3.915   1.245   6.884  1.6703 -1.0256  0.3146
 8627SOL     OW37339   2.187   4.640   1.256  0.9823  0.1219 -0.1915
 8627SOL    HW137340   2.204   0.002   1.292 -0.4305 -0.5224  1.9791
 8627SOL    HW237341   2.258   4.595   1.302  1.6493  0.5736 -0.7699
 8628SOL     OW37342   2.312   0.462   3.919 -0.0054  0.4215  0.2262
 8628SOL    HW137343   2.302   0.551   3.886  3.2186  0.8666  0.4890
 8628SOL    HW237344   2.344   0.417   3.841  0.3847  4.1518 -1.7582
 8629SOL     OW37345   4.110   2.488   6.451  0.1047 -0.4461 -0.0996
 8629SOL    HW137346   4.066   2.550   6.509  1.6672  0.9586 -0.4298
 8629SOL    HW237347   4.092   2.405   6.496 -1.8054 -0.6605 -1.2859
 8630SOL     OW37348   2.154   3.138   1.682  0.4027  0.2056 -0.6696
 8630SOL    HW137349   2.113   3.057   1.654  1.6676 -1.3362  2.0124
 8630SOL    HW237350   2.127   3.148   1.773  1.2328  0.6021 -0.4702
 8631SOL     OW37351   1.163   1.349   1.657  0.1828 -0.0689  0.3063
 8631SOL    HW137352   1.247   1.375   1.696  0.8979  1.1007 -2.0141
 8631SOL    HW237353   1.116   1.429   1.680  0.5701 -0.0308  0.9643
 8632SOL     OW37354   4.590   2.954  16.542 -0.0487 -0.3108  0.5070
 8632SOL    HW137355   4.599   2.888  16.611  1.6018 -0.0616  0.5328
 8632SOL    HW237356   4.633   3.031  16.581  0.4439 -0.1830 -0.2924
 8633SOL     OW37357   0.728   4.127   6.513 -0.0842 -0.7216 -0.0090
 8633SOL    HW137358   0.670   4.185   6.563 -1.9938  0.2458 -3.4016
 8633SOL    HW237359   0.731   4.176   6.432  1.9002 -2.1727 -0.8036
 8634SOL     OW37360   0.376   2.858   4.230 -0.1576 -0.4013  0.0758
 8634SOL    HW137361   0.392   2.780   4.283  0.0206  0.8242  1.8133
 8634SOL    HW237362   0.404   2.819   4.147 -0.2559 -0.4429  0.0620
 8635SOL     OW37363   2.211   4.505   8.431 -0.2028  0.0774 -0.0923
 8635SOL    HW137364   2.289   4.561   8.422  0.9733 -1.6050 -0.3033
 8635SOL    HW237365   2.187   4.514   8.339  0.9181 -0.2481 -0.4180
 8636SOL     OW37366   2.603   4.446   9.978  0.3986 -0.7388  0.9636
 8636SOL    HW137367   2.560   4.522  10.017  0.3014 -0.3749  0.1513
 8636SOL    HW237368   2.617   4.470   9.887 -1.2080  2.1312  1.4919
 8637SOL     OW37369   1.653   0.810  14.835  0.1483 -0.2282  0.4654
 8637SOL    HW137370   1.575   0.834  14.884  0.1229  0.4118  0.1115
 8637SOL    HW237371   1.715   0.793  14.907 -0.4734  0.7535  1.2280
 8638SOL     OW37372   2.856   0.873   3.021 -0.1001  0.4230 -0.2895
 8638SOL    HW137373   2.891   0.791   2.988 -2.1605 -1.9215  3.3493
 8638SOL    HW237374   2.769   0.862   2.983  0.3651 -1.4795 -0.7807
 8639SOL     OW37375   3.810   0.908   6.563 -0.0922 -0.3242 -0.3689
 8639SOL    HW137376   3.735   0.856   6.534 -0.4276 -0.4244  0.6662
 8639SOL    HW237377   3.883   0.853   6.536  0.7303  0.7796 -0.4364
 8640SOL     OW37378   3.370   3.983   2.059  0.5359 -0.4782  0.0079
 8640SOL    HW137379   3.416   3.961   1.978 -0.1830 -0.9207 -0.2874
 8640SOL    HW237380   3.373   4.079   2.058 -0.4760 -0.4432 -0.4598
 8641SOL     OW37381   1.774   0.219   1.440 -0.5769  0.4506  0.0894
 8641SOL    HW137382   1.743   0.260   1.359  0.2563 -0.7078 -0.7988
 8641SOL    HW237383   1.714   0.144   1.443  0.1485  0.0147  4.3050
 8642SOL     OW37384   2.543   0.297  14.329 -0.1197 -0.2328 -0.2139
 8642SOL    HW137385   2.536   0.301  14.233  1.4907 -2.5498 -0.4187
 8642SOL    HW237386   2.493   0.373  14.360  1.7913  0.4267  1.2421
 8643SOL     OW37387   2.421   2.667   2.187 -0.4599 -0.3233  0.0732
 8643SOL    HW137388   2.502   2.629   2.153 -1.7829 -0.7904 -2.5625
 8643SOL    HW237389   2.404   2.737   2.123 -1.4065 -1.1688 -0.6082
 8644SOL     OW37390   4.084   1.877  15.210 -0.2461 -0.4306  0.1199
 8644SOL    HW137391   4.042   1.876  15.124 -2.7736 -0.2516  1.3628
 8644SOL    HW237392   4.051   1.791  15.236 -1.5273 -0.0011 -0.1176
 8645SOL     OW37393   1.502   4.130   2.726 -0.6849  0.3076 -0.0185
 8645SOL    HW137394   1.420   4.159   2.686 -0.6678  0.3964  0.0107
 8645SOL    HW237395   1.551   4.211   2.736 -1.8662  1.0519 -0.2811
 8646SOL     OW37396   3.139   3.700  17.327  0.1180 -0.4392  0.2713
 8646SOL    HW137397   3.084   3.640  17.377 -0.0904  0.3495  0.9903
 8646SOL    HW237398   3.222   3.657  17.349  0.3740  0.1893  0.5462
 8647SOL     OW37399   2.462   0.968   9.260 -0.0055  0.0094  0.3201
 8647SOL    HW137400   2.552   0.994   9.240 -0.0130 -0.0077  0.2646
 8647SOL    HW237401   2.409   1.026   9.204  0.5718  1.0483  0.8421
 8648SOL     OW37402   4.680   1.103   5.295 -0.0316 -0.6469 -0.2184
 8648SOL    HW137403   4.647   1.138   5.212 -0.6640  0.2746  0.4264
 8648SOL    HW237404   4.697   1.013   5.268  0.8047 -1.0375  1.6272
 8649SOL     OW37405   3.232   4.539   7.352  0.0128  0.0916 -0.0350
 8649SOL    HW137406   3.327   4.550   7.356  0.0881 -0.1384 -1.2387
 8649SOL    HW237407   3.208   4.586   7.272  0.6531  1.0998  0.3659
 8650SOL     OW37408   2.092   1.666   0.292 -0.0555  0.2716 -0.0262
 8650SOL    HW137409   2.012   1.677   0.342  0.3670 -1.1731  0.9476
 8650SOL    HW237410   2.153   1.638   0.360 -1.5601 -0.1746  1.1137
 8651SOL     OW37411   4.364   2.191   8.184 -0.3321  0.0709 -0.1111
 8651SOL    HW137412   4.326   2.244   8.255  0.6987 -0.6603  0.9763
 8651SOL    HW237413   4.418   2.132   8.236 -0.0602 -0.3369 -0.8585
 8652SOL     OW37414   2.659   3.595  14.362 -0.2409 -0.4496 -0.1786
 8652SOL    HW137415   2.582   3.645  14.388 -0.9120 -1.0110 -1.0656
 8652SOL    HW237416   2.726   3.663  14.364 -0.2423 -0.4698  0.4360
 8653SOL     OW37417   0.856   3.618   1.142 -0.2539  0.3804 -0.7573
 8653SOL    HW137418   0.901   3.608   1.226  1.7071 -3.1873 -2.2103
 8653SOL    HW237419   0.793   3.547   1.152  2.2100 -1.6445  0.4843
 8654SOL     OW37420   2.456   0.725   9.553  0.3618  0.3061  0.0336
 8654SOL    HW137421   2.455   0.641   9.507 -1.5118 -1.2980  2.9416
 8654SOL    HW237422   2.362   0.735   9.569  1.0014  1.7034  2.9294
 8655SOL     OW37423   2.724   2.667   7.129 -0.2885  0.6402  0.6599
 8655SOL    HW137424   2.651   2.651   7.188 -0.7932  0.3160 -0.0568
 8655SOL    HW237425   2.790   2.645   7.195  1.6953  1.3896 -1.0679
 8656SOL     OW37426   2.344   3.377   6.413  0.3337 -0.1182 -0.1461
 8656SOL    HW137427   2.303   3.462   6.430 -0.4026 -0.2683 -1.1748
 8656SOL    HW237428   2.325   3.323   6.489  2.7451  0.2729  0.7596
 8657SOL     OW37429   3.969   3.784   4.119 -0.4272  0.0810 -0.1343
 8657SOL    HW137430   4.014   3.717   4.172 -0.8425  2.6178  3.4210
 8657SOL    HW237431   3.955   3.853   4.184  0.2975  1.0902 -1.0594
 8658SOL     OW37432   0.950   0.480   1.317 -0.2561 -0.0305  0.4660
 8658SOL    HW137433   1.033   0.443   1.288 -0.6061 -1.3271  1.0796
 8658SOL    HW237434   0.960   0.575   1.312  3.6504 -0.3675  1.8348
 8659SOL     OW37435   2.781   3.897   0.973  0.2605  0.5228 -0.0975
 8659SOL    HW137436   2.717   3.941   0.917  0.4959 -0.4886 -1.1629
 8659SOL    HW237437   2.722   3.866   1.042  0.8101 -2.2059 -0.8722
 8660SOL     OW37438   0.426   3.014   2.162 -0.3768  0.6414 -0.3044
 8660SOL    HW137439   0.437   3.082   2.096  1.1160  0.2396 -0.4723
 8660SOL    HW237440   0.443   2.939   2.106  0.5943  0.4209  0.2694
 8661SOL     OW37441   1.016   0.769   1.472  0.2268 -0.3660  0.0075
 8661SOL    HW137442   0.957   0.810   1.534 -0.4084  1.8459 -2.0521
 8661SOL    HW237443   1.073   0.836   1.434  0.4982  0.0455  1.1500
 8662SOL     OW37444   2.669   2.664  11.665  0.1318 -0.2714 -0.1351
 8662SOL    HW137445   2.575   2.680  11.658  0.4749  1.0510 -1.7615
 8662SOL    HW237446   2.670   2.571  11.641 -1.3469  0.0519 -1.4593
 8663SOL     OW37447   4.571   3.411   5.917 -0.0063  0.3604 -0.0348
 8663SOL    HW137448   4.549   3.499   5.888  0.1309  0.2821 -0.3730
 8663SOL    HW237449   4.520   3.407   5.998  0.7822 -3.5725  0.2983
 8664SOL     OW37450   2.418   1.900   5.747 -0.2849 -0.2904 -0.0431
 8664SOL    HW137451   2.483   1.959   5.785 -0.4688 -0.4644  0.5344
 8664SOL    HW237452   2.337   1.950   5.755 -1.5958 -2.3226 -0.4995
 8665SOL     OW37453   3.097   3.199   3.415  0.2827 -0.1860  0.4350
 8665SOL    HW137454   3.125   3.142   3.487 -0.2892 -0.1976  0.6510
 8665SOL    HW237455   3.102   3.281   3.463  0.5227  1.1092 -1.8151
 8666SOL     OW37456   1.258   0.059   7.446  0.1703 -0.4137 -0.3114
 8666SOL    HW137457   1.235   0.001   7.374 -2.0657 -0.0328  0.1022
 8666SOL    HW237458   1.186   0.121   7.443  0.6782  0.1558 -0.8702
 8667SOL     OW37459   2.519   3.942   0.845  0.0722 -0.5666 -0.3217
 8667SOL    HW137460   2.461   3.943   0.769 -1.8211 -2.5856  1.0923
 8667SOL    HW237461   2.453   3.974   0.906  0.1288  2.4137 -1.8375
 8668SOL     OW37462   1.156   1.316   1.195  0.0763  0.0670  0.0391
 8668SOL    HW137463   1.242   1.279   1.217  0.5365  0.1326 -1.6659
 8668SOL    HW237464   1.106   1.243   1.231  1.9960  0.4671  3.4723
 8669SOL     OW37465   1.950   4.033   6.342  0.0980  0.4808 -0.3854
 8669SOL    HW137466   1.965   3.939   6.343 -2.3989  0.0867  2.2256
 8669SOL    HW237467   1.965   4.045   6.436  0.5549 -0.5107 -0.3413
 8670SOL     OW37468   4.079   1.448   7.790  0.1900 -0.1309 -0.0141
 8670SOL    HW137469   4.143   1.416   7.728 -1.4866  0.7625 -2.2050
 8670SOL    HW237470   4.020   1.373   7.800 -1.0126  0.6246 -1.3431
 8671SOL     OW37471   3.493   3.208   4.869  0.0649 -0.6048  0.3787
 8671SOL    HW137472   3.414   3.253   4.839  0.8122  0.7761  0.4990
 8671SOL    HW237473   3.569   3.253   4.833 -0.1486  0.8166  1.7331
 8672SOL     OW37474   0.761   4.236  12.413 -0.3759  0.1960  0.2769
 8672SOL    HW137475   0.802   4.236  12.326  1.6020  0.5976  1.2235
 8672SOL    HW237476   0.669   4.235  12.383  0.0778 -1.0270 -1.0655
 8673SOL     OW37477   2.027   3.111  11.852 -0.1070  0.2506  0.0980
 8673SOL    HW137478   2.004   3.160  11.931 -0.1554 -1.2644  1.0291
 8673SOL    HW237479   1.945   3.097  11.804 -0.4348  0.5817  0.5549
 8674SOL     OW37480   3.724   2.375   3.543 -0.2993 -0.5307 -0.6101
 8674SOL    HW137481   3.746   2.297   3.595  2.2598  1.1322  0.8377
 8674SOL    HW237482   3.642   2.399   3.585  0.0289  0.8337 -0.7335
 8675SOL     OW37483   3.591   0.419   6.452 -0.1363  0.5356  0.0050
 8675SOL    HW137484   3.604   0.412   6.357 -0.7683 -0.4458 -0.0074
 8675SOL    HW237485   3.674   0.464   6.467 -0.6430  1.2020  0.7999
 8676SOL     OW37486   1.303   0.238   8.037  0.1194 -0.1182 -0.8264
 8676SOL    HW137487   1.387   0.244   8.083  0.0423  1.3448 -0.8807
 8676SOL    HW237488   1.327   0.259   7.947 -1.9200  3.8075 -0.4669
 8677SOL     OW37489   1.501   2.094   7.550 -0.9779 -0.1472 -0.1481
 8677SOL    HW137490   1.565   2.118   7.617 -1.0676 -0.5502  0.0799
 8677SOL    HW237491   1.560   2.055   7.485 -1.9333  0.4980 -1.3861
 8678SOL     OW37492   0.510   2.096   5.579 -0.2397  0.2408  0.2581
 8678SOL    HW137493   0.601   2.123   5.563  0.7298 -2.3679  1.2605
 8678SOL    HW237494   0.464   2.120   5.498 -0.5170  0.7845  0.5805
 8679SOL     OW37495   4.184   3.537  15.008  0.4889  0.1554 -0.5816
 8679SOL    HW137496   4.142   3.467  14.958 -0.3166 -0.3190  0.7668
 8679SOL    HW237497   4.215   3.484  15.081 -0.4508 -0.7116 -0.8056
 8680SOL     OW37498   1.750   3.604   5.899 -0.8843  0.0139 -0.4423
 8680SOL    HW137499   1.825   3.589   5.841 -1.4226 -1.2051 -0.8141
 8680SOL    HW237500   1.789   3.585   5.985 -1.7257 -0.3758 -0.1465
 8681SOL     OW37501   0.483   1.280   5.000 -0.3227 -0.1877 -0.4176
 8681SOL    HW137502   0.446   1.353   4.950 -1.8488  0.8502  2.1761
 8681SOL    HW237503   0.418   1.212   4.983 -0.1409 -0.6300  0.6150
 8682SOL     OW37504   4.644   4.004   5.781  0.2676 -0.3265 -0.1751
 8682SOL    HW137505   4.704   4.032   5.850  1.8907  1.3926 -2.2863
 8682SOL    HW237506   4.696   4.035   5.707  0.9723 -0.4756  0.2621
 8683SOL     OW37507   2.492   2.597   9.270  0.0032  0.0931 -0.3149
 8683SOL    HW137508   2.493   2.662   9.340 -0.7242 -0.6658  0.4080
 8683SOL    HW237509   2.418   2.541   9.292 -1.7061  2.4108 -0.0969
 8684SOL     OW37510   4.540   2.812  16.760  0.9066 -0.0587 -0.6287
 8684SOL    HW137511   4.469   2.862  16.799  0.2353 -2.2449  0.9343
 8684SOL    HW237512   4.500   2.757  16.691 -2.9203  1.6592  0.2226
 8685SOL     OW37513   3.183   3.836   2.526  0.1668 -0.2391  0.2638
 8685SOL    HW137514   3.221   3.922   2.541  1.1044 -0.6829  0.4512
 8685SOL    HW237515   3.202   3.795   2.611  0.6122 -0.0452  0.2574
 8686SOL     OW37516   0.936   3.149  14.779 -0.0638 -0.4868 -0.4802
 8686SOL    HW137517   0.874   3.222  14.776  1.0952  0.4704 -1.0349
 8686SOL    HW237518   0.952   3.137  14.685  1.2141  2.7748 -0.6842
 8687SOL     OW37519   1.090   0.658   6.234 -0.2852  0.0113 -0.1304
 8687SOL    HW137520   1.149   0.733   6.242 -0.3778 -0.2379  2.9790
 8687SOL    HW237521   1.155   0.593   6.262 -0.5810 -0.0160  0.4829
 8688SOL     OW37522   2.283   3.205   4.243  0.7253 -0.4724  0.0275
 8688SOL    HW137523   2.365   3.210   4.292  1.7376 -3.5119 -1.3286
 8688SOL    HW237524   2.317   3.233   4.158  2.8856  0.6033  1.2502
 8689SOL     OW37525   0.987   3.845   1.028  0.2035  0.1545 -0.2034
 8689SOL    HW137526   0.904   3.850   0.981  0.1009  1.9216  0.1786
 8689SOL    HW237527   0.964   3.771   1.084 -1.5075  0.2322 -0.8123
 8690SOL     OW37528   4.186   4.548  13.068  0.2234 -0.6911  0.3276
 8690SOL    HW137529   4.139   4.617  13.021  0.0816 -0.9316  0.1211
 8690SOL    HW237530   4.164   4.576  13.157  2.6220  4.0848 -0.5722
 8691SOL     OW37531   3.786   4.171   2.553  0.3732  0.1009  0.5974
 8691SOL    HW137532   3.821   4.100   2.608  0.7708 -0.9907 -1.0780
 8691SOL    HW237533   3.753   4.229   2.622  1.0456  2.7582 -1.3551
 8692SOL     OW37534   1.039   3.605   3.319  0.1195  0.1097 -0.3884
 8692SOL    HW137535   0.954   3.642   3.296  0.2308  1.2182  1.0060
 8692SOL    HW237536   1.076   3.581   3.234 -0.0002  2.1661 -1.0102
 8693SOL     OW37537   4.188   2.324   4.868 -1.0854 -0.3405  0.5791
 8693SOL    HW137538   4.113   2.383   4.878  0.1001  0.9047  2.1530
 8693SOL    HW237539   4.181   2.277   4.951  2.8116 -0.6783  0.7277
 8694SOL     OW37540   1.297   2.855   7.801 -0.5206 -0.1470 -0.5424
 8694SOL    HW137541   1.241   2.933   7.800  0.6385  0.7131  0.3569
 8694SOL    HW237542   1.244   2.795   7.749  0.6725 -1.3691 -0.3509
 8695SOL     OW37543   3.112   1.709  16.120 -1.1683  0.5553 -0.2254
 8695SOL    HW137544   3.182   1.774  16.129  0.2654 -1.2025  1.3231
 8695SOL    HW237545   3.123   1.664  16.204  1.0306  0.6858 -0.4402
 8696SOL     OW37546   4.669   2.223   4.137  0.2655  0.4207 -0.3844
 8696SOL    HW137547   4.620   2.268   4.068  3.3761  0.6939 -2.4267
 8696SOL    HW237548   0.019   2.185   4.092 -1.1981 -1.8023 -0.9656
 8697SOL     OW37549   0.801   3.884   2.371  0.4363 -0.0332  0.0520
 8697SOL    HW137550   0.758   3.801   2.351 -0.3950 -0.0157  1.7918
 8697SOL    HW237551   0.739   3.922   2.433  1.8268  1.0859  0.7713
 8698SOL     OW37552   3.075   3.456   8.719  0.1128 -0.1567  0.3743
 8698SOL    HW137553   3.023   3.479   8.641 -0.2167  1.1468  0.9848
 8698SOL    HW237554   3.057   3.363   8.730  1.4843 -0.4793 -0.1122
 8699SOL     OW37555   2.580   2.392   4.713  0.5873  0.0577 -0.1480
 8699SOL    HW137556   2.543   2.307   4.737  1.1394  0.0869  0.7942
 8699SOL    HW237557   2.514   2.409   4.645  1.7166  0.3748 -1.1618
 8700SOL     OW37558   3.605   2.310   3.281  0.5405  0.6679 -0.1253
 8700SOL    HW137559   3.635   2.325   3.371  1.4768  1.3750 -0.5539
 8700SOL    HW237560   3.688   2.284   3.241  0.8262 -0.8886  1.4991
 8701SOL     OW37561   1.410   3.489   2.639  0.6369 -0.3542 -0.3744
 8701SOL    HW137562   1.366   3.565   2.602 -0.2057  0.3931  2.1427
 8701SOL    HW237563   1.341   3.426   2.619 -0.4090  0.4966  0.5888
 8702SOL     OW37564   1.987   3.197   3.328  0.0647 -0.1376 -0.4657
 8702SOL    HW137565   1.996   3.256   3.253 -0.3119  1.4564  0.7326
 8702SOL    HW237566   2.065   3.231   3.372 -1.1131 -1.0505  2.3682
 8703SOL     OW37567   1.469   2.932   8.605  0.3699  0.2918  0.1719
 8703SOL    HW137568   1.529   2.976   8.665 -0.0967  1.2856 -0.1065
 8703SOL    HW237569   1.452   2.858   8.662  0.0772  2.4448  2.8384
 8704SOL     OW37570   4.667   2.679   0.655  0.4555  0.2129  1.0435
 8704SOL    HW137571   4.673   2.665   0.561  1.9256  0.8177  1.0438
 8704SOL    HW237572   4.637   2.592   0.682 -0.5770  0.4854  0.7348
 8705SOL     OW37573   3.686   2.295   6.649  0.3941  0.0864  0.0726
 8705SOL    HW137574   3.615   2.359   6.645  1.0485  0.8289  0.2974
 8705SOL    HW237575   3.692   2.261   6.559 -0.6122 -0.1744  0.1071
 8706SOL     OW37576   0.352   2.365   5.708 -0.1776  0.4519  0.5340
 8706SOL    HW137577   0.442   2.379   5.737  0.0035  0.9434 -0.2905
 8706SOL    HW237578   0.348   2.269   5.707  1.6396  0.4476 -2.4836
 8707SOL     OW37579   2.542   4.127   7.441 -0.0086  0.3043  0.4250
 8707SOL    HW137580   2.570   4.199   7.384 -1.3149  0.1621 -0.3869
 8707SOL    HW237581   2.572   4.054   7.388 -1.0413  1.9234 -2.3976
 8708SOL     OW37582   1.615   2.348  10.879 -0.5842 -0.3240  0.0763
 8708SOL    HW137583   1.590   2.315  10.793  3.8039 -0.4856 -1.1596
 8708SOL    HW237584   1.552   2.301  10.934 -0.6266 -1.3819 -0.8573
 8709SOL     OW37585   3.909   0.230   3.939  0.3372  0.0183 -0.2837
 8709SOL    HW137586   3.970   0.249   3.867  0.4547 -0.6926 -0.3655
 8709SOL    HW237587   3.937   0.146   3.974  0.5070 -0.5099 -1.6884
 8710SOL     OW37588   2.305   1.200   8.740 -0.4221  0.4664  0.0294
 8710SOL    HW137589   2.239   1.161   8.798  0.1849  0.2322  0.5679
 8710SOL    HW237590   2.376   1.136   8.744 -0.7182  0.1519  0.3194
 8711SOL     OW37591   3.051   4.588   8.135  0.3325  0.1545  0.2881
 8711SOL    HW137592   3.010   4.562   8.053 -1.3312 -2.4304  1.9066
 8711SOL    HW237593   3.012   4.675   8.147  1.7159  0.5253  2.0318
 8712SOL     OW37594   2.353   2.203   3.896  0.0260 -0.8832  0.2053
 8712SOL    HW137595   2.397   2.119   3.882  0.5965 -0.2338 -1.8717
 8712SOL    HW237596   2.389   2.235   3.978  1.1517  0.5370 -0.8464
 8713SOL     OW37597   4.274   2.526   6.070 -0.4497 -0.1809 -0.2473
 8713SOL    HW137598   4.299   2.548   5.980 -1.2108  0.4030 -0.3148
 8713SOL    HW237599   4.270   2.617   6.099  1.1138 -0.5679  1.1974
 8714SOL     OW37600   2.249   3.280   1.475  0.0531 -0.6831 -0.3658
 8714SOL    HW137601   2.338   3.250   1.454  0.4358  0.9153 -1.0313
 8714SOL    HW237602   2.213   3.214   1.535 -0.8615  0.4476  0.3206
 8715SOL     OW37603   0.684   1.738   5.650  0.1517  0.2213 -0.6194
 8715SOL    HW137604   0.635   1.720   5.731 -1.2252 -0.6643 -1.6365
 8715SOL    HW237605   0.621   1.703   5.586  0.8944 -1.1198 -0.6191
 8716SOL     OW37606   0.967   3.346   2.827 -0.4796 -0.3230  0.2185
 8716SOL    HW137607   0.951   3.251   2.825  2.3109 -0.7516 -1.1396
 8716SOL    HW237608   0.889   3.367   2.879 -0.2310  1.2571 -0.0735
 8717SOL     OW37609   0.846   2.180   2.608 -0.2594 -0.0974  0.6374
 8717SOL    HW137610   0.792   2.251   2.643  0.2453  1.6905 -2.2591
 8717SOL    HW237611   0.802   2.160   2.525 -1.0473 -1.6840  1.4356
 8718SOL     OW37612   4.685   0.158   2.470  0.0795  0.6517  0.3132
 8718SOL    HW137613   0.018   0.234   2.477  0.2037  0.5961 -0.0944
 8718SOL    HW237614   4.617   0.212   2.430 -1.3851 -1.4140 -0.0451
 8719SOL     OW37615   2.445   3.969  14.685  0.1546 -0.0652 -0.1835
 8719SOL    HW137616   2.376   4.030  14.660 -0.6360 -0.7350  0.3723
 8719SOL    HW237617   2.425   3.957  14.778  0.5166 -1.2482 -0.2632
 8720SOL     OW37618   0.365   0.601   0.893 -0.0231 -0.0382 -0.0825
 8720SOL    HW137619   0.312   0.680   0.908 -2.4009 -2.0729  2.0530
 8720SOL    HW237620   0.343   0.589   0.800 -0.4034 -1.0456  0.1400
 8721SOL     OW37621   3.301   2.797  13.087  1.1817 -0.2662 -0.3046
 8721SOL    HW137622   3.374   2.794  13.024  1.0844  0.3884 -0.4452
 8721SOL    HW237623   3.285   2.890  13.100 -1.0712 -0.4665 -1.6843
 8722SOL     OW37624   1.087   3.192  17.526  0.3951 -0.0432  0.1765
 8722SOL    HW137625   1.140   3.198  17.446 -0.6308  2.4176 -0.3294
 8722SOL    HW237626   1.156   3.192  17.592 -0.0372  2.2214  0.6278
 8723SOL     OW37627   3.983   1.903   6.118  0.4862  0.1022 -0.5775
 8723SOL    HW137628   4.056   1.847   6.147 -1.6044 -0.5865  3.3101
 8723SOL    HW237629   4.007   1.987   6.155  0.1768  1.2000 -2.8709
 8724SOL     OW37630   2.767   2.198   4.249  0.2971  0.5064 -0.0275
 8724SOL    HW137631   2.842   2.149   4.214  0.4236  0.2180  0.6441
 8724SOL    HW237632   2.726   2.220   4.165 -1.4070 -2.9886 -0.1533
 8725SOL     OW37633   4.473   0.706   3.248  0.2742  0.2422 -0.0797
 8725SOL    HW137634   4.396   0.710   3.305  0.1647  0.8968 -0.2683
 8725SOL    HW237635   4.525   0.763   3.305  0.4367 -0.0920  0.1028
 8726SOL     OW37636   4.044   1.081   2.811 -0.2608 -0.3070 -0.0927
 8726SOL    HW137637   4.103   1.045   2.745  2.4552  0.2355  2.0570
 8726SOL    HW237638   3.988   1.007   2.835  0.3044 -1.0398 -1.0488
 8727SOL     OW37639   2.609   2.245   2.858 -0.1462 -0.3397 -0.3072
 8727SOL    HW137640   2.693   2.289   2.845  0.1134 -0.6742  0.1899
 8727SOL    HW237641   2.589   2.229   2.766 -2.0743  2.1960 -0.3251
 8728SOL     OW37642   1.909   1.458  11.800 -0.1097  0.5882 -0.0375
 8728SOL    HW137643   1.936   1.382  11.850  0.1617 -0.5543 -1.9459
 8728SOL    HW237644   1.942   1.448  11.711  1.7979  2.5286  0.4452
 8729SOL     OW37645   0.431   2.973  11.378  0.0524 -0.3764 -0.2867
 8729SOL    HW137646   0.375   2.976  11.301  1.5244 -1.3008 -1.3968
 8729SOL    HW237647   0.517   3.005  11.350  0.1519 -1.8162 -1.6429
 8730SOL     OW37648   2.889   4.401   1.674 -0.3811  0.3457  0.0080
 8730SOL    HW137649   2.964   4.458   1.662 -1.4911  1.8100  0.0440
 8730SOL    HW237650   2.900   4.334   1.606 -0.6658  1.3461 -1.0120
 8731SOL     OW37651   3.386   1.070   3.057 -0.4523  0.4337 -0.0369
 8731SOL    HW137652   3.353   1.126   2.987 -1.2953  0.1544  0.1473
 8731SOL    HW237653   3.456   1.128   3.087 -0.4052 -0.0034  0.6905
 8732SOL     OW37654   0.231   4.218   5.129  0.2678  0.5034 -0.4143
 8732SOL    HW137655   0.203   4.147   5.071  1.1141  1.3515 -1.8366
 8732SOL    HW237656   0.303   4.254   5.078 -0.6059 -0.6903 -2.5112
 8733SOL     OW37657   0.680   0.504   6.315  0.4931 -0.2529 -0.2300
 8733SOL    HW137658   0.630   0.468   6.388  0.6001  1.3168  0.6191
 8733SOL    HW237659   0.749   0.549   6.364  0.0666  0.3894 -0.2183
 8734SOL     OW37660   2.880   2.868   2.625 -0.1075  0.6993  0.1687
 8734SOL    HW137661   2.837   2.800   2.574 -0.0232  1.4019 -0.8438
 8734SOL    HW237662   2.969   2.835   2.619 -0.8877 -1.3054 -0.2773
 8735SOL     OW37663   3.741   1.940   4.912  0.7046 -0.1885 -0.4118
 8735SOL    HW137664   3.720   1.850   4.886  2.8347 -0.4805 -1.1184
 8735SOL    HW237665   3.682   1.988   4.854  0.4914  0.7919  0.6167
 8736SOL     OW37666   0.745   1.312   1.773  0.0228 -0.7001 -0.7596
 8736SOL    HW137667   0.834   1.282   1.793 -0.0639 -0.1610  0.4004
 8736SOL    HW237668   0.764   1.350   1.688  1.1232 -2.1237 -1.1577
 8737SOL     OW37669   2.453   3.023   2.264 -0.0348 -0.7704 -0.8977
 8737SOL    HW137670   2.412   2.970   2.196 -2.0027 -1.1071  0.5653
 8737SOL    HW237671   2.479   2.954   2.326  2.4427 -0.2790 -1.3813
 8738SOL     OW37672   0.966   3.142  12.202 -0.0111  0.0662  0.3259
 8738SOL    HW137673   0.985   3.205  12.273 -0.0151 -0.3590  0.7037
 8738SOL    HW237674   0.997   3.199  12.132  1.2393  1.7986  2.2609
 8739SOL     OW37675   1.150   1.984   8.426 -0.1726 -0.4326  0.4139
 8739SOL    HW137676   1.141   1.956   8.517 -0.7754  1.6637  0.9976
 8739SOL    HW237677   1.153   2.080   8.428 -1.3101 -0.3815 -0.1136
 8740SOL     OW37678   4.072   2.891   4.830  0.1077 -0.2408  0.0364
 8740SOL    HW137679   4.098   2.856   4.745 -0.5911  0.7472 -0.5863
 8740SOL    HW237680   3.988   2.933   4.811  0.2382  1.0872  2.3358
 8741SOL     OW37681   2.622   2.334   1.577 -0.1350  0.1399  0.2580
 8741SOL    HW137682   2.559   2.336   1.506  1.5763 -1.5146 -1.3189
 8741SOL    HW237683   2.672   2.253   1.563 -0.8883 -0.1980 -0.4156
 8742SOL     OW37684   4.029   3.803   7.126 -0.5612 -0.0407 -0.6111
 8742SOL    HW137685   4.086   3.743   7.174  2.7164  0.4275 -3.9234
 8742SOL    HW237686   4.090   3.872   7.100 -0.0250 -0.2232  0.1828
 8743SOL     OW37687   4.046   2.834  12.618 -0.0222  0.2158  0.1405
 8743SOL    HW137688   3.978   2.857  12.554  0.0091  0.4859  0.2026
 8743SOL    HW237689   3.992   2.789  12.682 -1.3429  2.1307  0.3504
 8744SOL     OW37690   3.617   1.421   7.752 -0.1696 -0.4508  0.4037
 8744SOL    HW137691   3.625   1.441   7.659  0.6898  0.4379  0.6727
 8744SOL    HW237692   3.595   1.506   7.790  0.3857 -0.5217  0.8816
 8745SOL     OW37693   2.490   4.060   5.526  0.3777 -0.3065  0.0051
 8745SOL    HW137694   2.475   4.064   5.432 -2.5296  0.4945  0.4949
 8745SOL    HW237695   2.505   3.965   5.522 -1.7277 -0.6134 -0.3761
 8746SOL     OW37696   2.301   2.531   1.777 -0.8329 -0.3528  0.3725
 8746SOL    HW137697   2.358   2.455   1.790  0.6725  0.8202  0.5642
 8746SOL    HW237698   2.365   2.595   1.808  1.0133 -0.6713 -2.7526
 8747SOL     OW37699   1.780   2.073   1.666 -0.2533 -0.1917  0.4709
 8747SOL    HW137700   1.863   2.121   1.655  0.0978 -0.9469 -0.2228
 8747SOL    HW237701   1.733   2.144   1.710  1.1691  0.0968  1.5274
 8748SOL     OW37702   0.524   1.900   8.072  0.3748  0.2422  0.3730
 8748SOL    HW137703   0.540   1.931   8.161  2.5357  1.8145 -0.5651
 8748SOL    HW237704   0.500   1.809   8.092  0.4281  0.4685  1.4495
 8749SOL     OW37705   4.208   3.515   3.032 -0.1144  0.3910 -0.3232
 8749SOL    HW137706   4.182   3.423   3.030 -1.3234  0.7378 -0.3401
 8749SOL    HW237707   4.182   3.545   3.119  0.2390  3.7379 -1.3696
 8750SOL     OW37708   0.044   0.941   4.976 -0.9962 -0.0231 -0.1752
 8750SOL    HW137709   0.001   1.024   4.997  1.1801  1.0469  0.1067
 8750SOL    HW237710   0.035   0.941   4.881 -0.1614  0.5335 -0.2602
 8751SOL     OW37711   1.124   1.038   4.531 -0.2781  0.8149  0.2362
 8751SOL    HW137712   1.119   1.074   4.442  3.3547  0.3514 -0.1626
 8751SOL    HW237713   1.212   1.000   4.524 -1.5378 -1.5153 -2.7565
 8752SOL     OW37714   3.224   1.115   0.991 -0.1607 -0.6300  0.3476
 8752SOL    HW137715   3.197   1.203   1.017 -0.0848 -1.0204  1.7140
 8752SOL    HW237716   3.183   1.051   1.049  2.5101 -3.3432 -0.7228
 8753SOL     OW37717   4.035   0.217  10.161  0.2732 -0.2222  0.2653
 8753SOL    HW137718   4.127   0.236  10.181  0.4122 -0.0778 -0.5169
 8753SOL    HW237719   4.044   0.212  10.066 -1.6757  0.3190  0.0598
 8754SOL     OW37720   3.223   4.037   7.366  0.2012 -0.0691  0.7547
 8754SOL    HW137721   3.152   4.032   7.302 -0.5608 -0.7776  1.6644
 8754SOL    HW237722   3.174   4.051   7.447 -1.5522  0.8884 -0.4561
 8755SOL     OW37723   0.964   2.891   9.739 -0.6050  0.9225  0.4570
 8755SOL    HW137724   1.024   2.890   9.813 -0.5733  0.7951  0.4310
 8755SOL    HW237725   1.001   2.953   9.676  1.3059 -1.2547 -0.5882
 8756SOL     OW37726   3.616   2.465   9.699  0.2079  0.5141  0.6164
 8756SOL    HW137727   3.596   2.492   9.789  1.8630 -1.4956  1.5817
 8756SOL    HW237728   3.696   2.414   9.707 -0.0598 -0.0197 -0.1793
 8757SOL     OW37729   1.540   0.641  15.672  0.1905 -0.4260 -0.2221
 8757SOL    HW137730   1.529   0.650  15.767  2.9339 -0.5208  0.1269
 8757SOL    HW237731   1.464   0.593  15.640  0.5226 -0.7871 -0.4738
 8758SOL     OW37732   2.035   1.169  11.694  0.3207  0.2106  0.5426
 8758SOL    HW137733   1.999   1.220  11.622 -1.1963 -1.4013  0.1781
 8758SOL    HW237734   2.008   1.084  11.659  0.5768  0.8763 -1.2721
 8759SOL     OW37735   4.093   1.887   4.188  0.0758  0.1100 -0.5252
 8759SOL    HW137736   4.042   1.893   4.107  0.8874  1.2248 -0.9541
 8759SOL    HW237737   4.179   1.858   4.157  0.6373 -0.5013  1.5993
 8760SOL     OW37738   3.965   3.024   2.052 -0.0559  0.3693  0.1047
 8760SOL    HW137739   4.050   3.067   2.042 -0.5082  1.2981  0.3156
 8760SOL    HW237740   3.964   2.978   1.968 -0.9377 -1.5317  1.1470
 8761SOL     OW37741   3.594   2.505   8.791 -0.5135 -0.8696 -0.1515
 8761SOL    HW137742   3.598   2.431   8.852 -3.1719 -0.0145  1.0696
 8761SOL    HW237743   3.611   2.453   8.713 -1.2613  0.5975 -1.3047
 8762SOL     OW37744   4.007   1.159   8.086 -0.3222 -0.4613  0.1769
 8762SOL    HW137745   4.039   1.210   8.161  1.3561 -0.5439 -0.4859
 8762SOL    HW237746   4.084   1.168   8.031 -0.4250 -0.6493  0.0037
 8763SOL     OW37747   1.390   3.200   7.933 -0.1611 -0.2058  0.1814
 8763SOL    HW137748   1.387   3.150   8.015 -0.5805  1.4972  1.2091
 8763SOL    HW237749   1.460   3.151   7.891 -1.3734  0.6971 -2.8889
 8764SOL     OW37750   2.751   2.479   3.460  0.3325 -0.2228 -0.6315
 8764SOL    HW137751   2.731   2.456   3.551  2.4346  0.9081  0.1431
 8764SOL    HW237752   2.839   2.441   3.458  0.2232 -0.4785 -0.5791
 8765SOL     OW37753   1.648   4.060   4.284  0.7431 -0.3306  0.5736
 8765SOL    HW137754   1.623   4.113   4.209  1.0265 -2.1841 -0.8173
 8765SOL    HW237755   1.562   4.042   4.323  1.0410 -0.7695  1.0384
 8766SOL     OW37756   0.031   1.350   3.576 -0.2544 -0.0431  0.0882
 8766SOL    HW137757   0.057   1.274   3.627 -0.3530  0.1083  0.3631
 8766SOL    HW237758   0.066   1.419   3.633  0.7951 -1.4315  1.1192
 8767SOL     OW37759   3.194   1.108  14.764  0.0713  0.2421  0.1691
 8767SOL    HW137760   3.242   1.132  14.685 -2.2357  1.5766 -0.8392
 8767SOL    HW237761   3.146   1.034  14.727  1.9991 -1.1546  0.4478
 8768SOL     OW37762   0.919   4.419  14.472 -0.1524 -0.6768  0.3016
 8768SOL    HW137763   0.987   4.371  14.426 -0.6251 -0.5390 -0.5478
 8768SOL    HW237764   0.845   4.359  14.459 -0.1658 -0.0665 -2.5787
 8769SOL     OW37765   3.061   3.425   1.662  0.1829 -0.0438  0.2550
 8769SOL    HW137766   3.087   3.387   1.745 -1.2541 -0.6470  0.4276
 8769SOL    HW237767   2.983   3.374   1.639 -0.3185  0.6999  0.2953
 8770SOL     OW37768   2.466   0.369  15.907  0.3024 -0.5500 -0.0478
 8770SOL    HW137769   2.493   0.277  15.900  0.6462 -0.3263 -1.6167
 8770SOL    HW237770   2.547   0.412  15.931 -0.1371 -1.0018  2.2311
 8771SOL     OW37771   3.469   3.417   3.604 -0.0822 -0.2893  0.0427
 8771SOL    HW137772   3.544   3.368   3.639  0.0020  0.3507  0.7728
 8771SOL    HW237773   3.414   3.390   3.678 -1.4670 -0.9655 -1.2380
 8772SOL     OW37774   0.965   1.591  14.893 -0.0916  0.0513 -0.6164
 8772SOL    HW137775   0.890   1.616  14.947  0.8424 -0.0563  0.7207
 8772SOL    HW237776   0.958   1.498  14.872 -2.1419 -0.0387  0.4085
 8773SOL     OW37777   2.757   0.458   2.431 -0.1991 -0.8427 -0.2149
 8773SOL    HW137778   2.711   0.400   2.370 -1.0505 -0.9196  0.4967
 8773SOL    HW237779   2.781   0.406   2.508  1.0107  0.3967  0.2429
 8774SOL     OW37780   0.740   3.195   3.418  0.2353  0.5188 -0.4218
 8774SOL    HW137781   0.829   3.190   3.453  0.3825  1.5458 -0.6638
 8774SOL    HW237782   0.684   3.186   3.494 -0.6682 -1.5640 -1.3263
 8775SOL     OW37783   2.672   2.661  12.011 -0.0930 -0.5106  0.0541
 8775SOL    HW137784   2.747   2.645  11.954 -0.0600  0.7160 -0.2321
 8775SOL    HW237785   2.724   2.656  12.091 -0.1911  0.1932  0.1533
 8776SOL     OW37786   4.128   0.867   9.785  0.2468  0.1188  0.0445
 8776SOL    HW137787   4.109   0.957   9.814  1.4529  0.2665  0.3784
 8776SOL    HW237788   4.221   0.877   9.766 -0.2135  0.3595 -2.0630
 8777SOL     OW37789   1.973   1.907   1.281 -0.1742 -0.3419  0.6765
 8777SOL    HW137790   1.898   1.958   1.251  0.9576  1.1885  0.4369
 8777SOL    HW237791   1.982   1.854   1.202 -0.7998  0.7419 -0.1344
 8778SOL     OW37792   2.204   1.655   1.616 -0.7297  0.0438 -0.0420
 8778SOL    HW137793   2.135   1.656   1.549  0.5548 -0.7827 -1.3724
 8778SOL    HW237794   2.285   1.672   1.568  0.5270 -1.4830  1.5454
 8779SOL     OW37795   1.139   1.888   5.030  0.0458  0.6049 -0.3787
 8779SOL    HW137796   1.103   1.912   4.944 -3.3320  0.5176  1.0359
 8779SOL    HW237797   1.137   1.793   5.037 -1.1083  0.6895  0.3485
 8780SOL     OW37798   3.584   3.116   6.799  0.5120  0.1274 -0.2657
 8780SOL    HW137799   3.651   3.074   6.854  1.6447  0.2197 -1.5626
 8780SOL    HW237800   3.624   3.197   6.769 -0.0825  0.2005 -0.8696
 8781SOL     OW37801   2.589   3.880  12.945 -0.9190  0.0524  0.2237
 8781SOL    HW137802   2.584   3.832  12.862 -2.1165 -0.5111  0.6157
 8781SOL    HW237803   2.504   3.857  12.981 -0.3522  0.4021  1.7848
 8782SOL     OW37804   4.715   4.656   3.118 -0.3175 -0.5611 -0.5982
 8782SOL    HW137805   4.703   4.575   3.068  0.4572  0.0963 -1.8465
 8782SOL    HW237806   4.626   4.691   3.128  0.7494  2.5103 -1.5935
 8783SOL     OW37807   1.894   4.606  12.824  0.6340 -0.1906  0.1313
 8783SOL    HW137808   1.875   4.682  12.879 -2.6971 -1.4111  0.6855
 8783SOL    HW237809   1.946   4.550  12.882 -0.3987 -0.1985  1.0637
 8784SOL     OW37810   4.063   2.891   1.853 -0.1696  0.1966 -0.2825
 8784SOL    HW137811   4.109   2.949   1.793  2.1640 -0.4478  0.8818
 8784SOL    HW237812   4.057   2.808   1.806 -0.1130 -0.1018  0.2271
 8785SOL     OW37813   2.214   4.362   1.537  0.2100  0.3475  0.2299
 8785SOL    HW137814   2.298   4.380   1.494  0.4220 -0.2510  0.4038
 8785SOL    HW237815   2.212   4.422   1.612  1.0740  0.3209  0.2720
 8786SOL     OW37816   2.632   0.045   7.644 -0.2911 -0.2369  0.2877
 8786SOL    HW137817   2.624   4.681   7.676 -0.4064  0.0188  0.9581
 8786SOL    HW237818   2.572   0.083   7.708 -0.4581  1.1824 -0.7023
 8787SOL     OW37819   2.383   0.423  15.592 -0.1352  0.0066  0.0544
 8787SOL    HW137820   2.387   0.413  15.497  1.3615 -1.3986  0.2642
 8787SOL    HW237821   2.289   0.407  15.603 -0.6845  1.9953 -1.6825
 8788SOL     OW37822   1.219   1.212   4.036  0.2177  0.0401  0.0144
 8788SOL    HW137823   1.273   1.169   3.969  0.6962 -3.2315  2.4534
 8788SOL    HW237824   1.210   1.140   4.099  0.7979 -0.0918 -0.0541
 8789SOL     OW37825   0.022   3.625   2.545 -0.5271  0.1032  0.5371
 8789SOL    HW137826   4.663   3.648   2.585 -0.4805  1.1209  0.0481
 8789SOL    HW237827   0.046   3.705   2.499  0.0213 -2.1107 -3.0025
 8790SOL     OW37828   0.190   2.223  13.074 -0.1795  0.4854 -0.3106
 8790SOL    HW137829   0.122   2.204  13.139  0.6876 -0.6127  0.2745
 8790SOL    HW237830   0.216   2.304  13.117  0.3114 -0.6932  1.6013
 8791SOL     OW37831   0.576   1.173   2.810 -0.6263  0.5897 -0.2344
 8791SOL    HW137832   0.515   1.111   2.769 -1.2088  0.7954  0.3240
 8791SOL    HW237833   0.628   1.211   2.739 -2.0959  0.7332 -1.2487
 8792SOL     OW37834   4.400   1.292   4.354  0.2843 -0.4719  0.5234
 8792SOL    HW137835   4.490   1.262   4.341  0.1346  0.4205 -2.4210
 8792SOL    HW237836   4.386   1.348   4.278 -2.9683 -1.5288  0.3404
 8793SOL     OW37837   0.644   2.708  12.257  0.0134  0.0970  0.2894
 8793SOL    HW137838   0.605   2.653  12.189 -0.2709  2.1183 -1.1708
 8793SOL    HW237839   0.625   2.794  12.220 -1.8799  1.2075  3.8459
 8794SOL     OW37840   1.954   3.017   0.689  0.0445 -0.1706  0.4502
 8794SOL    HW137841   1.966   3.099   0.640 -0.0740  1.3775  3.0257
 8794SOL    HW237842   2.031   3.024   0.745  0.8876 -0.7381 -0.6246
 8795SOL     OW37843   3.772   2.753   1.966 -0.0889  0.2483  0.2328
 8795SOL    HW137844   3.856   2.707   1.964 -0.8442 -1.1931  1.5869
 8795SOL    HW237845   3.773   2.777   1.873 -1.6454 -1.4977 -0.2482
 8796SOL     OW37846   3.426   2.147   8.325 -0.3386 -0.0644 -0.2192
 8796SOL    HW137847   3.515   2.180   8.334  0.0272 -0.9720 -0.6150
 8796SOL    HW237848   3.432   2.086   8.252  0.4965 -0.3970  0.1292
 8797SOL     OW37849   3.669   3.901  15.390 -0.3005  0.1566 -0.1386
 8797SOL    HW137850   3.706   3.948  15.464  2.6302  0.2110 -1.6644
 8797SOL    HW237851   3.597   3.850  15.428  0.5583 -0.8733  0.0979
 8798SOL     OW37852   4.702   3.212   6.164  0.3311  0.4775  0.1491
 8798SOL    HW137853   4.653   3.288   6.134  0.3268  1.1147  1.7691
 8798SOL    HW237854   4.639   3.179   6.228  0.5152 -0.4006 -0.1213
 8799SOL     OW37855   3.404   2.746  16.055  0.2701  0.2727  0.1914
 8799SOL    HW137856   3.343   2.686  16.011  1.8184 -2.3287  1.5926
 8799SOL    HW237857   3.480   2.689  16.065 -0.6462 -0.7715  1.1851
 8800SOL     OW37858   2.098   2.193   2.933 -0.0517  0.3469 -0.1703
 8800SOL    HW137859   2.035   2.141   2.881 -1.1324 -0.9029  2.3707
 8800SOL    HW237860   2.126   2.261   2.871 -0.5849  1.7732  1.1604
 8801SOL     OW37861   0.512   4.419   8.091  0.3673 -0.1801 -0.1965
 8801SOL    HW137862   0.528   4.327   8.073  2.2637  0.5292 -2.0966
 8801SOL    HW237863   0.518   4.422   8.187 -1.1909  1.8367 -0.1637
 8802SOL     OW37864   0.548   0.555   5.416  0.1232 -0.0076  0.0893
 8802SOL    HW137865   0.552   0.460   5.417 -3.1016 -0.1257  0.0679
 8802SOL    HW237866   0.487   0.571   5.489  0.8206 -1.4155  0.9919
 8803SOL     OW37867   4.632   2.623   6.995  0.1726 -0.4697 -0.0485
 8803SOL    HW137868   4.588   2.602   6.913 -2.2805 -3.0684  1.9424
 8803SOL    HW237869   4.595   2.710   7.014  1.1324 -0.7482  3.1290
 8804SOL     OW37870   2.913   4.129   6.837  0.3050  0.1874 -0.1741
 8804SOL    HW137871   2.878   4.199   6.893 -1.0172 -1.0013  0.4701
 8804SOL    HW237872   3.007   4.146   6.847  0.7936 -2.8119  0.3818
 8805SOL     OW37873   2.788   2.768   0.947 -0.1951  0.3361 -0.1401
 8805SOL    HW137874   2.754   2.841   0.997 -2.6023 -1.1218  0.3368
 8805SOL    HW237875   2.875   2.759   0.987 -0.4605  0.0461  0.3847
 8806SOL     OW37876   3.092   1.735  12.648 -0.3828 -0.8325 -0.3873
 8806SOL    HW137877   3.035   1.810  12.667 -1.0809 -2.3135  3.5049
 8806SOL    HW237878   3.100   1.738  12.553 -0.0661 -2.6997 -0.4181
 8807SOL     OW37879   0.876   3.306   7.652 -0.7684 -0.1530  0.7354
 8807SOL    HW137880   0.919   3.230   7.611 -1.4255 -0.2809  0.2804
 8807SOL    HW237881   0.911   3.378   7.599  0.2163 -0.7271  0.5930
 8808SOL     OW37882   3.609   1.989   2.424  0.3931 -0.3267  0.0830
 8808SOL    HW137883   3.626   1.976   2.331 -2.5780 -0.7227 -0.4158
 8808SOL    HW237884   3.514   1.977   2.421  0.1509  1.5778  0.4298
 8809SOL     OW37885   1.910   2.745  17.225 -0.1483  0.1102 -0.1413
 8809SOL    HW137886   1.980   2.794  17.183 -0.2443 -0.6744 -1.2126
 8809SOL    HW237887   1.951   2.658  17.217 -1.6976 -0.7651  1.2719
 8810SOL     OW37888   4.608   0.411  16.432 -0.1931 -0.0272 -0.4918
 8810SOL    HW137889   4.594   0.332  16.380  0.4297 -0.4932  0.0413
 8810SOL    HW237890   4.656   0.374  16.507 -0.6216 -0.2058 -0.2981
 8811SOL     OW37891   3.748   1.329   7.191 -0.2605  0.2504  0.1176
 8811SOL    HW137892   3.660   1.304   7.220 -1.1001  1.5173 -1.3383
 8811SOL    HW237893   3.765   1.264   7.124 -1.2339 -0.3947  0.4998
 8812SOL     OW37894   3.845   3.910   0.857  0.1209  0.1980  0.1200
 8812SOL    HW137895   3.811   3.963   0.785 -0.3533 -1.9242 -1.2240
 8812SOL    HW237896   3.852   3.985   0.916 -2.4410  2.3480 -2.3286
 8813SOL     OW37897   0.622   3.184   0.708 -0.1700 -0.2835 -0.2824
 8813SOL    HW137898   0.660   3.187   0.620  0.2734 -3.1481 -0.1787
 8813SOL    HW237899   0.542   3.237   0.703  0.5486  0.9009  0.6685
 8814SOL     OW37900   3.126   3.798   7.016  0.3894 -0.2134  0.0758
 8814SOL    HW137901   3.211   3.816   6.977  0.4150 -2.1225 -0.7750
 8814SOL    HW237902   3.098   3.880   7.056  0.5358 -0.0535 -0.1519
 8815SOL     OW37903   3.234   0.166  11.145  0.3472 -0.5240 -0.9190
 8815SOL    HW137904   3.328   0.161  11.163  0.6684 -1.3975 -2.8081
 8815SOL    HW237905   3.199   0.194  11.229  1.0051 -0.4208 -0.6780
 8816SOL     OW37906   3.965   3.702  14.441  0.0976  0.0814  0.3205
 8816SOL    HW137907   4.002   3.616  14.420 -0.3639  0.3628 -1.6929
 8816SOL    HW237908   3.937   3.726  14.352  0.8136  1.3626  0.4386
 8817SOL     OW37909   3.089   3.816   7.551 -0.7250 -0.5624  0.2710
 8817SOL    HW137910   2.998   3.802   7.579  0.3897 -1.9582  3.1399
 8817SOL    HW237911   3.074   3.783   7.462  2.2415  0.7643 -0.7216
 8818SOL     OW37912   3.044   1.889   7.750  0.7006 -0.3557 -0.3538
 8818SOL    HW137913   2.981   1.831   7.706  0.8591 -1.7044  1.2228
 8818SOL    HW237914   3.040   1.854   7.838  1.0944 -0.0374 -0.2111
 8819SOL     OW37915   3.313   4.177   8.020  0.1868 -0.6644  0.2536
 8819SOL    HW137916   3.346   4.099   8.065  1.7470 -1.3403 -2.0324
 8819SOL    HW237917   3.325   4.238   8.093  0.4595 -0.8291  0.3483
 8820SOL     OW37918   1.414   1.373   1.776 -0.3349  0.2247 -0.3158
 8820SOL    HW137919   1.507   1.383   1.757  0.1979 -0.9185  1.6739
 8820SOL    HW237920   1.421   1.406   1.866 -1.2365  1.1026 -0.5656
 8821SOL     OW37921   1.053   4.601   2.165 -0.2020 -0.3607  0.0749
 8821SOL    HW137922   1.130   4.656   2.150  0.3067 -0.8043  1.1101
 8821SOL    HW237923   1.071   4.521   2.116 -3.4382 -2.0651  1.7145
 8822SOL     OW37924   1.018   0.410   9.669  0.5731  0.0859  0.5046
 8822SOL    HW137925   0.953   0.446   9.729 -1.9066 -1.7287 -1.0950
 8822SOL    HW237926   1.097   0.437   9.716  1.4909  2.2402 -2.3024
 8823SOL     OW37927   2.062   3.402   3.656 -0.1394  0.5840  0.3938
 8823SOL    HW137928   1.973   3.438   3.650 -0.3452  0.0113  0.0689
 8823SOL    HW237929   2.100   3.406   3.568 -0.0179 -2.2667  0.3407
 8824SOL     OW37930   2.953   0.989   7.613  0.3758  0.5655 -0.0535
 8824SOL    HW137931   2.936   1.083   7.610 -4.1105 -0.1568  1.8276
 8824SOL    HW237932   2.873   0.956   7.571  0.4797  1.4892 -0.9921
 8825SOL     OW37933   2.496   1.896  14.256  0.1197  0.6893 -0.2660
 8825SOL    HW137934   2.564   1.962  14.267  0.9127 -0.2948  0.8482
 8825SOL    HW237935   2.476   1.899  14.163  0.5766  1.9861 -0.3152
 8826SOL     OW37936   0.939   3.635   8.870  0.5688 -0.1811 -0.4831
 8826SOL    HW137937   0.956   3.681   8.952  1.2227  0.3985 -0.9370
 8826SOL    HW237938   0.888   3.561   8.903 -0.8736  1.1677  0.3330
 8827SOL     OW37939   0.994   4.136   7.973  0.2203 -0.4462 -0.6701
 8827SOL    HW137940   1.040   4.214   7.942 -3.2623  1.1657 -1.8243
 8827SOL    HW237941   0.991   4.154   8.067  1.5866 -0.4822 -0.6167
 8828SOL     OW37942   3.222   3.170  11.391  0.4351  0.1941  0.0981
 8828SOL    HW137943   3.280   3.204  11.459  0.2847  1.6965 -0.5301
 8828SOL    HW237944   3.283   3.169  11.318  2.5476 -2.6199  1.8902
 8829SOL     OW37945   4.065   1.728  17.349  0.4367  0.3278  0.1078
 8829SOL    HW137946   4.127   1.797  17.373  1.1227 -0.2799  0.0916
 8829SOL    HW237947   4.123   1.652  17.341  0.2717  0.1391  0.6900
 8830SOL     OW37948   3.516   4.542  13.321 -0.5950 -0.0038 -0.1653
 8830SOL    HW137949   3.438   4.586  13.287 -1.1701 -0.5653  0.4208
 8830SOL    HW237950   3.528   4.473  13.256 -0.6980  0.2639 -0.4679
 8831SOL     OW37951   3.992   1.420   8.870 -0.1320 -0.5484  0.2547
 8831SOL    HW137952   3.960   1.507   8.894 -0.7154 -0.1309 -2.0242
 8831SOL    HW237953   3.982   1.370   8.951  2.8364 -0.8733  0.4312
 8832SOL     OW37954   2.722   0.291  15.016 -0.7328 -0.1626  0.0461
 8832SOL    HW137955   2.783   0.267  14.947 -2.4344 -1.1204 -1.1461
 8832SOL    HW237956   2.659   0.349  14.973  0.2338  2.9553  2.8247
 8833SOL     OW37957   0.224   0.211   8.805 -0.1029 -0.2490 -0.0619
 8833SOL    HW137958   0.255   0.172   8.723  0.0599 -0.6588  0.1920
 8833SOL    HW237959   0.256   0.301   8.803 -0.3054 -0.1971 -1.4557
 8834SOL     OW37960   3.294   2.077   0.654  0.5072 -0.2150 -0.2147
 8834SOL    HW137961   3.292   2.055   0.561  0.9657 -0.4331 -0.1689
 8834SOL    HW237962   3.355   2.010   0.682  0.6371 -0.3773 -0.9038
 8835SOL     OW37963   0.044   4.526   4.409 -0.1273 -0.0674  0.0622
 8835SOL    HW137964   0.072   4.617   4.410 -1.8165  0.4704 -0.8482
 8835SOL    HW237965   0.128   4.488   4.385  0.0920  0.3080  0.2464
 8836SOL     OW37966   4.133   0.337  15.404  0.4476  0.5425  0.1291
 8836SOL    HW137967   4.114   0.374  15.490  0.2747 -0.1514  0.3914
 8836SOL    HW237968   4.190   0.261  15.421  0.3903  0.3301 -0.6395
 8837SOL     OW37969   3.465   4.583   1.280  0.7464  0.0865 -0.1130
 8837SOL    HW137970   3.546   4.632   1.294  0.1799  0.4647  1.7926
 8837SOL    HW237971   3.412   4.650   1.238  0.8478 -0.9407 -1.8775
 8838SOL     OW37972   4.336   0.913   4.909 -0.7620  0.5004 -0.1879
 8838SOL    HW137973   4.275   0.947   4.844  0.8592  1.0408 -1.4237
 8838SOL    HW237974   4.400   0.876   4.848  0.2262  0.9499  0.5846
 8839SOL     OW37975   1.439   1.749   5.403 -0.5012 -0.2871 -0.1526
 8839SOL    HW137976   1.380   1.808   5.449 -1.4558  0.2605 -2.0844
 8839SOL    HW237977   1.395   1.723   5.322  0.2310  0.0622 -0.6649
 8840SOL     OW37978   1.788   4.424   3.427  0.4462  0.1373  0.5605
 8840SOL    HW137979   1.863   4.404   3.372  1.2468  2.5703  0.7753
 8840SOL    HW237980   1.834   4.469   3.497  0.9314  3.0683 -1.6544
 8841SOL     OW37981   1.425   2.047  11.293  0.0481  0.1845  0.7025
 8841SOL    HW137982   1.454   2.135  11.318 -0.5752  0.8037 -0.7666
 8841SOL    HW237983   1.330   2.061  11.294 -0.2222 -1.5879 -0.5992
 8842SOL     OW37984   2.807   1.459   0.847 -0.1140 -0.4326 -0.2809
 8842SOL    HW137985   2.821   1.525   0.779  1.6315 -0.1685  0.3478
 8842SOL    HW237986   2.839   1.496   0.929  1.3509 -1.8965 -0.1868
 8843SOL     OW37987   0.966   2.403   4.349 -0.2161 -0.2269  0.2491
 8843SOL    HW137988   0.895   2.409   4.285 -0.3937  3.1832  0.7568
 8843SOL    HW237989   1.026   2.343   4.304  0.1670 -0.2488  0.7942
 8844SOL     OW37990   2.131   0.431   5.380 -0.3116  0.1719  0.3024
 8844SOL    HW137991   2.169   0.372   5.445 -3.0707 -0.4036  1.4309
 8844SOL    HW237992   2.205   0.484   5.352  0.5597 -1.1548  0.1050
 8845SOL     OW37993   1.986   3.315   3.071 -0.0207 -0.1862  0.0058
 8845SOL    HW137994   2.018   3.270   2.993 -1.9450 -0.9703 -0.3390
 8845SOL    HW237995   1.896   3.284   3.079  0.6766 -1.9977  0.7660
 8846SOL     OW37996   4.210   1.688   7.840  0.3713 -0.1714  0.6075
 8846SOL    HW137997   4.157   1.755   7.884 -0.0504  0.9441 -1.5684
 8846SOL    HW237998   4.145   1.622   7.816 -0.0104  0.5994 -0.4801
 8847SOL     OW37999   2.496   4.109  17.585 -0.4802  0.3321 -0.3152
 8847SOL    HW138000   2.521   4.125  17.494  0.0801 -0.0508 -0.2292
 8847SOL    HW238001   2.401   4.114  17.593 -0.5626 -0.5215 -0.8312
 8848SOL     OW38002   2.312   0.173   5.881  0.0455 -0.2668 -0.2144
 8848SOL    HW138003   2.304   0.224   5.962  0.0456  1.2853 -1.1989
 8848SOL    HW238004   2.238   0.112   5.878  0.5608 -0.9530  1.1220
 8849SOL     OW38005   1.910   1.133  10.852  0.2179 -0.0888  0.1275
 8849SOL    HW138006   1.954   1.054  10.883 -0.5221  0.4563  2.6132
 8849SOL    HW238007   1.818   1.115  10.867 -0.2670  0.0900 -2.5744
 8850SOL     OW38008   3.645   2.337   3.969  1.3304 -0.1313  0.0476
 8850SOL    HW138009   3.677   2.255   3.932 -0.6596 -0.0838 -1.7653
 8850SOL    HW238010   3.679   2.325   4.057  0.8213 -2.5756 -0.0898
 8851SOL     OW38011   0.241   3.357  12.052  0.1443 -0.2754  0.2259
 8851SOL    HW138012   0.197   3.273  12.064  0.0766 -0.0886  1.2959
 8851SOL    HW238013   0.221   3.371  11.960 -0.1345 -0.0513  0.3199
 8852SOL     OW38014   0.560   0.567   0.001 -0.2992 -0.3906  0.3775
 8852SOL    HW138015   0.504   0.619  17.645  0.3285  1.1827  1.1880
 8852SOL    HW238016   0.634   0.626  17.691 -0.9453  0.3538  0.0950
 8853SOL     OW38017   1.209   4.639   8.646  0.0737 -0.1775 -0.1452
 8853SOL    HW138018   1.287   4.591   8.616  0.3379  1.2812 -1.7818
 8853SOL    HW238019   1.224   4.645   8.740 -2.9750 -1.8414  0.4254
 8854SOL     OW38020   2.969   1.908   2.864  0.4133  0.3404  0.1157
 8854SOL    HW138021   3.039   1.972   2.876 -0.5631  1.4263  0.0003
 8854SOL    HW238022   2.891   1.960   2.884  0.3223  0.7670 -1.3576
 8855SOL     OW38023   1.722   2.314   1.768  0.6474 -0.0592  0.2442
 8855SOL    HW138024   1.721   2.400   1.726  0.5478  0.8668  2.1746
 8855SOL    HW238025   1.710   2.328   1.862  0.5844  1.8953 -0.0748
 8856SOL     OW38026   2.868   0.204   7.186  0.3836 -0.7499  0.2232
 8856SOL    HW138027   2.833   0.130   7.136 -0.3749  0.3443 -0.8444
 8856SOL    HW238028   2.802   0.211   7.255  0.5265 -1.9149  0.4826
 8857SOL     OW38029   4.154   3.085   5.599 -0.3575 -0.1989  0.2221
 8857SOL    HW138030   4.180   3.166   5.556 -0.8119 -0.0077  0.3024
 8857SOL    HW238031   4.232   3.068   5.652 -0.4337  0.1482  0.4438
 8858SOL     OW38032   1.530   2.305   4.319 -0.3130  0.1071 -0.3966
 8858SOL    HW138033   1.608   2.292   4.374  0.8960 -1.3302 -2.4485
 8858SOL    HW238034   1.472   2.330   4.390 -2.8450 -1.3467 -1.9599
 8859SOL     OW38035   4.558   1.005   4.129  0.5161  0.1909 -0.4688
 8859SOL    HW138036   4.647   1.036   4.112  0.4476  1.5574  1.6352
 8859SOL    HW238037   4.531   0.971   4.044  0.6003 -1.1946  0.0487
 8860SOL     OW38038   1.835   4.593   9.155  0.0640  0.1768 -0.2581
 8860SOL    HW138039   1.762   4.535   9.178 -0.8382  0.2860 -2.8864
 8860SOL    HW238040   1.863   4.635   9.236 -0.0294  0.6092 -0.4524
 8861SOL     OW38041   2.269   0.031   1.967 -0.0215  0.2455 -0.0989
 8861SOL    HW138042   2.217   0.039   2.047  0.6265 -3.3978  0.6872
 8861SOL    HW238043   2.342   4.702   1.996 -1.9531 -2.7886 -0.9864
 8862SOL     OW38044   0.996   0.954   7.523 -0.0662 -0.1422 -0.0879
 8862SOL    HW138045   1.018   0.892   7.453  1.6146 -1.5620  1.7197
 8862SOL    HW238046   0.933   0.901   7.572 -0.3632  1.3879  1.1705
 8863SOL     OW38047   2.294   3.572  13.764 -0.1961 -0.2708  0.2246
 8863SOL    HW138048   2.224   3.542  13.822  0.6998  2.2886  2.6439
 8863SOL    HW238049   2.285   3.666  13.784 -1.2400 -0.8752  2.5366
 8864SOL     OW38050   1.377   0.618   9.661 -0.3153  0.6086 -0.6403
 8864SOL    HW138051   1.367   0.523   9.667 -0.2730  0.5634 -1.2241
 8864SOL    HW238052   1.358   0.631   9.754 -2.5715 -3.5131 -0.5088
 8865SOL     OW38053   1.619   3.209   8.616  0.2188  0.2865 -0.4223
 8865SOL    HW138054   1.651   3.166   8.695  0.7823  0.8315 -0.3559
 8865SOL    HW238055   1.555   3.264   8.661  0.3054 -0.5885  0.7692
 8866SOL     OW38056   4.531   2.507   3.299  0.0374  0.0288  0.0110
 8866SOL    HW138057   4.571   2.591   3.276 -2.1187  0.6509 -1.4565
 8866SOL    HW238058   4.446   2.512   3.256 -0.1043  0.1613  0.3085
 8867SOL     OW38059   2.016   0.100  15.600 -0.1841  0.1896  0.6596
 8867SOL    HW138060   2.024   0.082  15.506  0.7147 -0.9102  0.9520
 8867SOL    HW238061   1.925   0.127  15.609  0.0652  1.3869 -0.3256
 8868SOL     OW38062   2.652   2.582   4.006 -0.0158 -0.0232  0.8847
 8868SOL    HW138063   2.707   2.644   4.055  0.1405  0.9356 -0.4912
 8868SOL    HW238064   2.581   2.556   4.064  0.5293 -2.0963  0.6186
 8869SOL     OW38065   2.864   0.353   9.320 -0.2506 -0.0961 -0.5346
 8869SOL    HW138066   2.958   0.344   9.309 -0.1725 -1.4400  1.2462
 8869SOL    HW238067   2.864   0.425   9.383  2.3549 -1.5321  1.0962
 8870SOL     OW38068   2.391   0.366  16.593  0.4122 -0.4032 -0.2985
 8870SOL    HW138069   2.392   0.279  16.553 -0.4392 -1.0556  1.0904
 8870SOL    HW238070   2.461   0.362  16.658 -0.4474 -1.0944  0.5764
 8871SOL     OW38071   1.737   2.096   8.355 -0.3607 -0.6714  0.2925
 8871SOL    HW138072   1.830   2.113   8.371 -0.3516 -0.5367  0.0932
 8871SOL    HW238073   1.709   2.177   8.396  2.0446 -0.4781  1.5735
 8872SOL     OW38074   0.521   1.333   2.540 -0.0438 -0.0158 -0.4018
 8872SOL    HW138075   0.552   1.408   2.489  1.4288 -0.3731 -0.0340
 8872SOL    HW238076   0.589   1.266   2.532  0.6235  0.8591 -2.0332
 8873SOL     OW38077   4.647   4.564   2.490 -0.0545 -0.1462 -0.1201
 8873SOL    HW138078   4.570   4.618   2.476 -1.4189 -1.5699  1.8815
 8873SOL    HW238079   4.687   4.616   2.560 -0.5131  0.7632 -0.5287
 8874SOL     OW38080   1.892   0.770  16.252  0.1032 -0.0149  0.3890
 8874SOL    HW138081   1.894   0.754  16.347  0.7338 -0.9033  0.2265
 8874SOL    HW238082   1.817   0.718  16.223  0.0312  0.1994  0.1985
 8875SOL     OW38083   3.833   1.059   5.506 -0.0522 -0.0474  0.3739
 8875SOL    HW138084   3.873   0.977   5.476 -0.8142 -1.0574  2.1545
 8875SOL    HW238085   3.882   1.125   5.455 -0.3665  1.3807  1.9345
 8876SOL     OW38086   0.940   2.195   0.061 -0.1987 -0.2875  0.9462
 8876SOL    HW138087   0.977   2.123   0.112  2.8136  0.6516  0.1496
 8876SOL    HW238088   0.993   2.182  17.685 -0.5476 -0.5946  0.7667
 8877SOL     OW38089   2.488   0.216   7.850 -0.4150 -0.4324 -1.0083
 8877SOL    HW138090   2.479   0.299   7.802  1.9365 -0.1727 -1.0453
 8877SOL    HW238091   2.464   0.250   7.936 -0.5680  0.7719 -1.5153
 8878SOL     OW38092   0.912   4.607   5.097  0.1168 -0.4488 -0.3732
 8878SOL    HW138093   0.936   4.695   5.069 -0.2724  0.6491  2.7858
 8878SOL    HW238094   0.983   4.594   5.159  1.1112  0.3042 -1.3552
 8879SOL     OW38095   1.911   2.395   1.221 -0.5990  0.0194  0.2010
 8879SOL    HW138096   1.889   2.470   1.276  0.8766  0.1408  0.6302
 8879SOL    HW238097   1.849   2.329   1.250 -1.3205  0.8670  0.5741
 8880SOL     OW38098   3.159   1.893  11.771  0.9677 -0.0829  0.1837
 8880SOL    HW138099   3.117   1.950  11.835  0.3717 -2.3997  1.8454
 8880SOL    HW238100   3.101   1.902  11.695  2.1104  1.9681 -0.4299
 8881SOL     OW38101   3.963   0.935  12.609 -0.2485 -0.0471  0.5447
 8881SOL    HW138102   3.951   0.882  12.687  0.2177 -1.6624 -0.4878
 8881SOL    HW238103   3.920   1.018  12.631 -0.1749 -0.1908  1.2285
 8882SOL     OW38104   4.507   3.480  14.053 -0.6662 -0.9182  0.3313
 8882SOL    HW138105   4.560   3.510  14.127 -0.8531 -0.2720  0.2056
 8882SOL    HW238106   4.445   3.553  14.047  2.8172  1.9417 -0.9584
 8883SOL     OW38107   1.030   1.754   2.558  0.4340  0.2902 -0.3276
 8883SOL    HW138108   1.035   1.679   2.618 -0.3951  0.9845  0.6124
 8883SOL    HW238109   1.106   1.809   2.575 -0.3468  0.5560  2.4602
 8884SOL     OW38110   0.632   2.188   4.952  0.9575  0.1240  0.1582
 8884SOL    HW138111   0.709   2.244   4.956  0.2881  1.0212  0.3282
 8884SOL    HW238112   0.676   2.109   4.984  0.8516  0.2895  0.7259
 8885SOL     OW38113   2.874   3.650   0.895  0.5924  0.3562 -0.1114
 8885SOL    HW138114   2.804   3.609   0.845  0.2478 -1.7590  2.1114
 8885SOL    HW238115   2.841   3.739   0.908  2.6266  0.7353  2.4850
 8886SOL     OW38116   2.057   0.999   4.112 -0.6529  0.1444  0.7332
 8886SOL    HW138117   2.100   0.918   4.139 -0.0256  0.5255  0.8962
 8886SOL    HW238118   2.130   1.061   4.113 -0.4759 -0.0632  0.5510
 8887SOL     OW38119   3.080   1.960   5.007 -0.0182 -0.0644 -0.2978
 8887SOL    HW138120   3.077   1.883   4.951  0.5317 -1.9800  2.2778
 8887SOL    HW238121   3.082   2.029   4.941  1.5984  2.7173  2.6772
 8888SOL     OW38122   3.150   3.789   3.444 -0.1568 -0.6395  0.5473
 8888SOL    HW138123   3.164   3.701   3.477  2.5298 -0.6299 -0.5066
 8888SOL    HW238124   3.059   3.784   3.414 -0.3190  1.9688  0.5450
 8889SOL     OW38125   2.191   2.439  11.497 -0.5333 -0.2792 -0.2544
 8889SOL    HW138126   2.117   2.379  11.511 -0.0229 -0.3624  1.9855
 8889SOL    HW238127   2.259   2.383  11.536 -1.4735 -2.0374 -1.1041
 8890SOL     OW38128   0.203   3.009   3.043 -0.1369 -0.4575  0.7838
 8890SOL    HW138129   0.166   2.927   3.010  1.2028 -1.2362  1.1933
 8890SOL    HW238130   0.220   3.055   2.961 -0.7809 -3.3650 -0.9832
 8891SOL     OW38131   3.776   3.333  15.704 -0.2992  0.3847  0.3968
 8891SOL    HW138132   3.778   3.298  15.615 -1.9728  1.1130  0.0727
 8891SOL    HW238133   3.841   3.403  15.705 -0.5826  0.6362  1.0053
 8892SOL     OW38134   0.445   3.646  13.751  0.0025 -0.4876  0.1707
 8892SOL    HW138135   0.476   3.662  13.840  1.1327 -0.2700 -0.2686
 8892SOL    HW238136   0.355   3.653  13.784 -0.4056  0.5290 -1.1243
 8893SOL     OW38137   2.125   3.867   0.168 -0.3190 -0.1910  0.3128
 8893SOL    HW138138   2.158   3.955   0.189  0.1689 -0.4895  0.7867
 8893SOL    HW238139   2.083   3.871   0.254  1.0928  0.6598  0.9586
 8894SOL     OW38140   3.013   4.427   0.723  0.0436 -0.0705  1.0364
 8894SOL    HW138141   3.075   4.389   0.661 -1.4552  0.4957 -0.8018
 8894SOL    HW238142   2.933   4.425   0.671  1.1792 -2.9443 -0.5617
 8895SOL     OW38143   1.159   1.698  13.286  0.2733  0.0147  0.0378
 8895SOL    HW138144   1.111   1.777  13.263  0.1568 -0.0828 -0.0541
 8895SOL    HW238145   1.092   1.652  13.337 -1.2797  2.0212 -0.1959
 8896SOL     OW38146   1.425   1.346   4.722 -0.6632 -0.6503 -0.6124
 8896SOL    HW138147   1.458   1.303   4.800  1.4595  0.3687 -0.9662
 8896SOL    HW238148   1.513   1.358   4.688  0.0332 -1.3459  0.9717
 8897SOL     OW38149   1.279   4.143   2.941 -0.1024 -0.6400  0.2138
 8897SOL    HW138150   1.277   4.238   2.954 -0.0526 -0.5425 -0.4952
 8897SOL    HW238151   1.243   4.128   2.854 -1.5965  0.7121  0.5883
 8898SOL     OW38152   4.448   2.552  10.071  0.7021  0.2764  0.5330
 8898SOL    HW138153   4.361   2.542  10.109  0.1195 -0.5885 -1.0471
 8898SOL    HW238154   4.512   2.533  10.139 -0.1177 -2.0473  0.6630
 8899SOL     OW38155   4.000   3.600  10.779  0.2511 -0.3693  0.4079
 8899SOL    HW138156   3.919   3.650  10.790  0.2992 -0.3113  0.4933
 8899SOL    HW238157   4.001   3.574  10.687 -1.3538 -1.4540  0.6921
 8900SOL     OW38158   3.477   4.516   7.686  0.4112 -0.0300  0.8682
 8900SOL    HW138159   3.413   4.526   7.756  1.1806  0.8477  1.4512
 8900SOL    HW238160   3.514   4.428   7.684 -0.6124 -0.4386 -0.7163
 8901SOL     OW38161   2.422   0.123   2.292  0.4094 -0.0222  0.3087
 8901SOL    HW138162   2.337   0.129   2.248  0.2216 -2.3960  0.3247
 8901SOL    HW238163   2.446   0.037   2.258  0.6438 -0.7990  2.4646
 8902SOL     OW38164   3.494   0.608   8.325  0.0379  0.3333  0.0954
 8902SOL    HW138165   3.482   0.588   8.417 -0.5363  1.3782  0.2449
 8902SOL    HW238166   3.427   0.560   8.277  0.2941  0.0747 -0.0077
 8903SOL     OW38167   3.983   2.347  10.055  0.0491  0.7741 -0.0402
 8903SOL    HW138168   4.016   2.285   9.990 -0.9162  1.1114 -0.8619
 8903SOL    HW238169   3.986   2.298  10.137 -1.8020 -0.2630 -0.5884
 8904SOL     OW38170   4.458   0.012   0.983  0.0350 -0.0096 -0.4593
 8904SOL    HW138171   4.446   4.671   0.915  0.4590  0.1839 -0.7255
 8904SOL    HW238172   4.494   4.684   1.054  0.3143 -0.0430 -0.6274
 8905SOL     OW38173   1.839   0.675   6.480  0.7512 -0.0347 -0.0638
 8905SOL    HW138174   1.750   0.680   6.443  1.3808  0.1252 -1.5547
 8905SOL    HW238175   1.845   0.754   6.533 -1.4232  0.0945 -0.0169
 8906SOL     OW38176   0.668   1.479   7.458  0.1147  0.3270  0.1416
 8906SOL    HW138177   0.754   1.471   7.498 -0.1185 -1.9905  0.2119
 8906SOL    HW238178   0.616   1.423   7.516  1.6378 -0.4916  0.7094
 8907SOL     OW38179   0.465   1.380  12.834  0.1943 -0.4515  0.2070
 8907SOL    HW138180   0.556   1.393  12.808  0.3886 -1.3609  0.4372
 8907SOL    HW238181   0.476   1.439  12.909 -0.2910  0.8753 -0.7647
 8908SOL     OW38182   3.817   3.753   7.604  0.2568  0.0962  0.5047
 8908SOL    HW138183   3.864   3.821   7.652  0.7846 -1.1987  1.7868
 8908SOL    HW238184   3.809   3.691   7.676  0.7930 -2.0679 -1.3089
 8909SOL     OW38185   1.757   0.988  13.734  0.1321  0.1684 -0.3234
 8909SOL    HW138186   1.759   0.928  13.808  1.3339 -1.1928 -1.4545
 8909SOL    HW238187   1.832   0.968  13.679  0.4513 -4.1134  1.6320
 8910SOL     OW38188   1.396   0.481   2.148 -0.3474  0.0067  0.8244
 8910SOL    HW138189   1.305   0.502   2.124  0.4244  0.9481 -1.2787
 8910SOL    HW238190   1.392   0.386   2.154 -0.0925 -0.2317 -2.4223
 8911SOL     OW38191   3.008   2.530   5.718  0.1934  0.1069  0.3247
 8911SOL    HW138192   3.095   2.552   5.750 -0.1479  0.5628  0.9437
 8911SOL    HW238193   2.971   2.473   5.785 -0.8361 -0.5385 -0.7866
 8912SOL     OW38194   4.451   4.180  11.568 -0.2050  0.6929  0.0374
 8912SOL    HW138195   4.429   4.113  11.632 -0.9739  0.3143 -0.6333
 8912SOL    HW238196   4.418   4.156  11.481  1.2514 -0.1871 -0.2792
 8913SOL     OW38197   2.114   1.810   6.117 -0.8830 -0.2639  0.2787
 8913SOL    HW138198   2.087   1.838   6.204  0.7685 -0.1935  0.7588
 8913SOL    HW238199   2.190   1.865   6.098 -1.3909  1.1475  2.4238
 8914SOL     OW38200   3.396   3.940   1.078 -0.4644 -0.1381  0.1184
 8914SOL    HW138201   3.465   3.958   1.142 -0.8690  0.8618  0.2665
 8914SOL    HW238202   3.406   4.020   1.026  0.0545 -0.8999 -0.9694
 8915SOL     OW38203   3.152   3.891   1.149 -0.3184  0.4340 -0.6329
 8915SOL    HW138204   3.239   3.921   1.122 -0.5066  1.0084 -0.5898
 8915SOL    HW238205   3.090   3.933   1.090 -2.6996  1.1655  2.3935
 8916SOL     OW38206   2.944   3.581   2.774 -0.4278 -0.0585  0.3984
 8916SOL    HW138207   2.873   3.530   2.813 -0.4443  0.8377  1.5287
 8916SOL    HW238208   2.919   3.595   2.683  2.1366  1.6716 -0.0309
 8917SOL     OW38209   0.103   3.103   6.487  0.5241 -0.6585 -0.0358
 8917SOL    HW138210   0.145   3.020   6.508 -0.6598 -1.1505  0.4177
 8917SOL    HW238211   0.028   3.083   6.431  0.8696 -0.4091 -0.5911
 8918SOL     OW38212   3.593   3.976   7.857  0.5581  0.1700  0.4205
 8918SOL    HW138213   3.581   4.048   7.919  0.9791  0.4193  0.2156
 8918SOL    HW238214   3.541   3.903   7.889  2.3510 -0.6270  1.4815
 8919SOL     OW38215   1.286   4.534   7.603 -0.4190  0.1802 -0.2901
 8919SOL    HW138216   1.203   4.568   7.635 -0.7212 -2.2098  1.4002
 8919SOL    HW238217   1.249   4.463   7.552  1.1329 -1.5406  0.9729
 8920SOL     OW38218   0.720   1.057  17.313  0.1183  0.2665 -0.0981
 8920SOL    HW138219   0.669   1.028  17.388 -0.7707  1.3140 -0.2964
 8920SOL    HW238220   0.716   0.973  17.266  1.9411  0.2830 -0.2978
 8921SOL     OW38221   1.520   4.492   1.491  0.0538  0.0184 -0.3596
 8921SOL    HW138222   1.473   4.479   1.573  1.1073 -1.5367  0.0051
 8921SOL    HW238223   1.458   4.448   1.432  0.8166  0.0486 -1.1836
 8922SOL     OW38224   0.166   3.762  12.954 -0.2260 -0.1862 -0.1258
 8922SOL    HW138225   0.189   3.781  12.863 -0.3922 -0.3974 -0.2102
 8922SOL    HW238226   0.124   3.846  12.973 -0.1990 -0.1699 -0.1366
 8923SOL     OW38227   4.680   1.739   6.780 -0.0538 -0.8024 -0.2216
 8923SOL    HW138228   4.721   1.822   6.757  0.6697 -0.9351  0.6193
 8923SOL    HW238229   4.631   1.747   6.862  0.6204  1.7851 -0.0708
 8924SOL     OW38230   3.791   2.774   9.364  0.5045 -0.3293 -0.4294
 8924SOL    HW138231   3.790   2.761   9.459  2.8245 -4.7602 -0.9925
 8924SOL    HW238232   3.698   2.785   9.344 -0.4177 -0.5923  3.6478
 8925SOL     OW38233   2.646   1.894   3.394  0.0824 -0.3439 -0.2311
 8925SOL    HW138234   2.712   1.961   3.413 -2.2765  2.3622 -1.6017
 8925SOL    HW238235   2.703   1.818   3.378 -1.9598 -1.7449 -0.8476
 8926SOL     OW38236   3.903   4.564  14.891 -0.3740  0.5030  0.3998
 8926SOL    HW138237   3.998   4.566  14.887 -0.3969  0.5040 -0.0593
 8926SOL    HW238238   3.880   4.609  14.810 -0.4899 -2.8368 -1.4340
 8927SOL     OW38239   3.571   3.472   1.317 -0.2828 -0.0175  0.1896
 8927SOL    HW138240   3.586   3.547   1.375 -0.7181  0.1621  0.0688
 8927SOL    HW238241   3.550   3.409   1.386 -2.0123  0.2463 -0.0992
 8928SOL     OW38242   2.800   0.012   2.706 -0.4105  0.3485 -0.6261
 8928SOL    HW138243   2.717   0.010   2.754  0.4328 -0.7598  0.8023
 8928SOL    HW238244   2.757   4.720   2.623 -1.0331 -0.3537 -0.1537
 8929SOL     OW38245   1.047   4.322  12.670 -0.3086 -0.0094 -0.0556
 8929SOL    HW138246   1.091   4.250  12.716 -0.7671 -0.2914 -0.0542
 8929SOL    HW238247   0.965   4.281  12.641 -0.6236  0.0432  0.7524
 8930SOL     OW38248   0.330   2.049  12.299 -0.0558  0.2786 -0.6172
 8930SOL    HW138249   0.390   2.122  12.317 -3.1187  3.2420 -2.3568
 8930SOL    HW238250   0.310   2.074  12.208  1.7563 -2.4688 -1.7596
 8931SOL     OW38251   0.592   4.468  12.740  0.0809 -0.1301  0.3929
 8931SOL    HW138252   0.611   4.376  12.720 -1.5892  0.1589 -2.5033
 8931SOL    HW238253   0.646   4.483  12.818  0.6549 -1.1209  0.1808
 8932SOL     OW38254   0.908   3.057   7.546 -0.2137  0.4328  0.2181
 8932SOL    HW138255   0.855   2.977   7.547 -1.4839  1.3143  2.7645
 8932SOL    HW238256   0.963   3.046   7.468  1.5516 -0.0716  1.5279
 8933SOL     OW38257   2.712   1.904   2.619  0.1412 -0.1819 -0.0595
 8933SOL    HW138258   2.653   1.853   2.675  0.9708 -1.1205 -0.0570
 8933SOL    HW238259   2.794   1.870   2.654  0.2224  0.3577  0.2723
 8934SOL     OW38260   0.165   4.527   5.969  0.4066  0.2753  0.4007
 8934SOL    HW138261   0.083   4.479   5.955  1.6438 -0.9589 -2.6991
 8934SOL    HW238262   0.205   4.504   5.885  2.1180  0.8081  1.0691
 8935SOL     OW38263   4.715   0.855   6.528  0.4568  0.4324  0.5475
 8935SOL    HW138264   0.016   0.788   6.591  0.7127  0.8114  0.8389
 8935SOL    HW238265   4.651   0.813   6.471 -0.8406 -0.0341  2.3336
 8936SOL     OW38266   0.374   3.402   5.818 -0.4267  0.0606  0.1725
 8936SOL    HW138267   0.285   3.393   5.853 -0.5128 -2.0978 -0.5669
 8936SOL    HW238268   0.361   3.375   5.727  1.7775 -1.4100  0.2897
 8937SOL     OW38269   0.507   1.972   3.434  0.0838  0.3655  1.1522
 8937SOL    HW138270   0.587   2.018   3.460 -0.3194  1.1539  0.9825
 8937SOL    HW238271   0.522   1.901   3.497  0.9742  0.7511  1.3773
 8938SOL     OW38272   4.123   4.102  17.266  0.4141 -0.1616 -0.3714
 8938SOL    HW138273   4.099   4.141  17.181  0.9616  0.0644 -0.4222
 8938SOL    HW238274   4.168   4.021  17.244 -0.4854 -0.4212 -1.2914
 8939SOL     OW38275   2.438   3.187   0.040  0.6212 -0.4034  0.0044
 8939SOL    HW138276   2.358   3.178   0.092  0.8137  0.3613  0.4453
 8939SOL    HW238277   2.511   3.168   0.098  0.0471  0.5914  1.0567
 8940SOL     OW38278   0.472   3.686   0.229  0.1031 -0.2999 -0.1564
 8940SOL    HW138279   0.457   3.732   0.146  2.6553  1.7228  0.5148
 8940SOL    HW238280   0.497   3.598   0.202  0.6703 -0.2010  0.0530
 8941SOL     OW38281   0.525   1.987   8.638  0.2980  0.0107  0.8306
 8941SOL    HW138282   0.605   1.952   8.676  2.6723  4.1744 -0.4106
 8941SOL    HW238283   0.547   2.080   8.644 -0.0498  0.1969 -0.6040
 8942SOL     OW38284   2.716   1.330  16.371 -0.0137 -0.7236  0.4538
 8942SOL    HW138285   2.769   1.392  16.322 -0.6717 -1.7661 -1.5794
 8942SOL    HW238286   2.725   1.370  16.458  2.7239  0.5357 -0.4343
 8943SOL     OW38287   1.250   0.835  16.394 -0.0602 -0.3400 -0.3141
 8943SOL    HW138288   1.236   0.814  16.302  0.3737 -1.1448 -0.1963
 8943SOL    HW238289   1.341   0.866  16.401 -0.1949  0.1651 -0.8902
 8944SOL     OW38290   1.978   3.524   9.576  0.0347 -0.5372 -0.1151
 8944SOL    HW138291   1.985   3.612   9.538 -0.0825 -0.2873  0.4472
 8944SOL    HW238292   1.884   3.522   9.597 -0.6034  1.7005 -2.7626
 8945SOL     OW38293   0.739   0.316   6.144  0.0941 -0.4527  0.8739
 8945SOL    HW138294   0.818   0.360   6.113 -1.5790  0.3606 -2.1466
 8945SOL    HW238295   0.695   0.385   6.193 -0.8554  2.0431 -3.5332
 8946SOL     OW38296   4.340   4.513   5.522  0.4727  0.0319  0.1365
 8946SOL    HW138297   4.325   4.427   5.562 -0.8140  0.7166  1.1142
 8946SOL    HW238298   4.338   4.500   5.428  1.3175  0.4090  0.0637
 8947SOL     OW38299   3.942   0.190  12.005 -0.3856  0.0709 -0.3515
 8947SOL    HW138300   3.887   0.266  12.022 -1.1561 -0.5086 -0.2770
 8947SOL    HW238301   4.026   0.233  11.989  0.6478 -0.2775  4.0822
 8948SOL     OW38302   3.548   0.113  14.950 -0.5469 -0.4613 -0.1835
 8948SOL    HW138303   3.523   0.156  14.868 -0.0689 -0.2134 -0.1980
 8948SOL    HW238304   3.487   0.164  15.003  0.5275 -2.5837  3.0775
 8949SOL     OW38305   1.733   3.333  17.062 -0.4823 -0.4637  0.1427
 8949SOL    HW138306   1.797   3.373  17.120 -1.6522 -1.7675  2.3848
 8949SOL    HW238307   1.775   3.247  17.050 -1.8901 -1.4076  1.9777
 8950SOL     OW38308   3.092   1.252   7.808  0.1971  0.1193 -0.6566
 8950SOL    HW138309   3.084   1.233   7.902  3.0624  2.2483  0.0182
 8950SOL    HW238310   3.003   1.238   7.777  0.2814 -0.0376 -0.8263
 8951SOL     OW38311   4.701   2.887  12.501 -1.2286 -0.2286  0.6668
 8951SOL    HW138312   4.606   2.876  12.503 -1.4813  1.7388  0.1765
 8951SOL    HW238313   4.720   2.979  12.523 -0.0836 -0.4534  0.6107
 8952SOL     OW38314   2.738   0.291   8.092 -0.2652  0.1700  0.7489
 8952SOL    HW138315   2.645   0.280   8.072 -0.0258 -1.3347  0.4963
 8952SOL    HW238316   2.734   0.371   8.145  0.9968 -0.5854  2.0139
 8953SOL     OW38317   4.506   1.068  17.243  0.3506 -0.3377  0.0512
 8953SOL    HW138318   4.532   1.033  17.329  0.1083  1.2335  0.7665
 8953SOL    HW238319   4.410   1.062  17.247  0.3669 -0.4126  0.3794
 8954SOL     OW38320   0.852   4.359   5.907  0.4449  0.5515 -0.3955
 8954SOL    HW138321   0.915   4.407   5.852  0.8148 -0.3282 -0.7440
 8954SOL    HW238322   0.771   4.358   5.857 -0.5611 -1.2705  1.2785
 8955SOL     OW38323   0.960   1.275   5.541 -0.3200 -0.1017  0.3959
 8955SOL    HW138324   0.993   1.345   5.486 -2.0108 -0.3911 -0.9711
 8955SOL    HW238325   0.881   1.302   5.589 -1.7121 -3.2553 -0.1450
 8956SOL     OW38326   3.041   2.817   9.850  0.1358 -0.0525 -0.2415
 8956SOL    HW138327   2.956   2.781   9.826 -0.1011 -1.2807  2.4834
 8956SOL    HW238328   3.059   2.867   9.770 -1.2213 -0.0096 -0.5213
 8957SOL     OW38329   3.419   2.902  11.559  0.3047 -0.2533  0.1465
 8957SOL    HW138330   3.351   2.865  11.615 -2.1920  1.7496 -1.5977
 8957SOL    HW238331   3.372   2.929  11.481 -1.1413 -1.4058  0.6171
 8958SOL     OW38332   3.900   3.762   6.060  0.7095 -0.5851  0.2191
 8958SOL    HW138333   3.968   3.806   6.111  1.2196  0.3304 -1.2521
 8958SOL    HW238334   3.916   3.671   6.086 -0.2629 -0.5539  0.9118
 8959SOL     OW38335   0.187   0.784   2.802  0.3264  0.1273  0.1223
 8959SOL    HW138336   0.243   0.757   2.729  1.1421  1.5601  0.2282
 8959SOL    HW238337   0.244   0.842   2.851  0.0137 -0.9303  1.7245
 8960SOL     OW38338   2.648   2.422   2.474 -0.8848  0.1646  0.2501
 8960SOL    HW138339   2.599   2.417   2.392  1.1478  1.2666 -1.0230
 8960SOL    HW238340   2.665   2.335   2.510  1.5013  0.5882  0.1412
 8961SOL     OW38341   3.261   0.300   9.813  0.3438  0.1600  0.9530
 8961SOL    HW138342   3.188   0.355   9.784 -0.9184 -1.4771  1.0587
 8961SOL    HW238343   3.267   0.347   9.896 -1.7987  2.9436 -0.4157
 8962SOL     OW38344   0.150   4.453   0.028 -0.3378 -0.2324  0.0904
 8962SOL    HW138345   0.109   4.411  17.655 -3.5281  1.3987  0.9173
 8962SOL    HW238346   0.138   4.545   0.003  1.5222  0.8566  3.2830
 8963SOL     OW38347   0.940   3.948   8.436 -0.0320  0.0113  0.0352
 8963SOL    HW138348   0.918   3.863   8.398 -1.6920  0.6430 -0.4287
 8963SOL    HW238349   0.901   3.931   8.521 -0.2270 -0.2005 -0.0959
 8964SOL     OW38350   3.594   2.900  10.989 -0.3553  0.0483  0.3186
 8964SOL    HW138351   3.611   2.844  11.065 -1.6850  1.6415  1.7922
 8964SOL    HW238352   3.677   2.908  10.943  0.0354 -1.0893  0.8095
 8965SOL     OW38353   2.030   1.508  15.705 -0.2669  0.8199  0.5887
 8965SOL    HW138354   1.966   1.571  15.672 -0.3840  0.6316  0.4620
 8965SOL    HW238355   2.085   1.573  15.750 -0.4530  1.7145 -0.4733
 8966SOL     OW38356   3.384   1.227   4.592 -0.4543 -0.2535 -0.3999
 8966SOL    HW138357   3.342   1.210   4.508  2.3026 -3.2492 -1.1868
 8966SOL    HW238358   3.478   1.234   4.578 -0.3864 -1.1983 -0.4021
 8967SOL     OW38359   1.588   3.025   5.702 -0.2350  0.1413  0.7604
 8967SOL    HW138360   1.630   3.073   5.631 -0.9241 -0.6800 -0.1973
 8967SOL    HW238361   1.514   2.989   5.654 -1.1102  2.0478  0.6675
 8968SOL     OW38362   2.068   2.860  10.491 -0.1148  0.5401 -0.0039
 8968SOL    HW138363   2.152   2.840  10.450 -0.6414  1.0390 -1.3307
 8968SOL    HW238364   2.022   2.785  10.452  1.1286 -0.3926  0.3373
 8969SOL     OW38365   1.420   4.723   0.150  0.2963  0.1588 -0.2824
 8969SOL    HW138366   1.500   4.712   0.201 -0.2133 -0.8106  0.3036
 8969SOL    HW238367   1.424   4.666   0.074 -1.2291 -1.2723  0.6991
 8970SOL     OW38368   4.401   4.198   0.441 -0.7142 -0.3749 -0.5630
 8970SOL    HW138369   4.374   4.245   0.520 -0.8946 -1.8325  0.2373
 8970SOL    HW238370   4.433   4.116   0.479 -1.8141 -0.0646  1.0070
 8971SOL     OW38371   3.474   3.095   0.754  0.0130 -0.1579  0.1078
 8971SOL    HW138372   3.478   3.006   0.788 -0.9926 -0.6499 -1.0892
 8971SOL    HW238373   3.529   3.092   0.675  0.3230  1.6984  0.2296
 8972SOL     OW38374   3.631   0.456   0.044 -0.3641  0.3927 -0.3568
 8972SOL    HW138375   3.656   0.525  17.686  0.3130 -0.3107 -0.8706
 8972SOL    HW238376   3.710   0.454   0.098  0.6215 -0.7620 -1.8364
 8973SOL     OW38377   0.594   3.242  13.310 -0.1114 -0.4617 -0.7448
 8973SOL    HW138378   0.514   3.259  13.261 -0.0043 -0.0403 -0.7823
 8973SOL    HW238379   0.632   3.180  13.247  0.9263 -1.0446  0.4630
 8974SOL     OW38380   3.564   1.411   8.891 -1.0081  0.2625  0.7490
 8974SOL    HW138381   3.600   1.448   8.972 -0.7034  0.4599  0.5259
 8974SOL    HW238382   3.598   1.323   8.903 -0.6106  0.2516 -0.3931
 8975SOL     OW38383   3.354   3.825  14.520  0.3922  0.4010 -0.0368
 8975SOL    HW138384   3.431   3.781  14.485  0.0394 -0.1995 -0.0597
 8975SOL    HW238385   3.386   3.848  14.607  0.8368 -2.2155  0.4759
 8976SOL     OW38386   0.895   1.361  11.143  0.6966  0.0553  0.4586
 8976SOL    HW138387   0.817   1.399  11.103  0.5200 -1.8501 -0.9778
 8976SOL    HW238388   0.957   1.353  11.071  0.6833 -2.2058  0.6791
 8977SOL     OW38389   1.054   0.543  16.039 -0.2462 -0.4521  0.1998
 8977SOL    HW138390   1.148   0.553  16.020 -0.8827  0.5299 -2.4590
 8977SOL    HW238391   1.065   0.465  16.093 -2.5306 -2.4162 -2.1823
 8978SOL     OW38392   3.239   3.061   4.941  0.6968  0.1673 -0.0413
 8978SOL    HW138393   3.242   3.152   4.912  0.0463  0.5693  1.1600
 8978SOL    HW238394   3.223   3.069   5.035 -0.1229  1.7853 -0.3256
 8979SOL     OW38395   2.479   4.035   8.116  0.1354  0.1588  0.3137
 8979SOL    HW138396   2.478   3.988   8.033 -0.5924  1.0876 -0.2034
 8979SOL    HW238397   2.554   3.989   8.154 -0.3207 -2.4652 -1.9147
 8980SOL     OW38398   1.390   3.715   2.531  0.0586  0.0523 -0.4590
 8980SOL    HW138399   1.444   3.783   2.570 -1.0021  0.2455  0.6629
 8980SOL    HW238400   1.316   3.760   2.491  0.5888 -0.8567 -2.4653
 8981SOL     OW38401   0.997   3.788   6.306  0.3487 -0.2785 -1.1517
 8981SOL    HW138402   1.028   3.702   6.334  1.0671 -0.1389 -1.5198
 8981SOL    HW238403   0.903   3.782   6.322  0.6363  0.8729  0.9407
 8982SOL     OW38404   3.793   4.097   4.515  0.5185  0.7616  0.1898
 8982SOL    HW138405   3.723   4.094   4.580  1.5787  2.2433  1.4172
 8982SOL    HW238406   3.861   4.130   4.574  1.6410  0.1283 -0.7438
 8983SOL     OW38407   3.784   3.414   8.401  0.0261  0.5143 -0.1426
 8983SOL    HW138408   3.876   3.399   8.381  0.4595  3.1863 -0.1837
 8983SOL    HW238409   3.781   3.392   8.494 -0.9751  0.0270 -0.2855
 8984SOL     OW38410   1.957   1.197  11.938  0.0740 -0.0433  0.7896
 8984SOL    HW138411   2.027   1.246  11.982  0.2888  0.6927 -0.3751
 8984SOL    HW238412   2.005   1.171  11.859  1.0091  0.2145  1.2755
 8985SOL     OW38413   2.494   1.747   8.589 -0.2407  0.0506  0.0892
 8985SOL    HW138414   2.445   1.714   8.665 -0.5875  0.1192 -0.1034
 8985SOL    HW238415   2.565   1.683   8.584 -1.1189 -0.7967 -1.5025
 8986SOL     OW38416   4.610   3.460   7.175  0.4435 -0.4613 -0.8977
 8986SOL    HW138417   4.657   3.394   7.227  0.4183 -0.2483 -0.6099
 8986SOL    HW238418   4.669   3.530   7.201  2.7752 -3.2041  1.2017
 8987SOL     OW38419   4.659   1.689   2.000 -0.1970 -0.3376 -0.0191
 8987SOL    HW138420   4.585   1.744   2.027  1.3915  1.0557  1.4239
 8987SOL    HW238421   4.672   1.728   1.913  2.3452  0.8693  0.9307
 8988SOL     OW38422   1.314   0.765   8.456  0.1830 -0.2577 -0.1469
 8988SOL    HW138423   1.387   0.817   8.490  0.7123 -2.7486  2.5117
 8988SOL    HW238424   1.364   0.703   8.402  1.5011  0.6663  0.0051
 8989SOL     OW38425   3.301   3.781   5.103  0.0192 -0.9671 -0.2421
 8989SOL    HW138426   3.241   3.838   5.055 -0.0632 -1.6674 -0.9805
 8989SOL    HW238427   3.380   3.835   5.104  0.6316 -1.8282 -1.9245
 8990SOL     OW38428   0.290   3.272  12.778 -0.3665 -0.0107  0.2642
 8990SOL    HW138429   0.206   3.306  12.806  0.5809  1.0712  1.7366
 8990SOL    HW238430   0.295   3.294  12.685 -2.2190 -3.7327 -0.7318
 8991SOL     OW38431   2.811   1.227  12.886 -0.1225 -0.2673  0.4639
 8991SOL    HW138432   2.778   1.316  12.874  2.3687  0.4410 -1.1345
 8991SOL    HW238433   2.898   1.245  12.921  0.3442  2.3684 -2.0203
 8992SOL     OW38434   4.556   0.944   7.957 -0.4357  0.4438 -0.2118
 8992SOL    HW138435   4.572   0.897   8.039  3.7021  1.5776 -0.3844
 8992SOL    HW238436   4.461   0.955   7.969 -0.7904  1.4513 -3.9918
 8993SOL     OW38437   3.498   2.498   9.302 -0.4127 -0.1606  0.1939
 8993SOL    HW138438   3.468   2.508   9.392  1.9689  1.2613  0.8167
 8993SOL    HW238439   3.487   2.404   9.288 -0.5159 -0.1973  0.5247
 8994SOL     OW38440   3.224   2.942   8.210  0.0263 -0.3112  0.5707
 8994SOL    HW138441   3.203   3.035   8.208 -0.1987 -0.3781 -0.6098
 8994SOL    HW238442   3.191   2.915   8.124  1.6987  1.8836 -0.7919
 8995SOL     OW38443   3.318   2.203  11.702  0.2719 -0.0826 -0.4027
 8995SOL    HW138444   3.388   2.155  11.746  0.2802  0.0829 -0.2309
 8995SOL    HW238445   3.371   2.275  11.666  2.2748 -0.4870  1.6773
 8996SOL     OW38446   4.665   4.340   6.879  0.0189  0.6488 -0.4248
 8996SOL    HW138447   0.003   4.407   6.853  0.1664  1.1785  1.3502
 8996SOL    HW238448   4.585   4.371   6.836 -0.3710  1.6552  1.0249
 8997SOL     OW38449   3.576   3.704   6.965 -0.0097  0.5209  0.4815
 8997SOL    HW138450   3.534   3.618   6.967  1.0352  0.0241  0.7931
 8997SOL    HW238451   3.583   3.716   7.059  1.2791 -1.0627  0.5883
 8998SOL     OW38452   0.691   4.504  10.655 -0.7478  0.6186 -0.3345
 8998SOL    HW138453   0.744   4.448  10.712 -1.1236  0.1184 -0.4785
 8998SOL    HW238454   0.723   4.470  10.571  1.8919  3.6537 -0.5804
 8999SOL     OW38455   1.787   3.354   8.107  0.2933 -0.2390  0.6827
 8999SOL    HW138456   1.879   3.336   8.130  0.7366  1.0792 -0.0670
 8999SOL    HW238457   1.741   3.334   8.189 -1.1118  1.1185  0.2171
 9000SOL     OW38458   4.561   1.709   1.075  0.0950  0.4371  0.3033
 9000SOL    HW138459   4.610   1.635   1.038  0.0006  0.0156  1.0316
 9000SOL    HW238460   4.481   1.660   1.095  0.9180 -1.2313 -0.4560
 9001SOL     OW38461   3.986   0.157   6.684  0.1311  0.0577  0.1666
 9001SOL    HW138462   4.060   0.146   6.745  0.8091  0.2280 -0.6246
 9001SOL    HW238463   3.914   0.139   6.744  0.5511  0.9124  0.9348
 9002SOL     OW38464   4.014   0.453   5.320 -0.8706 -0.2276  0.9159
 9002SOL    HW138465   3.934   0.492   5.284 -1.7756 -1.7674  1.2791
 9002SOL    HW238466   4.085   0.485   5.264 -1.9015  0.5151  0.0350
 9003SOL     OW38467   4.635   2.834  16.290 -0.6750  0.0512 -0.3530
 9003SOL    HW138468   4.602   2.860  16.377  1.1455  0.4901  0.1986
 9003SOL    HW238469   4.700   2.903  16.279  0.7484 -1.1881  0.2778
 9004SOL     OW38470   4.300   4.339   3.515 -0.0743  0.8736  0.1774
 9004SOL    HW138471   4.368   4.295   3.566 -0.2377 -1.8678 -1.9561
 9004SOL    HW238472   4.334   4.427   3.498  1.5290  0.7866  2.9570
 9005SOL     OW38473   0.735   1.376   6.663 -0.0615  0.2318 -0.0819
 9005SOL    HW138474   0.811   1.382   6.720  1.6187  0.4354 -2.3354
 9005SOL    HW238475   0.719   1.469   6.651  2.3405  0.2832 -2.6823
 9006SOL     OW38476   2.961   2.924  11.468  0.3425 -0.7943 -0.3477
 9006SOL    HW138477   2.975   2.943  11.560  0.2732 -0.6529 -0.3661
 9006SOL    HW238478   2.865   2.922  11.470  0.2585  4.3425  2.2109
 9007SOL     OW38479   4.426   2.081   4.706 -0.0776  0.1544  0.2998
 9007SOL    HW138480   4.469   2.077   4.792 -0.2108 -1.1138  0.3083
 9007SOL    HW238481   4.433   2.177   4.701 -0.4026  0.0307 -2.5629
 9008SOL     OW38482   2.194   3.894  14.426 -0.0603  0.1031  0.5180
 9008SOL    HW138483   2.256   3.821  14.425 -1.6187 -1.2063 -0.0464
 9008SOL    HW238484   2.119   3.855  14.382 -0.0378  0.6750 -0.0213
 9009SOL     OW38485   3.772   1.058   8.370 -0.2289 -0.4126 -0.2350
 9009SOL    HW138486   3.766   1.141   8.417  0.8463 -0.6260  0.2775
 9009SOL    HW238487   3.743   1.002   8.442 -4.2741  0.6236 -1.0296
 9010SOL     OW38488   2.519   4.129  14.946  0.4456  0.0217  0.1718
 9010SOL    HW138489   2.508   4.166  15.033 -0.1839  2.3701 -0.9086
 9010SOL    HW238490   2.456   4.056  14.947  1.8585 -1.1945  0.0245
 9011SOL     OW38491   2.265   2.708   0.378 -0.9191 -0.6663  0.1944
 9011SOL    HW138492   2.305   2.771   0.319 -1.9231 -0.6403 -0.4544
 9011SOL    HW238493   2.339   2.699   0.438 -0.4695  0.6935 -0.1591
 9012SOL     OW38494   0.067   3.166   0.775 -0.4458  0.1528 -0.1035
 9012SOL    HW138495   0.019   3.239   0.736  0.4115  1.5328  1.4202
 9012SOL    HW238496   0.002   3.096   0.772  0.0710 -0.2815 -1.0697
 9013SOL     OW38497   2.484   2.396  17.503 -0.2799  0.5595  0.1446
 9013SOL    HW138498   2.530   2.393  17.420  1.8553 -0.0838  1.3517
 9013SOL    HW238499   2.557   2.369  17.558 -0.4459 -0.0112  0.0811
 9014SOL     OW38500   0.539   1.853   3.172 -0.1093  0.5848 -0.1202
 9014SOL    HW138501   0.526   1.760   3.190 -0.7671  0.4958 -1.0670
 9014SOL    HW238502   0.497   1.893   3.248  1.2833 -1.3262  1.6461
 9015SOL     OW38503   2.445   0.992   5.013 -0.0282  0.5025 -0.0136
 9015SOL    HW138504   2.454   1.084   4.988 -4.2818  1.0248  0.3357
 9015SOL    HW238505   2.536   0.968   5.033  0.1477 -0.2526 -1.7680
 9016SOL     OW38506   2.698   3.470   2.073  1.0565  0.3080 -0.0076
 9016SOL    HW138507   2.714   3.381   2.106  3.4588  1.1692  1.0942
 9016SOL    HW238508   2.663   3.504   2.156 -4.3101 -3.3603 -0.7304
 9017SOL     OW38509   0.090   2.838  12.224  0.6892 -0.1326 -0.0807
 9017SOL    HW138510   0.092   2.846  12.319 -2.9093  0.6099 -0.0628
 9017SOL    HW238511   0.004   2.802  12.202  0.3381  0.3150  0.5618
 9018SOL     OW38512   3.574   0.198   6.183 -0.5409  0.2324  0.1165
 9018SOL    HW138513   3.529   0.223   6.264 -0.3785 -0.2142  0.3413
 9018SOL    HW238514   3.507   0.156   6.129 -0.1442  0.2775 -0.4101
 9019SOL     OW38515   0.720   3.099   2.391 -0.1581  0.4685 -0.1313
 9019SOL    HW138516   0.732   3.192   2.411 -0.4786  0.6746 -0.9237
 9019SOL    HW238517   0.634   3.090   2.432 -0.6599  1.4920 -0.9778
 9020SOL     OW38518   2.892   1.910  12.737  0.5000 -0.1386 -0.4535
 9020SOL    HW138519   2.838   1.849  12.687  2.6231 -1.1754 -1.4532
 9020SOL    HW238520   2.863   2.001  12.730  0.6754 -0.0013  0.5584
 9021SOL     OW38521   3.226   3.507   7.106 -0.2221  0.1618  0.4086
 9021SOL    HW138522   3.230   3.583   7.165 -2.6101  0.5245  0.0879
 9021SOL    HW238523   3.234   3.563   7.029  0.6415  1.7919  1.6627
 9022SOL     OW38524   4.143   4.043   1.685  0.4066 -0.0150  0.2400
 9022SOL    HW138525   4.048   4.047   1.696  0.1811 -0.9950 -1.3420
 9022SOL    HW238526   4.179   4.096   1.756 -0.1569  1.1119 -0.3209
 9023SOL     OW38527   0.139   3.476  15.961 -0.1462  0.2605  0.1176
 9023SOL    HW138528   0.147   3.557  15.910  2.7911 -0.1617 -0.0820
 9023SOL    HW238529   0.216   3.430  15.927 -0.6138 -0.1795 -0.3480
 9024SOL     OW38530   0.509   2.153  16.191  0.5818 -0.0099 -0.1791
 9024SOL    HW138531   0.573   2.164  16.261  3.0251  1.2708 -2.6074
 9024SOL    HW238532   0.545   2.223  16.135 -4.3144  1.8122 -1.0265
 9025SOL     OW38533   4.284   4.432  12.822 -0.2057 -0.1005  0.5652
 9025SOL    HW138534   4.196   4.455  12.793  0.2343 -1.9096 -2.1502
 9025SOL    HW238535   4.285   4.488  12.900 -0.3657 -0.2623  0.6822
 9026SOL     OW38536   0.762   0.273   2.534  0.8523 -0.1982  0.1254
 9026SOL    HW138537   0.756   0.226   2.617  3.6051 -0.3939  0.2334
 9026SOL    HW238538   0.702   0.345   2.550  0.8205 -0.5179  1.4743
 9027SOL     OW38539   2.551   2.801   4.724 -0.1858 -0.1683  0.4865
 9027SOL    HW138540   2.603   2.779   4.647  0.1466 -1.4214  1.0707
 9027SOL    HW238541   2.566   2.728   4.784 -1.3290 -0.5356  0.3336
 9028SOL     OW38542   4.479   2.492   1.861  0.3261  0.2083 -0.4187
 9028SOL    HW138543   4.532   2.499   1.940  1.3937 -0.9485 -1.0226
 9028SOL    HW238544   4.533   2.534   1.794  0.0438 -0.5468 -1.1253
 9029SOL     OW38545   1.661   0.389   1.250  0.1960  0.1596  0.1915
 9029SOL    HW138546   1.663   0.401   1.155  0.0652  0.5068  0.2336
 9029SOL    HW238547   1.569   0.372   1.269 -0.3603  1.3175 -1.5044
 9030SOL     OW38548   2.254   3.733  15.358 -0.3211 -0.4305 -0.1513
 9030SOL    HW138549   2.259   3.684  15.440  1.4075  2.6100  1.5501
 9030SOL    HW238550   2.168   3.716  15.321  0.4338 -0.7915 -1.7556
 9031SOL     OW38551   1.029   4.542   4.120 -0.1272  0.2420  0.1560
 9031SOL    HW138552   1.105   4.484   4.133 -0.0105  0.5103  0.6917
 9031SOL    HW238553   0.979   4.520   4.199 -0.3786 -0.7472 -0.2809
 9032SOL     OW38554   4.128   4.142   7.232  0.1996 -0.5918  0.5349
 9032SOL    HW138555   4.210   4.175   7.267  0.5769  0.3999 -1.2893
 9032SOL    HW238556   4.145   4.080   7.161 -2.6486 -1.0220  0.2346
 9033SOL     OW38557   2.453   3.881  12.370  0.2765 -0.4175 -0.0341
 9033SOL    HW138558   2.487   3.901  12.457 -1.3455  0.9141  0.2947
 9033SOL    HW238559   2.360   3.887  12.392  0.2776  0.0316 -0.1320
 9034SOL     OW38560   1.993   0.523   4.510  0.0243 -0.7363  0.2157
 9034SOL    HW138561   2.080   0.543   4.475 -0.5051  1.6927  0.2593
 9034SOL    HW238562   2.017   0.465   4.582  2.0705  2.0370  1.7611
 9035SOL     OW38563   3.942   1.327   9.441 -0.0995 -0.7063  0.1263
 9035SOL    HW138564   3.915   1.278   9.518 -0.0972 -0.0018  0.5728
 9035SOL    HW238565   4.035   1.303   9.437  0.0490 -0.3453  1.4142
 9036SOL     OW38566   3.044   0.315  14.778  0.5604  0.0459 -0.3634
 9036SOL    HW138567   3.045   0.267  14.695  1.2107  1.1554 -0.9914
 9036SOL    HW238568   2.974   0.379  14.767  1.1778  0.9947  1.1933
 9037SOL     OW38569   4.286   4.148   4.545  0.1205 -0.8922  0.4664
 9037SOL    HW138570   4.326   4.195   4.471 -2.0846  0.7649  0.3433
 9037SOL    HW238571   4.208   4.202   4.550 -0.1489 -1.1239 -1.0751
 9038SOL     OW38572   1.148   3.550  11.579 -0.2139  0.2278 -0.2323
 9038SOL    HW138573   1.133   3.606  11.503  0.0913 -1.4750 -1.5560
 9038SOL    HW238574   1.219   3.496  11.544 -1.2746 -1.2533 -0.0819
 9039SOL     OW38575   0.546   0.986  14.431 -0.1104 -0.3894  0.1023
 9039SOL    HW138576   0.504   0.950  14.509  1.6587 -1.6138  0.5020
 9039SOL    HW238577   0.603   0.915  14.400 -1.3881 -1.7055  0.7420
 9040SOL     OW38578   2.152   4.556   0.691 -0.0621  0.6702 -0.1249
 9040SOL    HW138579   2.074   4.532   0.740  0.8523  1.9256  1.9420
 9040SOL    HW238580   2.216   4.509   0.744 -1.1827  0.9936  1.5328
 9041SOL     OW38581   0.813   1.948  13.685 -0.1988  0.6600  0.5081
 9041SOL    HW138582   0.732   1.982  13.647 -1.1658 -0.3690  1.6407
 9041SOL    HW238583   0.791   1.959  13.778  0.7596 -0.2115  0.8382
 9042SOL     OW38584   1.128   0.055   9.712  0.4543 -0.1365 -0.3398
 9042SOL    HW138585   1.221   0.074   9.694  0.3825  0.5880  0.0601
 9042SOL    HW238586   1.119   0.067   9.806  0.5335 -0.5408 -0.2785
 9043SOL     OW38587   2.077   3.270   9.019 -0.4248  0.1012  0.3073
 9043SOL    HW138588   2.064   3.209   9.092 -5.7240  0.7572 -0.1082
 9043SOL    HW238589   2.140   3.225   8.964  0.0254 -1.7124  2.2776
 9044SOL     OW38590   4.024   4.697   5.544  0.6532 -0.0654 -0.1105
 9044SOL    HW138591   3.981   0.009   5.621 -0.4702 -2.5468  0.4604
 9044SOL    HW238592   3.983   4.612   5.554  0.9763 -0.0994  0.9460
 9045SOL     OW38593   1.924   3.365   5.120  0.0058 -0.1441  0.2623
 9045SOL    HW138594   1.918   3.291   5.181  1.1549 -0.0819  0.4469
 9045SOL    HW238595   1.837   3.360   5.081  0.4353  0.0625 -0.7363
 9046SOL     OW38596   0.999   2.363   8.582 -0.5903 -0.1666  0.5159
 9046SOL    HW138597   0.928   2.417   8.615  0.8932  3.1370 -1.7364
 9046SOL    HW238598   0.980   2.282   8.630 -2.6611 -0.5003 -0.8244
 9047SOL     OW38599   0.859   2.024   5.286 -0.0792  0.0202  0.1722
 9047SOL    HW138600   0.855   2.031   5.190  2.9056 -1.1344 -0.0448
 9047SOL    HW238601   0.766   2.008   5.296 -0.4801  3.3069  1.6274
 9048SOL     OW38602   1.890   0.678   2.655  0.0788 -0.0809  0.4045
 9048SOL    HW138603   1.844   0.594   2.650 -4.7001  2.6862 -2.3803
 9048SOL    HW238604   1.979   0.651   2.631 -1.3199 -4.8886  0.6294
 9049SOL     OW38605   2.612   4.680   5.193 -0.2903  0.0548 -0.4542
 9049SOL    HW138606   2.633   4.682   5.099 -0.1928 -2.6535 -0.4675
 9049SOL    HW238607   2.646   4.594   5.216  0.0943  0.2035 -0.4689
 9050SOL     OW38608   2.026   0.098  11.444  0.3284  0.5346 -0.4883
 9050SOL    HW138609   2.072   0.135  11.369 -0.1592 -0.3645 -1.2267
 9050SOL    HW238610   1.935   0.108  11.417 -0.0036 -1.5345 -0.1358
 9051SOL     OW38611   4.689   2.898   1.154  1.1612  0.2273 -0.4819
 9051SOL    HW138612   4.719   2.884   1.244  1.7193 -1.4652 -0.9269
 9051SOL    HW238613   0.050   2.914   1.115 -0.5173  1.3624 -3.7336
 9052SOL     OW38614   2.935   3.956  10.871 -0.1761  0.2261 -0.1957
 9052SOL    HW138615   2.971   4.021  10.811 -1.1494 -0.5123 -1.5830
 9052SOL    HW238616   2.996   3.884  10.857 -1.8492 -1.2581  0.0827
 9053SOL     OW38617   0.354   0.067   4.588 -0.4366  0.1224  0.6059
 9053SOL    HW138618   0.440   0.054   4.550 -0.4155 -0.9468  1.0382
 9053SOL    HW238619   0.306   0.119   4.524 -0.3257 -1.5272 -0.8072
 9054SOL     OW38620   2.009   3.199   6.432  0.2006  0.5903  0.2676
 9054SOL    HW138621   2.001   3.209   6.337  0.8877 -0.9657  0.0368
 9054SOL    HW238622   1.989   3.283   6.471  4.3074  2.4790 -1.6528
 9055SOL     OW38623   3.816   3.577   2.050 -0.1110 -0.1755  0.1167
 9055SOL    HW138624   3.784   3.622   1.972 -0.6902 -0.7357  0.0292
 9055SOL    HW238625   3.903   3.557   2.016  1.2139  1.5454  2.4540
 9056SOL     OW38626   2.201   1.858   8.742  0.4119  0.0164 -0.7613
 9056SOL    HW138627   2.259   1.931   8.762 -1.3344  1.1928 -0.0289
 9056SOL    HW238628   2.170   1.885   8.655 -1.2860 -0.9299 -0.4398
 9057SOL     OW38629   0.774   2.048   2.878  0.5176  0.0087  0.0968
 9057SOL    HW138630   0.750   2.121   2.936  1.5660  0.4908 -0.0700
 9057SOL    HW238631   0.781   2.094   2.794  1.4738  1.5643  1.0298
 9058SOL     OW38632   0.418   0.594   4.538 -0.5810 -0.3566  0.3975
 9058SOL    HW138633   0.482   0.532   4.572  2.1392  1.8707 -0.6153
 9058SOL    HW238634   0.421   0.568   4.446 -0.9180  0.6833  0.0819
 9059SOL     OW38635   2.190   0.850   6.625  0.7159  0.3014 -0.0133
 9059SOL    HW138636   2.153   0.915   6.565 -0.3144 -1.1653 -0.9516
 9059SOL    HW238637   2.195   0.777   6.564  1.6727  1.1153 -0.8938
 9060SOL     OW38638   1.840   2.312   2.588  0.4590 -0.4550  0.2761
 9060SOL    HW138639   1.822   2.336   2.497 -1.3557  0.0992  0.7761
 9060SOL    HW238640   1.844   2.399   2.627 -0.1138  0.1036 -0.9150
 9061SOL     OW38641   1.091   1.391   7.190 -0.5719  0.6231 -0.3992
 9061SOL    HW138642   1.086   1.437   7.106  2.3642  0.9836 -0.3938
 9061SOL    HW238643   1.183   1.411   7.209 -0.9547  2.5483 -0.5459
 9062SOL     OW38644   1.069   1.490   3.013 -0.0256 -0.5697 -0.4003
 9062SOL    HW138645   1.099   1.581   3.015  2.1754 -1.3123  0.9538
 9062SOL    HW238646   0.979   1.511   2.988  0.4754 -0.2036 -1.8839
 9063SOL     OW38647   4.615   3.161  11.212  0.2411  0.5562 -0.5320
 9063SOL    HW138648   4.698   3.202  11.188  0.6134 -0.1268 -0.4189
 9063SOL    HW238649   4.643   3.088  11.269  3.5842  0.2855 -2.5002
 9064SOL     OW38650   1.209   2.326   9.171 -0.7232  0.0314  0.3680
 9064SOL    HW138651   1.263   2.375   9.233 -0.4041 -1.0458  0.9333
 9064SOL    HW238652   1.266   2.253   9.146 -1.9546 -0.8604  0.2084
 9065SOL     OW38653   2.351   4.406   0.793 -0.0230  0.5994  0.1127
 9065SOL    HW138654   2.348   4.443   0.881  0.2827 -0.7041  0.6700
 9065SOL    HW238655   2.406   4.331   0.813  0.6866  0.3607 -2.7005
 9066SOL     OW38656   1.901   2.118   2.098  0.2139  0.0842 -0.2367
 9066SOL    HW138657   1.939   2.037   2.064  0.2541  0.0933 -0.2138
 9066SOL    HW238658   1.953   2.125   2.178  1.6768  0.0404 -1.1732
 9067SOL     OW38659   2.172   2.114   6.717 -0.3343 -0.5659  0.0754
 9067SOL    HW138660   2.243   2.154   6.767 -0.8067 -0.5675  0.7522
 9067SOL    HW238661   2.212   2.047   6.661  1.4400  3.7968 -3.9310
 9068SOL     OW38662   3.895   0.110   0.700 -0.5678  0.0380  0.2427
 9068SOL    HW138663   3.960   0.056   0.744 -1.4093 -0.5052  0.8141
 9068SOL    HW238664   3.904   0.078   0.610  0.7620 -0.4843  0.5674
 9069SOL     OW38665   2.281   0.708   7.600  0.0939  0.0021 -0.3006
 9069SOL    HW138666   2.216   0.700   7.529  0.3670 -0.1226 -0.5377
 9069SOL    HW238667   2.226   0.676   7.671  0.3542  0.5218  0.1313
 9070SOL     OW38668   0.138   2.214   7.084  0.4264 -0.3095 -0.0885
 9070SOL    HW138669   0.185   2.290   7.120  0.1851  0.0573 -0.5339
 9070SOL    HW238670   0.059   2.220   7.137  1.2940  1.5171  1.0013
 9071SOL     OW38671   3.210   2.159   9.690 -0.0502  0.0883 -0.3561
 9071SOL    HW138672   3.122   2.129   9.709 -0.6462  1.2447 -1.2591
 9071SOL    HW238673   3.230   2.207   9.770 -1.4557  0.1565 -0.0580
 9072SOL     OW38674   3.006   4.406   6.777 -0.0397  0.4807 -0.1960
 9072SOL    HW138675   2.951   4.427   6.852  1.2630  0.5592  0.7322
 9072SOL    HW238676   3.064   4.481   6.783 -0.2160  0.6567 -0.6962
 9073SOL     OW38677   1.256   2.693   7.050  0.8637 -0.2900  0.4731
 9073SOL    HW138678   1.269   2.632   7.121  1.0585 -0.7827  0.0127
 9073SOL    HW238679   1.288   2.638   6.979 -2.8362  0.0462 -1.4867
 9074SOL     OW38680   1.561   3.132   4.748  0.9334 -0.3164 -0.4784
 9074SOL    HW138681   1.561   3.194   4.675  2.1543 -0.8943 -0.9647
 9074SOL    HW238682   1.655   3.118   4.744  1.0531 -0.3181  2.1562
 9075SOL     OW38683   3.716   3.571   5.247 -0.1394 -1.1231  0.3690
 9075SOL    HW138684   3.744   3.492   5.294 -1.0351 -2.2352 -0.9755
 9075SOL    HW238685   3.621   3.563   5.253 -0.2199 -1.6721 -1.6540
 9076SOL     OW38686   1.217   0.904   1.338  0.2954  0.2384  0.0180
 9076SOL    HW138687   1.234   0.996   1.322  0.3074  0.1480 -0.4755
 9076SOL    HW238688   1.212   0.875   1.247  2.8582 -1.6466  0.4661
 9077SOL     OW38689   1.068   0.595   5.842  0.1026  0.5190  0.8236
 9077SOL    HW138690   1.086   0.678   5.797  1.4176  0.0206  0.4371
 9077SOL    HW238691   1.126   0.534   5.797 -0.5879  1.7720 -1.7469
 9078SOL     OW38692   2.407   3.836   1.955 -0.2633  0.3252 -0.2056
 9078SOL    HW138693   2.443   3.883   1.880 -0.1356 -0.0946 -0.4032
 9078SOL    HW238694   2.317   3.863   1.936 -1.4579 -3.3625  0.3458
 9079SOL     OW38695   2.905   0.168   3.364 -0.5116  0.1089  0.1785
 9079SOL    HW138696   2.978   0.107   3.374 -0.0666  0.8347  1.4669
 9079SOL    HW238697   2.922   0.194   3.274 -0.1176 -1.3000 -0.1577
 9080SOL     OW38698   3.372   3.403   5.695 -0.4694  0.1575  0.2694
 9080SOL    HW138699   3.312   3.329   5.699 -0.0097 -0.2408 -0.3734
 9080SOL    HW238700   3.317   3.464   5.645 -2.4715 -2.4572 -0.7365
 9081SOL     OW38701   1.865   3.311   4.657 -0.2833 -0.3293 -0.6319
 9081SOL    HW138702   1.774   3.322   4.629  0.1538  1.9794 -1.1339
 9081SOL    HW238703   1.905   3.325   4.572  0.2266  1.9191 -0.0242
 9082SOL     OW38704   2.121   2.812  14.045  0.2821  0.2544 -0.3322
 9082SOL    HW138705   2.076   2.837  14.126 -0.8374 -1.0162 -0.5478
 9082SOL    HW238706   2.131   2.718  14.059 -0.3205  0.4175  1.2514
 9083SOL     OW38707   0.799   3.033   3.838  0.3311 -0.2793 -0.5060
 9083SOL    HW138708   0.832   2.960   3.785 -0.8284 -0.1979 -1.3308
 9083SOL    HW238709   0.712   3.047   3.802 -1.4697 -1.1788  3.5238
 9084SOL     OW38710   1.074   4.333   5.393 -0.0759 -1.3127 -0.1170
 9084SOL    HW138711   1.118   4.330   5.478  1.9331 -2.2482 -1.2080
 9084SOL    HW238712   0.989   4.367   5.422  0.7341 -0.0765  0.8678
 9085SOL     OW38713   3.815   0.696   5.445 -0.3365  0.2363  0.7564
 9085SOL    HW138714   3.797   0.639   5.370 -2.8733  1.3440  0.5048
 9085SOL    HW238715   3.763   0.649   5.510  1.7656 -1.8868  0.8689
 9086SOL     OW38716   4.650   3.428  16.158  0.0681 -0.1595 -0.9686
 9086SOL    HW138717   4.597   3.506  16.144 -1.2510 -0.5967  1.4476
 9086SOL    HW238718   0.004   3.436  16.105  1.1537 -1.7366  0.3831
 9087SOL     OW38719   0.457   1.928   2.027 -0.2254 -0.2090  0.1750
 9087SOL    HW138720   0.372   1.897   2.060  0.4876 -2.4582 -0.0648
 9087SOL    HW238721   0.444   2.020   2.049  2.9894 -0.1951  2.0479
 9088SOL     OW38722   1.485   2.644   5.872 -0.4618 -0.0186  0.4107
 9088SOL    HW138723   1.501   2.558   5.833  2.8303  0.6020  0.3944
 9088SOL    HW238724   1.435   2.624   5.952  2.1805  1.0582  2.3163
 9089SOL     OW38725   2.271   1.342   5.396  0.0025 -0.1415 -0.0837
 9089SOL    HW138726   2.288   1.269   5.336  0.6629  1.6767 -2.0890
 9089SOL    HW238727   2.187   1.310   5.429  0.3415  0.3465  1.2684
 9090SOL     OW38728   2.161   3.050   0.004 -0.3489 -1.0501 -0.1863
 9090SOL    HW138729   2.156   3.113   0.075  0.4486 -0.5899 -0.5427
 9090SOL    HW238730   2.202   3.113  17.647  1.7661  0.2350  2.6549
 9091SOL     OW38731   3.432   1.746   8.248  0.3725  0.5621  0.4726
 9091SOL    HW138732   3.373   1.809   8.206  2.0324  1.6819 -0.1824
 9091SOL    HW238733   3.470   1.797   8.319  0.5227  0.5930  0.3689
 9092SOL     OW38734   0.849   3.846   5.159  0.4088  0.6494  0.4945
 9092SOL    HW138735   0.908   3.792   5.212  0.0989 -0.2347 -0.0593
 9092SOL    HW238736   0.888   3.933   5.170 -0.7717  1.2371  0.0328
 9093SOL     OW38737   0.185   3.903  16.623  0.4400  0.0340  0.2366
 9093SOL    HW138738   0.143   3.845  16.559 -1.8507  1.3540  0.5296
 9093SOL    HW238739   0.270   3.860  16.620 -0.4360 -1.7600  1.4016
 9094SOL     OW38740   4.309   4.513   2.927  0.5106  0.7443 -0.0539
 9094SOL    HW138741   4.289   4.462   2.848  1.9283  3.8161 -2.4201
 9094SOL    HW238742   4.233   4.569   2.936  0.0558 -0.0725  1.0950
 9095SOL     OW38743   3.166   3.686  15.743  0.1312 -0.1728 -0.3429
 9095SOL    HW138744   3.221   3.672  15.665 -0.2986 -2.0282 -0.3178
 9095SOL    HW238745   3.193   3.605  15.786  1.7102 -0.2728 -1.4990
 9096SOL     OW38746   0.569   0.724   2.406 -0.3206 -0.4694  0.1243
 9096SOL    HW138747   0.505   0.746   2.338  0.4844  0.2351 -0.4180
 9096SOL    HW238748   0.626   0.801   2.413 -1.0161 -0.0941  1.5413
 9097SOL     OW38749   2.206   3.053   0.761  0.2937  0.3848 -0.3655
 9097SOL    HW138750   2.200   3.069   0.855  1.7576  0.4342 -0.2680
 9097SOL    HW238751   2.246   2.966   0.752  2.0451  1.2170 -0.6585
 9098SOL     OW38752   0.030   3.183  12.316  0.3730 -0.1206  0.1905
 9098SOL    HW138753   4.720   3.205  12.403  0.4585 -0.5787  0.3390
 9098SOL    HW238754   0.104   3.244  12.322  0.9143 -1.0000  2.6700
 9099SOL     OW38755   1.259   2.517   8.322  0.5418  0.3146  0.9521
 9099SOL    HW138756   1.233   2.530   8.413 -1.3581  2.3956  0.1125
 9099SOL    HW238757   1.260   2.605   8.286  0.2616 -0.5431 -1.1592
 9100SOL     OW38758   1.404   0.140   5.040  0.4194  0.0608  0.2020
 9100SOL    HW138759   1.365   0.090   5.111  1.5175 -1.8008 -0.4967
 9100SOL    HW238760   1.496   0.118   5.054  0.1260 -0.6709  0.9788
 9101SOL     OW38761   4.409   4.707  15.008  0.5274  0.6504 -0.0002
 9101SOL    HW138762   4.371   4.625  15.040  3.6502 -0.6684  0.4012
 9101SOL    HW238763   4.500   4.699  15.038  0.6191 -0.3208 -0.5497
 9102SOL     OW38764   0.754   2.627   4.544 -0.2048 -0.6629 -0.0992
 9102SOL    HW138765   0.837   2.675   4.547 -0.0511 -0.8879 -0.5671
 9102SOL    HW238766   0.740   2.620   4.449  2.2999 -1.7491 -0.3926
 9103SOL     OW38767   2.865   3.615   4.786 -0.0983 -0.3589  0.4075
 9103SOL    HW138768   2.791   3.615   4.847 -0.4864  0.3336 -0.0612
 9103SOL    HW238769   2.922   3.553   4.831  1.2698  0.4645 -0.1961
 9104SOL     OW38770   4.494   2.518   6.803  0.1531 -0.4784  0.1797
 9104SOL    HW138771   4.416   2.499   6.855 -1.3374 -0.6891 -2.1297
 9104SOL    HW238772   4.445   2.506   6.722  0.3245  0.9882 -0.1578
 9105SOL     OW38773   1.959   3.598   4.225 -0.2872  0.1352  0.4357
 9105SOL    HW138774   1.903   3.675   4.232 -1.2692 -0.5616  0.2867
 9105SOL    HW238775   1.896   3.527   4.212 -0.7302  0.2945  1.7775
 9106SOL     OW38776   2.742   2.479   3.771  0.7982 -0.1155  0.2351
 9106SOL    HW138777   2.837   2.474   3.778  0.8261 -1.8882 -1.4404
 9106SOL    HW238778   2.728   2.505   3.862  0.6986 -0.0183  0.1915
 9107SOL     OW38779   3.563   0.969   2.651  0.0399 -0.2022 -0.0238
 9107SOL    HW138780   3.603   1.051   2.680 -0.6392 -1.0306  3.2823
 9107SOL    HW238781   3.470   0.994   2.653  1.2227  4.0312  1.5590
 9108SOL     OW38782   3.583   0.260  12.094  0.0502 -0.1742  0.3383
 9108SOL    HW138783   3.655   0.235  12.152 -1.3218 -1.0536  1.6511
 9108SOL    HW238784   3.508   0.222  12.140 -0.7192  1.2919  0.2835
 9109SOL     OW38785   2.725   0.313   8.667 -0.1988 -0.1490 -0.4176
 9109SOL    HW138786   2.643   0.323   8.619 -1.3233  1.2609  1.8206
 9109SOL    HW238787   2.686   0.290   8.752 -0.8358  1.0880 -0.3716
 9110SOL     OW38788   1.120   3.580   4.627  0.3181 -0.1802  0.5699
 9110SOL    HW138789   1.076   3.647   4.679  0.6548 -1.5612  2.6388
 9110SOL    HW238790   1.050   3.565   4.563  1.0816 -1.3812  0.0167
 9111SOL     OW38791   2.742   3.696  17.339 -0.4934  0.2078 -0.6863
 9111SOL    HW138792   2.774   3.697  17.429  1.3033 -1.2443 -1.3115
 9111SOL    HW238793   2.727   3.601  17.338 -0.5661  0.1946  1.3462
 9112SOL     OW38794   4.674   0.456   7.922 -0.0162  0.2994  0.5769
 9112SOL    HW138795   0.004   0.386   7.956  1.0997  1.5027  1.2539
 9112SOL    HW238796   4.629   0.480   8.004  0.5511  0.1746  0.9197
 9113SOL     OW38797   3.851   3.946   0.365 -0.5140 -0.0442 -0.2960
 9113SOL    HW138798   3.936   3.911   0.392 -0.0728  1.9246  0.9092
 9113SOL    HW238799   3.856   3.942   0.269 -1.2635  0.8378 -0.3735
 9114SOL     OW38800   0.977   0.710   0.663 -0.4138  0.3269  0.0803
 9114SOL    HW138801   0.975   0.737   0.571  0.1636  2.2666  0.6575
 9114SOL    HW238802   0.967   0.615   0.658 -0.9856  0.4407 -1.0335
 9115SOL     OW38803   4.430   2.648   8.301 -0.1754 -0.2557 -0.1848
 9115SOL    HW138804   4.359   2.638   8.238 -1.5301  3.0857  0.8524
 9115SOL    HW238805   4.375   2.667   8.377 -1.5933  0.9201 -1.5257
 9116SOL     OW38806   1.081   3.687   2.755  1.0669  0.5716  0.3288
 9116SOL    HW138807   1.170   3.719   2.775  1.4451 -1.5507  2.0207
 9116SOL    HW238808   1.046   3.767   2.717  1.2682  1.2144  1.4891
 9117SOL     OW38809   1.515   2.079   9.976  0.0282  0.7705  0.2264
 9117SOL    HW138810   1.477   2.117   9.897  0.1711  0.0038 -0.2128
 9117SOL    HW238811   1.466   2.135  10.036 -0.5006 -0.3408  0.8417
 9118SOL     OW38812   2.681   3.502   2.390 -0.5067 -0.2955  0.1158
 9118SOL    HW138813   2.685   3.597   2.404 -0.3465 -0.3066  0.1386
 9118SOL    HW238814   2.588   3.484   2.403 -0.6635  1.2299  1.0727
 9119SOL     OW38815   2.337   2.665   6.602 -0.3380 -0.3061 -0.2084
 9119SOL    HW138816   2.306   2.576   6.618  4.0060 -2.1278 -1.7960
 9119SOL    HW238817   2.257   2.706   6.633 -0.6548 -1.4259  0.4502
 9120SOL     OW38818   1.161   2.403  15.107 -0.3008 -0.1999  0.3857
 9120SOL    HW138819   1.088   2.416  15.046  0.6141 -1.8689 -1.0618
 9120SOL    HW238820   1.236   2.384  15.051  0.5718  1.3814  0.9971
 9121SOL     OW38821   3.268   3.757   7.307 -0.1279  0.3011  0.7875
 9121SOL    HW138822   3.357   3.778   7.279 -0.5791  0.2070 -0.7129
 9121SOL    HW238823   3.241   3.843   7.338  1.4270  0.6599  1.1492
 9122SOL     OW38824   3.795   0.187  15.561 -0.1926 -0.3695  0.4004
 9122SOL    HW138825   3.814   0.274  15.528 -0.5851 -0.0150  1.0998
 9122SOL    HW238826   3.735   0.165  15.490  1.4897 -0.6405 -0.9124
 9123SOL     OW38827   0.607   3.940   3.665  0.1109 -0.0604 -0.3538
 9123SOL    HW138828   0.602   4.011   3.729  2.4121 -0.8553  0.7044
 9123SOL    HW238829   0.655   3.986   3.596 -1.3652 -0.3035 -1.5404
 9124SOL     OW38830   0.404   3.756   6.254 -0.5530 -0.0092  0.2107
 9124SOL    HW138831   0.455   3.836   6.240 -1.7983  0.4641 -1.6793
 9124SOL    HW238832   0.381   3.723   6.167  0.2924 -2.1697  0.8016
 9125SOL     OW38833   0.126   2.488   5.238  0.2100 -0.8263 -0.0573
 9125SOL    HW138834   0.043   2.532   5.220  0.6623  1.8945  4.3248
 9125SOL    HW238835   0.184   2.560   5.213 -0.1819 -1.4927 -2.8810
 9126SOL     OW38836   3.662   3.717  15.676  0.2759 -0.9572 -0.5044
 9126SOL    HW138837   3.671   3.799  15.725 -2.5530 -3.0663  3.5477
 9126SOL    HW238838   3.587   3.745  15.624 -0.4688 -0.7538  0.6753
 9127SOL     OW38839   2.179   3.813  13.900  0.6873  0.0562  0.1638
 9127SOL    HW138840   2.110   3.777  13.956  1.9553 -0.7330  1.2228
 9127SOL    HW238841   2.137   3.868  13.833 -1.5421 -1.8580 -0.0108
 9128SOL     OW38842   3.812   4.081   6.265  0.0564 -0.9088  0.0664
 9128SOL    HW138843   3.720   4.063   6.247 -0.3311  1.3188 -0.1356
 9128SOL    HW238844   3.847   3.994   6.282  1.1125  0.1378  3.1439
 9129SOL     OW38845   1.699   3.471   7.879  0.4106  0.3504 -0.4984
 9129SOL    HW138846   1.749   3.435   7.952 -2.3769  0.7143  1.5838
 9129SOL    HW238847   1.615   3.440   7.912  0.7537 -1.0418 -0.9090
 9130SOL     OW38848   2.100   1.280   3.463 -0.4688 -0.4270 -0.4413
 9130SOL    HW138849   2.082   1.259   3.371 -0.2646 -0.8783 -0.3756
 9130SOL    HW238850   2.011   1.295   3.494 -0.0001  0.7959  0.2885
 9131SOL     OW38851   0.478   2.416  17.631  0.2093 -0.8477  0.6502
 9131SOL    HW138852   0.573   2.418  17.648  0.3172 -0.2172 -0.0467
 9131SOL    HW238853   0.474   2.326  17.598  0.7280 -1.0506  1.1184
 9132SOL     OW38854   3.405   3.850   5.755 -0.1090  0.1441  0.4096
 9132SOL    HW138855   3.447   3.766   5.734 -1.8076 -0.6601  0.2394
 9132SOL    HW238856   3.440   3.872   5.841 -1.5318 -0.6511  1.1842
 9133SOL     OW38857   0.463   2.992   7.577 -0.1658 -0.2686  0.4566
 9133SOL    HW138858   0.511   2.993   7.494 -1.3419 -5.3246 -0.2825
 9133SOL    HW238859   0.394   3.057   7.574  0.7740  0.7261  0.4382
 9134SOL     OW38860   3.200   0.761  14.051  0.6668  0.8235 -0.1625
 9134SOL    HW138861   3.282   0.711  14.047  1.3233  1.6980  2.4543
 9134SOL    HW238862   3.227   0.821  14.119  1.0198 -0.0229  0.4470
 9135SOL     OW38863   3.503   1.810   7.549 -0.1246  0.1659  0.1678
 9135SOL    HW138864   3.596   1.786   7.547 -0.6490 -1.7779 -0.3555
 9135SOL    HW238865   3.512   1.889   7.495  1.5848 -1.8084 -2.5075
 9136SOL     OW38866   2.214   4.219   2.358 -0.3204 -0.6803  0.6710
 9136SOL    HW138867   2.263   4.169   2.293 -2.2343  0.8337 -1.9415
 9136SOL    HW238868   2.185   4.294   2.305  2.3888  0.3562  0.6853
 9137SOL     OW38869   4.456   3.550   6.983  0.2935 -0.0730 -0.0687
 9137SOL    HW138870   4.514   3.507   7.046  1.4913  1.0814 -0.3901
 9137SOL    HW238871   4.475   3.637   7.017 -0.0266 -0.0187 -0.0377
 9138SOL     OW38872   3.765   2.821   2.293 -0.6167 -0.0385 -0.0307
 9138SOL    HW138873   3.779   2.834   2.200  0.9180  0.6537  0.2926
 9138SOL    HW238874   3.717   2.899   2.320 -2.2231 -0.6156 -1.2437
 9139SOL     OW38875   2.237   2.665  11.298  0.1722 -0.4791  0.4228
 9139SOL    HW138876   2.223   2.760  11.298  1.9038 -0.2128 -0.3142
 9139SOL    HW238877   2.235   2.642  11.205  0.2437 -1.0834  0.5711
 9140SOL     OW38878   0.601   1.447   9.079 -0.6298 -0.2613 -0.0204
 9140SOL    HW138879   0.672   1.512   9.087  0.0024 -0.4698 -4.0480
 9140SOL    HW238880   0.562   1.477   8.997 -1.5386 -0.4379  0.3539
 9141SOL     OW38881   1.707   1.662   7.302 -0.2622 -0.4201 -0.1068
 9141SOL    HW138882   1.646   1.635   7.371 -2.3045  1.7757 -1.0355
 9141SOL    HW238883   1.757   1.582   7.288  0.9026  0.1203  0.9689
 9142SOL     OW38884   0.252   2.611   7.666 -0.3347 -0.1103 -0.2624
 9142SOL    HW138885   0.224   2.663   7.741  0.6480 -1.4223  1.0386
 9142SOL    HW238886   0.168   2.582   7.631 -0.7401  1.9793 -0.9886
 9143SOL     OW38887   3.390   3.097   9.167 -0.5673  0.1977 -0.5321
 9143SOL    HW138888   3.323   3.132   9.226  0.0146  1.4151 -0.5971
 9143SOL    HW238889   3.467   3.096   9.224  0.6465  1.2639 -2.1502
 9144SOL     OW38890   0.171   3.985   3.862 -0.4833 -0.0014  0.2463
 9144SOL    HW138891   0.159   3.975   3.768  1.6061  1.0637 -0.1354
 9144SOL    HW238892   0.203   4.074   3.878  0.9484 -0.8272  2.0578
 9145SOL     OW38893   2.232   4.175   2.676  0.1590  0.2365 -0.0080
 9145SOL    HW138894   2.235   4.268   2.701 -0.1682  0.4505 -0.7423
 9145SOL    HW238895   2.191   4.179   2.589  1.1953 -1.5516 -0.5870
 9146SOL     OW38896   1.800   2.998   3.268  0.0523  0.4587  0.4072
 9146SOL    HW138897   1.834   2.912   3.293 -0.6890 -0.2976 -1.1985
 9146SOL    HW238898   1.866   3.056   3.307  0.1956  0.4137  0.2347
 9147SOL     OW38899   2.076   4.443   0.927 -0.4609  0.7439  0.1971
 9147SOL    HW138900   2.168   4.455   0.952 -0.0986  0.1219 -0.7946
 9147SOL    HW238901   2.075   4.348   0.912 -0.2519  0.5971  1.1124
 9148SOL     OW38902   1.288   4.127   7.650 -0.0289 -0.3349  0.3424
 9148SOL    HW138903   1.355   4.167   7.595 -2.4037  0.7136 -1.8041
 9148SOL    HW238904   1.319   4.036   7.657 -0.8840 -0.6743 -0.1842
 9149SOL     OW38905   1.490   2.751   3.195 -0.3771  0.3448  0.7019
 9149SOL    HW138906   1.551   2.701   3.142 -2.0644 -0.6737 -0.2898
 9149SOL    HW238907   1.523   2.837   3.168 -1.0160  0.2291 -0.4182
 9150SOL     OW38908   3.999   1.683  15.426 -0.1374 -0.3419  0.3411
 9150SOL    HW138909   4.066   1.668  15.493 -0.5404  1.3712  1.1563
 9150SOL    HW238910   3.934   1.724  15.483 -0.8951 -3.0208  1.3947
 9151SOL     OW38911   0.103   1.590   9.533 -0.6115 -0.0938 -0.4316
 9151SOL    HW138912   0.054   1.546   9.464  1.5665 -1.2867 -1.1935
 9151SOL    HW238913   0.187   1.546   9.523  0.6057  2.5054 -1.7727
 9152SOL     OW38914   2.244   2.666   3.511  0.0206  0.4660 -0.6077
 9152SOL    HW138915   2.249   2.638   3.602 -0.7495 -1.2694 -1.1041
 9152SOL    HW238916   2.205   2.590   3.469  1.2625 -0.8408  0.6279
 9153SOL     OW38917   3.691   4.084   2.992  0.5410  0.0978  0.2663
 9153SOL    HW138918   3.676   4.145   3.064  1.0957  0.1674  0.3158
 9153SOL    HW238919   3.695   4.153   2.926  1.5674  0.2125  0.4489
 9154SOL     OW38920   0.312   2.992  10.740 -0.5802 -0.0201  0.7247
 9154SOL    HW138921   0.355   2.909  10.720  4.0348  2.6806 -0.5441
 9154SOL    HW238922   0.363   3.051  10.684 -0.0641 -0.7029  0.4723
 9155SOL     OW38923   3.180   0.179  14.974  0.0853 -0.1951  0.2117
 9155SOL    HW138924   3.139   0.227  14.903  0.0409 -1.5898 -0.7045
 9155SOL    HW238925   3.268   0.217  14.976 -1.3033  2.9531  0.6243
 9156SOL     OW38926   3.596   2.602   9.058  0.0976 -0.4921  0.6442
 9156SOL    HW138927   3.580   2.553   9.139 -0.6886 -0.5069  0.4786
 9156SOL    HW238928   3.578   2.538   8.990 -0.7389 -1.3528  1.6684
 9157SOL     OW38929   2.266   4.718   4.200  0.3813  0.3618  0.1281
 9157SOL    HW138930   2.360   0.007   4.210  0.7883 -0.5032 -2.3714
 9157SOL    HW238931   2.270   4.656   4.127  1.2750 -0.8186  1.1932
 9158SOL     OW38932   0.047   1.826   3.298 -0.0803  0.5630 -0.1409
 9158SOL    HW138933   0.082   1.915   3.292  0.6896  0.3268  0.8238
 9158SOL    HW238934   0.084   1.786   3.219 -0.1738  0.9524 -0.3837
 9159SOL     OW38935   3.192   2.848   1.817 -0.3784  0.2584 -0.0840
 9159SOL    HW138936   3.156   2.937   1.812 -1.9598 -0.3185  0.9276
 9159SOL    HW238937   3.265   2.870   1.875  0.0839  0.3917 -0.7154
 9160SOL     OW38938   4.429   0.010   9.157  0.1009  0.3729 -0.3773
 9160SOL    HW138939   4.439   0.105   9.160  1.1083  0.2608 -0.2991
 9160SOL    HW238940   4.481   4.714   9.234 -0.0128 -0.2264 -0.4609
 9161SOL     OW38941   4.554   3.158  12.809  0.3085  0.2563 -0.6129
 9161SOL    HW138942   4.472   3.160  12.858  0.7705  3.7155  0.0567
 9161SOL    HW238943   4.589   3.075  12.841 -0.8568 -0.2402 -0.6165
 9162SOL     OW38944   3.476   1.529   0.199  0.0213 -0.4331 -0.1659
 9162SOL    HW138945   3.499   1.605   0.252  0.8333  0.8454 -2.3356
 9162SOL    HW238946   3.545   1.462   0.203 -1.0020 -1.4267  0.7768
 9163SOL     OW38947   2.450   1.102   5.900  0.2092  0.5990  0.2870
 9163SOL    HW138948   2.382   1.158   5.863 -0.1798  0.2490  0.4779
 9163SOL    HW238949   2.398   1.047   5.958  0.6242 -2.2398 -2.0379
 9164SOL     OW38950   1.984   2.764   8.132 -0.6551  0.3299 -0.5214
 9164SOL    HW138951   2.018   2.854   8.133  0.8453 -0.2382  0.5381
 9164SOL    HW238952   1.963   2.750   8.040  1.4266 -0.7026 -0.8576
 9165SOL     OW38953   4.553   2.919   5.625 -0.7936 -0.8502 -0.0342
 9165SOL    HW138954   4.545   3.014   5.635 -0.0811 -0.8088  0.1656
 9165SOL    HW238955   4.584   2.891   5.711  0.4458  0.6376 -0.0015
 9166SOL     OW38956   3.784   4.064  15.573  0.0413 -0.0128  0.2091
 9166SOL    HW138957   3.730   4.107  15.640  2.7440  2.8333  0.5517
 9166SOL    HW238958   3.841   4.131  15.535 -0.2084 -0.2726 -0.6372
 9167SOL     OW38959   1.823   1.892   3.204  0.0885 -0.5093 -0.0777
 9167SOL    HW138960   1.780   1.810   3.179 -0.3034 -0.3872  0.1982
 9167SOL    HW238961   1.779   1.951   3.143 -1.4884  0.9304  2.4262
 9168SOL     OW38962   0.858   0.122   4.848 -0.3691 -0.2702 -0.4581
 9168SOL    HW138963   0.881   0.187   4.782 -1.4752 -0.9200 -1.4923
 9168SOL    HW238964   0.857   0.173   4.929 -0.6070 -0.6357 -0.2329
 9169SOL     OW38965   1.788   0.687   3.393 -0.1200  0.6021 -0.4219
 9169SOL    HW138966   1.810   0.763   3.338 -1.7446  0.4668 -1.2667
 9169SOL    HW238967   1.814   0.725   3.476  1.4268  0.1391 -0.6991
 9170SOL     OW38968   2.558   1.099   4.037  0.1809  0.4504 -0.6114
 9170SOL    HW138969   2.605   1.181   4.049  2.2177 -0.5905 -1.3990
 9170SOL    HW238970   2.538   1.103   3.943  0.5639  0.0553 -0.7120
 9171SOL     OW38971   2.885   4.400   3.906 -0.3998 -0.0581  0.0152
 9171SOL    HW138972   2.958   4.359   3.860  0.5027  0.6779  0.8102
 9171SOL    HW238973   2.862   4.469   3.843  1.8561 -0.5704 -1.3751
 9172SOL     OW38974   3.147   4.089  16.802 -0.3765  0.0215 -0.0682
 9172SOL    HW138975   3.119   4.084  16.893 -1.1740  1.8080 -0.2114
 9172SOL    HW238976   3.158   3.994  16.801 -0.7736 -0.0389  1.8895
 9173SOL     OW38977   3.223   1.490   3.046 -1.1598 -0.4499 -0.1612
 9173SOL    HW138978   3.211   1.415   2.988 -1.6960  1.1118 -2.0418
 9173SOL    HW238979   3.171   1.547   2.991  0.9207  1.2016 -0.4103
 9174SOL     OW38980   3.029   2.667   6.812 -0.1331  0.3055 -0.1982
 9174SOL    HW138981   3.098   2.722   6.774 -1.3935  2.9171  1.3147
 9174SOL    HW238982   2.955   2.670   6.751 -0.9550 -0.3522  0.7732
 9175SOL     OW38983   1.507   4.520  10.965  0.0493  0.1820  0.6720
 9175SOL    HW138984   1.571   4.497  10.897 -0.9725  0.7827 -0.4649
 9175SOL    HW238985   1.505   4.615  10.956 -1.1035 -0.1188 -2.2210
 9176SOL     OW38986   2.133   4.134   7.323  0.1923 -0.1483  0.2358
 9176SOL    HW138987   2.188   4.056   7.311 -2.1735 -2.0233  1.5818
 9176SOL    HW238988   2.136   4.179   7.239 -1.4416  0.5371  0.5544
 9177SOL     OW38989   1.841   1.211   6.246  0.0574  0.1938 -0.1672
 9177SOL    HW138990   1.768   1.150   6.255 -0.7548  1.3365  0.9412
 9177SOL    HW238991   1.790   1.272   6.193 -0.0363  2.2150  2.2720
 9178SOL     OW38992   1.294   4.434   3.942 -1.4926  0.2055 -0.1652
 9178SOL    HW138993   1.300   4.529   3.943 -0.0178  0.0941  1.7269
 9178SOL    HW238994   1.388   4.419   3.930 -1.5909  0.0343 -0.7451
 9179SOL     OW38995   4.444   3.469  10.071  0.2617 -0.1381  0.5478
 9179SOL    HW138996   4.532   3.501  10.049  0.4651 -3.3775 -3.2115
 9179SOL    HW238997   4.412   3.545  10.120  1.8025  0.9840 -0.1867
 9180SOL     OW38998   4.090   0.676  16.264 -0.0697 -0.2376 -0.3697
 9180SOL    HW138999   4.069   0.632  16.182  1.0945  0.4496 -1.0156
 9180SOL    HW239000   4.031   0.751  16.266  0.0254 -0.1755  0.1490
 9181SOL     OW39001   0.085   2.643   5.785 -0.0417  0.2294 -0.1245
 9181SOL    HW139002   0.086   2.738   5.796 -1.7619  0.2560 -0.2457
 9181SOL    HW239003   0.087   2.610   5.875 -1.0416 -1.9733 -0.9231
 9182SOL     OW39004   0.927   2.772   9.161 -0.6982 -0.1003  0.0859
 9182SOL    HW139005   0.913   2.804   9.250  0.3874 -1.4984  0.7625
 9182SOL    HW239006   0.959   2.689   9.196 -1.4570  0.1219  1.2969
 9183SOL     OW39007   3.416   0.915   5.765 -0.6603 -0.0522 -0.2000
 9183SOL    HW139008   3.486   0.924   5.701  2.2221 -2.4381  2.5659
 9183SOL    HW239009   3.404   1.006   5.791  0.3718 -0.0988  0.4624
 9184SOL     OW39010   3.688   0.778  10.516 -0.2677 -0.3650  0.0356
 9184SOL    HW139011   3.674   0.839  10.443 -3.0378  2.3695  2.8020
 9184SOL    HW239012   3.688   0.839  10.590  0.6396 -0.4799  0.1180
 9185SOL     OW39013   3.670   1.105   3.309 -0.0446  0.1078 -0.3549
 9185SOL    HW139014   3.762   1.091   3.287 -0.0150 -1.4414  0.7729
 9185SOL    HW239015   3.647   1.156   3.232 -0.6032  1.9012  0.9865
 9186SOL     OW39016   3.619   4.657  10.443 -0.1835  0.6427  0.3228
 9186SOL    HW139017   3.560   4.717  10.490 -0.2967  0.0579  0.9239
 9186SOL    HW239018   3.631   4.693  10.355  3.2424 -0.7299  0.2587
 9187SOL     OW39019   0.240   4.075   1.039 -0.8788  0.0289 -0.4236
 9187SOL    HW139020   0.195   3.992   1.053 -2.4123  1.3328  2.4184
 9187SOL    HW239021   0.278   4.092   1.125  1.4009  0.0072 -1.4492
 9188SOL     OW39022   4.204   3.179   8.478 -0.5593  0.1007  0.3385
 9188SOL    HW139023   4.237   3.117   8.544 -0.1157  0.8782  0.8473
 9188SOL    HW239024   4.252   3.139   8.405 -1.5437  0.2503 -0.3784
 9189SOL     OW39025   0.841   3.304   4.143 -0.2412  0.4170  0.0670
 9189SOL    HW139026   0.918   3.251   4.121 -0.3504 -1.4828  4.3230
 9189SOL    HW239027   0.852   3.377   4.081  1.1168  1.2120  1.2367
 9190SOL     OW39028   2.680   0.592   4.901  0.1325  0.2146 -0.4639
 9190SOL    HW139029   2.638   0.544   4.972 -0.5064  0.2747 -0.7964
 9190SOL    HW239030   2.615   0.587   4.831  0.4496  1.3884 -0.8514
 9191SOL     OW39031   3.967   1.710  16.331 -0.0706 -0.1816 -0.0785
 9191SOL    HW139032   3.903   1.756  16.276 -1.6834  0.8643  2.7027
 9191SOL    HW239033   4.015   1.647  16.277 -0.1061 -1.2999  1.2083
 9192SOL     OW39034   4.623   0.155   1.944 -0.1934  0.0446  0.1797
 9192SOL    HW139035   4.655   0.198   2.024  1.6390 -0.3948 -0.3233
 9192SOL    HW239036   4.533   0.128   1.964 -0.4248 -0.9054 -2.2173
 9193SOL     OW39037   4.575   1.019  10.496 -0.2793  0.5366 -0.3074
 9193SOL    HW139038   4.545   1.091  10.551  0.4247  0.3489  0.3180
 9193SOL    HW239039   4.505   1.008  10.432  0.9253 -0.2468 -1.4950
 9194SOL     OW39040   3.866   3.439   4.187 -0.2947  0.3033  0.1501
 9194SOL    HW139041   3.801   3.506   4.163  0.3868  0.8566 -0.1439
 9194SOL    HW239042   3.905   3.431   4.100  1.3030 -0.6476  0.9609
 9195SOL     OW39043   1.635   4.226   3.325  0.1029  0.0302  0.0087
 9195SOL    HW139044   1.689   4.298   3.358  0.3141 -0.6115  1.0609
 9195SOL    HW239045   1.557   4.237   3.380 -0.7448 -0.7161 -1.0376
 9196SOL     OW39046   1.441   0.468   4.137 -0.2635 -0.0287  0.0796
 9196SOL    HW139047   1.427   0.454   4.043 -0.4690 -0.1527  0.1293
 9196SOL    HW239048   1.534   0.470   4.158 -0.2282 -3.4797  0.2108
 9197SOL     OW39049   4.438   3.678   9.831  0.3318 -0.4875 -0.4602
 9197SOL    HW139050   4.491   3.753   9.856  1.3526 -0.7073 -1.9811
 9197SOL    HW239051   4.503   3.623   9.788 -0.0224 -2.6361  1.7189
 9198SOL     OW39052   2.662   0.920   6.125 -0.5771 -0.3138  0.3803
 9198SOL    HW139053   2.592   0.866   6.087 -1.1466  1.2548 -0.7949
 9198SOL    HW239054   2.618   1.004   6.131  2.0121  1.0083  0.5618
 9199SOL     OW39055   1.679   4.567   2.116  0.2649  0.4167 -0.7528
 9199SOL    HW139056   1.691   4.642   2.058  0.2409  0.4754 -0.6811
 9199SOL    HW239057   1.589   4.580   2.144  0.9008 -0.4520  1.7013
 9200SOL     OW39058   4.236   2.264   9.310  0.1496 -0.0411  0.1243
 9200SOL    HW139059   4.291   2.325   9.360  0.3315 -1.3011  1.4673
 9200SOL    HW239060   4.156   2.316   9.313 -0.5461 -1.1326  0.3660
 9201SOL     OW39061   3.421   3.279  14.595 -0.2003 -0.0680 -0.1910
 9201SOL    HW139062   3.370   3.286  14.515  3.3923  0.1359 -2.4642
 9201SOL    HW239063   3.487   3.342  14.567 -0.7949 -0.0425 -1.4978
 9202SOL     OW39064   3.739   0.079   7.484  0.3687 -0.0931  0.2526
 9202SOL    HW139065   3.651   0.058   7.514  0.9280 -1.6948  0.7976
 9202SOL    HW239066   3.749   0.008   7.421  0.2373 -0.9149  1.1608
 9203SOL     OW39067   2.065   2.227   3.195  0.1868 -1.4412  0.5192
 9203SOL    HW139068   2.150   2.256   3.228  0.5792 -0.3424 -1.4347
 9203SOL    HW239069   2.075   2.183   3.110  0.6782  1.8919 -1.1786
 9204SOL     OW39070   0.877   2.563   8.278  0.5609 -0.1030 -0.2355
 9204SOL    HW139071   0.812   2.596   8.340 -1.7521 -0.2129 -2.5858
 9204SOL    HW239072   0.834   2.486   8.239  2.0362 -0.4485 -1.1930
 9205SOL     OW39073   0.942   1.450   6.814  0.3476 -0.2701  0.3498
 9205SOL    HW139074   1.002   1.519   6.841 -0.6981  1.1561 -0.9464
 9205SOL    HW239075   0.934   1.385   6.884  0.7640 -0.2286  0.4355
 9206SOL     OW39076   2.960   0.088   4.401  0.4388 -0.0173 -0.2524
 9206SOL    HW139077   3.018   0.102   4.476 -0.0676 -1.5955  0.4249
 9206SOL    HW239078   2.883   0.135   4.432  0.9125 -0.5719  1.7744
 9207SOL     OW39079   0.116   4.573  10.911 -0.0857 -0.1802 -0.3132
 9207SOL    HW139080   0.092   4.550  11.001 -0.5066 -1.6996 -0.8154
 9207SOL    HW239081   0.183   4.639  10.932  0.6988 -1.4642  1.1755
 9208SOL     OW39082   2.170   0.442  10.497 -0.0334 -0.1108  0.2331
 9208SOL    HW139083   2.076   0.429  10.494  0.0571 -1.4059  2.9636
 9208SOL    HW239084   2.204   0.353  10.483 -0.3075 -0.0229 -1.0102
 9209SOL     OW39085   1.572   4.099   6.773 -0.1846  0.3533  0.1759
 9209SOL    HW139086   1.534   4.067   6.691 -0.0703  2.3614 -0.6452
 9209SOL    HW239087   1.500   4.070   6.828 -2.6240  1.8969 -2.1991
 9210SOL     OW39088   3.278   2.669   2.067 -0.6200  0.5336 -0.1706
 9210SOL    HW139089   3.340   2.612   2.112 -1.2070  0.8239  1.0155
 9210SOL    HW239090   3.313   2.646   1.981 -2.3687  0.3152 -0.8180
 9211SOL     OW39091   0.601   3.589   3.598  0.0275 -0.1539 -0.7042
 9211SOL    HW139092   0.572   3.621   3.684 -2.1768 -2.4207 -0.5984
 9211SOL    HW239093   0.676   3.538   3.627  0.2579  0.1721 -0.7346
 9212SOL     OW39094   3.758   0.830  12.757 -0.8092 -0.4981  0.6293
 9212SOL    HW139095   3.691   0.887  12.794 -0.6034 -0.2645  0.6479
 9212SOL    HW239096   3.718   0.805  12.674  0.9374 -0.4372 -0.2455
 9213SOL     OW39097   1.291   2.891   0.439 -0.2038  0.4260 -0.4835
 9213SOL    HW139098   1.246   2.958   0.387 -0.2170 -0.3551 -1.4742
 9213SOL    HW239099   1.338   2.938   0.508 -1.9478  1.1823  0.2025
 9214SOL     OW39100   3.255   2.297   5.639 -0.6471  0.6095 -0.2978
 9214SOL    HW139101   3.245   2.388   5.611 -0.1791  0.9407  0.6247
 9214SOL    HW239102   3.207   2.243   5.576  1.8666  0.8632 -2.4088
 9215SOL     OW39103   2.397   1.901   6.326  0.1819 -0.0315  0.0863
 9215SOL    HW139104   2.473   1.843   6.332  1.5366  1.7250 -0.3398
 9215SOL    HW239105   2.411   1.943   6.241  0.0151 -1.0970 -0.4777
 9216SOL     OW39106   0.060   2.636   1.836  0.1528  0.0390 -0.9229
 9216SOL    HW139107   0.153   2.625   1.853 -0.5033  0.1812  2.8330
 9216SOL    HW239108   0.043   2.574   1.765 -1.7483 -0.0705 -0.3937
 9217SOL     OW39109   2.235   2.426   4.988  0.1157 -0.0639 -0.0060
 9217SOL    HW139110   2.255   2.350   4.934  0.6346 -0.6011  0.9441
 9217SOL    HW239111   2.188   2.481   4.925  1.0266 -0.0238 -0.6511
 9218SOL     OW39112   4.377   4.351   4.342 -0.3429  0.0931  0.0613
 9218SOL    HW139113   4.428   4.432   4.348  0.2965 -0.3750  0.9567
 9218SOL    HW239114   4.293   4.383   4.374  1.3003  3.3664  1.0535
 9219SOL     OW39115   2.125   0.277   4.632  0.1665  0.2963 -0.1693
 9219SOL    HW139116   2.136   0.336   4.707  1.7019 -0.0995 -0.0884
 9219SOL    HW239117   2.216   0.268   4.605  0.4598  1.0027  0.5874
 9220SOL     OW39118   1.413   2.544   5.174 -0.5988 -0.2751 -0.5658
 9220SOL    HW139119   1.500   2.520   5.142 -0.4759 -1.3516  0.6117
 9220SOL    HW239120   1.428   2.625   5.223  0.0466 -0.1260 -1.0178
 9221SOL     OW39121   1.513   4.590  14.622  0.5170 -0.0719  0.8646
 9221SOL    HW139122   1.503   4.669  14.675  0.0902  0.7307 -0.3924
 9221SOL    HW239123   1.595   4.601  14.573  0.0347 -1.6720 -0.3147
 9222SOL     OW39124   2.138   3.767  15.865  0.1819 -0.6882  0.5612
 9222SOL    HW139125   2.189   3.748  15.944 -1.1445 -1.2242  1.2996
 9222SOL    HW239126   2.205   3.761  15.797  3.6212  3.5931  3.5486
 9223SOL     OW39127   0.254   3.847   8.476  0.2545  0.1821  0.1616
 9223SOL    HW139128   0.164   3.834   8.445  0.1304  1.5848 -0.0708
 9223SOL    HW239129   0.259   3.764   8.522 -0.4615  0.3091  0.4731
 9224SOL     OW39130   4.685   1.785   7.053 -0.0297 -0.0212 -0.3307
 9224SOL    HW139131   0.034   1.783   7.114 -0.3920 -3.2391  0.0222
 9224SOL    HW239132   4.642   1.700   7.059  1.3465 -0.7752 -1.1752
 9225SOL     OW39133   0.785   3.517   7.212 -0.0869 -0.0437  0.0370
 9225SOL    HW139134   0.707   3.496   7.161  0.3524 -0.5575 -0.4261
 9225SOL    HW239135   0.751   3.500   7.300  1.5969  1.5209  0.9831
 9226SOL     OW39136   3.862   2.981   6.678  0.4757  0.6169  0.0030
 9226SOL    HW139137   3.849   2.925   6.754  0.1267 -0.1118 -0.5862
 9226SOL    HW239138   3.770   2.995   6.654  0.7077  0.2608 -1.0962
 9227SOL     OW39139   3.635   0.249   2.887 -0.5140  0.3980  0.0129
 9227SOL    HW139140   3.677   0.296   2.815  1.2290 -2.0867 -0.5995
 9227SOL    HW239141   3.550   0.288   2.867 -0.0629  1.7368  0.7361
 9228SOL     OW39142   4.567   3.098   6.370 -0.0433 -0.1435  0.1309
 9228SOL    HW139143   4.521   3.045   6.436  0.9157  0.2121  1.0817
 9228SOL    HW239144   4.562   3.174   6.428  1.3743 -0.0555  0.1285
 9229SOL     OW39145   3.275   2.912   3.887 -0.3583 -0.4925 -0.3353
 9229SOL    HW139146   3.334   2.870   3.950  2.2758  1.7446 -1.3001
 9229SOL    HW239147   3.206   2.927   3.951 -1.8584 -0.7478 -1.9005
 9230SOL     OW39148   0.103   2.166   2.042  0.0197  0.3533 -0.4991
 9230SOL    HW139149   0.086   2.094   2.102  1.4694  1.0013  0.7164
 9230SOL    HW239150   0.081   2.238   2.102  0.1128  0.3846 -0.5026
 9231SOL     OW39151   0.561   1.446   8.637 -0.4756  0.2375  0.5298
 9231SOL    HW139152   0.492   1.449   8.570 -0.3603  0.6592  0.4338
 9231SOL    HW239153   0.638   1.464   8.584 -1.0968 -1.1954 -0.8668
 9232SOL     OW39154   2.254   2.320   8.893  0.4458 -0.1874  0.3961
 9232SOL    HW139155   2.204   2.310   8.812  0.1275  0.5514  0.4985
 9232SOL    HW239156   2.192   2.284   8.956  0.5760 -1.4225 -0.1748
 9233SOL     OW39157   2.021   1.271   9.156  0.3425 -0.4137 -0.4453
 9233SOL    HW139158   2.022   1.367   9.150  2.0387 -0.4595 -0.8401
 9233SOL    HW239159   1.951   1.248   9.095 -0.4628 -0.3583  0.4463
 9234SOL     OW39160   0.963   0.140   7.214  0.2668  0.2819 -0.0668
 9234SOL    HW139161   0.985   0.187   7.295 -2.5309  2.1587 -0.3913
 9234SOL    HW239162   1.014   0.192   7.152 -1.9442  1.1982 -1.1213
 9235SOL     OW39163   0.711   2.376  15.079 -0.1013 -0.9441  0.1382
 9235SOL    HW139164   0.741   2.412  15.163  0.8118 -0.1828 -0.5207
 9235SOL    HW239165   0.795   2.347  15.044  0.3498  1.0517 -0.4506
 9236SOL     OW39166   3.210   1.068   5.175 -0.4460  0.1262  0.4930
 9236SOL    HW139167   3.264   1.032   5.246 -2.3800 -1.2382  1.2683
 9236SOL    HW239168   3.265   1.074   5.097 -0.6264  2.0070  0.5161
 9237SOL     OW39169   3.039   2.090  15.644  0.1366 -0.0838  0.4549
 9237SOL    HW139170   3.098   2.024  15.679  1.0942  0.5005 -0.0699
 9237SOL    HW239171   3.034   2.149  15.720  0.5771  0.1015  0.3416
 9238SOL     OW39172   1.757   2.170   8.750 -0.3397  0.5106  0.0994
 9238SOL    HW139173   1.805   2.250   8.730  0.8318 -0.8024 -2.2685
 9238SOL    HW239174   1.702   2.188   8.826  0.8502  1.4569  0.7239
 9239SOL     OW39175   3.296   3.240  17.288 -0.2893 -0.2810  0.2314
 9239SOL    HW139176   3.292   3.335  17.301 -0.0254 -0.2990  0.4307
 9239SOL    HW239177   3.278   3.198  17.372 -1.4823 -0.9996 -0.3804
 9240SOL     OW39178   4.706   2.333   9.399  0.6509  0.2626 -0.5916
 9240SOL    HW139179   4.638   2.398   9.381 -0.9069 -1.6070 -1.5566
 9240SOL    HW239180   0.045   2.395   9.366  1.9726 -0.4551  0.6547
 9241SOL     OW39181   2.233   1.680  17.516  0.4242 -0.2511  0.2333
 9241SOL    HW139182   2.302   1.615  17.527 -0.1030 -1.1746 -1.7612
 9241SOL    HW239183   2.203   1.678  17.607 -1.5726 -0.6503 -0.4249
 9242SOL     OW39184   1.437   0.723   7.716  0.5070 -0.3051  0.3409
 9242SOL    HW139185   1.446   0.813   7.748  0.4694  0.8143 -2.8034
 9242SOL    HW239186   1.397   0.687   7.795 -0.0864  0.3522  0.3366
 9243SOL     OW39187   3.652   3.006   3.552  0.3448 -0.0913  0.2277
 9243SOL    HW139188   3.637   2.919   3.514 -0.3036  1.0120 -2.0644
 9243SOL    HW239189   3.630   3.070   3.484 -3.9334 -2.1234 -0.2719
 9244SOL     OW39190   1.752   0.799  15.080  0.1332  0.2433 -0.2275
 9244SOL    HW139191   1.763   0.853  15.158  1.8291  0.1112 -0.3610
 9244SOL    HW239192   1.810   0.723  15.088  0.1957  0.3071 -0.0789
 9245SOL     OW39193   1.120   1.626   6.143  0.3799  0.1232  0.0498
 9245SOL    HW139194   1.200   1.574   6.155  0.9323  1.2620  1.3654
 9245SOL    HW239195   1.061   1.563   6.101 -0.2035 -1.2198  2.9012
 9246SOL     OW39196   0.006   1.404   1.211 -0.3024 -0.3942 -0.1979
 9246SOL    HW139197   0.070   1.449   1.266 -0.6659  0.2970 -0.3449
 9246SOL    HW239198   4.689   1.347   1.274  1.7284 -0.2980  1.2722
 9247SOL     OW39199   2.913   3.731   3.356  0.6907 -0.2609 -0.0010
 9247SOL    HW139200   2.902   3.686   3.272 -0.5874 -0.5460  0.3194
 9247SOL    HW239201   2.827   3.710   3.391  0.5140 -1.8350 -1.3730
 9248SOL     OW39202   1.623   3.615  14.908 -0.0192  0.6935  0.2791
 9248SOL    HW139203   1.534   3.606  14.944  1.0354  0.6573  2.8312
 9248SOL    HW239204   1.598   3.690  14.854  1.4143  0.9820  0.0391
 9249SOL     OW39205   0.301   2.473   3.274 -1.0918 -0.7969  0.1701
 9249SOL    HW139206   0.282   2.563   3.301 -0.3066 -1.0643  1.5770
 9249SOL    HW239207   0.214   2.436   3.263 -1.1227 -0.5948 -0.2953
 9250SOL     OW39208   3.001   1.218   3.925 -0.4067 -0.0605  0.0737
 9250SOL    HW139209   3.085   1.218   3.971 -0.7030  1.3624  0.6146
 9250SOL    HW239210   3.037   1.259   3.846  1.7236 -1.5908  0.2418
 9251SOL     OW39211   2.272   2.194   3.477 -0.2807 -0.0624  0.0631
 9251SOL    HW139212   2.333   2.123   3.459 -0.5947 -0.3638  0.1921
 9251SOL    HW239213   2.190   2.145   3.490  0.1456 -0.8382 -0.1539
 9252SOL     OW39214   0.040   2.328   2.247 -0.0596 -0.0255  0.2861
 9252SOL    HW139215   4.723   2.293   2.326 -1.0663  2.2827  0.7742
 9252SOL    HW239216   0.113   2.377   2.285 -1.2033  0.0870  2.3279
 9253SOL     OW39217   1.394   3.426   0.690 -0.3651 -0.4574  0.3322
 9253SOL    HW139218   1.363   3.367   0.621 -0.9826  0.0279  0.1930
 9253SOL    HW239219   1.413   3.362   0.759 -2.2636 -0.9641  0.3970
 9254SOL     OW39220   0.551   2.366  10.857  0.2470 -0.1722  0.3947
 9254SOL    HW139221   0.503   2.428  10.911 -1.8316 -1.5169  0.0550
 9254SOL    HW239222   0.530   2.404  10.772  0.5589 -0.5724  0.1343
 9255SOL     OW39223   2.767   2.568   1.518 -0.1563 -0.0178 -0.7688
 9255SOL    HW139224   2.673   2.565   1.503 -0.3137 -0.4870  0.2687
 9255SOL    HW239225   2.791   2.478   1.540 -1.4906 -0.2153 -0.1766
 9256SOL     OW39226   4.535   0.708   4.041  0.1801  0.2209  0.1588
 9256SOL    HW139227   4.494   0.676   4.121  3.3447 -0.7076  1.4360
 9256SOL    HW239228   4.598   0.636   4.029  0.0660  0.3099 -0.9706
 9257SOL     OW39229   0.497   3.453   3.935 -0.4484  0.3717 -0.2560
 9257SOL    HW139230   0.515   3.536   3.891  1.8518  0.6297  1.1876
 9257SOL    HW239231   0.457   3.400   3.866  2.1829  0.0536 -1.5219
 9258SOL     OW39232   0.451   1.400  14.285 -0.9243 -0.0616  0.8371
 9258SOL    HW139233   0.429   1.475  14.339 -3.9245  0.1910 -0.7602
 9258SOL    HW239234   0.378   1.393  14.225 -0.9613 -1.1629  1.0029
 9259SOL     OW39235   3.724   1.166   6.647 -0.8080  0.2485 -0.1838
 9259SOL    HW139236   3.665   1.210   6.586 -0.8773  0.4044 -0.0043
 9259SOL    HW239237   3.729   1.080   6.607 -2.5314  1.2552 -2.5646
 9260SOL     OW39238   0.500   0.459  17.315 -0.5194 -0.4222 -0.0147
 9260SOL    HW139239   0.438   0.510  17.367 -0.6178 -2.1224  1.5614
 9260SOL    HW239240   0.563   0.525  17.288 -0.7388 -0.6353 -1.0257
 9261SOL     OW39241   2.332   2.928   2.016  0.4809  0.6942  0.0624
 9261SOL    HW139242   2.258   2.910   2.075  0.9980 -0.8345  0.2445
 9261SOL    HW239243   2.331   2.852   1.957 -1.1525  1.4267 -0.8496
 9262SOL     OW39244   2.192   1.756  13.328  0.6067 -0.1254  0.3108
 9262SOL    HW139245   2.242   1.819  13.276 -0.5209  1.6497  1.3907
 9262SOL    HW239246   2.261   1.716  13.381  0.5928 -0.2275  0.2519
 9263SOL     OW39247   3.627   2.445   1.909 -0.4473  0.0636  0.3311
 9263SOL    HW139248   3.679   2.515   1.869  0.5522 -0.6059  0.4487
 9263SOL    HW239249   3.658   2.364   1.869  1.3812  0.6701  0.5104
 9264SOL     OW39250   4.627   3.952  16.746  0.1696  0.3465  0.0845
 9264SOL    HW139251   4.599   3.913  16.663  0.8966 -0.5448  0.2551
 9264SOL    HW239252   4.703   4.001  16.714  1.1564 -0.4950  1.1697
 9265SOL     OW39253   4.189   3.703   5.568 -0.3583  0.3166 -0.3425
 9265SOL    HW139254   4.275   3.745   5.568  0.1716 -0.7586 -0.8611
 9265SOL    HW239255   4.136   3.780   5.547 -1.5733 -0.5359 -0.3534
 9266SOL     OW39256   3.104   4.273  12.185 -0.2009  0.0056  0.0278
 9266SOL    HW139257   3.199   4.274  12.199  0.0866  0.6200 -1.8714
 9266SOL    HW239258   3.111   4.222  12.104 -1.2677  1.4132 -0.9703
 9267SOL     OW39259   2.676   3.260   2.744 -0.5168 -0.1652 -1.0606
 9267SOL    HW139260   2.593   3.216   2.766 -1.4321  0.9864 -2.2248
 9267SOL    HW239261   2.720   3.207   2.678 -1.0314  1.1623 -2.4458
 9268SOL     OW39262   4.355   4.389   8.968  0.4318 -0.3756  0.4083
 9268SOL    HW139263   4.446   4.385   8.940 -0.1074  0.3061 -1.4335
 9268SOL    HW239264   4.366   4.332   9.044  1.0201 -0.2580  0.4064
 9269SOL     OW39265   3.995   3.656   8.700 -0.4606  0.6928  0.2654
 9269SOL    HW139266   3.970   3.681   8.611 -1.1450 -3.5112 -0.6957
 9269SOL    HW239267   4.024   3.566   8.688 -2.3430 -0.2981  3.2470
 9270SOL     OW39268   1.396   1.144   1.292 -0.3429  0.3588 -0.0497
 9270SOL    HW139269   1.378   1.143   1.386  1.0260 -1.8375  0.1659
 9270SOL    HW239270   1.479   1.192   1.291 -0.9057  1.3315 -2.6003
 9271SOL     OW39271   1.338   3.390  11.443  0.0699 -0.2231  0.3738
 9271SOL    HW139272   1.338   3.325  11.513 -0.8752  0.2356  0.8026
 9271SOL    HW239273   1.295   3.335  11.378  1.6859  0.5678 -1.3544
 9272SOL     OW39274   0.383   0.464   9.111 -0.4564  0.2961 -0.1831
 9272SOL    HW139275   0.390   0.389   9.052 -1.7530 -0.9681  1.2714
 9272SOL    HW239276   0.323   0.433   9.178 -0.7207 -0.6352 -0.8548
 9273SOL     OW39277   2.677   2.714   1.242 -0.2314 -0.4045  0.4859
 9273SOL    HW139278   2.636   2.650   1.185  1.5906 -0.1072 -1.1575
 9273SOL    HW239279   2.612   2.739   1.308  0.0213 -1.5826  1.1883
 9274SOL     OW39280   3.102   3.191   5.155  0.5170 -0.1140 -0.3188
 9274SOL    HW139281   3.085   3.283   5.133 -1.8452 -0.5450 -0.2530
 9274SOL    HW239282   3.058   3.176   5.239 -0.1356 -1.3691 -0.8872
 9275SOL     OW39283   0.865   1.725  14.645 -0.0498  0.0255  0.0492
 9275SOL    HW139284   0.815   1.795  14.687 -1.0035 -0.8117  0.3463
 9275SOL    HW239285   0.934   1.705  14.708  0.6574  0.4042 -0.6121
 9276SOL     OW39286   1.942   2.323   7.187  0.0602 -0.3595  0.0466
 9276SOL    HW139287   1.968   2.279   7.106 -1.5136 -0.9184 -0.1504
 9276SOL    HW239288   1.979   2.271   7.258  1.1526  1.6135  0.9573
 9277SOL     OW39289   2.119   4.355  14.626  0.3619  0.9993 -0.0939
 9277SOL    HW139290   2.166   4.280  14.590 -2.3251 -0.2545 -1.0426
 9277SOL    HW239291   2.030   4.323  14.608  0.8408 -0.4906  0.2049
 9278SOL     OW39292   1.748   3.234   2.665  0.4037 -0.0027 -0.0622
 9278SOL    HW139293   1.832   3.279   2.659  0.2890  0.6201  2.7104
 9278SOL    HW239294   1.701   3.291   2.604 -0.0142  1.5872  1.7424
 9279SOL     OW39295   1.809   0.754   3.903  0.4592 -0.2118 -0.2527
 9279SOL    HW139296   1.893   0.731   3.942 -1.5399 -2.5959  2.5636
 9279SOL    HW239297   1.780   0.666   3.878  0.0803 -0.0063 -0.5362
 9280SOL     OW39298   3.222   4.244  17.419 -0.3950 -0.0456  0.2651
 9280SOL    HW139299   3.168   4.244  17.340 -2.3028 -0.7403  1.5628
 9280SOL    HW239300   3.193   4.328  17.453 -0.6812 -0.4039  0.9082
 9281SOL     OW39301   3.888   2.843   8.303  0.5325 -0.4307 -0.0360
 9281SOL    HW139302   3.807   2.818   8.259  1.0736  0.6846 -1.6554
 9281SOL    HW239303   3.864   2.927   8.343 -0.3666 -1.7250  2.1431
 9282SOL     OW39304   0.064   1.271   5.446  0.1320 -0.1463 -0.4153
 9282SOL    HW139305   0.032   1.194   5.400  0.3268  0.7586 -2.0524
 9282SOL    HW239306   4.707   1.316   5.465  0.5154  0.7199 -0.8036
 9283SOL     OW39307   3.358   1.314   3.409  0.4945  0.1790 -0.7854
 9283SOL    HW139308   3.268   1.321   3.443 -0.0814 -0.9529 -2.0627
 9283SOL    HW239309   3.350   1.325   3.314  1.6021 -2.4828 -1.1921
 9284SOL     OW39310   3.595   1.997  15.949  0.1316  0.4308 -0.5308
 9284SOL    HW139311   3.682   2.037  15.937  0.7285 -0.6687  0.1032
 9284SOL    HW239312   3.580   1.939  15.874 -1.3027 -1.5786  1.3317
 9285SOL     OW39313   4.040   0.226   3.314  0.3694  0.1659 -0.0265
 9285SOL    HW139314   3.975   0.158   3.298 -0.0240  0.4281  0.4913
 9285SOL    HW239315   4.072   0.183   3.393 -0.2497 -4.1352 -2.1056
 9286SOL     OW39316   3.272   1.263   9.585 -0.4402 -0.2606 -0.2925
 9286SOL    HW139317   3.320   1.263   9.502 -1.1033 -3.5180 -0.6536
 9286SOL    HW239318   3.346   1.239   9.639  0.4805 -2.8396 -2.6889
 9287SOL     OW39319   3.495   2.668   5.301  0.4168  0.2520 -0.0700
 9287SOL    HW139320   3.590   2.666   5.314  0.5594 -1.4464 -1.3009
 9287SOL    HW239321   3.479   2.759   5.277 -1.0409  0.0919  0.3177
 9288SOL     OW39322   1.656   2.070   0.624 -0.1268 -0.2792 -0.0531
 9288SOL    HW139323   1.736   2.019   0.634  1.0540  1.5820 -0.1568
 9288SOL    HW239324   1.633   2.071   0.717 -0.0926  0.1068 -0.0499
 9289SOL     OW39325   3.175   2.890  11.744 -0.6668  0.2369 -0.0266
 9289SOL    HW139326   3.092   2.937  11.742 -0.7963  0.0473  0.7915
 9289SOL    HW239327   3.156   2.799  11.768  0.3273  0.3979  1.3574
 9290SOL     OW39328   4.106   0.527   9.367  0.1015 -0.2297 -0.5191
 9290SOL    HW139329   4.162   0.450   9.373  0.5708  0.1597  0.1925
 9290SOL    HW239330   4.019   0.496   9.389  1.2907 -3.0360  0.2497
 9291SOL     OW39331   3.721   2.970   6.988 -0.6085  0.0742  0.0437
 9291SOL    HW139332   3.715   2.966   7.084 -0.0467 -1.2535  0.0179
 9291SOL    HW239333   3.771   2.889   6.974  0.1046  0.7396 -1.2238
 9292SOL     OW39334   0.989   0.512  16.991  0.3677 -0.2287  0.4692
 9292SOL    HW139335   1.000   0.489  16.899  2.3920 -0.4932  0.7858
 9292SOL    HW239336   1.034   0.596  16.988  1.1137 -0.7224 -2.1852
 9293SOL     OW39337   2.122   1.311  10.950  0.6198 -0.0815  0.1564
 9293SOL    HW139338   2.080   1.245  11.003  0.3410 -0.0123  0.0200
 9293SOL    HW239339   2.063   1.318  10.875  0.7962 -3.1829 -0.2774
 9294SOL     OW39340   0.325   1.003   2.598  0.5128  0.0097  0.1940
 9294SOL    HW139341   0.255   1.063   2.624  0.1490 -0.8333  1.1846
 9294SOL    HW239342   0.313   1.028   2.506  0.4954  0.2116  0.2506
 9295SOL     OW39343   2.154   1.646   3.997 -0.3678 -0.1954  0.5803
 9295SOL    HW139344   2.137   1.587   3.924  0.6607  0.1545  0.0664
 9295SOL    HW239345   2.154   1.729   3.950 -1.7384 -0.7236 -0.3706
 9296SOL     OW39346   3.410   0.008   1.787 -0.3435  0.2139 -0.4111
 9296SOL    HW139347   3.369   4.718   1.701 -2.8596 -1.7795  1.1629
 9296SOL    HW239348   3.473   4.662   1.796 -0.7604  0.2937  2.9457
 9297SOL     OW39349   4.618   1.166   5.040 -0.3470 -0.3536 -0.2210
 9297SOL    HW139350   4.663   1.250   5.026 -1.4625  0.1394 -0.8456
 9297SOL    HW239351   4.535   1.196   5.003  0.7969  1.4844 -1.2850
 9298SOL     OW39352   0.757   0.879   5.691  0.3085  0.2555 -0.3000
 9298SOL    HW139353   0.824   0.919   5.747  0.3447 -1.0302  0.5968
 9298SOL    HW239354   0.785   0.898   5.602  0.3817 -1.6065 -0.6855
 9299SOL     OW39355   3.930   4.621   5.969  0.2420 -0.3621 -0.4384
 9299SOL    HW139356   3.896   4.563   5.901  2.4105 -1.7118 -0.3862
 9299SOL    HW239357   3.849   4.654   6.007  0.6626 -0.5958  0.6506
 9300SOL     OW39358   2.366   1.110  17.180  0.2550 -0.3293 -0.6361
 9300SOL    HW139359   2.447   1.116  17.231  0.2465 -1.9582 -0.4075
 9300SOL    HW239360   2.292   1.087  17.236  0.5045 -0.8411 -0.5084
 9301SOL     OW39361   2.117   3.163   5.525  0.7548  0.3041 -0.0491
 9301SOL    HW139362   2.169   3.157   5.445  0.5254  0.5589 -0.2160
 9301SOL    HW239363   2.115   3.259   5.533 -1.7810  0.1140  1.4807
 9302SOL     OW39364   1.793   1.652   3.429 -0.2538 -0.6082  0.7914
 9302SOL    HW139365   1.881   1.689   3.420 -0.1785 -0.3971  2.2553
 9302SOL    HW239366   1.789   1.648   3.525 -1.4679  1.2522  0.8072
 9303SOL     OW39367   2.486   1.017   4.531 -0.4326  0.3691  0.1463
 9303SOL    HW139368   2.472   1.014   4.437  0.0961  1.2532  0.0391
 9303SOL    HW239369   2.529   1.102   4.525 -0.7215  0.6371  1.7724
 9304SOL     OW39370   4.023   3.294  14.599  0.0917 -0.5063 -0.3364
 9304SOL    HW139371   4.062   3.361  14.544  0.1199  0.8344  1.3064
 9304SOL    HW239372   3.959   3.244  14.549  0.8676  0.2867 -2.1314
 9305SOL     OW39373   2.299   0.488   6.659 -0.6329  0.1080 -0.3390
 9305SOL    HW139374   2.368   0.555   6.659 -0.1099 -0.4333  0.2756
 9305SOL    HW239375   2.337   0.424   6.719  0.0831  3.1392  2.4582
 9306SOL     OW39376   3.982   1.794  14.921 -0.2629 -0.4184  0.5909
 9306SOL    HW139377   3.983   1.748  14.837  1.0243 -0.6530  0.7399
 9306SOL    HW239378   3.967   1.726  14.986  2.2827  1.2579  2.9476
 9307SOL     OW39379   2.761   2.535   3.187  0.1076  0.0590 -0.3098
 9307SOL    HW139380   2.754   2.629   3.170 -0.6624 -0.7434 -4.5162
 9307SOL    HW239381   2.740   2.526   3.280  0.6302  2.3853  0.0276
 9308SOL     OW39382   0.995   1.381  14.306 -0.1925  0.0012 -0.3439
 9308SOL    HW139383   0.989   1.431  14.225  0.7463  0.0446 -0.3892
 9308SOL    HW239384   0.927   1.412  14.366 -0.4612 -0.2826 -0.5030
 9309SOL     OW39385   0.417   0.836  12.663 -0.2450 -0.1860 -0.0031
 9309SOL    HW139386   0.355   0.909  12.659  0.7904  0.5581 -2.5490
 9309SOL    HW239387   0.473   0.853  12.739  0.3047  0.2156 -0.4891
 9310SOL     OW39388   3.784   0.312   7.821 -0.0391 -0.6540  0.7953
 9310SOL    HW139389   3.739   0.392   7.794 -2.5006 -1.5989  2.1185
 9310SOL    HW239390   3.704   0.263   7.839  0.7308 -1.3206  2.3277
 9311SOL     OW39391   2.189   2.914   3.426  0.4476 -0.7115 -0.3977
 9311SOL    HW139392   2.178   2.963   3.508  2.2314 -0.9741  0.0001
 9311SOL    HW239393   2.221   2.830   3.461 -0.3979 -1.0142 -0.3638
 9312SOL     OW39394   3.975   2.952  17.503 -0.0834 -0.7093 -0.5661
 9312SOL    HW139395   3.963   2.857  17.498  1.7251 -0.8732 -1.7771
 9312SOL    HW239396   3.941   2.965  17.415  2.0636 -1.4258 -1.5068
 9313SOL     OW39397   0.077   1.777  13.879  0.3077  0.5162  0.6510
 9313SOL    HW139398   0.152   1.836  13.871  2.0355 -1.7794  0.0474
 9313SOL    HW239399   0.012   1.842  13.851  0.3664  0.3769  0.1926
 9314SOL     OW39400   2.651   1.960   8.106  0.3661 -0.0724 -0.6791
 9314SOL    HW139401   2.716   1.893   8.087 -0.1019 -0.3342 -1.3453
 9314SOL    HW239402   2.570   1.917   8.081  0.3802  0.9441 -2.5198
 9315SOL     OW39403   2.671   4.273   6.033 -0.5747  0.1697 -0.2506
 9315SOL    HW139404   2.701   4.231   5.953 -0.4808 -0.0433 -0.1047
 9315SOL    HW239405   2.731   4.347   6.041  0.0129 -0.3173 -0.1320
 9316SOL     OW39406   3.719   2.756   7.550 -0.0838 -0.0793  0.0348
 9316SOL    HW139407   3.688   2.790   7.634 -1.8953  0.9640 -1.0560
 9316SOL    HW239408   3.635   2.732   7.510  1.3531  0.2150 -3.1033
 9317SOL     OW39409   1.157   3.041   0.899 -0.2397 -0.4228 -0.1660
 9317SOL    HW139410   1.086   3.097   0.867  0.3882  0.9486  0.8657
 9317SOL    HW239411   1.151   2.970   0.835 -0.6731 -0.4962 -0.0415
 9318SOL     OW39412   3.935   4.542   0.865  0.3892 -0.6909  0.0474
 9318SOL    HW139413   3.896   4.471   0.916  0.1041  0.7768  1.8962
 9318SOL    HW239414   3.910   4.528   0.774 -0.2408 -0.0921  0.1235
 9319SOL     OW39415   3.981   1.528  14.842  0.7834  0.1249 -0.3017
 9319SOL    HW139416   3.897   1.515  14.886  0.3297  2.5245 -0.4263
 9319SOL    HW239417   4.044   1.487  14.901  0.5932 -0.1232 -0.2710
 9320SOL     OW39418   2.164   0.076  15.946  0.3026 -0.5335 -0.1472
 9320SOL    HW139419   2.077   0.108  15.967  0.0424 -1.8869  0.8730
 9320SOL    HW239420   2.153   0.002  15.887  0.5611 -1.2186  0.6609
 9321SOL     OW39421   2.543   2.322  12.005 -0.1951 -0.0998  0.1892
 9321SOL    HW139422   2.457   2.331  12.047 -0.3362  1.0069 -0.3530
 9321SOL    HW239423   2.519   2.262  11.934 -1.0324  1.2786 -0.6996
 9322SOL     OW39424   1.933   1.890  10.048 -0.5328  0.3391 -0.9290
 9322SOL    HW139425   1.877   1.812  10.046 -0.1110  0.0088  0.4844
 9322SOL    HW239426   2.004   1.853   9.996 -1.4361 -0.0759 -1.8792
 9323SOL     OW39427   3.002   3.109  12.969 -0.7217  0.0117  0.7502
 9323SOL    HW139428   2.931   3.131  13.030 -0.0932  2.4064  0.6344
 9323SOL    HW239429   2.993   3.014  12.973  0.4630 -0.2203 -1.7970
 9324SOL     OW39430   3.757   1.452   1.789  0.0512 -0.1976 -0.1072
 9324SOL    HW139431   3.810   1.374   1.769  0.2495  0.0325 -0.4740
 9324SOL    HW239432   3.678   1.411   1.823 -0.7793  0.9105 -0.7153
 9325SOL     OW39433   3.412   2.937   0.116  0.1406 -0.3207 -0.2755
 9325SOL    HW139434   3.488   2.913   0.062 -0.5935  0.0465 -1.4800
 9325SOL    HW239435   3.431   2.883   0.192 -1.0971  1.3378  1.1870
 9326SOL     OW39436   4.587   0.113   5.980  0.8935 -0.5456  0.5951
 9326SOL    HW139437   4.600   0.207   5.994  0.8893 -0.6535  1.3156
 9326SOL    HW239438   4.498   0.097   6.011  0.8691 -1.9988 -0.2537
 9327SOL     OW39439   0.979   3.490   6.198 -0.4981 -0.1041 -0.4358
 9327SOL    HW139440   1.064   3.464   6.231 -0.4293  0.9848  0.2300
 9327SOL    HW239441   0.982   3.478   6.103  1.9620  3.0940 -0.7589
 9328SOL     OW39442   2.981   0.566   2.326 -0.0382 -0.1991  0.3284
 9328SOL    HW139443   2.913   0.506   2.357 -0.3823  1.9067  3.7153
 9328SOL    HW239444   2.934   0.599   2.250 -1.7387  2.1739  2.3866
 9329SOL     OW39445   1.478   4.622  14.980 -0.6869  0.0809  0.2591
 9329SOL    HW139446   1.413   4.585  14.920 -1.5353 -0.1664  1.3419
 9329SOL    HW239447   1.480   4.714  14.957 -0.9971  0.6691  2.6221
 9330SOL     OW39448   3.318   0.747   7.990  0.1672  0.2130 -0.1355
 9330SOL    HW139449   3.305   0.735   8.085 -2.0231  0.9983 -0.3314
 9330SOL    HW239450   3.328   0.842   7.988  1.1238  0.1610  2.2871
 9331SOL     OW39451   1.703   2.571   6.576  0.1677  0.3530 -0.6376
 9331SOL    HW139452   1.651   2.513   6.521 -1.3791  0.3236  0.8575
 9331SOL    HW239453   1.669   2.541   6.660  1.6285  1.5857  0.4025
 9332SOL     OW39454   1.037   4.542  13.437  0.2854  0.6413  0.1657
 9332SOL    HW139455   1.053   4.484  13.362  0.4721  0.0190  0.6825
 9332SOL    HW239456   1.005   4.483  13.506 -0.0959  0.0091 -0.5523
 9333SOL     OW39457   0.450   3.212   8.221  0.2825  0.5149  0.6902
 9333SOL    HW139458   0.478   3.298   8.191  0.4853  0.2873  0.2291
 9333SOL    HW239459   0.493   3.151   8.161  0.5630  0.1249  1.2820
 9334SOL     OW39460   0.074   2.018   7.398 -0.4845 -0.2470 -0.2520
 9334SOL    HW139461   0.146   2.079   7.411  0.0313 -0.5271 -1.7363
 9334SOL    HW239462   4.719   2.062   7.425  0.4670  2.1025 -1.3010
 9335SOL     OW39463   3.962   2.421   8.712 -0.6093  0.4109  0.2923
 9335SOL    HW139464   4.010   2.347   8.749  0.2646  1.0252  0.3762
 9335SOL    HW239465   3.877   2.384   8.685  0.8205 -0.3819 -3.1549
 9336SOL     OW39466   0.330   1.176   7.384 -0.1603 -0.0921  0.1093
 9336SOL    HW139467   0.291   1.259   7.355 -0.1802  0.1792  0.9051
 9336SOL    HW239468   0.276   1.170   7.463 -0.2519 -1.9847 -0.1009
 9337SOL     OW39469   0.576   3.709  13.987 -0.0319  0.3648  0.0906
 9337SOL    HW139470   0.593   3.803  13.979 -1.5014  0.7592  1.7056
 9337SOL    HW239471   0.535   3.700  14.073  0.0838 -1.2440 -0.0115
 9338SOL     OW39472   2.950   2.180   7.300 -0.2556 -1.0181 -0.9899
 9338SOL    HW139473   3.011   2.178   7.374 -0.9496 -0.3051 -0.3930
 9338SOL    HW239474   2.912   2.093   7.315 -1.8099  0.0958  1.5574
 9339SOL     OW39475   1.434   4.507   8.567 -0.8246 -0.0854  0.1008
 9339SOL    HW139476   1.522   4.497   8.603 -0.4307  0.0887 -0.7956
 9339SOL    HW239477   1.449   4.458   8.486 -2.7783 -1.0576  0.3202
 9340SOL     OW39478   1.550   1.886   6.635 -0.1593  0.2484  0.0414
 9340SOL    HW139479   1.475   1.916   6.685  1.4590  2.4726  1.1558
 9340SOL    HW239480   1.613   1.872   6.706 -0.9258 -0.2583  0.6169
 9341SOL     OW39481   2.709   0.343  11.601 -0.3156  0.0459  0.0174
 9341SOL    HW139482   2.678   0.376  11.685 -1.8978  0.6445 -0.7881
 9341SOL    HW239483   2.746   0.259  11.628 -1.0236 -0.4030 -0.3851
 9342SOL     OW39484   1.450   3.274   1.594  0.0746  0.2654  0.6235
 9342SOL    HW139485   1.497   3.337   1.540  1.2154  0.9333  2.3974
 9342SOL    HW239486   1.375   3.249   1.541  2.0462 -0.4610 -1.8257
 9343SOL     OW39487   0.414   3.074   2.415  0.2850  0.0821  0.1253
 9343SOL    HW139488   0.399   3.065   2.321  1.9153  2.5489 -0.3709
 9343SOL    HW239489   0.346   3.141   2.428  0.2964  0.1534 -0.1846
 9344SOL     OW39490   2.449   0.616   8.063  0.4482 -0.1503  0.0511
 9344SOL    HW139491   2.417   0.636   8.151 -0.0919 -0.0989 -0.1568
 9344SOL    HW239492   2.526   0.671   8.049  0.4150  0.6345  3.0747
 9345SOL     OW39493   0.460   0.076   5.932  0.2280  0.3134  0.0929
 9345SOL    HW139494   0.394   0.106   5.870 -1.5876 -0.8120  1.4920
 9345SOL    HW239495   0.478   4.712   5.901 -1.3145 -0.0068  0.1297
 9346SOL     OW39496   3.953   0.995  10.732 -0.2593  0.3083 -0.2386
 9346SOL    HW139497   3.969   0.904  10.708 -2.1614  0.0535 -0.5345
 9346SOL    HW239498   4.044   1.024  10.730 -0.0822 -0.2243  0.1631
 9347SOL     OW39499   4.327   1.758   4.101 -0.4736  0.1051  0.6052
 9347SOL    HW139500   4.414   1.783   4.070 -1.4695  0.0352 -2.3065
 9347SOL    HW239501   4.285   1.717   4.025 -2.4925  0.1854  1.6902
 9348SOL     OW39502   3.113   1.112   4.851 -0.0422  1.6319 -0.3726
 9348SOL    HW139503   3.097   1.119   4.757 -1.7409 -1.4836 -0.3080
 9348SOL    HW239504   3.207   1.118   4.835  0.2754 -0.9835  0.5280
 9349SOL     OW39505   2.144   1.889   2.190  0.0022 -0.1987  0.5219
 9349SOL    HW139506   2.084   1.946   2.238 -0.1964  1.0624 -1.2049
 9349SOL    HW239507   2.097   1.858   2.113 -1.4660  2.6355  0.2661
 9350SOL     OW39508   1.256   0.152  10.006 -0.4951 -0.4506  0.0881
 9350SOL    HW139509   1.198   0.149  10.082  0.2434  0.9390  0.7001
 9350SOL    HW239510   1.230   0.234   9.963 -0.4482 -0.6925 -0.4039
 9351SOL     OW39511   1.981   2.475   3.813  0.1159 -0.3543 -0.1772
 9351SOL    HW139512   1.973   2.491   3.907  2.9564  2.7805 -0.4764
 9351SOL    HW239513   2.074   2.461   3.799  0.3950 -0.2424  1.5810
 9352SOL     OW39514   0.693   0.117   2.776 -0.1466 -0.1418 -0.2176
 9352SOL    HW139515   0.738   0.125   2.860  0.5360 -0.8022 -0.5260
 9352SOL    HW239516   0.660   0.027   2.785 -0.1426  0.0598  1.7068
 9353SOL     OW39517   2.454   2.311   0.495 -0.1838 -0.4167  0.5752
 9353SOL    HW139518   2.488   2.246   0.557  0.5439  0.8410  1.4902
 9353SOL    HW239519   2.481   2.268   0.414 -1.9420 -0.8056  0.1952
 9354SOL     OW39520   0.880   0.952   4.048 -0.5806  0.6537 -0.6300
 9354SOL    HW139521   0.801   0.909   4.079  0.1623 -1.2184 -1.3258
 9354SOL    HW239522   0.862   0.946   3.954  0.9802  1.4532 -0.9860
 9355SOL     OW39523   1.761   4.022   6.952  0.2303  1.0444 -0.6377
 9355SOL    HW139524   1.693   4.061   6.896 -2.6724  1.0261  2.8634
 9355SOL    HW239525   1.783   3.945   6.900  1.3616  0.8182  0.1702
 9356SOL     OW39526   0.695   2.509  11.187  1.1294  0.3340  0.2823
 9356SOL    HW139527   0.617   2.515  11.132  0.5113  2.9512  1.4619
 9356SOL    HW239528   0.745   2.442  11.140  1.2264  0.7030 -0.1389
 9357SOL     OW39529   3.579   2.298   9.002  0.3510 -0.3857  0.3594
 9357SOL    HW139530   3.622   2.213   8.998  2.4467  0.7321 -1.3563
 9357SOL    HW239531   3.519   2.288   9.076 -0.5239 -0.1940 -0.3222
 9358SOL     OW39532   0.997   1.001  15.205  0.3006 -0.1679  0.2720
 9358SOL    HW139533   1.004   0.909  15.179  1.5178  0.2838 -0.9807
 9358SOL    HW239534   1.090   1.015  15.219 -0.3025  2.9148  1.2028
 9359SOL     OW39535   4.546   0.512   9.727 -0.2024 -0.0089  0.4659
 9359SOL    HW139536   4.626   0.541   9.770  0.1191 -1.6750  1.0019
 9359SOL    HW239537   4.585   0.434   9.686 -1.1908  0.1798 -0.8395
 9360SOL     OW39538   1.454   4.368   5.460 -0.1205  0.0439  0.3727
 9360SOL    HW139539   1.450   4.290   5.406  1.7011 -0.9177  1.6282
 9360SOL    HW239540   1.512   4.340   5.531  3.5877  2.2668 -1.7817
 9361SOL     OW39541   2.228   4.110   0.270 -0.1150 -0.0767  0.0464
 9361SOL    HW139542   2.234   4.205   0.261  2.3890 -0.3541 -1.1276
 9361SOL    HW239543   2.315   4.092   0.306 -0.0995 -1.0896 -0.5156
 9362SOL     OW39544   3.022   4.055   7.151 -0.8297  0.3131 -0.4244
 9362SOL    HW139545   3.073   4.136   7.153 -2.0686  1.0193  1.6306
 9362SOL    HW239546   2.997   4.045   7.242 -1.4627 -1.1594 -0.7618
 9363SOL     OW39547   0.815   4.297   6.948 -0.0059 -0.4056  0.6059
 9363SOL    HW139548   0.785   4.232   6.884 -0.9553 -0.4763  1.1130
 9363SOL    HW239549   0.792   4.379   6.904 -0.5996  0.3130  2.2614
 9364SOL     OW39550   2.379   2.924  10.906 -0.1502  0.0523  0.3248
 9364SOL    HW139551   2.382   2.872  10.826  1.8876 -0.0370  0.4556
 9364SOL    HW239552   2.314   2.989  10.879 -0.4742 -0.4609 -0.1481
 9365SOL     OW39553   1.690   2.187  11.546  0.4053 -0.2025 -0.3312
 9365SOL    HW139554   1.608   2.138  11.551 -0.0405  0.4706 -0.9772
 9365SOL    HW239555   1.725   2.144  11.469 -0.4334 -0.8245 -0.3608
 9366SOL     OW39556   0.237   3.718   6.479 -0.2590 -0.2961 -0.0962
 9366SOL    HW139557   0.218   3.811   6.477  1.5989  0.1080  1.3630
 9366SOL    HW239558   0.297   3.701   6.407 -0.6257  1.3628 -0.7808
 9367SOL     OW39559   1.775   4.389   1.582  0.6642 -0.3763 -0.2613
 9367SOL    HW139560   1.830   4.448   1.532 -0.6188  0.5833 -0.5345
 9367SOL    HW239561   1.697   4.404   1.527  0.6038 -1.0233 -0.3573
 9368SOL     OW39562   0.609   2.713  14.338 -0.4265  0.0551 -0.4930
 9368SOL    HW139563   0.559   2.763  14.274  0.5838  1.9072  0.1698
 9368SOL    HW239564   0.678   2.775  14.360  0.5193 -2.1183  2.7447
 9369SOL     OW39565   0.064   4.565  10.359 -0.4017  0.1912 -0.0018
 9369SOL    HW139566   0.155   4.558  10.332 -0.3554  0.7383  0.0270
 9369SOL    HW239567   0.075   4.619  10.437 -1.1224  0.7674 -0.2983
 9370SOL     OW39568   0.902   0.641  15.796 -0.5080  0.6836 -0.2580
 9370SOL    HW139569   0.933   0.713  15.851 -0.5202 -0.1163  0.7926
 9370SOL    HW239570   0.928   0.568  15.851  0.0921 -0.6117 -2.2630
 9371SOL     OW39571   1.251   1.173   6.976 -0.3680  0.0204 -0.0469
 9371SOL    HW139572   1.332   1.215   6.947 -0.3784  1.0244  1.3946
 9371SOL    HW239573   1.280   1.082   6.970 -2.2361 -0.4734 -1.5097
 9372SOL     OW39574   2.650   3.394   9.573 -0.4802  0.2576 -0.1443
 9372SOL    HW139575   2.667   3.308   9.611  1.0873  0.8017  0.4100
 9372SOL    HW239576   2.644   3.366   9.481 -1.1180  1.6524 -0.5256
 9373SOL     OW39577   2.257   1.083   6.182  0.8494 -0.8786  0.0182
 9373SOL    HW139578   2.272   1.155   6.121 -2.7715 -1.8574 -1.9852
 9373SOL    HW239579   2.220   1.019   6.121  1.2457  0.0977 -1.2473
 9374SOL     OW39580   3.133   3.754   8.345  0.8269  0.2549  0.2231
 9374SOL    HW139581   3.156   3.739   8.254  1.2597  1.3698  0.1465
 9374SOL    HW239582   3.142   3.664   8.375  3.3805  0.6549  0.7273
 9375SOL     OW39583   0.809   1.771  15.504 -0.4461 -0.2507  0.5122
 9375SOL    HW139584   0.720   1.743  15.485 -0.0827 -1.3658  0.4585
 9375SOL    HW239585   0.851   1.686  15.516  0.7933  0.3905  0.6751
 9376SOL     OW39586   0.999   2.438  15.517  0.0705 -1.0821  0.4475
 9376SOL    HW139587   1.035   2.451  15.605  2.5980  1.6042 -0.9787
 9376SOL    HW239588   0.919   2.392  15.544  0.0736  0.1298  2.5390
 9377SOL     OW39589   1.129   1.832   8.707  0.1712 -0.1883 -0.0771
 9377SOL    HW139590   1.190   1.817   8.779 -0.2911  0.9204  0.5433
 9377SOL    HW239591   1.124   1.741   8.677  2.0707 -1.0587  2.2529
 9378SOL     OW39592   3.527   0.585   7.848 -0.0851 -0.2512  0.4965
 9378SOL    HW139593   3.491   0.520   7.908 -1.0108 -1.1446 -1.0411
 9378SOL    HW239594   3.460   0.653   7.850  0.2615  0.1126 -0.1577
 9379SOL     OW39595   2.985   3.810  10.595  0.0967  0.5790  0.2267
 9379SOL    HW139596   3.038   3.788  10.671 -0.6561  0.7576  0.7977
 9379SOL    HW239597   3.021   3.893  10.565  2.1627  0.1207  1.4191
 9380SOL     OW39598   4.018   0.036  13.031  0.2877  0.1384 -0.2154
 9380SOL    HW139599   3.922   0.044  13.037  0.3237 -1.0874  2.1770
 9380SOL    HW239600   4.028   0.131  13.023  2.2287 -0.1363 -0.9775
 9381SOL     OW39601   2.319   0.116  12.087  0.4510 -0.1660  0.1516
 9381SOL    HW139602   2.342   0.184  12.024 -0.8070  2.0878  2.1005
 9381SOL    HW239603   2.394   0.059  12.070  0.3378 -0.2978  0.0930
 9382SOL     OW39604   1.026   3.006   8.316 -0.7531  0.0491  0.8542
 9382SOL    HW139605   1.071   3.090   8.324 -0.4929 -0.2416  2.3989
 9382SOL    HW239606   1.062   2.978   8.232 -0.9489  1.1724  0.3918
 9383SOL     OW39607   2.111   1.853   5.445 -0.4008  0.4906  0.1528
 9383SOL    HW139608   2.031   1.886   5.406  0.9371  0.7873 -2.3242
 9383SOL    HW239609   2.138   1.796   5.373 -0.1544 -0.9813  1.4014
 9384SOL     OW39610   1.755   2.064  10.117  0.0342 -0.1595  0.3104
 9384SOL    HW139611   1.818   1.995  10.095  0.7755  1.0530 -1.3482
 9384SOL    HW239612   1.716   2.097  10.036  1.5700 -2.5501 -1.3853
 9385SOL     OW39613   3.012   1.315  15.680 -0.0336 -0.4813 -0.1538
 9385SOL    HW139614   3.057   1.324  15.596 -0.4117 -0.2519 -0.3318
 9385SOL    HW239615   3.086   1.310  15.740  0.5128  0.1626 -0.7683
 9386SOL     OW39616   1.480   3.244   7.475  0.3174  0.0001  0.3761
 9386SOL    HW139617   1.405   3.296   7.503 -0.3736 -0.0462 -1.4091
 9386SOL    HW239618   1.485   3.171   7.537 -1.2361 -1.4038 -1.1698
 9387SOL     OW39619   0.881   2.688  11.571  0.1328  0.1163  0.5627
 9387SOL    HW139620   0.974   2.683  11.594  0.4834  1.3079 -0.5727
 9387SOL    HW239621   0.866   2.761  11.631 -4.8055  0.2424 -0.8179
 9388SOL     OW39622   1.963   3.288   7.199 -0.5827 -0.8316  0.2234
 9388SOL    HW139623   2.025   3.359   7.212 -0.5330 -1.3675  2.8288
 9388SOL    HW239624   1.898   3.304   7.267 -0.4291 -0.7396  0.3459
 9389SOL     OW39625   1.578   3.233   2.868 -0.2440 -0.3196  0.6011
 9389SOL    HW139626   1.538   3.316   2.891  0.0657 -0.5315  1.9038
 9389SOL    HW239627   1.639   3.250   2.796 -0.6364  1.0177  0.5840
 9390SOL     OW39628   1.191   3.928  12.472 -0.3677 -0.3100  0.2133
 9390SOL    HW139629   1.171   3.837  12.494 -1.4494 -0.2626 -0.6098
 9390SOL    HW239630   1.146   3.947  12.390 -1.5821 -2.1069  0.4424
 9391SOL     OW39631   0.523   2.319   9.527  0.1472  0.2905  0.3875
 9391SOL    HW139632   0.488   2.233   9.551 -1.0649  0.1779 -1.7458
 9391SOL    HW239633   0.541   2.319   9.433  1.8249  2.0674  0.7255
 9392SOL     OW39634   0.602   2.770  13.274 -0.2766 -0.0202  0.0933
 9392SOL    HW139635   0.673   2.731  13.223 -1.6418 -1.8979 -0.3725
 9392SOL    HW239636   0.640   2.836  13.332 -1.5626  0.6573  0.1900
 9393SOL     OW39637   4.403   0.204   5.547  0.9528 -0.1118  0.1993
 9393SOL    HW139638   4.369   0.143   5.612 -0.4424  1.0359  0.5458
 9393SOL    HW239639   4.323   0.233   5.504  0.9585 -0.3810  0.0142
 9394SOL     OW39640   1.683   0.236   6.050  0.1664 -0.3420  0.4358
 9394SOL    HW139641   1.730   0.254   5.968 -1.2127 -0.1741 -0.3224
 9394SOL    HW239642   1.644   0.151   6.030 -0.3978 -0.0463  0.2552
 9395SOL     OW39643   1.375   3.023  13.054 -0.1508 -0.3061 -0.0985
 9395SOL    HW139644   1.461   3.063  13.062 -0.0965 -0.4302 -0.0523
 9395SOL    HW239645   1.316   3.085  13.097  0.9358  0.2137  0.6365
 9396SOL     OW39646   1.567   3.218  11.497  1.0172 -0.2017  0.3868
 9396SOL    HW139647   1.486   3.204  11.546  1.0198  2.2676  1.1003
 9396SOL    HW239648   1.542   3.298  11.451 -0.1086  0.2014  1.6845
 9397SOL     OW39649   0.094   1.040   3.649 -0.0164 -0.0029  0.7067
 9397SOL    HW139650   0.145   1.079   3.720  0.7492  0.0736  0.1088
 9397SOL    HW239651   0.013   1.072   3.688 -0.1479  1.0970 -0.4844
 9398SOL     OW39652   4.134   4.614  11.679 -0.2196 -0.6634 -0.6848
 9398SOL    HW139653   4.158   4.610  11.587 -0.1987  1.3802 -0.7659
 9398SOL    HW239654   4.215   4.581  11.717  0.9887  3.0577 -0.1227
 9399SOL     OW39655   3.319   2.918   8.637  0.0583  0.5643 -0.7443
 9399SOL    HW139656   3.350   2.838   8.680 -2.2769  0.8409  1.4419
 9399SOL    HW239657   3.251   2.879   8.583  1.6285 -1.8339 -1.0212
 9400SOL     OW39658   0.691   0.513   8.266 -0.2199  0.5485  0.0101
 9400SOL    HW139659   0.697   0.570   8.343 -0.4346  1.0908 -0.3785
 9400SOL    HW239660   0.628   0.449   8.299  2.6241 -2.6275 -0.7697
 9401SOL     OW39661   2.141   2.586   2.390  0.1893  0.4083 -0.0639
 9401SOL    HW139662   2.084   2.517   2.357 -0.3945  1.0614 -0.4089
 9401SOL    HW239663   2.088   2.632   2.456 -0.6718 -0.8592  0.1211
 9402SOL     OW39664   1.511   1.036  13.632  0.4343 -0.0286 -0.0117
 9402SOL    HW139665   1.596   1.038  13.675 -0.9906 -3.4364  2.9037
 9402SOL    HW239666   1.450   1.076  13.694  0.6529  1.6170 -0.8524
 9403SOL     OW39667   0.341   4.472  11.545 -0.0353  0.4292  0.3233
 9403SOL    HW139668   0.327   4.561  11.577  0.0847  0.4854  0.2182
 9403SOL    HW239669   0.319   4.483  11.453 -0.5239  2.5792  0.6915
 9404SOL     OW39670   1.393   1.598   5.866 -0.2133 -0.3393  0.0734
 9404SOL    HW139671   1.317   1.576   5.812 -0.7773  2.7254 -0.3635
 9404SOL    HW239672   1.416   1.512   5.901  2.5434  0.3612 -0.0763
 9405SOL     OW39673   4.711   4.214   8.631 -0.4285  0.3687  0.3390
 9405SOL    HW139674   0.057   4.176   8.682 -0.2318  0.3713  0.0621
 9405SOL    HW239675   4.644   4.147   8.648 -0.8308  0.5842 -0.3701
 9406SOL     OW39676   1.834   3.990   3.690 -0.5024 -0.5412 -0.5076
 9406SOL    HW139677   1.808   3.977   3.599 -0.9663 -3.4250  0.0351
 9406SOL    HW239678   1.928   3.978   3.675 -0.0103  2.6170  0.1596
 9407SOL     OW39679   4.389   2.792  17.201  0.0657 -0.6511  0.1156
 9407SOL    HW139680   4.411   2.876  17.161  0.7331 -0.5014  0.7992
 9407SOL    HW239681   4.302   2.825  17.223 -0.4409 -2.2106  0.4637
 9408SOL     OW39682   0.299   3.866   9.532  0.3482 -0.1774  0.4188
 9408SOL    HW139683   0.258   3.952   9.529  0.6096 -0.0276  1.4068
 9408SOL    HW239684   0.372   3.888   9.474  2.0909 -2.0596  1.9049
 9409SOL     OW39685   2.378   3.167   5.991 -0.0119 -0.0781  0.1511
 9409SOL    HW139686   2.363   3.121   5.908 -0.9448  0.3871  0.0620
 9409SOL    HW239687   2.393   3.257   5.963 -1.9466  0.7718  1.8464
 9410SOL     OW39688   0.195   0.623   6.135  0.3725 -0.4953 -0.6913
 9410SOL    HW139689   0.198   0.549   6.196 -2.2594  0.1937  0.2765
 9410SOL    HW239690   0.280   0.662   6.156  0.4944  0.0250 -2.2089
 9411SOL     OW39691   2.307   1.479   3.528 -0.0497 -0.5964 -0.4957
 9411SOL    HW139692   2.358   1.462   3.608 -0.1193 -0.2095 -0.3679
 9411SOL    HW239693   2.238   1.414   3.538 -1.1491  1.0825  3.1953
 9412SOL     OW39694   0.689   2.699  17.388  0.7912  0.3222  0.0290
 9412SOL    HW139695   0.701   2.714  17.482  0.5537  0.1748  0.0834
 9412SOL    HW239696   0.645   2.781  17.364 -0.8662 -0.4306  0.4788
 9413SOL     OW39697   4.272   2.681   9.193  0.5912 -0.2905  0.5303
 9413SOL    HW139698   4.268   2.647   9.103 -1.3641  2.6579 -0.4841
 9413SOL    HW239699   4.307   2.766   9.168  1.4944 -0.1270  2.3237
 9414SOL     OW39700   3.271   4.555  15.844 -0.3571  0.1782 -0.2650
 9414SOL    HW139701   3.274   4.469  15.803  0.4705 -0.2402  0.6652
 9414SOL    HW239702   3.204   4.587  15.784 -2.8154 -1.4082  1.6582
 9415SOL     OW39703   0.989   1.353   4.961  0.3224 -0.2768  0.0229
 9415SOL    HW139704   0.930   1.281   4.985 -1.1838  0.5399 -1.2705
 9415SOL    HW239705   1.070   1.310   4.987 -0.2414  0.0244  2.3348
 9416SOL     OW39706   0.615   2.873   7.774  0.2755 -0.2356  1.4351
 9416SOL    HW139707   0.556   2.919   7.714  1.6677  0.0690  0.2949
 9416SOL    HW239708   0.549   2.838   7.833 -1.4844 -0.9991 -0.9687
 9417SOL     OW39709   2.391   1.457   0.154 -0.1656  0.0125 -0.3533
 9417SOL    HW139710   2.395   1.383   0.094  0.8843 -1.5940  1.6814
 9417SOL    HW239711   2.317   1.510   0.126  0.1484  0.4162 -0.4318
 9418SOL     OW39712   1.473   0.568   4.692  0.5813 -0.0527 -0.6724
 9418SOL    HW139713   1.389   0.541   4.653  0.6886 -1.3646 -0.0066
 9418SOL    HW239714   1.538   0.569   4.622 -0.9705  0.6611 -2.1112
 9419SOL     OW39715   3.454   3.833   2.693  0.2525 -0.4297  0.2662
 9419SOL    HW139716   3.467   3.879   2.777 -1.6137  0.7913 -0.1036
 9419SOL    HW239717   3.481   3.744   2.712  0.4272 -0.5513 -0.5951
 9420SOL     OW39718   3.626   4.138   6.552 -0.1011  0.3822 -0.1024
 9420SOL    HW139719   3.647   4.231   6.561  1.0845  0.0288  0.7521
 9420SOL    HW239720   3.546   4.155   6.503  0.1069 -0.3422 -0.7002
 9421SOL     OW39721   1.852   2.886   3.025  0.1295  0.0085 -0.1657
 9421SOL    HW139722   1.824   2.798   3.051  2.5330 -1.1777 -1.5288
 9421SOL    HW239723   1.848   2.935   3.107 -0.5944  1.4637 -1.0753
 9422SOL     OW39724   4.358   3.556  11.286  0.3596  0.4006  0.2032
 9422SOL    HW139725   4.437   3.553  11.340  0.0884  2.3328  0.7270
 9422SOL    HW239726   4.289   3.553  11.353  0.5589 -2.4713  0.2568
 9423SOL     OW39727   4.018   4.421  16.007 -0.3299 -0.5737  0.0004
 9423SOL    HW139728   4.077   4.496  16.018  1.2200 -2.0411  1.6164
 9423SOL    HW239729   4.054   4.376  15.930  2.1339 -0.3834  1.0455
 9424SOL     OW39730   4.502   3.004   7.746  0.1609 -0.6383 -0.1660
 9424SOL    HW139731   4.493   2.936   7.813  0.9191  0.2106  0.7996
 9424SOL    HW239732   4.468   3.079   7.795 -1.5460 -0.6115 -1.4083
 9425SOL     OW39733   0.548   0.525   1.665 -0.6552  0.0932  0.4825
 9425SOL    HW139734   0.638   0.524   1.631 -1.1730 -3.2542 -0.7888
 9425SOL    HW239735   0.506   0.605   1.633 -0.8584 -0.0786  0.3207
 9426SOL     OW39736   1.800   0.932   6.646 -0.1659  0.0362  0.6393
 9426SOL    HW139737   1.795   1.026   6.629  0.0180  0.3313  2.1585
 9426SOL    HW239738   1.792   0.926   6.741  3.3611  0.7086  0.9733
 9427SOL     OW39739   1.743   3.150   0.766 -0.7738  0.3466 -0.2967
 9427SOL    HW139740   1.679   3.087   0.799  1.0312 -2.5029 -2.2453
 9427SOL    HW239741   1.814   3.094   0.733 -0.0209 -1.4221  4.2478
 9428SOL     OW39742   1.554   4.220   0.601 -0.5097  0.7833  0.0057
 9428SOL    HW139743   1.521   4.290   0.544 -0.2560 -0.4306 -1.6555
 9428SOL    HW239744   1.638   4.196   0.561  0.0438  0.9402  1.0967
 9429SOL     OW39745   1.449   2.835   9.997  0.0076 -0.1687  0.0830
 9429SOL    HW139746   1.495   2.894   9.937 -0.3630 -0.1442 -0.1710
 9429SOL    HW239747   1.476   2.865  10.084 -1.7230  1.3777  0.0732
 9430SOL     OW39748   0.501   3.920  10.735  0.2664  0.0146 -0.2279
 9430SOL    HW139749   0.461   3.923  10.648 -2.5267 -2.3323  1.0119
 9430SOL    HW239750   0.595   3.922  10.716  0.0617  3.5974 -0.8586
 9431SOL     OW39751   4.407   2.015  16.077 -0.5389 -0.0122 -0.2899
 9431SOL    HW139752   4.325   1.986  16.118  1.0743 -1.6342  1.7334
 9431SOL    HW239753   4.475   1.957  16.111  1.0656  2.1469  0.1510
 9432SOL     OW39754   4.631   0.756   9.347  0.9942  0.0020  0.1122
 9432SOL    HW139755   4.588   0.682   9.305  1.0731  0.3988 -0.6767
 9432SOL    HW239756   4.599   0.758   9.437  1.7055 -2.3117  0.4140
 9433SOL     OW39757   3.867   2.006   2.496  0.1952 -0.2793  0.2500
 9433SOL    HW139758   3.868   2.071   2.426  0.9505 -0.8335 -0.2537
 9433SOL    HW239759   3.774   1.982   2.491  0.2442 -0.1050 -1.5921
 9434SOL     OW39760   3.631   3.828   4.694  0.6016 -0.2550  0.2182
 9434SOL    HW139761   3.722   3.832   4.666  0.3591  2.4866 -0.1295
 9434SOL    HW239762   3.630   3.865   4.782  0.1173  0.0885  0.0684
 9435SOL     OW39763   1.625   3.586   5.285 -0.4046 -0.2561  0.4298
 9435SOL    HW139764   1.610   3.521   5.354 -1.6282  1.4902  1.8112
 9435SOL    HW239765   1.720   3.596   5.282 -0.2950 -0.6555  2.5999
 9436SOL     OW39766   0.102   3.038   7.434  0.0306 -0.5511  0.5081
 9436SOL    HW139767   0.077   2.986   7.511 -1.0241 -0.6292  0.1179
 9436SOL    HW239768   0.170   3.096   7.468 -0.2880 -0.4785  1.0189
 9437SOL     OW39769   1.426   0.486   3.877  0.0097  0.5202  0.3957
 9437SOL    HW139770   1.430   0.578   3.903  2.3547  0.8345 -1.0599
 9437SOL    HW239771   1.337   0.471   3.847 -0.2267  1.2374  0.7412
 9438SOL     OW39772   0.950   3.092   9.202  0.8578  0.1522 -0.2237
 9438SOL    HW139773   0.927   3.026   9.136 -1.0809  0.6755 -0.0788
 9438SOL    HW239774   0.870   3.143   9.212 -0.4012 -1.8832  0.1935
 9439SOL     OW39775   2.592   0.487  10.185 -0.0836 -0.5291 -0.2395
 9439SOL    HW139776   2.520   0.428  10.162 -1.2297 -0.7480  3.9107
 9439SOL    HW239777   2.575   0.501  10.278 -0.3983 -1.5390 -0.1467
 9440SOL     OW39778   3.060   3.504   1.063  0.0065  0.3077  0.2030
 9440SOL    HW139779   2.997   3.556   1.013  1.1744  0.4582 -1.0995
 9440SOL    HW239780   3.026   3.517   1.152 -0.3138  1.4932 -0.0792
 9441SOL     OW39781   0.102   2.158   4.820 -0.3477 -0.3309 -0.1410
 9441SOL    HW139782   0.171   2.161   4.754 -1.3760  2.8693 -1.0781
 9441SOL    HW239783   0.115   2.071   4.858 -0.3394  0.1392  0.9394
 9442SOL     OW39784   3.680   3.795   3.011  0.7306  0.0316  0.0974
 9442SOL    HW139785   3.673   3.891   3.016  0.2075 -0.0749  1.3668
 9442SOL    HW239786   3.595   3.767   3.045  0.9608  1.8462  2.1812
 9443SOL     OW39787   0.260   2.433   2.383 -0.2281  0.4574  0.1592
 9443SOL    HW139788   0.335   2.486   2.411 -0.8054  1.7501 -0.7558
 9443SOL    HW239789   0.226   2.441   2.472 -0.2094  0.8285  0.1349
 9444SOL     OW39790   0.574   3.563   5.791 -0.2792 -0.3040  0.0920
 9444SOL    HW139791   0.521   3.489   5.820  0.1574  0.0528  1.7662
 9444SOL    HW239792   0.514   3.590   5.721 -1.3481 -0.2233  1.0366
 9445SOL     OW39793   3.701   0.225  11.820  0.3656  0.1033 -0.4109
 9445SOL    HW139794   3.735   0.313  11.806  1.0535 -0.1641 -0.4125
 9445SOL    HW239795   3.648   0.238  11.898  1.4001 -0.3312  0.3633
 9446SOL     OW39796   2.657   4.248   1.930  0.1679  0.2267  0.5352
 9446SOL    HW139797   2.725   4.184   1.949 -1.5723 -1.4877  1.0693
 9446SOL    HW239798   2.627   4.214   1.845 -0.5377  2.0128  0.0717
 9447SOL     OW39799   2.996   2.627   1.829  0.2537 -0.3298 -0.3590
 9447SOL    HW139800   3.056   2.702   1.831  3.1934 -2.5761 -2.8084
 9447SOL    HW239801   3.051   2.568   1.777  1.6165 -0.1444  0.8691
 9448SOL     OW39802   1.391   0.978   6.058  0.2052  0.2791  0.0548
 9448SOL    HW139803   1.376   0.928   5.977  0.7861 -0.0504  0.1540
 9448SOL    HW239804   1.388   1.066   6.021 -1.9474  0.3567  0.3896
 9449SOL     OW39805   4.104   1.372   0.986 -0.2888  0.2308  0.2403
 9449SOL    HW139806   4.104   1.286   0.945 -0.3341  1.2484 -1.9173
 9449SOL    HW239807   4.012   1.390   1.004  0.1123  1.9193  0.6389
 9450SOL     OW39808   2.168   1.157  10.674 -0.5911  0.5236 -0.1960
 9450SOL    HW139809   2.125   1.098  10.736  1.4103 -0.6088  0.1285
 9450SOL    HW239810   2.113   1.234  10.663 -0.6931  0.2607 -1.5424
 9451SOL     OW39811   1.341   0.488   8.213  0.2064 -0.3702  0.7917
 9451SOL    HW139812   1.368   0.473   8.123  1.6191 -1.6919  1.4396
 9451SOL    HW239813   1.249   0.461   8.212 -0.5964  2.2081  2.7593
 9452SOL     OW39814   3.944   2.952  13.477  0.0861 -0.2572  0.0123
 9452SOL    HW139815   3.965   2.867  13.517 -0.0243  0.1902  1.0083
 9452SOL    HW239816   3.856   2.967  13.511 -0.0256  0.8606 -0.7651
 9453SOL     OW39817   2.929   4.165   8.300 -0.2481 -0.2550  0.6186
 9453SOL    HW139818   2.889   4.092   8.346  0.9391 -1.0947  0.3386
 9453SOL    HW239819   2.938   4.125   8.214  2.4793 -0.2078  0.8723
 9454SOL     OW39820   2.658   3.248   8.216 -0.1457  0.5405  0.3007
 9454SOL    HW139821   2.576   3.205   8.194 -1.0807  1.8560  1.2343
 9454SOL    HW239822   2.639   3.342   8.208 -0.2438  0.4095 -0.9723
 9455SOL     OW39823   0.323   4.492   8.754  0.3649  0.7302 -0.6784
 9455SOL    HW139824   0.403   4.480   8.704  0.1820  0.7053 -0.9688
 9455SOL    HW239825   0.345   4.559   8.818  4.4560 -2.9441  1.7690
 9456SOL     OW39826   1.210   0.432   3.110 -0.7261 -0.3524  0.4517
 9456SOL    HW139827   1.196   0.365   3.177  0.3632 -0.5512  0.4733
 9456SOL    HW239828   1.170   0.391   3.033 -1.8338 -0.4784  1.0866
 9457SOL     OW39829   2.428   3.252   3.369  0.7598 -0.2805 -0.5975
 9457SOL    HW139830   2.459   3.168   3.334 -0.3598 -0.8209 -0.2755
 9457SOL    HW239831   2.424   3.234   3.463  1.1747  0.0652 -0.5122
 9458SOL     OW39832   4.277   4.605  12.049  0.2760 -0.8032 -0.0064
 9458SOL    HW139833   4.346   4.541  12.036  1.9039  0.7591  0.9341
 9458SOL    HW239834   4.206   4.562  12.098 -2.0204  0.4423 -2.2199
 9459SOL     OW39835   3.727   4.196   3.654 -0.0931  0.1353  0.5099
 9459SOL    HW139836   3.694   4.113   3.618  0.3579  0.9795 -1.8815
 9459SOL    HW239837   3.678   4.210   3.735 -1.9422 -0.9801 -0.4050
 9460SOL     OW39838   4.319   3.242   2.293  0.3291 -0.3824  0.1571
 9460SOL    HW139839   4.317   3.218   2.385 -0.8714 -0.0194  0.2311
 9460SOL    HW239840   4.382   3.313   2.302  1.0879 -0.9393 -0.8030
 9461SOL     OW39841   4.715   3.740  17.510 -0.0321 -0.3839 -0.0271
 9461SOL    HW139842   0.012   3.752  17.417  1.1563  0.2913  0.3494
 9461SOL    HW239843   0.059   3.676  17.525  0.4686  0.6205  1.8394
 9462SOL     OW39844   1.619   3.403   0.483  0.1435  0.2077 -0.1962
 9462SOL    HW139845   1.598   3.496   0.474  4.6035  1.0888 -1.2515
 9462SOL    HW239846   1.530   3.369   0.469  0.2025 -0.8235  1.9344
 9463SOL     OW39847   2.099   0.512   8.670  0.6945  0.3997 -0.2453
 9463SOL    HW139848   2.183   0.485   8.706 -0.5811 -1.0233  1.6425
 9463SOL    HW239849   2.033   0.461   8.718 -1.1069  1.2250 -1.8116
 9464SOL     OW39850   1.824   0.380  11.958 -0.5820  0.4073  0.4264
 9464SOL    HW139851   1.742   0.338  11.935  0.7716 -2.4656  0.9186
 9464SOL    HW239852   1.833   0.356  12.051  0.5145  0.9159  0.4542
 9465SOL     OW39853   4.575   3.512   8.360  0.1570 -0.1126 -0.2953
 9465SOL    HW139854   4.587   3.417   8.368  0.3952 -0.1434 -1.0458
 9465SOL    HW239855   4.490   3.516   8.316  1.3437  0.1329 -2.5451
 9466SOL     OW39856   2.829   3.603   0.456 -0.2066  0.2533  0.3569
 9466SOL    HW139857   2.737   3.630   0.449  0.8304  3.0643 -2.5996
 9466SOL    HW239858   2.840   3.608   0.551 -1.0112  0.1868  0.4573
 9467SOL     OW39859   3.259   4.101   2.610  0.1022  0.1409 -0.0604
 9467SOL    HW139860   3.269   4.176   2.668  0.8049 -0.6458  0.8256
 9467SOL    HW239861   3.354   4.100   2.598  0.0418 -0.7888 -0.4542
 9468SOL     OW39862   1.933   0.674   7.629 -0.2296 -0.5458  0.7775
 9468SOL    HW139863   1.839   0.655   7.628 -0.2245 -0.4238 -2.8157
 9468SOL    HW239864   1.955   0.618   7.555 -3.1298  0.4502 -0.8515
 9469SOL     OW39865   0.348   3.766  14.154 -0.9792  0.4146  0.0826
 9469SOL    HW139866   0.288   3.840  14.159 -1.9839 -0.4498  0.7622
 9469SOL    HW239867   0.294   3.689  14.173  3.1276 -2.6156 -0.5256
 9470SOL     OW39868   2.157   3.592   8.246  0.0174  0.4823 -0.0582
 9470SOL    HW139869   2.068   3.626   8.260  0.2446  0.2580  1.9310
 9470SOL    HW239870   2.212   3.633   8.312  0.3213  0.1236 -0.0911
 9471SOL     OW39871   4.003   2.268  12.902 -0.2033  0.1116 -0.9533
 9471SOL    HW139872   3.945   2.330  12.945 -0.7401  0.8250 -2.7454
 9471SOL    HW239873   4.007   2.202  12.972 -1.2305  0.1830 -0.8262
 9472SOL     OW39874   2.490   2.855  10.530 -0.1629 -0.0809  0.2343
 9472SOL    HW139875   2.433   2.932  10.529  1.7501  1.3045 -0.5473
 9472SOL    HW239876   2.452   2.801  10.461  1.5925 -0.3156 -0.5282
 9473SOL     OW39877   3.591   2.544  17.637  0.6703  0.3603  0.6207
 9473SOL    HW139878   3.565   2.522  17.548 -0.4446  0.3680  0.9413
 9473SOL    HW239879   3.678   2.580  17.619  0.8104 -0.2788 -0.0100
 9474SOL     OW39880   4.691   2.749   4.224 -0.6777  0.8417  0.1611
 9474SOL    HW139881   4.720   2.659   4.235 -0.0505  0.7868 -2.0607
 9474SOL    HW239882   0.041   2.785   4.178 -1.2904  0.8544 -0.8343
 9475SOL     OW39883   1.632   3.433   1.926  0.0175 -0.4947 -0.3100
 9475SOL    HW139884   1.576   3.467   1.996  0.9772 -1.2507  0.8402
 9475SOL    HW239885   1.582   3.354   1.907 -0.3264 -0.2605 -0.3875
 9476SOL     OW39886   0.906   2.257   3.011 -0.5811 -0.2463 -0.7086
 9476SOL    HW139887   0.876   2.297   3.092 -0.1297  0.6630 -0.9809
 9476SOL    HW239888   0.999   2.250   3.030 -0.2493 -2.5812 -3.1470
 9477SOL     OW39889   2.295   0.795   5.139  0.3948  0.0570 -0.0529
 9477SOL    HW139890   2.359   0.726   5.155 -0.4333 -0.4450  1.0660
 9477SOL    HW239891   2.342   0.860   5.087 -1.0341  0.8377 -0.3739
 9478SOL     OW39892   4.674   3.214  12.563 -0.0963 -0.2143  0.2764
 9478SOL    HW139893   4.612   3.202  12.634  1.4925  1.3868  1.9247
 9478SOL    HW239894   0.017   3.262  12.611  0.0837 -1.2100  0.9945
 9479SOL     OW39895   3.091   1.601  14.276 -0.4824 -0.5687 -0.3845
 9479SOL    HW139896   3.050   1.647  14.203  2.5989  2.9413  0.1326
 9479SOL    HW239897   3.100   1.511  14.244 -1.9244  0.0911 -2.5717
 9480SOL     OW39898   1.514   1.475   3.544  0.0254 -0.2962  0.5511
 9480SOL    HW139899   1.474   1.429   3.618 -1.0951  0.9672  0.7168
 9480SOL    HW239900   1.586   1.523   3.585  1.1397 -3.2600  2.0591
 9481SOL     OW39901   2.409   4.365   8.573 -0.0424  0.1905 -0.3783
 9481SOL    HW139902   2.431   4.301   8.505 -1.3373 -0.3135 -0.3152
 9481SOL    HW239903   2.321   4.392   8.547 -0.1948 -0.2781 -0.3647
 9482SOL     OW39904   1.368   3.990   6.926 -0.2204 -0.0549  0.5138
 9482SOL    HW139905   1.290   3.936   6.917 -0.4871  0.4834 -0.3719
 9482SOL    HW239906   1.402   3.941   7.001 -1.1065 -1.1529  0.1884
 9483SOL     OW39907   2.637   3.996   2.170  0.4313  0.0949  0.4410
 9483SOL    HW139908   2.686   4.030   2.094 -2.2732  0.1044 -1.2906
 9483SOL    HW239909   2.661   4.070   2.226  2.1960  1.1933 -1.7603
 9484SOL     OW39910   0.066   1.894  15.851 -0.4290 -0.4194  0.0246
 9484SOL    HW139911   0.094   1.918  15.763  0.6430 -2.8988 -0.3144
 9484SOL    HW239912   0.007   1.967  15.866 -0.8129 -0.8004  0.3799
 9485SOL     OW39913   1.253   3.581   8.818 -0.0917  0.4778  0.8220
 9485SOL    HW139914   1.286   3.574   8.907  2.5812  0.7511 -0.1531
 9485SOL    HW239915   1.183   3.646   8.809 -2.4222 -2.3021 -1.2005
 9486SOL     OW39916   1.568   0.659   2.767 -0.1334 -0.3025  0.0251
 9486SOL    HW139917   1.502   0.682   2.701 -0.7707 -1.4570  0.2654
 9486SOL    HW239918   1.507   0.644   2.839 -2.2751 -0.9407 -1.9210
 9487SOL     OW39919   1.484   0.483  14.848 -0.1507 -0.1809 -0.3139
 9487SOL    HW139920   1.478   0.517  14.759  0.0554  0.6340 -0.0164
 9487SOL    HW239921   1.548   0.412  14.842  0.2065  0.0475  0.6952
 9488SOL     OW39922   2.596   1.137   3.454  0.1393  0.0099 -0.3150
 9488SOL    HW139923   2.621   1.089   3.375  3.5518  0.3050  0.5888
 9488SOL    HW239924   2.574   1.220   3.412  3.4465  1.6374  1.1683
 9489SOL     OW39925   4.241   3.451   5.929 -0.0510  0.0245  0.1494
 9489SOL    HW139926   4.167   3.421   5.982 -0.9808  4.1497  1.1800
 9489SOL    HW239927   4.201   3.454   5.842  2.6890 -0.0002 -1.1169
 9490SOL     OW39928   2.365   2.890   4.031 -0.6460  0.0284 -0.5277
 9490SOL    HW139929   2.318   2.970   4.007 -1.5213 -1.0871 -2.5904
 9490SOL    HW239930   2.455   2.914   4.051 -1.0056  1.8425 -1.1274
 9491SOL     OW39931   1.331   0.386  11.385 -0.1315 -0.3479  0.3221
 9491SOL    HW139932   1.371   0.338  11.458  2.2956  1.7539  0.3648
 9491SOL    HW239933   1.383   0.366  11.307  0.6228 -0.6701  0.8953
 9492SOL     OW39934   4.229   3.046   8.887 -0.0447 -0.1897  0.2802
 9492SOL    HW139935   4.146   3.030   8.932 -0.0958 -0.6272  0.0326
 9492SOL    HW239936   4.215   2.992   8.809 -1.2097 -0.0136  0.3663
 9493SOL     OW39937   2.280   3.482   4.578 -0.8326  0.2835  0.2975
 9493SOL    HW139938   2.284   3.401   4.528 -0.7436 -0.5042  1.5627
 9493SOL    HW239939   2.247   3.542   4.511  1.9198  1.0568 -0.3332
 9494SOL     OW39940   3.984   1.735   9.153  0.3879 -0.2335  0.8627
 9494SOL    HW139941   3.967   1.695   9.068  1.3734 -0.7253  0.8935
 9494SOL    HW239942   3.897   1.715   9.186  1.0106 -0.9129  2.0792
 9495SOL     OW39943   1.174   2.352   0.824 -0.3859  0.0929 -0.6264
 9495SOL    HW139944   1.080   2.332   0.820 -0.4211  0.0460  0.3388
 9495SOL    HW239945   1.197   2.351   0.731  3.2080  0.7783  0.2461
 9496SOL     OW39946   1.277   2.332  12.353  0.3511 -0.8176 -0.1672
 9496SOL    HW139947   1.220   2.408  12.364 -0.8702 -2.0367  1.7988
 9496SOL    HW239948   1.344   2.348  12.419  0.8627 -0.4296 -0.7709
 9497SOL     OW39949   2.220   1.354   6.315  0.7924  0.3575 -0.5323
 9497SOL    HW139950   2.300   1.384   6.357  1.6877 -0.3131 -1.7552
 9497SOL    HW239951   2.247   1.270   6.278  0.8889 -0.2038  0.8218
 9498SOL     OW39952   0.530   2.007   7.837  0.5485 -0.1426 -0.0690
 9498SOL    HW139953   0.551   1.949   7.911  2.1646 -0.0618 -0.4664
 9498SOL    HW239954   0.574   2.089   7.860  0.7353 -0.2097 -0.1926
 9499SOL     OW39955   1.216   3.319   3.640 -0.1817 -0.0749 -0.1582
 9499SOL    HW139956   1.225   3.333   3.734 -0.5189 -0.1559 -0.1118
 9499SOL    HW239957   1.309   3.312   3.620  0.1182 -0.8443  1.5503
 9500SOL     OW39958   2.732   4.702   4.063 -0.2772  0.3777 -0.6981
 9500SOL    HW139959   2.687   4.643   4.002 -1.1564 -0.6888  0.9937
 9500SOL    HW239960   2.766   0.040   3.999 -1.6433  2.0067  0.1964
 9501SOL     OW39961   0.685   2.510   1.215 -0.2086  0.3861  0.6748
 9501SOL    HW139962   0.642   2.581   1.168 -1.1894 -0.1851  0.7104
 9501SOL    HW239963   0.621   2.439   1.207  0.5381 -0.3376  1.0653
 9502SOL     OW39964   0.922   2.166   7.962  0.2445 -0.0537  0.1064
 9502SOL    HW139965   0.944   2.244   8.012 -2.6374  0.0301  1.2284
 9502SOL    HW239966   0.956   2.096   8.016  0.2966 -0.7338 -0.8052
 9503SOL     OW39967   0.901   4.468  15.466 -0.5339  0.4790  0.7590
 9503SOL    HW139968   0.963   4.525  15.420  0.8986 -1.3086  0.5140
 9503SOL    HW239969   0.953   4.454  15.545  0.4340 -2.8696 -0.4817
 9504SOL     OW39970   0.624   2.552  15.277 -0.3608  1.0122 -0.3589
 9504SOL    HW139971   0.715   2.571  15.255 -0.4934  0.9706 -0.9377
 9504SOL    HW239972   0.585   2.546  15.190  0.0929  2.4496 -0.6601
 9505SOL     OW39973   1.030   0.257   7.453  0.5381  0.1437  0.3685
 9505SOL    HW139974   1.006   0.347   7.476 -0.1296  1.0208 -3.6480
 9505SOL    HW239975   1.016   0.205   7.532  0.5564 -0.4139  0.0040
 9506SOL     OW39976   4.110   1.478   3.156  0.3418  0.7429  0.1912
 9506SOL    HW139977   4.150   1.560   3.185  0.7260  0.5306  0.2553
 9506SOL    HW239978   4.127   1.415   3.226  1.9191  1.2491  0.2629
 9507SOL     OW39979   0.377   2.294  17.354 -0.2240 -0.2390  0.4849
 9507SOL    HW139980   0.313   2.305  17.425  0.6448 -2.1104  1.5537
 9507SOL    HW239981   0.330   2.267  17.275  0.6919  0.1645 -0.2035
 9508SOL     OW39982   0.632   1.937   3.751  0.3236  0.0057  0.0460
 9508SOL    HW139983   0.721   1.914   3.727 -0.3543 -1.8845 -0.6828
 9508SOL    HW239984   0.594   1.849   3.751 -0.7111  0.4487 -0.9944
 9509SOL     OW39985   2.466   2.233   2.075  0.5212  0.2979 -0.0825
 9509SOL    HW139986   2.454   2.290   2.151  2.0732  0.6006 -0.0649
 9509SOL    HW239987   2.395   2.250   2.013 -0.3521  1.0643  1.1275
 9510SOL     OW39988   4.386   2.816   3.494 -0.1601 -0.0200  0.5402
 9510SOL    HW139989   4.445   2.854   3.428  0.0277 -0.0460  0.6925
 9510SOL    HW239990   4.308   2.870   3.478 -0.2398 -0.4889 -0.6380
 9511SOL     OW39991   1.888   0.716   3.099  0.1472 -0.0873  0.0427
 9511SOL    HW139992   1.836   0.657   3.045 -0.3220 -0.5370  0.9854
 9511SOL    HW239993   1.832   0.792   3.087 -0.7890 -0.3087  2.9500
 9512SOL     OW39994   0.224   1.983   2.525 -0.4771 -0.1319 -1.1596
 9512SOL    HW139995   0.290   1.941   2.580 -1.5995 -1.4442 -0.7877
 9512SOL    HW239996   0.178   1.901   2.504 -3.4699  0.8193  1.5710
 9513SOL     OW39997   1.472   3.065   1.764 -0.4234 -0.8385  0.0507
 9513SOL    HW139998   1.468   3.145   1.712  2.4726 -0.8107 -0.1582
 9513SOL    HW239999   1.419   3.005   1.711 -2.1128  1.0995 -0.4586
 9514SOL     OW40000   2.553   2.370   8.374  0.3254 -0.2676  0.2456
 9514SOL    HW140001   2.621   2.437   8.365  1.1694 -0.7753  2.7073
 9514SOL    HW240002   2.541   2.363   8.469 -1.5356 -0.7443 -0.0401
 9515SOL     OW40003   2.080   2.821   6.687  0.3414 -0.1784  0.1782
 9515SOL    HW140004   2.063   2.915   6.695  0.9663 -0.1921  1.7566
 9515SOL    HW240005   2.013   2.788   6.747 -0.1752 -1.5233 -1.1574
 9516SOL     OW40006   2.879   4.301  11.952  0.4325 -0.5632  0.5958
 9516SOL    HW140007   2.926   4.223  11.923  0.2928 -0.9656  1.4386
 9516SOL    HW240008   2.917   4.373  11.901 -0.1383 -0.6883 -0.0064
 9517SOL     OW40009   3.798   3.012   7.708 -0.6354  0.4700 -0.2316
 9517SOL    HW140010   3.809   2.979   7.797 -1.7669  3.1793  0.8939
 9517SOL    HW240011   3.771   2.936   7.657 -2.0262 -0.4206  1.8190
 9518SOL     OW40012   4.556   2.802   4.467 -0.3830  0.5080  0.5754
 9518SOL    HW140013   4.584   2.730   4.523  0.9194 -0.3668 -1.1915
 9518SOL    HW240014   4.620   2.788   4.397 -3.6347 -0.0287 -2.3529
 9519SOL     OW40015   1.302   0.515   8.888  0.3528  0.2166  0.0357
 9519SOL    HW140016   1.348   0.434   8.906 -2.0731 -0.4517  3.3298
 9519SOL    HW240017   1.362   0.561   8.829  2.2126 -0.4021  1.4646
 9520SOL     OW40018   2.896   2.702  11.787 -0.1512 -0.1996 -0.4293
 9520SOL    HW140019   2.912   2.791  11.756  1.2113 -0.8447 -1.5648
 9520SOL    HW240020   2.812   2.693  11.740 -0.0731  1.5051 -0.8939
 9521SOL     OW40021   2.012   2.030   7.849 -0.2706 -0.5032 -0.3151
 9521SOL    HW140022   1.969   1.948   7.872 -1.7486  0.0021 -1.2839
 9521SOL    HW240023   1.994   2.037   7.756  1.9186  2.4344 -0.5111
 9522SOL     OW40024   0.490   3.222   3.097  0.8142 -0.1106 -0.7190
 9522SOL    HW140025   0.497   3.142   3.149  0.3867  1.3863  1.6509
 9522SOL    HW240026   0.404   3.258   3.121  0.9854  0.0889 -0.4133
 9523SOL     OW40027   0.608   0.066   1.677 -0.5643  0.0519 -0.1507
 9523SOL    HW140028   0.605   4.701   1.644  0.4796  0.2747 -0.8341
 9523SOL    HW240029   0.638   0.115   1.601 -2.6038  0.2621 -0.8277
 9524SOL     OW40030   3.155   1.351  14.198  0.3436  0.0552  0.3032
 9524SOL    HW140031   3.186   1.300  14.124  2.4920 -0.9905  1.9331
 9524SOL    HW240032   3.240   1.369  14.237  2.0151 -3.4307 -1.7617
 9525SOL     OW40033   3.227   3.732   2.057 -0.0156 -0.5723 -0.3125
 9525SOL    HW140034   3.238   3.825   2.079 -2.0709  0.0359 -1.8448
 9525SOL    HW240035   3.209   3.740   1.964 -0.9861  1.7623  0.0606
 9526SOL     OW40036   2.488   1.657  13.952 -0.3679 -0.0582  0.2797
 9526SOL    HW140037   2.412   1.689  13.904 -0.0622 -0.1612 -0.2801
 9526SOL    HW240038   2.559   1.712  13.918 -1.0369  1.3987  1.2554
 9527SOL     OW40039   3.815   0.212   8.751  0.4381 -0.1142 -0.3032
 9527SOL    HW140040   3.826   0.117   8.742 -0.4954 -0.4284  2.0139
 9527SOL    HW240041   3.766   0.212   8.833  1.6247  1.1592  0.4115
 9528SOL     OW40042   0.124   1.669   9.802 -0.4788 -0.2481  0.1406
 9528SOL    HW140043   0.071   1.603   9.846 -0.3370 -0.2993  0.2338
 9528SOL    HW240044   0.100   1.664   9.709  0.0054 -1.9033  0.1044
 9529SOL     OW40045   0.208   2.916   4.710 -0.3956  0.5302  0.6596
 9529SOL    HW140046   0.139   2.941   4.648 -0.0119 -1.8858 -0.7479
 9529SOL    HW240047   0.200   2.820   4.704 -1.0063  0.6594 -0.6180
 9530SOL     OW40048   1.155   1.393  17.594  0.0421  0.6138  0.3147
 9530SOL    HW140049   1.072   1.403  17.642 -0.4204  2.4385 -0.8669
 9530SOL    HW240050   1.214   1.391  17.669 -0.0264 -0.1633  0.3486
 9531SOL     OW40051   1.300   2.933   9.650  0.1083 -0.0915 -0.5559
 9531SOL    HW140052   1.260   2.856   9.688 -1.5058  1.3035  0.5577
 9531SOL    HW240053   1.369   2.951   9.714  0.0242  4.0818 -1.6533
 9532SOL     OW40054   3.861   3.114   4.088 -0.1461  0.1089  0.2554
 9532SOL    HW140055   3.867   3.099   3.994  0.5873 -1.5389  0.5596
 9532SOL    HW240056   3.817   3.199   4.084 -1.6358 -0.6729  0.0381
 9533SOL     OW40057   3.395   4.385   4.550  0.0750 -0.0740  0.0993
 9533SOL    HW140058   3.360   4.470   4.575 -0.1819  0.2607 -1.4265
 9533SOL    HW240059   3.336   4.355   4.481 -2.3378  1.1977  1.6123
 9534SOL     OW40060   4.413   3.682  14.767 -0.0875 -0.3497 -0.0514
 9534SOL    HW140061   4.383   3.732  14.842  1.5761 -1.4226  1.3294
 9534SOL    HW240062   4.466   3.750  14.724  0.3348 -0.8694 -0.3627
 9535SOL     OW40063   4.264   3.978   4.020 -0.4998  0.0570  0.3243
 9535SOL    HW140064   4.183   4.024   3.998  1.3334  1.6566 -3.1244
 9535SOL    HW240065   4.315   4.058   4.035 -2.2993  1.2622  0.0674
 9536SOL     OW40066   4.537   3.737   2.164  0.5201  0.2592  0.3287
 9536SOL    HW140067   4.449   3.756   2.130  0.2968 -0.0502  0.7403
 9536SOL    HW240068   4.586   3.719   2.084 -0.2135 -2.2265  0.4644
 9537SOL     OW40069   4.683   2.554   8.029  0.2863  0.5071  0.2398
 9537SOL    HW140070   4.690   2.528   8.121 -2.6613 -2.0273 -0.2578
 9537SOL    HW240071   4.620   2.488   8.000  1.7481 -0.9375  0.2897
 9538SOL     OW40072   4.607   0.602   0.409  0.1862 -0.3287 -0.2188
 9538SOL    HW140073   4.587   0.583   0.501 -0.0291 -0.6601 -0.3345
 9538SOL    HW240074   4.702   0.612   0.419  0.2729  0.3377 -1.6678
 9539SOL     OW40075   0.675   3.777   4.485  0.1841  0.3068 -0.3574
 9539SOL    HW140076   0.643   3.768   4.395 -0.4223 -2.3199  0.1163
 9539SOL    HW240077   0.618   3.714   4.529 -0.8960  0.9677 -0.8211
 9540SOL     OW40078   4.640   2.490   8.285 -0.4573  0.3140  0.1258
 9540SOL    HW140079   4.701   2.529   8.348 -1.8709  2.5608  0.1083
 9540SOL    HW240080   4.562   2.545   8.284 -1.9304 -1.8092 -0.4280
 9541SOL     OW40081   0.142   0.959   6.861  0.0824 -0.1370  0.0741
 9541SOL    HW140082   0.072   1.023   6.865  0.4603  0.2268  1.0993
 9541SOL    HW240083   0.146   0.944   6.767  1.8327 -0.1664  0.1473
 9542SOL     OW40084   3.738   0.580   7.700  0.7168  0.7937  0.5768
 9542SOL    HW140085   3.653   0.588   7.744 -0.4739  2.5093 -2.0239
 9542SOL    HW240086   3.781   0.643   7.758 -0.0644  1.4823  0.4162
 9543SOL     OW40087   3.533   0.299  17.255 -0.3926  0.5232 -0.6164
 9543SOL    HW140088   3.554   0.347  17.335  2.5388 -1.1562 -0.3902
 9543SOL    HW240089   3.449   0.262  17.284 -0.5867  1.0868 -0.4604
 9544SOL     OW40090   2.565   3.254  13.200  0.0494 -0.1659  0.4663
 9544SOL    HW140091   2.496   3.259  13.267 -0.0709  0.2571  0.3118
 9544SOL    HW240092   2.559   3.340  13.158  0.6223  0.5622  1.8731
 9545SOL     OW40093   2.398   3.010   8.409 -0.5302 -0.1874  0.0314
 9545SOL    HW140094   2.477   3.002   8.463 -1.2621 -1.2684  0.9551
 9545SOL    HW240095   2.361   2.927   8.439 -0.1973  0.1121  1.2646
 9546SOL     OW40096   4.427   1.470  14.136 -0.1631 -0.4858 -0.1919
 9546SOL    HW140097   4.420   1.401  14.070 -0.7141 -1.0345  0.4364
 9546SOL    HW240098   4.336   1.472  14.167 -0.2803  0.8101 -0.6180
 9547SOL     OW40099   3.862   0.598   4.348 -0.3473  0.2865 -0.0326
 9547SOL    HW140100   3.955   0.620   4.354 -0.4426  1.0816 -1.3237
 9547SOL    HW240101   3.863   0.535   4.275  0.5022  0.9386 -0.5929
 9548SOL     OW40102   0.488   2.502   8.345 -0.5063 -0.0413  0.3614
 9548SOL    HW140103   0.414   2.557   8.321 -0.4694  0.3329  1.1020
 9548SOL    HW240104   0.561   2.563   8.355  0.7434 -1.6017  0.8867
 9549SOL     OW40105   3.538   1.456   4.557 -0.1534 -0.1225 -0.4414
 9549SOL    HW140106   3.633   1.449   4.543 -0.0413 -0.1981  0.3409
 9549SOL    HW240107   3.516   1.518   4.488  1.5121  2.3958  1.3006
 9550SOL     OW40108   4.000   3.662   4.888  0.2740 -0.4452  0.1203
 9550SOL    HW140109   4.020   3.573   4.857  4.2772  0.8468 -1.0306
 9550SOL    HW240110   3.934   3.640   4.954  0.3167 -0.1437  0.2618
 9551SOL     OW40111   1.357   2.670  17.105  0.4897  0.1356 -0.2183
 9551SOL    HW140112   1.307   2.628  17.175  0.4335  0.2332 -0.2005
 9551SOL    HW240113   1.357   2.761  17.136  1.1728  1.2099 -3.4247
 9552SOL     OW40114   0.016   0.734   6.967  0.2144  0.0656  0.0085
 9552SOL    HW140115   4.679   0.737   6.894  1.7285 -2.4384 -1.4150
 9552SOL    HW240116   0.075   0.801   6.931  0.2061  2.0910  3.8404
 9553SOL     OW40117   0.774   3.845   0.845  0.0077 -0.0011 -0.7034
 9553SOL    HW140118   0.754   3.853   0.751  1.5145  1.3965 -0.9027
 9553SOL    HW240119   0.691   3.810   0.878 -0.0540 -1.7515 -2.7145
 9554SOL     OW40120   2.274   1.216   8.251 -0.0897  0.3033 -0.3328
 9554SOL    HW140121   2.358   1.200   8.207 -1.0037 -1.3555 -1.4679
 9554SOL    HW240122   2.229   1.250   8.174  0.1972  2.4790  0.4518
 9555SOL     OW40123   0.777   1.189   4.639  0.1325 -0.1459 -0.0491
 9555SOL    HW140124   0.729   1.227   4.566  0.1719 -0.2782 -0.1434
 9555SOL    HW240125   0.791   1.097   4.616 -0.8279 -0.3514  0.2133
 9556SOL     OW40126   0.897   3.902   4.541 -0.4628 -0.0789  0.2741
 9556SOL    HW140127   0.962   3.848   4.496 -0.4530  0.3962 -0.2822
 9556SOL    HW240128   0.816   3.857   4.516  1.4223 -2.2824 -1.8765
 9557SOL     OW40129   0.589   2.816   1.353  0.1310 -0.3462  0.4084
 9557SOL    HW140130   0.663   2.827   1.293 -0.2379 -0.6454 -0.1035
 9557SOL    HW240131   0.635   2.818   1.437 -2.0825  1.5074  1.5498
 9558SOL     OW40132   1.912   3.639   1.240 -0.0891  0.4998 -0.3649
 9558SOL    HW140133   1.922   3.640   1.335  1.1334  0.4572 -0.5009
 9558SOL    HW240134   1.820   3.660   1.225  0.3536  1.3344 -1.9237
 9559SOL     OW40135   4.225   1.934   2.438 -0.0761  0.0481 -0.1795
 9559SOL    HW140136   4.182   1.851   2.418  1.3903 -0.7919  0.1565
 9559SOL    HW240137   4.231   1.965   2.348 -0.1052 -0.5216 -0.3793
 9560SOL     OW40138   3.416   0.618  12.290 -0.2367  0.4047  0.1279
 9560SOL    HW140139   3.506   0.638  12.263 -1.3689  2.6798 -1.9626
 9560SOL    HW240140   3.427   0.581  12.377  0.3158 -1.2213 -0.6266
 9561SOL     OW40141   1.343   3.317   0.199  0.3835  0.5512 -0.1455
 9561SOL    HW140142   1.337   3.278   0.112  1.9459 -0.1191  0.0528
 9561SOL    HW240143   1.391   3.398   0.182 -0.8329  0.9084 -1.8778
 9562SOL     OW40144   3.675   2.630  14.174  0.0229  0.1106 -0.1794
 9562SOL    HW140145   3.658   2.588  14.090 -0.6703  0.5888 -0.2737
 9562SOL    HW240146   3.600   2.588  14.217  0.7991 -0.8466  0.2441
 9563SOL     OW40147   4.071   3.826  15.846 -0.5162  0.0751 -0.6696
 9563SOL    HW140148   4.050   3.838  15.754 -0.2977 -0.4423 -0.7844
 9563SOL    HW240149   4.098   3.915  15.868  0.5604 -0.4961  0.3163
 9564SOL     OW40150   1.655   2.865   5.902  0.0435  0.1112  0.1245
 9564SOL    HW140151   1.648   2.921   5.825 -3.2590  1.7907  1.6414
 9564SOL    HW240152   1.591   2.797   5.885  1.0857 -0.7113 -0.5119
 9565SOL     OW40153   3.426   0.978   3.874 -0.4307  0.2924 -0.4880
 9565SOL    HW140154   3.503   0.989   3.818 -0.3389  2.9351  0.1362
 9565SOL    HW240155   3.380   0.899   3.846  0.4070 -0.3692  0.0211
   4.72534   4.72534  17.70268
