Membrane in water
40155
    1TCq1    O1    1   1.173   2.813  12.214  0.3120 -0.1203 -0.9689
    1TCq1    C1    2   1.249   2.902  12.150  0.1241  0.3856  0.0147
    1TCq1    O2    3   1.269   2.901  12.029 -0.1938  0.1611  0.4094
    1TCq1    C2    4   1.317   2.981  12.251 -0.1659  0.6292  0.2513
    1TCq1    C3    5   1.372   2.921  12.359 -0.0208 -0.5456 -0.0316
    1TCq1    C4    6   1.474   2.983  12.420 -0.2413  0.0926 -0.0231
    1TCq1    C5    7   1.516   3.106  12.385  0.3154 -0.5481 -0.3116
    1TCq1    C6    8   1.450   3.168  12.290 -0.5734 -0.4058  0.2192
    1TCq1    C7    9   1.353   3.107  12.214  0.0875  0.4718 -0.3627
    1TCq1    C8   10   1.518   3.282  12.236  0.2964  0.5223  0.3251
    1TCq1    O4   11   1.443   3.362  12.177  0.3516  0.2923 -0.0583
    1TCq1    C9   12   1.536   2.921  12.534 -0.5076 -0.3075  0.1816
    1TCq1    O5   13   1.624   2.987  12.591  0.2277  0.3990  0.3542
    1TCq1    O6   14   1.471   2.820  12.575  0.1398 -0.3130  0.1497
    1TCq1    H1   15   1.152   2.844  12.304  3.9433  0.5731 -0.3426
    1TCq1    H2   16   1.349   2.817  12.377 -0.1132 -0.6714 -0.8653
    1TCq1    H3   17   1.596   3.153  12.441 -0.9183  1.5107 -0.2590
    1TCq1    H4   18   1.296   3.163  12.141  1.8228  2.8092  0.0986
    2MPD2     C   19   1.905   3.605  12.140 -0.1840  0.1006 -0.7603
    2MPD2    C1   20   1.771   3.622  12.169  0.0737 -0.0734  0.0925
    2MPD2    C2   21   1.685   3.522  12.200 -0.9332  0.2626 -0.9555
    2MPD2    C3   22   1.734   3.390  12.206  1.1889  0.2262 -0.0629
    2MPD2    C4   23   1.864   3.375  12.189 -0.3081 -0.6636 -0.1537
    2MPD2    C5   24   1.952   3.478  12.154 -0.1609 -0.4347  0.2685
    2MPD2     H   25   1.584   3.554  12.225 -0.6327  0.3384  0.1393
    2MPD2    H1   26   1.908   3.276  12.195  1.4852  0.1933  0.6624
    2MPD2    H2   27   1.971   3.686  12.112  0.8696 -1.2189 -2.1170
    2MPD2    H3   28   2.058   3.459  12.139  0.2784  1.5844  0.8752
    2MPD2     N   29   1.656   3.276  12.229  0.2646  0.2687 -0.1439
    2MPD2    H5   30   1.695   3.187  12.257 -0.6318 -0.6491 -1.8547
    2MPD2    N1   31   1.712   3.752  12.169  0.5120  0.4645 -0.5058
    2MPD2    H7   32   1.613   3.758  12.190  0.8178 -0.9745  1.3471
    3TCq1    O1   33   1.855   0.087  10.468  0.1822 -0.0175 -0.9010
    3TCq1    C1   34   1.760   0.053  10.379 -0.2019 -0.1691 -0.3684
    3TCq1    O2   35   1.716   4.657  10.379 -0.9251 -0.0621 -0.3610
    3TCq1    C2   36   1.666   0.156  10.383 -0.8296  0.3076 -0.2197
    3TCq1    C3   37   1.670   0.246  10.283  1.0070  0.9222 -0.0238
    3TCq1    C4   38   1.561   0.321  10.255 -0.1521 -0.1313 -0.5735
    3TCq1    C5   39   1.452   0.309  10.325  0.0539  0.1456  0.4513
    3TCq1    C6   40   1.443   0.209  10.419 -0.3801 -0.0222  0.1513
    3TCq1    C7   41   1.551   0.127  10.449 -0.0458  0.3997 -0.0635
    3TCq1    C8   42   1.330   0.196  10.509  0.8712 -0.6213  0.0322
    3TCq1    O4   43   1.312   0.080  10.547  0.1424  0.2270 -0.1463
    3TCq1    C9   44   1.570   0.395  10.129 -0.1799 -0.0212 -0.2124
    3TCq1    O5   45   1.651   0.354  10.042  0.5068 -0.2853  0.2959
    3TCq1    O6   46   1.486   0.487  10.115 -0.3690 -0.1634 -0.8185
    3TCq1    H1   47   1.860   0.185  10.476  0.7748 -0.1197 -0.0548
    3TCq1    H2   48   1.763   0.245  10.227  1.6615  1.2668  1.0352
    3TCq1    H3   49   1.367   0.370  10.295 -0.1362 -0.5272 -0.3860
    3TCq1    H4   50   1.555   0.056  10.530  0.5925  1.4652  0.8443
    4MPD2     C   51   0.919   0.352  10.774 -0.2548  0.5033  0.2331
    4MPD2    C1   52   0.983   0.462  10.720  0.2520  0.1071  0.3852
    4MPD2    C2   53   1.092   0.449  10.637  0.2810  0.3086  0.0749
    4MPD2    C3   54   1.146   0.321  10.612 -0.5457  0.0834 -0.4149
    4MPD2    C4   55   1.073   0.217  10.651  0.6872 -0.1263  0.5049
    4MPD2    C5   56   0.968   0.230  10.739  0.4088 -0.3088  0.1039
    4MPD2     H   57   1.152   0.533  10.602 -0.3095  1.9247  2.9248
    4MPD2    H1   58   1.104   0.121  10.611  0.6751  0.3953 -0.7617
    4MPD2    H2   59   0.840   0.364  10.847  0.1302  0.9905  0.5707
    4MPD2    H3   60   0.923   0.141  10.781 -0.8199 -0.4875 -1.5997
    4MPD2     N   61   1.260   0.311  10.526 -0.0110 -0.3445  0.2472
    4MPD2    H5   62   1.301   0.395  10.487  0.6596 -0.2747  1.0950
    4MPD2    N1   63   0.953   0.594  10.753  0.0087 -0.5110  0.8419
    4MPD2    H7   64   1.016   0.667  10.722 -0.5443  0.0026  0.9220
    5TCq1    O1   65   1.428   1.720  11.922  0.0574 -0.2185  0.0304
    5TCq1    C1   66   1.416   1.788  11.805  0.3055  0.1448  0.3338
    5TCq1    O2   67   1.328   1.866  11.774 -0.5008 -0.1140  0.2569
    5TCq1    C2   68   1.526   1.751  11.719 -0.2819  0.4423 -0.4054
    5TCq1    C3   69   1.650   1.776  11.769 -0.1591 -0.4446 -0.4696
    5TCq1    C4   70   1.756   1.802  11.688  0.0690 -0.1111  0.0569
    5TCq1    C5   71   1.732   1.827  11.555 -0.0169  0.1414  0.7953
    5TCq1    C6   72   1.602   1.813  11.510  0.3847  0.1254  0.8884
    5TCq1    C7   73   1.500   1.768  11.587  0.0642  0.7388  0.8806
    5TCq1    C8   74   1.585   1.822  11.367  0.0578 -0.8080  0.0044
    5TCq1    O4   75   1.682   1.814  11.293 -0.0215 -1.0153  0.2270
    5TCq1    C9   76   1.893   1.817  11.738 -0.4955 -0.1797  0.1960
    5TCq1    O5   77   1.983   1.832  11.653  0.5853  0.1057 -0.0372
    5TCq1    O6   78   1.913   1.805  11.862  0.0689  0.6055 -0.1913
    5TCq1    H1   79   1.493   1.647  11.924 -0.7721 -0.9684 -0.6783
    5TCq1    H2   80   1.663   1.769  11.876 -1.2338 -0.0280 -0.3077
    5TCq1    H3   81   1.809   1.860  11.486 -0.7227  2.1347  0.9433
    5TCq1    H4   82   1.401   1.748  11.547 -0.3269  1.3243  1.5548
    6MPD2     C   83   1.307   1.984  11.190  0.7561  0.2607  0.2769
    6MPD2    C1   84   1.418   1.904  11.209  0.3588 -0.0536  0.2401
    6MPD2    C2   85   1.482   1.852  11.095  0.1090  0.2718  0.5327
    6MPD2    C3   86   1.430   1.866  10.970  0.1730  0.2056 -0.7167
    6MPD2    C4   87   1.330   1.953  10.949  0.5049 -0.6861  0.4048
    6MPD2    C5   88   1.270   2.004  11.057 -0.2741  0.5444  0.3577
    6MPD2     H   89   1.573   1.793  11.108 -0.3137 -0.6619 -0.7864
    6MPD2    H1   90   1.287   1.987  10.855 -1.3611 -0.4562  1.3374
    6MPD2    H2   91   1.241   2.029  11.264 -1.5597 -1.5677 -0.6862
    6MPD2    H3   92   1.186   2.070  11.038  0.3073  1.5743  1.3965
    6MPD2     N   93   1.504   1.801  10.872  0.1479 -0.3865  0.3492
    6MPD2    H5   94   1.576   1.738  10.906  1.2724  0.7973  0.1522
    6MPD2    N1   95   1.472   1.882  11.336 -0.2070 -0.6891  0.1931
    6MPD2    H7   96   1.419   1.916  11.416  1.4999  0.8755  0.6540
    7TCq1    O1   97   4.117   1.693  13.669  0.1000 -0.8015 -0.3830
    7TCq1    C1   98   4.208   1.709  13.570 -0.1837 -0.2774  0.1660
    7TCq1    O2   99   4.302   1.789  13.565 -0.1422 -0.3910 -0.5127
    7TCq1    C2  100   4.147   1.655  13.453 -0.1676 -0.3002  0.0045
    7TCq1    C3  101   4.176   1.712  13.336 -0.1286 -0.4899 -0.5740
    7TCq1    C4  102   4.121   1.658  13.226  0.0615 -0.1435  0.6172
    7TCq1    C5  103   4.040   1.546  13.231 -0.1848  0.6876 -1.0744
    7TCq1    C6  104   4.022   1.486  13.351 -0.3783  0.4738  0.3938
    7TCq1    C7  105   4.086   1.533  13.465 -0.2169  0.0437 -0.4138
    7TCq1    C8  106   3.997   1.342  13.344 -0.0055 -0.2545  0.6010
    7TCq1    O4  107   3.977   1.282  13.447  0.5957 -0.1553  0.3295
    7TCq1    C9  108   4.147   1.725  13.100 -0.3492 -0.0497 -0.1285
    7TCq1    O5  109   4.066   1.709  13.002  0.2251  0.6504  0.0512
    7TCq1    O6  110   4.232   1.818  13.109 -0.2383 -0.0610  0.1956
    7TCq1    H1  111   4.031   1.660  13.635 -0.1742  0.7093 -1.1498
    7TCq1    H2  112   4.241   1.799  13.337  0.0938 -0.6415 -1.4028
    7TCq1    H3  113   3.984   1.520  13.142 -0.4429  0.0757 -0.7254
    7TCq1    H4  114   4.068   1.483  13.560 -0.6896  1.6153  0.3223
    8MPD2     C  115   3.861   0.907  13.098 -0.4125  0.4498 -0.5900
    8MPD2    C1  116   3.909   0.927  13.220 -0.2233  0.0933  0.1182
    8MPD2    C2  117   3.949   1.053  13.267 -0.1149 -0.0920  0.0553
    8MPD2    C3  118   3.934   1.162  13.184 -0.6214 -0.1733  0.4459
    8MPD2    C4  119   3.902   1.148  13.052  0.2771 -0.0161  0.3532
    8MPD2    C5  120   3.866   1.018  13.013 -0.1947 -0.5013 -0.1859
    8MPD2     H  121   3.984   1.066  13.369  1.6597  1.8913 -0.8136
    8MPD2    H1  122   3.904   1.231  12.982 -4.0682 -0.5982 -0.4204
    8MPD2    H2  123   3.849   0.811  13.049  2.0929 -0.6321  0.9318
    8MPD2    H3  124   3.840   0.995  12.910 -1.6262  1.2744 -0.2070
    8MPD2     N  125   3.972   1.294  13.218 -0.1975  0.0510 -0.3100
    8MPD2    H5  126   3.986   1.369  13.152 -0.7370 -0.7142 -1.2886
    8MPD2    N1  127   3.914   0.812  13.308 -0.0878 -0.2011  0.1249
    8MPD2    H7  128   3.891   0.722  13.267  2.8793 -1.0218  0.3025
    9TCq1    O1  129   2.071   4.309  10.284 -0.2256  0.2486 -0.3033
    9TCq1    C1  130   2.040   4.406  10.370 -0.2992  0.6599 -0.3545
    9TCq1    O2  131   1.922   4.436  10.405  1.0001  0.1917  0.5516
    9TCq1    C2  132   2.123   4.508  10.328  0.0336 -0.1090 -0.4382
    9TCq1    C3  133   2.217   4.497  10.226 -0.2354 -0.1813 -0.5244
    9TCq1    C4  134   2.319   4.589  10.216  0.6858 -0.7001  0.5055
    9TCq1    C5  135   2.318   4.698  10.301 -0.1729 -0.7749  0.3225
    9TCq1    C6  136   2.216   4.712  10.396 -0.3516 -0.3473 -0.2492
    9TCq1    C7  137   2.117   4.618  10.405  0.0658  0.0590 -0.0109
    9TCq1    C8  138   2.230   0.103  10.492  0.1221  0.0073  0.7948
    9TCq1    O4  139   2.347   0.143  10.485 -0.4540 -0.1203 -0.2739
    9TCq1    C9  140   2.416   4.574  10.106  0.6500 -0.0778  0.0079
    9TCq1    O5  141   2.518   4.646  10.115 -0.3202  0.4641  0.1482
    9TCq1    O6  142   2.401   4.497  10.007 -0.1687  0.4816  0.7210
    9TCq1    H1  143   2.165   4.294  10.258 -0.9033 -3.9981 -0.3715
    9TCq1    H2  144   2.216   4.415  10.156  1.5733 -0.0085 -0.7381
    9TCq1    H3  145   2.402   0.047  10.293  1.2339 -2.5613 -0.3618
    9TCq1    H4  146   2.047   4.612  10.488 -0.3665  3.0539 -0.1357
   10MPD2     C  147   2.243   0.314  10.709  0.1637 -0.1828 -0.0747
   10MPD2    C1  148   2.142   0.219  10.694  0.6288  0.1408 -0.1037
   10MPD2    C2  149   2.048   0.202  10.792 -0.9400  0.3785  0.6583
   10MPD2    C3  150   2.054   0.280  10.906  0.1359 -0.7623 -0.0496
   10MPD2    C4  151   2.149   0.383  10.915 -0.3226  1.0004  0.9953
   10MPD2    C5  152   2.244   0.399  10.818  0.0721 -0.6282 -0.5003
   10MPD2     H  153   1.976   0.121  10.789  0.3488 -0.7801  0.7573
   10MPD2    H1  154   2.144   0.449  11.000  2.5066  0.5124  1.5598
   10MPD2    H2  155   2.320   0.318  10.633  1.6570 -1.1728  1.3746
   10MPD2    H3  156   2.312   0.483  10.819 -0.9191  0.1495  4.3212
   10MPD2     N  157   1.978   0.261  11.025 -0.0485 -0.3300 -0.0496
   10MPD2    H5  158   1.998   0.329  11.097  2.0615  0.6725 -1.5714
   10MPD2    N1  159   2.137   0.122  10.589 -0.9987 -0.1793  1.1057
   10MPD2    H7  160   2.058   0.058  10.592 -1.0665 -0.0995  1.0522
   11TCq1    O1  161   2.655   4.377  14.812 -0.1251  0.3386 -0.1758
   11TCq1    C1  162   2.650   4.298  14.701  0.0137 -0.1434 -0.6039
   11TCq1    O2  163   2.602   4.185  14.696  0.2751  0.3648  0.3494
   11TCq1    C2  164   2.699   4.373  14.594  0.4469  0.4552  0.1561
   11TCq1    C3  165   2.805   4.457  14.613 -0.0790 -0.1756 -0.0324
   11TCq1    C4  166   2.824   4.543  14.512  0.7976  0.5726 -0.3796
   11TCq1    C5  167   2.740   4.570  14.402 -0.3375  0.5519  0.5091
   11TCq1    C6  168   2.635   4.476  14.394 -0.0541 -0.0320  0.7624
   11TCq1    C7  169   2.611   4.388  14.493 -0.5563 -0.8159  0.2337
   11TCq1    C8  170   2.586   4.446  14.264  0.4147  0.4164  0.5385
   11TCq1    O4  171   2.498   4.362  14.247  0.3438  0.4979  0.3776
   11TCq1    C9  172   2.920   4.646  14.536 -0.4486  0.0296 -0.5545
   11TCq1    O5  173   2.921   0.023  14.453  0.3846 -0.3931 -0.4216
   11TCq1    O6  174   2.959   4.651  14.654  0.3962  0.0985 -0.0468
   11TCq1    H1  175   2.688   4.469  14.812 -1.3300  0.7741  0.9196
   11TCq1    H2  176   2.885   4.440  14.684 -0.5009  1.1262  0.7473
   11TCq1    H3  177   2.748   4.663  14.346  1.7896 -0.0102 -0.1075
   11TCq1    H4  178   2.546   4.304  14.470 -2.2043  1.0490 -1.9256
   12MPD2     C  179   2.778   4.526  13.945  0.6988 -0.0898  0.0247
   12MPD2    C1  180   2.672   4.478  14.027 -0.0184  0.0889  0.4201
   12MPD2    C2  181   2.565   4.417  13.956  0.6763  0.1256  1.3090
   12MPD2    C3  182   2.575   4.386  13.821  0.0412  0.7431  0.3369
   12MPD2    C4  183   2.686   4.427  13.754 -0.2299 -0.0748  0.4758
   12MPD2    C5  184   2.783   4.498  13.816 -0.1249  0.1925  0.7099
   12MPD2     H  185   2.478   4.385  14.014 -0.6585 -1.9213 -1.8219
   12MPD2    H1  186   2.701   4.385  13.656  1.7391  0.8432  0.3810
   12MPD2    H2  187   2.865   4.585  13.974  0.5487  1.2573 -2.3195
   12MPD2    H3  188   2.877   4.514  13.764  1.0659 -1.2779  2.4162
   12MPD2     N  189   2.490   4.317  13.742 -0.5434 -0.6260  0.0934
   12MPD2    H5  190   2.534   4.277  13.660  0.0468  1.0634 -0.4195
   12MPD2    N1  191   2.678   4.497  14.165 -0.0886 -0.3783 -0.3658
   12MPD2    H7  192   2.755   4.550  14.204  0.0404 -0.3074 -0.7209
   13TCq1    O1  193   2.481   4.631  10.708  0.4346 -0.5786  0.4817
   13TCq1    C1  194   2.478   0.024  10.775 -0.2004  0.3969 -0.1756
   13TCq1    O2  195   2.550   0.120  10.755  0.5380 -1.1145 -0.0540
   13TCq1    C2  196   2.395   0.021  10.897  0.0904 -0.1808  0.2249
   13TCq1    C3  197   2.419   0.116  10.994 -0.4358 -0.0292 -0.8997
   13TCq1    C4  198   2.334   0.132  11.104  0.1251 -0.6006  0.0476
   13TCq1    C5  199   2.228   0.048  11.119 -0.3011  0.0167 -0.2904
   13TCq1    C6  200   2.202   4.672  11.019  0.3171 -0.3882  0.3689
   13TCq1    C7  201   2.284   4.663  10.908  0.0338  0.0057  0.2582
   13TCq1    C8  202   2.092   4.578  11.033 -1.0926  0.6475 -0.8442
   13TCq1    O4  203   2.057   4.529  10.927  0.3443  0.3357  0.3242
   13TCq1    C9  204   2.355   0.227  11.210  0.0349 -0.3035  0.0483
   13TCq1    O5  205   2.264   0.249  11.296  0.2815 -0.2807  0.9908
   13TCq1    O6  206   2.466   0.290  11.218  0.5976  0.2538 -0.4031
   13TCq1    H1  207   2.439   4.558  10.758 -3.2352 -0.3013 -2.1369
   13TCq1    H2  208   2.510   0.174  10.987 -1.0432  0.9471 -0.6994
   13TCq1    H3  209   2.169   0.057  11.209 -2.3387 -2.0075 -1.3960
   13TCq1    H4  210   2.277   4.578  10.842  0.7267 -0.3287  0.6144
   14MPD2     C  211   1.974   4.414  11.345  0.5002 -0.3074  0.7010
   14MPD2    C1  212   1.962   4.474  11.218 -0.3705  0.2629 -0.4634
   14MPD2    C2  213   1.851   4.450  11.145 -0.5724  0.4341 -0.3396
   14MPD2    C3  214   1.744   4.379  11.201  0.0796  0.7933  0.1176
   14MPD2    C4  215   1.760   4.322  11.325 -0.1862 -0.0514  0.4770
   14MPD2    C5  216   1.880   4.338  11.394 -0.0778 -0.1771  0.2736
   14MPD2     H  217   1.831   4.502  11.052  1.5978  0.6638 -0.6971
   14MPD2    H1  218   1.688   4.265  11.382 -2.9751  2.3425 -0.6814
   14MPD2    H2  219   2.063   4.426  11.406  0.8692 -1.5662  0.4063
   14MPD2    H3  220   1.891   4.289  11.490  0.3834  1.5252  1.0856
   14MPD2     N  221   1.625   4.372  11.130 -0.2014 -0.0699 -0.0623
   14MPD2    H5  222   1.605   4.434  11.051  0.8433 -1.2457 -1.2519
   14MPD2    N1  223   2.072   4.549  11.167  0.2877 -0.1304  0.3613
   14MPD2    H7  224   2.143   4.581  11.232  2.1568  0.4935 -2.0300
   15TCq1    O1  225   3.115   4.194   1.253 -0.0825 -0.4059 -0.8425
   15TCq1    C1  226   3.042   4.104   1.189 -0.6440 -0.3314 -0.0419
   15TCq1    O2  227   3.052   4.079   1.067  0.0089 -0.2406  0.0049
   15TCq1    C2  228   3.030   3.999   1.288 -0.0963  0.2902 -0.5252
   15TCq1    C3  229   2.988   4.014   1.420  0.0035 -0.4577 -0.2978
   15TCq1    C4  230   2.991   3.902   1.492  0.2700  0.5466  0.4309
   15TCq1    C5  231   3.027   3.780   1.434  1.2224 -0.2761  0.8160
   15TCq1    C6  232   3.061   3.774   1.306  0.2233  0.4108 -0.0583
   15TCq1    C7  233   3.061   3.876   1.227  0.3909  0.2580  0.5825
   15TCq1    C8  234   3.088   3.637   1.258 -0.5703  0.8983  0.5410
   15TCq1    O4  235   3.101   3.552   1.344  0.4922 -0.6216 -0.0627
   15TCq1    C9  236   2.937   3.902   1.628 -0.4000 -0.7527 -0.9436
   15TCq1    O5  237   2.888   4.012   1.660  0.4568 -0.0588 -0.6885
   15TCq1    O6  238   2.943   3.796   1.698  0.2655 -0.1408 -0.1051
   15TCq1    H1  239   3.119   4.189   1.351  1.5335  2.7206 -0.7551
   15TCq1    H2  240   2.943   4.103   1.462 -1.1592 -0.6787 -1.0757
   15TCq1    H3  241   3.033   3.699   1.506 -0.4217  1.8865  3.4140
   15TCq1    H4  242   3.104   3.877   1.127 -0.8411 -0.6913  0.0387
   16MPD2     C  243   2.931   3.473   0.971  0.3552  0.9988 -0.8110
   16MPD2    C1  244   3.026   3.487   1.072  0.0312  0.0875  0.7067
   16MPD2    C2  245   3.104   3.377   1.113 -0.3652  0.0481  0.4580
   16MPD2    C3  246   3.094   3.256   1.037  0.7010  0.1930  0.6160
   16MPD2    C4  247   2.990   3.240   0.945  0.5484 -0.5625  0.3697
   16MPD2    C5  248   2.915   3.350   0.912 -0.1905  0.3219  0.3700
   16MPD2     H  249   3.173   3.384   1.196  0.6523  0.5054 -0.4330
   16MPD2    H1  250   2.974   3.148   0.889  1.9985 -0.7050  0.1900
   16MPD2    H2  251   2.881   3.563   0.936  0.8058 -0.1223 -4.3267
   16MPD2    H3  252   2.843   3.329   0.834  0.0436  0.8249  0.0174
   16MPD2     N  253   3.192   3.164   1.065  0.0735 -0.6573  0.1991
   16MPD2    H5  254   3.268   3.190   1.127  0.2685 -0.8324  0.0299
   16MPD2    N1  255   3.035   3.615   1.130  0.3412  0.7681  0.2067
   16MPD2    H7  256   2.997   3.702   1.092  0.4407  0.5598 -0.3743
   17TCq1    O1  257   0.901   3.216   9.712 -0.1538  0.1253 -0.1547
   17TCq1    C1  258   0.987   3.313   9.753  0.2847  0.5354 -0.8065
   17TCq1    O2  259   1.089   3.340   9.692 -0.2603  0.3625  0.2946
   17TCq1    C2  260   0.986   3.318   9.902 -1.3563  0.3690  0.5628
   17TCq1    C3  261   0.901   3.233   9.974 -0.1263 -0.3369 -0.2661
   17TCq1    C4  262   0.904   3.230  10.110 -0.1195 -0.5476 -0.2690
   17TCq1    C5  263   0.993   3.315  10.175  0.0630  0.7855  0.0071
   17TCq1    C6  264   1.081   3.385  10.104 -0.5454  0.7348 -0.2967
   17TCq1    C7  265   1.088   3.381   9.970  0.6261 -0.7259 -0.5656
   17TCq1    C8  266   1.195   3.441  10.179 -0.3177 -0.3493  0.1389
   17TCq1    O4  267   1.175   3.475  10.293 -0.8652 -0.0009  0.1154
   17TCq1    C9  268   0.825   3.138  10.187 -0.3068  0.7593 -0.1684
   17TCq1    O5  269   0.790   3.182  10.300  0.0461  0.0600  0.5506
   17TCq1    O6  270   0.775   3.044  10.127 -0.9164 -0.4518  0.3661
   17TCq1    H1  271   0.822   3.224   9.769  0.4007 -0.1052  0.6581
   17TCq1    H2  272   0.827   3.172   9.923 -0.3347  1.0826 -1.6319
   17TCq1    H3  273   0.985   3.325  10.283 -1.2223 -1.9738  0.1848
   17TCq1    H4  274   1.139   3.459   9.915 -1.2164 -0.0308 -1.2821
   18MPD2     C  275   1.427   3.630  10.223 -0.0176 -0.2668  0.5227
   18MPD2    C1  276   1.422   3.536  10.131  0.1468  0.1468  0.0660
   18MPD2    C2  277   1.533   3.517  10.050 -0.2844 -0.3857 -0.0923
   18MPD2    C3  278   1.653   3.585  10.080  0.3671 -0.0076 -0.1156
   18MPD2    C4  279   1.654   3.672  10.185  0.7496  0.0574  0.6087
   18MPD2    C5  280   1.544   3.700  10.248  0.0863 -0.2939  0.0695
   18MPD2     H  281   1.530   3.442   9.972 -1.1505 -0.4415 -0.0111
   18MPD2    H1  282   1.742   3.729  10.214  0.8832 -0.3081  0.9238
   18MPD2    H2  283   1.348   3.650  10.294 -0.0692  1.9991 -0.1771
   18MPD2    H3  284   1.539   3.773  10.328  0.7810 -0.0547 -0.1085
   18MPD2     N  285   1.777   3.561  10.022  0.4956  0.5110  0.1769
   18MPD2    H5  286   1.852   3.626  10.044 -1.0187  1.6703  1.8892
   18MPD2    N1  287   1.303   3.464  10.098 -0.1417  0.2156 -0.1691
   18MPD2    H7  288   1.309   3.412  10.011  3.2969 -1.2993  0.9341
   19TMC2    C1  289   3.169   4.422  13.743 -0.7675 -0.1824 -0.1135
   19TMC2    C2  290   3.166   4.470  13.615 -0.3436 -0.8067  0.0773
   19TMC2    C3  291   3.154   4.390  13.508  0.5797 -0.4662  0.3956
   19TMC2    C4  292   3.173   4.288  13.771 -0.2787 -0.8501 -0.3732
   19TMC2    C5  293   3.163   4.208  13.660  0.5124 -0.2945  0.1348
   19TMC2    C6  294   3.153   4.251  13.530 -0.6488 -0.5502 -0.8241
   19TMC2     C  295   3.157   4.519  13.845 -0.1521 -0.5572 -0.2725
   19TMC2     O  296   3.110   4.627  13.811  0.2703  0.3117  0.1521
   19TMC2     H  297   3.193   4.573  13.594  0.0902 -0.8203  0.5581
   19TMC2    H1  298   3.151   4.239  13.865  0.2835 -0.1268  0.1303
   19TMC2    H2  299   3.175   4.177  13.454  2.2556 -2.6247  2.0596
   19TMC2    C7  300   3.169   4.062  13.678  0.3280  0.4571 -0.0335
   19TMC2    C8  301   3.154   4.454  13.381 -0.9128  0.6661  0.9791
   19TMC2    O1  302   3.101   4.002  13.595  0.0496 -0.0391 -0.3738
   19TMC2    O2  303   3.127   4.575  13.372  0.0595 -0.0899 -0.4071
   19TMC2    O5  304   3.121   4.347  13.300  0.4644  0.2428 -0.2060
   19TMC2    H5  305   3.149   4.356  13.207  0.5985 -0.1530 -0.2067
   20MPD2     C  306   3.216   4.719  14.053 -0.4034  0.1764  0.5576
   20MPD2    C1  307   3.248   4.586  14.068  0.6749 -0.6085  0.3277
   20MPD2    C2  308   3.302   4.542  14.189 -0.2030 -0.2327 -0.8018
   20MPD2    C3  309   3.321   4.619  14.303 -0.1873  1.0064 -0.0359
   20MPD2    C4  310   3.292   0.038  14.287  0.9358  0.8854  0.3854
   20MPD2    C5  311   3.246   0.080  14.163 -0.6132 -0.2005 -0.5477
   20MPD2     H  312   3.321   4.437  14.209  0.3178  0.5588  2.9636
   20MPD2    H1  313   3.303   0.111  14.367  0.8490 -0.0106  1.2157
   20MPD2    H2  314   3.185   0.048  13.962 -0.6112  1.1096  1.1274
   20MPD2    H3  315   3.221   0.184  14.150 -1.0173  0.2608  3.8938
   20MPD2     N  316   3.378   4.583  14.427 -0.2138  0.0045 -0.3832
   20MPD2    H5  317   3.405   4.662  14.485 -0.0667 -1.0809  1.0256
   20MPD2    N1  318   3.218   4.489  13.968  0.4332 -0.3002 -0.5286
   20MPD2    H7  319   3.254   4.395  13.980  1.4663  0.4904  2.4506
   21MPD2     C  320   0.954   4.535  13.888  0.1801  0.3057  0.2194
   21MPD2    C1  321   0.962   4.434  13.975  0.8085 -0.2181 -0.3544
   21MPD2    C2  322   0.846   4.377  14.020 -0.5168  0.1227  0.2866
   21MPD2    C3  323   0.723   4.437  13.996 -0.4225  0.0419  0.4047
   21MPD2    C4  324   0.724   4.555  13.915 -0.2825 -0.0546 -0.1582
   21MPD2    C5  325   0.836   4.604  13.854 -0.9993  0.0297 -0.0789
   21MPD2     H  326   0.870   4.292  14.083  4.0481  0.0954 -1.4938
   21MPD2    H1  327   0.626   4.600  13.902 -0.4982 -0.7419 -0.8660
   21MPD2    H2  328   1.038   4.573  13.830 -0.9149  2.4344  0.0275
   21MPD2    H3  329   0.834   4.686  13.783  1.8596  1.9109  1.9971
   21MPD2     N  330   0.598   4.383  14.028 -0.0343  0.2758 -0.0050
   21MPD2    H5  331   0.519   4.444  14.008  0.8275  1.5110  0.3474
   21MPD2    N1  332   1.084   4.368  14.008 -0.1027  0.7576  0.0164
   21MPD2    H7  333   1.077   4.280  14.059  0.2709  1.2232  0.8816
   22TCq2    C1  334   0.584   4.254  14.080 -0.0956 -0.5323 -0.2711
   22TCq2    O2  335   0.660   4.156  14.090  0.2700  0.4647  0.5292
   22TCq2    C2  336   0.449   4.217  14.124  0.8559  0.0949  0.2034
   22TCq2    C3  337   0.421   4.087  14.145  0.0438 -0.0611  0.2051
   22TCq2    C4  338   0.318   4.060  14.235 -0.0278 -0.7234 -0.2414
   22TCq2    C5  339   0.242   4.159  14.297 -0.1374 -0.9222 -0.3960
   22TCq2    C6  340   0.257   4.286  14.245 -0.1367 -0.2145  0.0937
   22TCq2    C7  341   0.367   4.318  14.171 -0.6790  0.2097  0.3268
   22TCq2    C8  342   0.195   4.399  14.309 -0.0049 -0.0752 -0.2838
   22TCq2    O4  343   0.167   4.486  14.232  0.6483 -0.0780 -0.1140
   22TCq2    C9  344   0.281   3.927  14.257 -0.3755 -0.5567 -0.8475
   22TCq2    O5  345   0.202   3.906  14.351  0.1272 -0.0166  0.5148
   22TCq2    O6  346   0.324   3.838  14.175  0.3338  0.9885  0.5862
   22TCq2    H2  347   0.471   4.001  14.102  1.0409  0.9055 -0.5583
   22TCq2    H3  348   0.161   4.139  14.367 -1.9868  1.4466 -1.8553
   22TCq2    H4  349   0.395   4.422  14.154  1.3887 -0.4704 -0.4492
   23MPD2     C  350   2.339   0.880  14.298  0.0811  0.2386 -0.3470
   23MPD2    C1  351   2.296   0.779  14.379  0.2873 -0.1948 -0.3766
   23MPD2    C2  352   2.186   0.705  14.339  0.4347  0.4460 -0.2784
   23MPD2    C3  353   2.120   0.730  14.219  0.0325  0.4998  0.2412
   23MPD2    C4  354   2.160   0.828  14.132  0.1211  0.1105  0.2012
   23MPD2    C5  355   2.271   0.904  14.178 -0.1227  0.1382  0.3193
   23MPD2     H  356   2.148   0.625  14.401 -3.8904  2.0116 -0.9007
   23MPD2    H1  357   2.114   0.840  14.034 -0.9861 -2.7373  0.3679
   23MPD2    H2  358   2.418   0.952  14.319 -1.6063  1.6335  1.1855
   23MPD2    H3  359   2.309   0.989  14.123  2.0182  0.4876  2.3489
   23MPD2     N  360   2.006   0.660  14.174  0.1185 -0.3171 -0.2532
   23MPD2    H5  361   1.947   0.711  14.109  1.0234  0.6454 -0.3260
   23MPD2    N1  362   2.354   0.754  14.504  0.0087  0.1987  0.6802
   23MPD2    H7  363   2.304   0.695  14.569  0.7891 -1.0496  0.1372
   24TCq2    C1  364   1.938   0.552  14.235  0.0855  0.7393  0.2207
   24TCq2    O2  365   1.978   0.470  14.324  0.0017 -0.0392  0.5261
   24TCq2    C2  366   1.815   0.518  14.162 -0.0641 -0.1837  0.4254
   24TCq2    C3  367   1.764   0.604  14.063  0.1887  0.9051 -0.0681
   24TCq2    C4  368   1.641   0.576  14.015 -0.2688  0.0857  0.4621
   24TCq2    C5  369   1.578   0.457  14.047 -0.1126  0.4096  1.0681
   24TCq2    C6  370   1.632   0.368  14.138  0.0650  0.2131  0.7899
   24TCq2    C7  371   1.749   0.402  14.197  0.1420  0.5289  0.1667
   24TCq2    C8  372   1.546   0.290  14.213 -0.3038 -0.7704 -0.1075
   24TCq2    O4  373   1.592   0.244  14.317  0.1504  0.6949 -0.5158
   24TCq2    C9  374   1.589   0.663  13.913 -0.7226 -0.3663  0.0066
   24TCq2    O5  375   1.466   0.655  13.886  0.1252  0.3781  0.1297
   24TCq2    O6  376   1.674   0.723  13.837  0.3760  0.6453  0.1922
   24TCq2    H2  377   1.804   0.701  14.037  0.2843  0.4105 -1.7871
   24TCq2    H3  378   1.491   0.442  13.985  0.6534 -3.2268  0.8510
   24TCq2    H4  379   1.798   0.333  14.265 -1.6277  2.3923  3.3147
   25TMC2    C1  380   1.258   3.249  11.651  0.7109  0.0866 -0.5088
   25TMC2    C2  381   1.378   3.311  11.677 -0.2121  0.2912  0.0411
   25TMC2    C3  382   1.400   3.360  11.802  0.1567 -0.2915 -0.0461
   25TMC2    C4  383   1.154   3.248  11.742 -0.1377 -0.0326 -0.1638
   25TMC2    C5  384   1.182   3.314  11.859 -0.0310  1.0683 -0.4499
   25TMC2    C6  385   1.298   3.365  11.896  0.4691  0.6852  0.3693
   25TMC2     C  386   1.225   3.232  11.508 -0.8803 -0.7623  0.3762
   25TMC2     O  387   1.295   3.292  11.427 -0.3626  0.5449 -0.2677
   25TMC2     H  388   1.462   3.313  11.608 -1.6059  1.8904 -1.6181
   25TMC2    H1  389   1.060   3.204  11.711  0.3736 -1.2501  0.0226
   25TMC2    H2  390   1.307   3.424  11.986  1.2071 -0.0652  0.7791
   25TMC2    C7  391   1.071   3.339  11.957  0.5500  0.2436  0.0922
   25TMC2    C8  392   1.512   3.456  11.825 -0.2472 -0.1912 -0.7995
   25TMC2    O1  393   1.100   3.314  12.075 -0.8497  0.5456 -0.3125
   25TMC2    O2  394   1.575   3.504  11.733 -0.1420  0.1604  0.4342
   25TMC2    O5  395   1.542   3.471  11.952 -0.1839 -0.0230  0.3490
   25TMC2    H5  396   1.500   3.419  12.024  1.0562 -0.5115  0.7325
   26MPD2     C  397   0.878   3.185  11.132  0.0986  0.2709  0.0398
   26MPD2    C1  398   0.864   3.080  11.219  0.1583  0.1271  0.6706
   26MPD2    C2  399   0.950   3.077  11.334  0.5568 -0.0009  0.2438
   26MPD2    C3  400   1.047   3.170  11.354  0.4800  0.5122  0.2051
   26MPD2    C4  401   1.059   3.274  11.266 -0.7335 -0.5547 -0.7170
   26MPD2    C5  402   0.971   3.278  11.157  1.2545  0.0359  0.3035
   26MPD2     H  403   0.953   2.999  11.409 -0.2000 -0.5972 -0.3411
   26MPD2    H1  404   1.122   3.358  11.294 -0.3924 -0.4280 -1.8532
   26MPD2    H2  405   0.812   3.203  11.048  0.3419  2.4098  0.3134
   26MPD2    H3  406   0.969   3.369  11.098  0.7904 -1.8064 -2.5236
   26MPD2     N  407   1.114   3.160  11.482 -0.4078  0.3450 -0.1438
   26MPD2    H5  408   1.068   3.107  11.556  1.1004 -0.4131  0.2546
   26MPD2    N1  409   0.760   2.983  11.197 -0.1128  0.4709  0.5310
   26MPD2    H7  410   0.725   2.973  11.102  1.5327 -1.8435  0.1687
   27TMC2    C1  411   0.291   0.397  11.925 -0.3196 -1.5131  0.6732
   27TMC2    C2  412   0.384   0.353  12.013 -0.7106 -0.4104 -0.1762
   27TMC2    C3  413   0.482   0.433  12.061  0.6324  0.2398 -0.9234
   27TMC2    C4  414   0.279   0.533  11.914 -0.5385 -0.2848  0.1984
   27TMC2    C5  415   0.375   0.616  11.968  0.3886  0.0444  0.2102
   27TMC2    C6  416   0.479   0.567  12.032 -0.0001  0.3036 -0.0684
   27TMC2     C  417   0.179   0.303  11.915  1.2539 -0.0807 -0.3130
   27TMC2     O  418   0.212   0.185  11.929  0.1222 -0.3660 -0.1374
   27TMC2     H  419   0.407   0.247  12.022 -1.2617 -0.5118  0.0243
   27TMC2    H1  420   0.219   0.576  11.835 -1.8136 -2.0877  0.1938
   27TMC2    H2  421   0.565   0.629  12.059 -0.1465  1.3929 -2.1295
   27TMC2    C7  422   0.392   0.752  11.914 -0.0151 -0.2633 -0.0032
   27TMC2    C8  423   0.601   0.369  12.092 -0.5405 -0.2096  0.5804
   27TMC2    O1  424   0.510   0.778  11.892 -0.2630  0.8508 -0.3215
   27TMC2    O2  425   0.644   0.283  12.023  0.6061 -0.0893  0.6076
   27TMC2    O5  426   0.579   0.353  12.227 -0.0133  0.4725 -0.4521
   27TMC2    H5  427   0.534   0.430  12.266 -0.5302  0.0931 -0.2943
   28MPD2     C  428   4.410   0.161  11.984 -1.0197  0.0004  0.3019
   28MPD2    C1  429   4.417   0.295  11.959 -0.8387  0.1748 -0.2540
   28MPD2    C2  430   4.532   0.353  11.935 -0.3260  0.4290 -0.4617
   28MPD2    C3  431   4.652   0.285  11.930 -0.0455 -0.0553 -0.2476
   28MPD2    C4  432   4.645   0.143  11.948  0.4251  0.2126  0.1500
   28MPD2    C5  433   4.522   0.082  11.977  0.2436 -0.1245  0.1543
   28MPD2     H  434   4.534   0.461  11.929 -0.8795  0.3774 -1.4947
   28MPD2    H1  435   0.013   0.081  11.938 -0.3879 -0.9505  0.1032
   28MPD2    H2  436   4.311   0.125  12.010 -0.9121 -0.0901  0.5820
   28MPD2    H3  437   4.518   4.694  11.982 -2.1707 -0.1149 -1.7387
   28MPD2     N  438   0.052   0.355  11.906 -0.2032  0.4824  0.0716
   28MPD2    H5  439   0.043   0.455  11.892 -0.4291  0.3295 -0.8559
   28MPD2    N1  440   4.297   0.360  11.983  0.4340 -0.1304  0.2280
   28MPD2    H7  441   4.228   0.289  12.005 -1.7648  1.8889 -0.1329
   29MPD2     C  442   0.136   2.131  14.275  0.1930  0.0166 -0.1657
   29MPD2    C1  443   0.101   2.173  14.399 -0.3537 -0.0647 -0.4706
   29MPD2    C2  444   0.124   2.311  14.428  0.2537  0.0201 -0.3168
   29MPD2    C3  445   0.176   2.400  14.335  0.7531 -0.3979 -0.8375
   29MPD2    C4  446   0.219   2.351  14.217 -0.2342  0.6727 -0.2160
   29MPD2    C5  447   0.194   2.221  14.186  0.2841 -0.3936  0.0136
   29MPD2     H  448   0.095   2.332  14.531 -1.2725  0.1093 -0.7607
   29MPD2    H1  449   0.254   2.424  14.145  0.3841  0.5710 -0.0218
   29MPD2    H2  450   0.102   2.039  14.230 -1.3124  0.9526 -0.9297
   29MPD2    H3  451   0.202   2.196  14.081  1.0026 -0.5087  0.0949
   29MPD2     N  452   0.191   2.541  14.357 -0.2616  0.6920  0.1818
   29MPD2    H5  453   0.229   2.596  14.280  0.3221 -2.0709 -1.4929
   29MPD2    N1  454   0.035   2.095  14.492 -0.0113  0.3753 -0.3108
   29MPD2    H7  455   0.005   2.147  14.573  1.6316  0.9531 -0.0829
   30TCq2    C1  456   0.158   2.608  14.473 -0.3619 -0.2555  0.1246
   30TCq2    O2  457   0.115   2.569  14.583  0.2966 -0.2882  0.6451
   30TCq2    C2  458   0.173   2.755  14.455 -0.1205 -0.2802 -0.0512
   30TCq2    C3  459   0.253   2.811  14.356 -0.1796 -0.3496  0.1163
   30TCq2    C4  460   0.276   2.943  14.349 -0.9234  0.0504  0.5024
   30TCq2    C5  461   0.223   3.029  14.437  0.0014 -0.2388  0.3158
   30TCq2    C6  462   0.136   2.973  14.527  0.0555  0.0805 -0.2640
   30TCq2    C7  463   0.107   2.839  14.540 -0.2866  0.0646  0.9137
   30TCq2    C8  464   0.088   3.052  14.643 -0.0045  0.2123  0.0485
   30TCq2    O4  465   0.049   2.982  14.734  0.0174  0.4291 -0.1791
   30TCq2    C9  466   0.375   2.986  14.255 -0.2979 -0.6202 -0.7893
   30TCq2    O5  467   0.371   3.101  14.209 -0.8569  0.1723 -0.4653
   30TCq2    O6  468   0.467   2.903  14.241 -0.2946 -0.0238 -0.0932
   30TCq2    H2  469   0.301   2.758  14.275  0.5090  0.8074 -0.2279
   30TCq2    H3  470   0.244   3.134  14.418  2.2391 -1.2728 -2.9742
   30TCq2    H4  471   0.049   2.800  14.622 -1.1051 -0.4522  0.0984
   31MPD2     C  472   2.044   2.337  14.833  0.0829  0.2008  0.0818
   31MPD2    C1  473   1.986   2.244  14.756 -0.0790  0.4538 -0.5029
   31MPD2    C2  474   1.971   2.109  14.798  0.0224  0.6574  0.2889
   31MPD2    C3  475   2.015   2.074  14.930  0.1689  0.0620  0.4453
   31MPD2    C4  476   2.080   2.170  15.002 -0.3259  0.2176 -0.5952
   31MPD2    C5  477   2.089   2.297  14.954 -0.2622 -0.1565 -0.2551
   31MPD2     H  478   1.922   2.039  14.732  1.3500  0.6779 -0.7142
   31MPD2    H1  479   2.132   2.144  15.093 -0.2129  1.6651 -0.2439
   31MPD2    H2  480   2.049   2.440  14.799 -0.7328 -0.7680 -2.9980
   31MPD2    H3  481   2.148   2.367  15.013  0.7376  0.9958 -2.6200
   31MPD2     N  482   2.002   1.940  14.983 -0.3903 -0.7234  0.5953
   31MPD2    H5  483   2.026   1.943  15.082  2.7536 -0.9428 -0.1386
   31MPD2    N1  484   1.928   2.291  14.635 -0.0977 -0.4264 -0.4264
   31MPD2    H7  485   1.925   2.392  14.620  2.6744 -0.5102 -1.4083
   32TCq2    C1  486   1.965   1.824  14.913 -0.2951  0.5268 -0.6190
   32TCq2    O2  487   1.937   1.811  14.792  0.8965  0.0182  0.9615
   32TCq2    C2  488   1.945   1.709  14.998 -0.5159  0.0058  0.7102
   32TCq2    C3  489   1.998   1.597  14.946 -0.1155  0.4332 -0.0578
   32TCq2    C4  490   2.033   1.498  15.031  0.9256 -0.4141  0.5728
   32TCq2    C5  491   2.003   1.513  15.164  0.0563 -1.2875  0.0469
   32TCq2    C6  492   1.944   1.628  15.211  0.8748  0.0739  0.8989
   32TCq2    C7  493   1.921   1.731  15.129  0.8037  0.3630 -0.2692
   32TCq2    C8  494   1.926   1.652  15.354 -0.0270 -0.1672  0.5456
   32TCq2    O4  495   1.876   1.762  15.386 -0.4604  0.0987 -0.2790
   32TCq2    C9  496   2.087   1.371  14.981  0.3637  1.0094 -0.3518
   32TCq2    O5  497   2.132   1.289  15.065 -0.2002 -1.0241 -0.7554
   32TCq2    O6  498   2.085   1.349  14.856 -0.4438  0.5695  0.3651
   32TCq2    H2  499   2.022   1.593  14.840 -0.1470 -1.4511  0.0151
   32TCq2    H3  500   2.029   1.424  15.221 -0.2982 -1.3713  0.0772
   32TCq2    H4  501   1.886   1.827  15.166  0.6440 -0.3162  1.3402
   33MPD2     C  502   2.450   3.943   9.921 -0.3826 -0.1728 -0.3247
   33MPD2    C1  503   2.317   3.937   9.885  0.0286 -0.1930  0.1989
   33MPD2    C2  504   2.252   4.062   9.873  0.4328  0.0079  0.0230
   33MPD2    C3  505   2.313   4.181   9.898  0.6198  0.2567 -0.4912
   33MPD2    C4  506   2.445   4.185   9.932  0.0475 -0.1134  0.3922
   33MPD2    C5  507   2.509   4.065   9.940 -0.0631  0.2893 -0.3714
   33MPD2     H  508   2.148   4.061   9.841  1.1037  2.3356 -2.2764
   33MPD2    H1  509   2.490   4.281   9.955  1.5084 -0.3059 -1.6105
   33MPD2    H2  510   2.521   3.862   9.916 -0.9186 -0.5874 -1.2205
   33MPD2    H3  511   2.612   4.065   9.972  0.4904  0.1769 -2.1482
   33MPD2     N  512   2.249   4.309   9.904 -0.0735 -0.2164  0.2042
   33MPD2    H5  513   2.306   4.389   9.929 -0.7781  0.0054  1.0724
   33MPD2    N1  514   2.258   3.812   9.861 -0.6144  0.1219 -0.4399
   33MPD2    H7  515   2.307   3.729   9.895  1.4729  1.7970  0.6857
   34TCq2    C1  516   2.113   4.327   9.890  0.4150  0.0502 -0.3261
   34TCq2    O2  517   2.026   4.246   9.893  0.2975 -0.4443  0.3210
   34TCq2    C2  518   2.069   4.466   9.892 -0.3033 -0.5820  0.2124
   34TCq2    C3  519   1.949   4.497   9.948 -0.2040 -0.0603  0.0407
   34TCq2    C4  520   1.919   4.628   9.979 -0.4553  0.4868  0.1564
   34TCq2    C5  521   2.001   0.005   9.926  0.3649 -0.4600  0.3314
   34TCq2    C6  522   2.110   4.696   9.850 -0.5036  0.7649  0.3995
   34TCq2    C7  523   2.140   4.563   9.830 -0.0464 -0.2165 -0.2819
   34TCq2    C8  524   2.202   0.073   9.802  0.0713  0.4182  0.1270
   34TCq2    O4  525   2.249   0.151   9.887 -0.2297  0.0518 -0.4642
   34TCq2    C9  526   1.798   4.675  10.036 -0.2173  0.8454 -0.1259
   34TCq2    O5  527   1.789   0.079  10.046  0.0606  0.2007  0.1428
   34TCq2    O6  528   1.719   4.591  10.084  0.1942  0.2432 -1.2170
   34TCq2    H2  529   1.869   4.431   9.979 -0.6030  0.5524  0.3191
   34TCq2    H3  530   1.979   0.111   9.929 -1.2959 -0.7877 -0.3905
   34TCq2    H4  531   2.214   4.532   9.757  1.6565  0.6490  1.0734
   35MPD2     C  532   2.966   0.665  11.458  0.4753 -0.1819 -0.3979
   35MPD2    C1  533   2.953   0.536  11.502 -0.8372 -0.1004  0.1908
   35MPD2    C2  534   2.952   0.430  11.411  0.3979  0.4466  0.3134
   35MPD2    C3  535   2.957   0.459  11.274  0.8214  0.4490 -0.4847
   35MPD2    C4  536   2.956   0.591  11.236  0.4375 -0.2884  0.5798
   35MPD2    C5  537   2.975   0.689  11.329 -0.8791  0.1642 -0.0301
   35MPD2     H  538   2.951   0.329  11.451  0.3090  0.1098 -0.5355
   35MPD2    H1  539   2.956   0.626  11.133  1.1101  1.5204  1.2007
   35MPD2    H2  540   2.985   0.746  11.529  2.6700 -0.6781 -0.4054
   35MPD2    H3  541   2.980   0.794  11.303  0.8510  0.6567  2.2280
   35MPD2     N  542   2.963   0.351  11.181 -0.5223 -0.3688  0.4336
   35MPD2    H5  543   2.946   0.263  11.228  1.2946 -0.4756  0.8931
   35MPD2    N1  544   2.949   0.524  11.643  0.3040  0.1672 -0.0330
   35MPD2    H7  545   2.951   0.610  11.697 -1.3322  0.7274 -0.8650
   36TCq2    C1  546   2.984   0.358  11.041  0.1128  0.5484 -0.1709
   36TCq2    O2  547   3.021   0.458  10.982  0.5543 -0.3998  0.0748
   36TCq2    C2  548   2.954   0.238  10.962 -0.0663  0.6721 -0.2759
   36TCq2    C3  549   2.962   0.253  10.822 -0.1156 -0.3869 -0.3820
   36TCq2    C4  550   2.903   0.162  10.749 -0.2329 -0.2922  0.9047
   36TCq2    C5  551   2.849   0.050  10.805 -0.3327  0.5052  0.2979
   36TCq2    C6  552   2.843   0.031  10.938 -0.5501  0.0581  0.5221
   36TCq2    C7  553   2.900   0.130  11.020  0.3260  0.0622 -0.4786
   36TCq2    C8  554   2.796   4.629  11.001 -0.3294 -0.1853  0.4937
   36TCq2    O4  555   2.808   4.532  10.932  0.2474 -0.5145 -0.1364
   36TCq2    C9  556   2.884   0.194  10.606  0.8377 -0.6930 -0.0539
   36TCq2    O5  557   2.790   0.144  10.537 -0.2379 -0.0257 -0.4391
   36TCq2    O6  558   2.940   0.296  10.564  0.1038  0.8048  0.0591
   36TCq2    H2  559   2.977   0.354  10.785 -0.6763  0.2193  1.0421
   36TCq2    H3  560   2.800   4.697  10.742  0.6299  0.9396 -0.9466
   36TCq2    H4  561   2.893   0.119  11.127  1.2226  1.9107 -0.2313
   37TMC2    C1  562   1.244   0.707  11.365 -0.0168  0.4848 -0.3553
   37TMC2    C2  563   1.257   0.710  11.225 -1.1433 -0.3135  0.6128
   37TMC2    C3  564   1.378   0.742  11.170  0.0333 -0.3852 -0.3282
   37TMC2    C4  565   1.355   0.735  11.443 -0.0323 -0.6675 -0.1809
   37TMC2    C5  566   1.475   0.760  11.380 -0.3942  0.1409 -0.0808
   37TMC2    C6  567   1.489   0.769  11.247 -0.1064  0.2060 -0.1110
   37TMC2     C  568   1.114   0.717  11.423 -0.5485  0.3663 -0.0596
   37TMC2     O  569   1.015   0.699  11.355 -0.3096  0.3782 -0.0744
   37TMC2     H  570   1.173   0.675  11.166  1.1335 -1.9874 -1.6554
   37TMC2    H1  571   1.362   0.721  11.550 -0.2579  0.4910 -0.0133
   37TMC2    H2  572   1.582   0.777  11.193  0.0039  1.3571  0.2562
   37TMC2    C7  573   1.576   0.815  11.461 -0.3927  0.1077  0.5538
   37TMC2    C8  574   1.396   0.724  11.022  0.0682 -0.3205  0.7373
   37TMC2    O1  575   1.568   0.803  11.581  0.4129 -0.5387  0.3155
   37TMC2    O2  576   1.502   0.677  10.983  0.7109  0.2093  0.5681
   37TMC2    O5  577   1.275   0.725  10.966  0.1728  0.2189  0.2500
   37TMC2    H5  578   1.232   0.806  11.000  1.5305  0.2901  1.8021
   38MPD2     C  579   0.814   0.672  11.838  0.8134  1.1358 -0.7028
   38MPD2    C1  580   0.943   0.675  11.883 -0.2070  0.8669 -0.2934
   38MPD2    C2  581   1.044   0.693  11.788  0.1825 -0.3717  0.0032
   38MPD2    C3  582   1.018   0.731  11.657  0.2924  0.5423  0.1270
   38MPD2    C4  583   0.884   0.735  11.618  0.0020 -0.0714  0.2618
   38MPD2    C5  584   0.782   0.704  11.704 -0.7966 -0.3518 -0.2196
   38MPD2     H  585   1.146   0.675  11.822  0.6002  2.5873  0.2922
   38MPD2    H1  586   0.841   0.753  11.520 -2.2998  1.0201  1.4588
   38MPD2    H2  587   0.728   0.656  11.902  0.7136 -1.8623 -1.5752
   38MPD2    H3  588   0.680   0.708  11.668 -1.2350  0.4225  1.0676
   38MPD2     N  589   1.125   0.739  11.559 -0.0239 -0.1463 -0.6048
   38MPD2    H5  590   1.217   0.737  11.601 -0.1923 -2.3382 -0.3277
   38MPD2    N1  591   0.984   0.658  12.021 -0.0331  0.3634 -0.6334
   38MPD2    H7  592   1.085   0.658  12.024 -0.0315  0.6288 -0.6817
   39MPD2     C  593   3.915   2.463   1.563  0.2185  0.5649  0.5239
   39MPD2    C1  594   3.853   2.589   1.598  0.7631  0.0384 -0.2790
   39MPD2    C2  595   3.713   2.610   1.563 -0.0899  0.1174 -1.2158
   39MPD2    C3  596   3.657   2.525   1.471  0.3413 -0.2479  0.1034
   39MPD2    C4  597   3.716   2.400   1.450  0.7330 -0.6008  0.7791
   39MPD2    C5  598   3.840   2.369   1.496 -0.8964 -0.2496  0.0421
   39MPD2     H  599   3.677   2.709   1.586 -0.0182  0.2579 -1.7274
   39MPD2    H1  600   3.662   2.339   1.378  2.3698 -0.1632 -0.8096
   39MPD2    H2  601   4.015   2.453   1.604  0.3627 -1.2372 -0.2592
   39MPD2    H3  602   3.888   2.278   1.462 -0.4413 -0.0197  0.0777
   39MPD2     N  603   3.524   2.540   1.412 -0.0974 -0.3662 -0.5320
   39MPD2    H5  604   3.494   2.463   1.353 -1.3041 -1.8792  2.0881
   39MPD2    N1  605   3.932   2.676   1.683  0.0283 -0.2695 -0.0067
   39MPD2    H7  606   4.027   2.649   1.706  0.1896  1.6580  1.5909
   40TCq2    C1  607   3.875   2.775   1.764 -0.3276  0.8900 -0.6184
   40TCq2    O2  608   3.759   2.804   1.786  0.2954  0.1569  0.0415
   40TCq2    C2  609   3.982   2.850   1.830 -0.6163  0.4927  0.4974
   40TCq2    C3  610   3.955   2.926   1.937 -0.5541 -0.0321  0.7351
   40TCq2    C4  611   4.064   2.978   2.007 -0.2655 -0.0470  0.9326
   40TCq2    C5  612   4.194   2.970   1.970  0.0099 -0.5153  0.6104
   40TCq2    C6  613   4.220   2.879   1.864  0.7414 -0.2504  0.5368
   40TCq2    C7  614   4.113   2.825   1.793 -0.5599  0.4763  0.3204
   40TCq2    C8  615   4.355   2.836   1.814  0.4144  0.8582 -0.2637
   40TCq2    O4  616   4.352   2.740   1.737  0.3860 -0.0970  0.0319
   40TCq2    C9  617   4.029   3.074   2.115 -0.1611  0.1661 -0.4636
   40TCq2    O5  618   3.909   3.110   2.125 -0.0410 -0.0652  0.2129
   40TCq2    O6  619   4.125   3.154   2.146  0.0060 -0.0210 -0.3546
   40TCq2    H2  620   3.853   2.949   1.966 -1.0896 -0.9594 -0.4003
   40TCq2    H3  621   4.276   3.009   2.030  0.4238 -0.1554 -0.1874
   40TCq2    H4  622   4.140   2.762   1.709  0.0304 -0.7192  1.4115
   41TMC2    C1  623   3.209   0.755  13.703  0.6656  0.2884 -0.4169
   41TMC2    C2  624   3.241   0.857  13.788 -0.0509 -0.4394  0.2670
   41TMC2    C3  625   3.329   0.946  13.735  0.5771  0.5561  0.0435
   41TMC2    C4  626   3.246   0.749  13.575  0.5477 -0.7571  0.1416
   41TMC2    C5  627   3.323   0.852  13.526 -0.0063 -0.2313  0.4924
   41TMC2    C6  628   3.365   0.955  13.604 -0.2117 -0.1846 -0.5841
   41TMC2     C  629   3.117   0.649  13.743 -0.4227 -0.5588  0.6904
   41TMC2     O  630   3.049   0.595  13.656 -0.1609 -0.3472  0.1636
   41TMC2     H  631   3.200   0.863  13.889 -3.6956  1.9730 -1.3452
   41TMC2    H1  632   3.225   0.658  13.519  0.0948  0.5523 -1.8327
   41TMC2    H2  633   3.422   1.039  13.567  0.3649 -0.9183 -1.3832
   41TMC2    C7  634   3.314   0.875  13.382 -0.0729 -0.1011  0.8863
   41TMC2    C8  635   3.381   1.044  13.826 -0.0950 -0.1498 -0.0217
   41TMC2    O1  636   3.358   0.978  13.337  0.5222  0.0542  0.1031
   41TMC2    O2  637   3.445   1.140  13.787 -0.2215 -0.2075  0.2676
   41TMC2    O5  638   3.407   0.985  13.943  0.1799  0.3192  0.6923
   41TMC2    H5  639   3.357   0.906  13.972  1.3130 -0.4050  0.7056
   42MPD2     C  640   2.908   0.493  13.892  0.5321  0.9978 -0.3531
   42MPD2    C1  641   3.003   0.576  13.948 -0.1923  0.2605  0.8668
   42MPD2    C2  642   2.991   0.610  14.082  0.1866  0.0845  0.4134
   42MPD2    C3  643   2.884   0.573  14.153 -0.6335  0.2325  0.5479
   42MPD2    C4  644   2.788   0.484  14.098  0.5185  0.6337  0.0012
   42MPD2    C5  645   2.796   0.460  13.965  0.7274  0.1056 -0.1230
   42MPD2     H  646   3.060   0.670  14.141  1.7271  0.2157 -1.5398
   42MPD2    H1  647   2.702   0.446  14.153  1.2675 -1.9371 -0.6277
   42MPD2    H2  648   2.902   0.462  13.789 -0.0965 -0.9754  0.2847
   42MPD2    H3  649   2.720   0.401  13.916  1.4506 -0.3304 -0.7253
   42MPD2     N  650   2.867   0.634  14.284  0.2402  0.2742  0.6021
   42MPD2    H5  651   2.925   0.711  14.316 -1.0261 -0.3409  4.3989
   42MPD2    N1  652   3.105   0.634  13.873 -0.0629  0.2809  0.2585
   42MPD2    H7  653   3.167   0.695  13.926  0.1202 -2.2717  2.9962
   43MPD2     C  654   0.296   4.227   1.083  0.2626 -0.3087 -0.0832
   43MPD2    C1  655   0.261   4.114   1.160  0.1619 -0.5539 -0.9364
   43MPD2    C2  656   0.191   4.136   1.282 -0.0497  0.4680 -0.6711
   43MPD2    C3  657   0.143   4.264   1.320 -0.2559  0.6603  0.7252
   43MPD2    C4  658   0.186   4.373   1.246  0.0947 -0.3661 -0.6208
   43MPD2    C5  659   0.260   4.351   1.127 -0.3498 -0.0469  0.4338
   43MPD2     H  660   0.176   4.054   1.352  0.3163  0.7048 -0.3193
   43MPD2    H1  661   0.167   4.476   1.273  1.8665 -0.3532  0.5865
   43MPD2    H2  662   0.360   4.238   0.997  1.8901  2.2944  1.4376
   43MPD2    H3  663   0.295   4.436   1.069 -0.6295 -1.7661 -2.2342
   43MPD2     N  664   0.082   4.286   1.443  0.2169  0.1300 -0.3516
   43MPD2    H5  665   0.063   4.383   1.465 -1.5194 -1.0564  3.2427
   43MPD2    N1  666   0.290   3.982   1.122  0.0540 -0.3998  0.0767
   43MPD2    H7  667   0.240   3.912   1.176  0.4453 -0.3528  0.4910
   44TCq2    C1  668   4.407   4.223   1.828 -0.3219  0.1085 -0.4797
   44TCq2    O2  669   4.360   4.165   1.730 -0.7608 -0.6492 -0.3157
   44TCq2    C2  670   4.540   4.263   1.801  0.4633  0.3441 -0.3942
   44TCq2    C3  671   4.570   4.395   1.834  0.7452 -0.1022 -0.5921
   44TCq2    C4  672   4.668   4.459   1.766  0.2719 -0.3271  1.4253
   44TCq2    C5  673   0.021   4.405   1.662 -0.3542  0.1151 -0.1830
   44TCq2    C6  674   4.709   4.272   1.641  0.6657  0.4126  0.2209
   44TCq2    C7  675   4.606   4.203   1.696  0.5351  0.7341 -0.1958
   44TCq2    C8  676   0.054   4.202   1.537  0.1690  0.0422  0.2533
   44TCq2    O4  677   0.033   4.080   1.529 -0.2726  0.1021 -0.4254
   44TCq2    C9  678   4.712   4.581   1.812 -0.1245  0.3285 -0.5489
   44TCq2    O5  679   0.060   4.651   1.732  0.1624  0.3451  0.2396
   44TCq2    O6  680   4.693   4.595   1.935 -0.4443 -0.5116  0.1316
   44TCq2    H2  681   4.526   4.442   1.921 -0.6879  0.9378 -1.8711
   44TCq2    H3  682   0.110   4.443   1.614 -0.3483 -0.0623 -0.3145
   44TCq2    H4  683   4.570   4.113   1.647 -1.3730  1.2262  0.2910
   45TMC2    C1  684   0.414   1.091   9.416 -0.2700  0.2669  1.0964
   45TMC2    C2  685   0.419   1.045   9.289  0.0918 -0.1397  0.4772
   45TMC2    C3  686   0.506   1.100   9.202 -0.9103 -0.3160  0.6148
   45TMC2    C4  687   0.511   1.182   9.454  0.5929 -0.0461  0.2503
   45TMC2    C5  688   0.588   1.240   9.365 -0.3544 -0.7518  0.2396
   45TMC2    C6  689   0.590   1.205   9.232  0.4102  0.5238  0.0908
   45TMC2     C  690   0.348   1.017   9.520 -0.3170 -0.6699  0.7642
   45TMC2     O  691   0.402   1.006   9.627  0.3323 -0.1042  0.0275
   45TMC2     H  692   0.368   0.954   9.258 -0.2039 -0.2263  1.2286
   45TMC2    H1  693   0.512   1.201   9.561 -0.5389  2.2148 -0.1315
   45TMC2    H2  694   0.659   1.249   9.161  2.4481  0.2026  1.8678
   45TMC2    C7  695   0.625   1.381   9.380 -0.0682  0.2463 -0.2241
   45TMC2    C8  696   0.498   1.050   9.066  0.1623  0.0218  0.3728
   45TMC2    O1  697   0.640   1.448   9.279 -0.6414  0.2843 -0.6603
   45TMC2    O2  698   0.587   1.055   8.986 -0.6088 -0.0233  0.4521
   45TMC2    O5  699   0.367   1.070   9.034 -0.5582 -0.3172 -0.4100
   45TMC2    H5  700   0.329   1.108   9.116  1.5717  0.1860  0.3384
   46MPD2     C  701   0.192   0.829   9.680 -0.5599 -0.4804 -0.1974
   46MPD2    C1  702   0.162   0.864   9.546  1.0661  0.4028  0.0395
   46MPD2    C2  703   0.043   0.808   9.496  0.3210  0.5333  0.1887
   46MPD2    C3  704   4.687   0.709   9.566  0.4960 -0.5960  0.0138
   46MPD2    C4  705   0.016   0.664   9.688  0.0355  1.2204 -0.3070
   46MPD2    C5  706   0.120   0.735   9.745  0.6137 -0.3880  0.1317
   46MPD2     H  707   0.003   0.855   9.406 -0.2918  2.0117  1.2353
   46MPD2    H1  708   4.690   0.579   9.736 -0.5147  2.2012  0.8842
   46MPD2    H2  709   0.272   0.877   9.736 -0.2305 -0.5514 -0.6091
   46MPD2    H3  710   0.166   0.706   9.839  0.9023 -1.9104 -0.4767
   46MPD2     N  711   4.575   0.652   9.501  0.5260 -0.8774  0.0050
   46MPD2    H5  712   4.549   0.709   9.421  2.3448 -0.4816 -0.2995
   46MPD2    N1  713   0.239   0.953   9.471  0.3041 -0.2206 -0.1930
   46MPD2    H7  714   0.201   0.973   9.379  3.2694 -1.4367 -1.6949
   47TMC2    C1  715   2.473   2.022   9.479 -0.0839  0.1679 -0.0755
   47TMC2    C2  716   2.344   2.054   9.490  0.1031 -0.0434  0.6146
   47TMC2    C3  717   2.267   2.053   9.379 -0.2271 -0.3209 -0.1950
   47TMC2    C4  718   2.519   1.993   9.351  0.6200 -0.0261 -0.2243
   47TMC2    C5  719   2.437   1.986   9.239 -0.1540 -0.1021  0.3948
   47TMC2    C6  720   2.304   2.014   9.255 -0.1162 -0.0887 -0.0275
   47TMC2     C  721   2.565   2.058   9.586  0.1469  0.3984  0.5625
   47TMC2     O  722   2.538   2.160   9.654 -0.1046  0.1439 -0.4530
   47TMC2     H  723   2.306   2.104   9.578  0.7703 -1.7655  1.8846
   47TMC2    H1  724   2.625   1.984   9.329  0.8594  0.7836  0.6213
   47TMC2    H2  725   2.237   2.025   9.171 -0.2288  1.2808  0.2260
   47TMC2    C7  726   2.504   1.990   9.111 -0.4653  0.4133 -0.4269
   47TMC2    C8  727   2.137   2.109   9.393 -0.1592  0.2251 -0.2164
   47TMC2    O1  728   2.616   1.936   9.100 -0.0172  0.3712 -0.3220
   47TMC2    O2  729   2.110   2.229   9.395 -0.7992 -0.4805 -0.5375
   47TMC2    O5  730   2.071   2.015   9.469  0.2309  1.0419 -0.8105
   47TMC2    H5  731   2.108   1.924   9.464  1.0565  1.2339  1.7812
   48MPD2     C  732   2.798   2.113   9.743 -0.1591  0.1994 -0.4673
   48MPD2    C1  733   2.785   2.000   9.661 -1.0183 -0.1928  0.6639
   48MPD2    C2  734   2.878   1.897   9.678 -0.3767 -0.0789  0.9264
   48MPD2    C3  735   2.978   1.904   9.774  0.4598 -0.4361  0.8160
   48MPD2    C4  736   2.984   2.022   9.845 -1.2545 -0.3456  0.4152
   48MPD2    C5  737   2.906   2.128   9.824  0.3684 -0.0759  0.3841
   48MPD2     H  738   2.853   1.803   9.632 -0.9326  0.4351  0.1730
   48MPD2    H1  739   3.059   2.028   9.924 -1.2245 -0.6784  0.4134
   48MPD2    H2  740   2.731   2.198   9.741  0.6965  0.8894  0.2140
   48MPD2    H3  741   2.927   2.221   9.874 -4.8347  1.1684  0.2736
   48MPD2     N  742   3.063   1.790   9.787 -0.3731  0.0427 -0.8598
   48MPD2    H5  743   3.068   1.724   9.711 -2.9697  0.2230 -1.1743
   48MPD2    N1  744   2.670   1.974   9.586 -0.1834 -0.1721  0.3859
   48MPD2    H7  745   2.672   1.889   9.530  1.5580  0.6352 -0.7879
   49MPD2     C  746   1.399   3.934   9.841 -0.1949  0.5162  0.8876
   49MPD2    C1  747   1.291   3.917   9.929  0.0761 -0.1738  0.5967
   49MPD2    C2  748   1.301   3.939  10.066  0.1700  0.6766 -0.6038
   49MPD2    C3  749   1.416   3.988  10.110  0.0108  0.2356  0.6256
   49MPD2    C4  750   1.522   4.003  10.027 -0.0661 -0.2936  1.0518
   49MPD2    C5  751   1.513   3.978   9.896 -0.5203  0.2611  0.7330
   49MPD2     H  752   1.206   3.933  10.118 -0.0489  0.8237 -0.9772
   49MPD2    H1  753   1.615   4.036  10.072 -0.4007 -0.3614  1.8022
   49MPD2    H2  754   1.391   3.924   9.733 -1.7569  0.8142  0.9686
   49MPD2    H3  755   1.596   4.015   9.837 -1.2196  0.0664 -0.3710
   49MPD2     N  756   1.436   4.022  10.244 -0.0017 -0.3471  0.0345
   49MPD2    H5  757   1.531   4.054  10.261  0.0931 -1.0916  0.9155
   49MPD2    N1  758   1.164   3.878   9.879 -0.0177 -0.1570 -0.2822
   49MPD2    H7  759   1.105   3.849   9.957  1.6701 -0.8729  0.7210
   50TCq2    C1  760   1.120   3.868   9.746 -0.0724  0.6627  0.1689
   50TCq2    O2  761   1.172   3.906   9.646 -0.1852  0.1693 -0.0134
   50TCq2    C2  762   0.993   3.798   9.729 -0.2673 -0.3396 -0.2111
   50TCq2    C3  763   0.981   3.747   9.604  0.0687 -0.0740  0.8439
   50TCq2    C4  764   0.885   3.656   9.569  0.6393  0.8779 -0.6013
   50TCq2    C5  765   0.799   3.617   9.671  0.0773  0.3715 -0.0826
   50TCq2    C6  766   0.821   3.659   9.795  0.6408  0.1235 -0.4228
   50TCq2    C7  767   0.921   3.746   9.833 -0.0737 -0.1824  0.0230
   50TCq2    C8  768   0.718   3.625   9.893  0.4198  0.0399  0.7161
   50TCq2    O4  769   0.753   3.618  10.008 -0.2991  0.4346 -0.0694
   50TCq2    C9  770   0.906   3.575   9.447 -0.8683 -0.5565  0.3247
   50TCq2    O5  771   0.822   3.485   9.425 -0.1057 -0.3107 -0.0799
   50TCq2    O6  772   1.004   3.603   9.375  0.4050 -0.6839  0.2685
   50TCq2    H2  773   1.045   3.783   9.524 -2.3620  0.2170 -0.9674
   50TCq2    H3  774   0.722   3.545   9.645  1.1106 -0.8360  0.1581
   50TCq2    H4  775   0.925   3.787   9.933  1.4855 -0.4395  0.0657
   51MPD2     C  776   1.549   2.689   1.120 -0.0842  0.0128 -0.1081
   51MPD2    C1  777   1.421   2.665   1.077  0.5583  0.7472  0.5995
   51MPD2    C2  778   1.327   2.760   1.099 -0.2480 -0.2277  0.0409
   51MPD2    C3  779   1.363   2.880   1.159 -0.5463  1.3684  0.5462
   51MPD2    C4  780   1.492   2.905   1.201 -0.3361  0.1310  0.2184
   51MPD2    C5  781   1.586   2.803   1.181  0.3408 -0.2981 -0.3773
   51MPD2     H  782   1.224   2.746   1.069 -0.0967  1.1024 -1.0708
   51MPD2    H1  783   1.524   2.996   1.251 -2.7315  0.2180  1.5928
   51MPD2    H2  784   1.623   2.610   1.111  0.3010  0.2710  0.7972
   51MPD2    H3  785   1.686   2.813   1.222 -0.6224  0.4942  1.7771
   51MPD2     N  786   1.268   2.987   1.172  0.3616  0.3477 -0.1105
   51MPD2    H5  787   1.300   3.069   1.223 -0.5957 -0.1881  1.3593
   51MPD2    N1  788   1.376   2.542   1.020  0.1124 -0.6318 -0.3606
   51MPD2    H7  789   1.286   2.524   0.976  1.1103 -0.8079 -2.3010
   52TCq2    C1  790   1.156   2.998   1.096  0.5146  0.9203  0.1369
   52TCq2    O2  791   1.102   2.928   1.009 -0.6798 -0.6934 -0.1938
   52TCq2    C2  792   1.096   3.136   1.103 -0.5699 -0.2577 -0.1387
   52TCq2    C3  793   0.967   3.144   1.070 -0.4000  0.2256  0.6520
   52TCq2    C4  794   0.904   3.263   1.076 -0.0236  0.1726 -0.3376
   52TCq2    C5  795   0.963   3.379   1.116 -0.2676  0.1174 -0.1109
   52TCq2    C6  796   1.097   3.366   1.147 -0.2758 -0.2539 -0.1770
   52TCq2    C7  797   1.169   3.252   1.131 -0.3835  0.2448  0.4089
   52TCq2    C8  798   1.164   3.482   1.211  0.4450 -0.1562  0.3960
   52TCq2    O4  799   1.286   3.490   1.213  0.4272  0.1087  0.5782
   52TCq2    C9  800   0.758   3.267   1.055  0.5352  0.1269 -0.1272
   52TCq2    O5  801   0.699   3.159   1.045 -0.0529 -0.0298  0.1595
   52TCq2    O6  802   0.707   3.378   1.035  0.6457  0.5658 -0.2240
   52TCq2    H2  803   0.911   3.055   1.042  1.2771 -0.2666 -1.1351
   52TCq2    H3  804   0.904   3.469   1.103  0.2361  0.3031 -1.1295
   52TCq2    H4  805   1.278   3.250   1.139 -0.2789 -1.8242 -1.5473
   53TMC2    C1  806   2.028   1.013  11.990  0.4720 -0.0607 -0.1430
   53TMC2    C2  807   2.130   0.962  12.068  0.3341 -0.4910  0.1016
   53TMC2    C3  808   2.088   0.888  12.173 -0.2565  0.6080 -0.1895
   53TMC2    C4  809   1.898   1.015  12.033  0.0225 -0.2183  0.1784
   53TMC2    C5  810   1.865   0.936  12.135 -0.1175  0.2494  0.8542
   53TMC2    C6  811   1.952   0.874  12.212  0.4215  0.7303  0.4647
   53TMC2     C  812   2.057   1.025  11.852 -0.4553 -0.0738  0.4162
   53TMC2     O  813   2.178   1.041  11.825 -0.1052 -0.1072 -0.1297
   53TMC2     H  814   2.235   0.958  12.042  0.1540  1.6887 -0.9380
   53TMC2    H1  815   1.832   1.082  11.980 -1.6296 -1.1562  1.0592
   53TMC2    H2  816   1.930   0.804  12.291  1.0018  1.6707  1.4448
   53TMC2    C7  817   1.737   0.950  12.185 -0.0668 -0.0601  0.4556
   53TMC2    C8  818   2.182   0.799  12.237 -0.4710  0.6106 -0.1181
   53TMC2    O1  819   1.663   1.022  12.119 -0.5398 -0.3880  0.0916
   53TMC2    O2  820   2.243   0.834  12.333  0.4501 -0.3606 -0.0888
   53TMC2    O5  821   2.231   0.732  12.132 -0.4842 -0.4062  0.0350
   53TMC2    H5  822   2.156   0.716  12.071  0.9781  0.0987 -1.8851
   54MPD2     C  823   2.046   1.012  11.549  0.1293 -0.3696 -0.0522
   54MPD2    C1  824   1.942   0.983  11.633  0.5957 -0.1724  0.7543
   54MPD2    C2  825   1.822   0.945  11.582 -0.2295  0.2789  0.4645
   54MPD2    C3  826   1.796   0.937  11.442 -0.5931 -0.4139  1.1263
   54MPD2    C4  827   1.899   0.966  11.357  0.0392  0.2207 -0.4688
   54MPD2    C5  828   2.028   0.997  11.413  0.2432  0.0550 -0.4961
   54MPD2     H  829   1.744   0.922  11.653 -0.0339 -3.6078 -0.5530
   54MPD2    H1  830   1.898   0.960  11.249 -0.3839 -2.8896 -0.3059
   54MPD2    H2  831   2.146   1.043  11.575  0.6425  0.1265 -2.5799
   54MPD2    H3  832   2.116   1.014  11.351  0.7753  2.4161  0.9477
   54MPD2     N  833   1.677   0.883  11.390  0.0903 -0.3770  0.3005
   54MPD2    H5  834   1.667   0.895  11.290  0.1567 -0.6980  0.2546
   54MPD2    N1  835   1.947   1.006  11.774 -0.2632 -0.3856 -0.3762
   54MPD2    H7  836   1.857   0.995  11.820 -0.1987 -1.2282 -0.4519
   55MPD2     C  837   2.301   2.959   0.039 -1.0155 -0.0007  0.4308
   55MPD2    C1  838   2.180   2.901   0.068  0.1354 -0.5677 -0.4262
   55MPD2    C2  839   2.071   2.979   0.090  0.3196  0.2522 -0.1312
   55MPD2    C3  840   2.084   3.117   0.097  1.1298  0.0309 -0.7908
   55MPD2    C4  841   2.200   3.171   0.064 -0.1288 -0.5229  0.1889
   55MPD2    C5  842   2.312   3.096   0.037 -0.3994  0.1251 -0.6716
   55MPD2     H  843   1.978   2.933   0.121  0.9393 -0.0078  1.3156
   55MPD2    H1  844   2.209   3.278   0.053 -0.4098 -0.7059 -1.9074
   55MPD2    H2  845   2.384   2.892   0.018 -1.9417 -1.4016  1.2098
   55MPD2    H3  846   2.410   3.133   0.009  0.5869 -1.9822  0.0143
   55MPD2     N  847   1.971   3.184   0.149 -0.1062  0.1950  0.5178
   55MPD2    H5  848   1.888   3.129   0.169 -0.5936  0.8337  0.2353
   55MPD2    N1  849   2.169   2.763   0.075 -0.0848 -0.1140 -0.3833
   55MPD2    H7  850   2.250   2.706   0.054  0.0365  0.4810 -1.5199
   56TCq2    C1  851   2.054   2.694   0.098  0.1920 -0.4382  0.5140
   56TCq2    O2  852   1.938   2.725   0.095  0.0647 -0.0250  0.2492
   56TCq2    C2  853   2.082   2.556   0.137 -0.1743 -0.0653  0.1366
   56TCq2    C3  854   2.210   2.520   0.158 -0.0178 -0.0208 -0.5259
   56TCq2    C4  855   2.238   2.389   0.156 -0.4746 -0.8786  0.2158
   56TCq2    C5  856   2.136   2.296   0.156  0.0281  0.1631 -0.5787
   56TCq2    C6  857   2.010   2.337   0.136  0.2090  0.3049  0.8787
   56TCq2    C7  858   1.982   2.466   0.118  0.0690 -0.1859 -0.5343
   56TCq2    C8  859   1.917   2.236   0.142  0.5479  0.4940 -0.1119
   56TCq2    O4  860   1.939   2.124   0.095 -0.2357  0.3930  0.7672
   56TCq2    C9  861   2.376   2.338   0.182 -0.0225 -0.0263 -0.8217
   56TCq2    O5  862   2.396   2.216   0.197  0.6478  0.4444 -0.5912
   56TCq2    O6  863   2.464   2.426   0.201  0.0320 -0.2305  0.4741
   56TCq2    H2  864   2.280   2.594   0.195  2.1304 -0.6740 -3.3159
   56TCq2    H3  865   2.157   2.190   0.151 -1.7070 -0.2437  1.0091
   56TCq2    H4  866   1.883   2.506   0.101 -0.1311  0.6401  2.6448
   57TMC2    C1  867   1.576   4.510  13.561  0.1122  0.1128  0.2087
   57TMC2    C2  868   1.672   4.476  13.651  0.3837 -0.5017  0.1311
   57TMC2    C3  869   1.799   4.490  13.601 -0.6723  0.3334  0.0098
   57TMC2    C4  870   1.603   4.572  13.443  0.4454 -0.7278 -0.4530
   57TMC2    C5  871   1.735   4.593  13.406 -0.5793 -0.0441  0.1910
   57TMC2    C6  872   1.832   4.544  13.485  0.0514  0.5532  0.4297
   57TMC2     C  873   1.441   4.457  13.566  0.8396  0.3331 -0.3726
   57TMC2     O  874   1.358   4.539  13.535 -0.4780  0.1656 -0.1024
   57TMC2     H  875   1.644   4.414  13.735  1.5061 -0.6192  0.4191
   57TMC2    H1  876   1.527   4.594  13.368  0.5671 -0.5817 -0.5318
   57TMC2    H2  877   1.936   4.548  13.453  0.3114  0.4356  1.2508
   57TMC2    C7  878   1.755   4.563  13.265  0.1463  1.2231  0.5666
   57TMC2    C8  879   1.897   4.494  13.704 -0.6587 -0.0891  0.5644
   57TMC2    O1  880   1.706   4.644  13.187  0.3107  0.3549  0.6320
   57TMC2    O2  881   1.894   4.400  13.782 -0.6140  0.2728 -0.2327
   57TMC2    O5  882   1.983   4.596  13.695 -0.5612 -0.0388 -0.2854
   57TMC2    H5  883   1.962   4.666  13.631 -0.2655 -0.5013 -0.8820
   58MPD2     C  884   1.099   4.105  13.708 -0.5282  0.1535 -0.1503
   58MPD2    C1  885   1.082   4.239  13.671  0.4847 -0.2370 -1.2521
   58MPD2    C2  886   1.196   4.313  13.634 -0.3030 -0.1784  0.5198
   58MPD2    C3  887   1.318   4.256  13.639 -0.6863 -0.3590 -1.3392
   58MPD2    C4  888   1.330   4.120  13.669 -0.1892 -0.2248  0.8867
   58MPD2    C5  889   1.223   4.046  13.706  0.4616 -0.0752  0.1502
   58MPD2     H  890   1.178   4.418  13.611 -0.1085  0.0841  1.5333
   58MPD2    H1  891   1.432   4.084  13.665 -0.2975 -0.5062  0.7239
   58MPD2    H2  892   1.017   4.042  13.740  1.5225 -1.2730  2.2990
   58MPD2    H3  893   1.230   3.941  13.735  0.0227  0.9187  3.9436
   58MPD2     N  894   1.437   4.327  13.612 -0.2921 -0.1744  0.3763
   58MPD2    H5  895   1.525   4.278  13.628  0.3068  1.0169  0.7518
   58MPD2    N1  896   0.958   4.301  13.640 -0.0123 -0.0041  0.4505
   58MPD2    H7  897   0.960   4.400  13.620  0.6365 -0.7193 -3.0803
   59MPD2     C  898   3.854   0.181  12.775 -0.9182 -0.2924 -0.2837
   59MPD2    C1  899   3.822   0.093  12.883  0.3603  0.5889 -0.4582
   59MPD2    C2  900   3.906   0.096  12.999  0.5215 -0.8979  0.2761
   59MPD2    C3  901   4.026   0.170  12.997  0.0563 -0.4775  0.2704
   59MPD2    C4  902   4.049   0.246  12.888 -0.0040 -0.2806 -0.2499
   59MPD2    C5  903   3.968   0.253  12.782 -0.3418  0.0932 -0.5229
   59MPD2     H  904   3.881   0.033  13.083 -0.6842  3.2288  3.0152
   59MPD2    H1  905   4.142   0.303  12.888 -1.6089  2.3666 -0.7313
   59MPD2    H2  906   3.788   0.188  12.689 -0.0329 -2.4509 -1.1524
   59MPD2    H3  907   3.989   0.321  12.700 -1.8642  0.5925 -0.4950
   59MPD2     N  908   4.132   0.167  13.094 -0.9283 -1.0113 -0.6635
   59MPD2    H5  909   4.215   0.217  13.064 -0.1808 -1.7283  0.2082
   59MPD2    N1  910   3.713   0.009  12.886 -0.3303  1.4136 -0.1784
   59MPD2    H7  911   3.686   4.698  12.979  1.6544  0.7793  0.1740
   60TCq2    C1  912   3.648   4.685  12.773  0.0621  0.0156 -0.1583
   60TCq2    O2  913   3.683   4.709  12.657  0.1519 -0.1300 -0.1965
   60TCq2    C2  914   3.520   4.619  12.791  0.6871 -0.0316  1.1802
   60TCq2    C3  915   3.482   4.560  12.913 -0.6222  0.3278  0.5965
   60TCq2    C4  916   3.360   4.496  12.922 -0.0446 -0.0290 -0.1388
   60TCq2    C5  917   3.276   4.472  12.815 -0.0453 -0.1512 -0.1566
   60TCq2    C6  918   3.320   4.541  12.698 -0.3239  0.7647 -0.4269
   60TCq2    C7  919   3.437   4.608  12.681  0.5952 -0.5081 -0.0003
   60TCq2    C8  920   3.258   4.499  12.572 -0.2609 -0.4288 -0.0019
   60TCq2    O4  921   3.260   4.380  12.549 -0.2504 -0.8751  0.0463
   60TCq2    C9  922   3.323   4.429  13.045 -0.7381  0.3604 -0.6646
   60TCq2    O5  923   3.213   4.371  13.047  0.5338 -0.0819  0.2184
   60TCq2    O6  924   3.409   4.422  13.136  0.3184  0.6466 -0.7344
   60TCq2    H2  925   3.546   4.575  12.998  2.1886  0.2328 -1.5070
   60TCq2    H3  926   3.183   4.416  12.821  0.1950 -0.6787 -1.5471
   60TCq2    H4  927   3.465   4.634  12.580 -0.3712  3.1675  0.6630
   61MPD2     C  928   3.702   0.972  15.570  0.3256 -0.5480 -0.4192
   61MPD2    C1  929   3.626   1.079  15.520  0.3916  0.6519 -0.5236
   61MPD2    C2  930   3.634   1.107  15.381 -0.6220  0.2530  0.1925
   61MPD2    C3  931   3.719   1.033  15.305  0.2766 -0.7980 -0.8185
   61MPD2    C4  932   3.786   0.919  15.359  0.3029 -0.0971 -0.0958
   61MPD2    C5  933   3.774   0.888  15.492 -0.7862 -0.0697 -0.1772
   61MPD2     H  934   3.587   1.194  15.337  0.0592  0.5762  0.1211
   61MPD2    H1  935   3.844   0.848  15.301  2.0480  0.7568  0.6208
   61MPD2    H2  936   3.697   0.940  15.673 -2.0109  1.8111  0.2260
   61MPD2    H3  937   3.808   0.797  15.539 -0.4802 -1.1612 -2.4899
   61MPD2     N  938   3.745   1.069  15.168 -0.6098 -0.1926  0.0671
   61MPD2    H5  939   3.824   1.033  15.115  0.0090  0.3041  0.6621
   61MPD2    N1  940   3.558   1.162  15.608  0.1659  0.0431  0.0092
   61MPD2    H7  941   3.511   1.244  15.572 -1.4688 -1.3387 -0.9493
   62TCq2    C1  942   3.543   1.147  15.745 -0.3449 -0.7128  0.4367
   62TCq2    O2  943   3.585   1.053  15.814  0.8061 -0.2094  0.5115
   62TCq2    C2  944   3.484   1.263  15.814 -0.0900 -0.0701 -0.5381
   62TCq2    C3  945   3.439   1.227  15.941  0.4195 -0.3755 -0.0578
   62TCq2    C4  946   3.374   1.323  16.019  0.3316  0.4865 -0.7461
   62TCq2    C5  947   3.343   1.447  15.971  0.5379 -0.1155  0.5467
   62TCq2    C6  948   3.371   1.475  15.839 -0.5438 -0.2257 -0.1155
   62TCq2    C7  949   3.446   1.387  15.760 -0.0887 -0.1199 -0.2651
   62TCq2    C8  950   3.376   1.616  15.799  0.1789 -1.5249  0.1455
   62TCq2    O4  951   3.399   1.640  15.684 -0.2596 -0.5260  0.4197
   62TCq2    C9  952   3.356   1.303  16.161  0.9523 -0.0541 -0.8124
   62TCq2    O5  953   3.318   1.397  16.234 -0.5590 -0.5466 -0.4054
   62TCq2    O6  954   3.378   1.186  16.198 -0.0103 -0.3691 -0.3746
   62TCq2    H2  955   3.478   1.136  15.987  3.5159  0.3372 -1.2725
   62TCq2    H3  956   3.303   1.511  16.049 -1.7187 -1.1886  0.2637
   62TCq2    H4  957   3.484   1.420  15.663 -0.6546 -0.9163 -0.7536
   63TMC2    C1  958   3.149   1.335  11.320 -0.9595  0.5405 -0.2684
   63TMC2    C2  959   3.226   1.347  11.432  0.1347  0.4891 -0.1164
   63TMC2    C3  960   3.317   1.447  11.451  0.0020  0.0699 -0.3094
   63TMC2    C4  961   3.164   1.424  11.214  0.2095  0.8889  1.0916
   63TMC2    C5  962   3.257   1.520  11.234  0.0234 -0.5149 -0.3348
   63TMC2    C6  963   3.336   1.533  11.344 -0.1867  0.5039  0.5516
   63TMC2     C  964   3.046   1.231  11.324  0.6831 -0.2541 -0.2665
   63TMC2     O  965   3.025   1.172  11.430 -0.1482  0.0151 -0.1017
   63TMC2     H  966   3.222   1.277  11.514 -0.0111 -2.0480 -2.3038
   63TMC2    H1  967   3.090   1.436  11.135 -0.0503  0.2739  1.2436
   63TMC2    H2  968   3.416   1.605  11.343  0.1198  0.1730  1.2189
   63TMC2    C7  969   3.264   1.618  11.126  0.0275  0.2210 -0.0997
   63TMC2    C8  970   3.416   1.424  11.545  0.5645 -0.1444  0.2119
   63TMC2    O1  971   3.245   1.564  11.019  0.0457 -0.3152 -0.5747
   63TMC2    O2  972   3.398   1.359  11.645 -0.5855  0.3450 -0.2545
   63TMC2    O5  973   3.534   1.444  11.490 -0.2750 -0.0264  0.2761
   63TMC2    H5  974   3.540   1.501  11.411 -0.5505 -0.0183  0.2600
   64MPD2     C  975   2.734   0.908  11.079  0.1633  0.1441  0.1983
   64MPD2    C1  976   2.791   0.988  10.982  0.3984  0.0884  0.3975
   64MPD2    C2  977   2.875   1.091  11.028 -0.4718  0.1879 -0.4505
   64MPD2    C3  978   2.905   1.112  11.157 -0.5697  0.3747  0.0162
   64MPD2    C4  979   2.828   1.041  11.255 -0.1349 -0.3318 -0.2167
   64MPD2    C5  980   2.746   0.934  11.212 -0.5642 -0.4469 -0.2910
   64MPD2     H  981   2.934   1.147  10.956  0.2886  0.5045  0.4133
   64MPD2    H1  982   2.835   1.052  11.363 -3.0116  1.3688 -0.2149
   64MPD2    H2  983   2.660   0.832  11.056 -0.4013  0.8079 -0.1998
   64MPD2    H3  984   2.683   0.876  11.279 -2.3530  1.0052 -0.7120
   64MPD2     N  985   3.000   1.207  11.198  0.5997 -0.5963 -0.2488
   64MPD2    H5  986   3.045   1.254  11.120 -0.4650  0.3452 -0.3050
   64MPD2    N1  987   2.769   0.963  10.846  0.0629  0.2197  0.1227
   64MPD2    H7  988   2.818   1.011  10.771 -0.1319  0.7458  0.3285
   65MPD2     C  989   3.696   0.841  15.985 -0.1364 -0.3095 -0.5846
   65MPD2    C1  990   3.781   0.774  15.904 -0.3632 -0.2514  0.4355
   65MPD2    C2  991   3.765   0.639  15.882  0.1273  0.2465 -0.0358
   65MPD2    C3  992   3.654   0.577  15.939  0.4638 -0.9038 -0.2852
   65MPD2    C4  993   3.573   0.636  16.028  0.1384 -0.0870 -0.0275
   65MPD2    C5  994   3.601   0.769  16.052 -0.1014 -0.4172  0.7552
   65MPD2     H  995   3.842   0.585  15.829 -0.5874  0.6637 -1.4842
   65MPD2    H1  996   3.483   0.593  16.070  0.0976  1.8567  1.8120
   65MPD2    H2  997   3.697   0.948  16.001 -0.0411 -0.5199  0.8750
   65MPD2    H3  998   3.538   0.833  16.114 -2.3778 -1.9126 -0.0229
   65MPD2     N  999   3.615   0.450  15.904  0.2950 -0.2712  0.3900
   65MPD2    H5 1000   3.525   0.422  15.942  0.1330  0.4894  0.5711
   65MPD2    N1 1001   3.880   0.855  15.841  0.3013  0.0089 -0.2505
   65MPD2    H7 1002   3.879   0.951  15.876 -0.2901  0.4860 -1.5596
   66TCq2    C1 1003   3.981   0.823  15.749 -0.1781 -0.1773 -0.3541
   66TCq2    O2 1004   4.008   0.709  15.712  0.7184 -0.1911  0.4570
   66TCq2    C2 1005   4.067   0.935  15.704  0.2847  0.2397 -0.1636
   66TCq2    C3 1006   4.178   0.909  15.631  0.4494 -0.9707 -0.2858
   66TCq2    C4 1007   4.242   1.013  15.567 -0.4753  0.7644 -0.2748
   66TCq2    C5 1008   4.202   1.147  15.574 -0.0605  0.1380  0.4095
   66TCq2    C6 1009   4.083   1.163  15.633 -0.0670  0.8389 -0.7633
   66TCq2    C7 1010   4.017   1.062  15.703  0.2873  0.0794  0.1032
   66TCq2    C8 1011   4.029   1.297  15.634  0.2453 -0.0870 -0.5124
   66TCq2    O4 1012   4.081   1.385  15.568  0.3254  0.5748 -0.6955
   66TCq2    C9 1013   4.362   0.985  15.490 -0.0656  0.0562  0.4786
   66TCq2    O5 1014   4.424   1.082  15.437 -0.5631  0.3933  0.0356
   66TCq2    O6 1015   4.366   0.865  15.447 -0.7035  0.2697 -0.0560
   66TCq2    H2 1016   4.211   0.806  15.627 -0.7998 -1.3996  0.3963
   66TCq2    H3 1017   4.257   1.229  15.532 -0.2443  1.3319  2.5016
   66TCq2    H4 1018   3.916   1.079  15.739  0.0596  2.1742 -1.5287
   67MPD2     C 1019   3.997   4.686  14.242 -0.0372 -0.0071  0.0748
   67MPD2    C1 1020   3.954   0.084  14.308 -0.0834  0.0066  0.0803
   67MPD2    C2 1021   3.837   0.144  14.259  0.8576 -0.2827 -0.2858
   67MPD2    C3 1022   3.764   0.093  14.147 -0.7636  0.3927 -0.2143
   67MPD2    C4 1023   3.825   4.717  14.070 -0.5469 -0.1115 -0.1453
   67MPD2    C5 1024   3.924   4.647  14.130 -0.0155  0.4499 -0.3821
   67MPD2     H 1025   3.807   0.237  14.306  1.9145  0.0099 -0.1923
   67MPD2    H1 1026   3.781   4.680  13.979  1.0552 -0.6504 -0.7097
   67MPD2    H2 1027   4.079   4.623  14.276 -0.5395 -1.4151 -1.3241
   67MPD2    H3 1028   3.964   4.563  14.074 -1.4234  0.2830 -1.1421
   67MPD2     N 1029   3.654   0.154  14.086 -0.6705 -0.3430  0.2917
   67MPD2    H5 1030   3.626   0.114  13.997  2.4762 -1.7194 -0.0593
   67MPD2    N1 1031   4.015   0.139  14.419 -0.1367  0.2318 -0.1629
   67MPD2    H7 1032   3.956   0.212  14.459 -0.5649 -0.1902 -0.0196
   68TCq2    C1 1033   4.125   0.095  14.493  0.2583 -0.0517  0.4749
   68TCq2    O2 1034   4.197   4.717  14.473  0.5499  0.0189 -0.5774
   68TCq2    C2 1035   4.132   0.162  14.621 -0.2614 -0.9176  0.2154
   68TCq2    C3 1036   4.040   0.269  14.643 -0.1551 -0.3525 -0.0900
   68TCq2    C4 1037   4.034   0.313  14.768 -0.7145  0.3919 -0.5063
   68TCq2    C5 1038   4.117   0.272  14.866 -0.2514 -0.2640  0.4504
   68TCq2    C6 1039   4.218   0.182  14.841  0.0102  0.1023 -0.4368
   68TCq2    C7 1040   4.220   0.124  14.723  0.3191  0.1958  0.1579
   68TCq2    C8 1041   4.300   0.129  14.949 -0.0307 -1.1687  0.1695
   68TCq2    O4 1042   4.400   0.069  14.905  0.4646  0.4004  0.3263
   68TCq2    C9 1043   3.941   0.417  14.798 -0.1354 -0.1788 -0.2987
   68TCq2    O5 1044   3.879   0.482  14.711 -0.1051 -0.2234 -0.0273
   68TCq2    O6 1045   3.911   0.440  14.919 -0.3903  0.2662  0.2731
   68TCq2    H2 1046   3.963   0.307  14.577  0.3879  0.8332 -0.0395
   68TCq2    H3 1047   4.128   0.323  14.961 -0.7324 -1.2797  1.0550
   68TCq2    H4 1048   4.305   0.065  14.690  0.4890 -1.0161  2.7140
   69TMC2    C1 1049   0.797   1.698  11.857  0.3759 -0.6609 -0.5101
   69TMC2    C2 1050   0.683   1.645  11.801  0.0274 -0.4184  0.6927
   69TMC2    C3 1051   0.666   1.656  11.669  1.0527 -0.7138  0.0651
   69TMC2    C4 1052   0.903   1.746  11.781 -0.0460 -1.0112 -0.7453
   69TMC2    C5 1053   0.886   1.734  11.647  0.0268  0.0397  0.8299
   69TMC2    C6 1054   0.772   1.688  11.590 -0.3546 -1.3848  0.7324
   69TMC2     C 1055   0.832   1.626  11.978  0.6036 -0.1246 -0.3616
   69TMC2     O 1056   0.742   1.613  12.059  0.0982  0.2948 -1.0018
   69TMC2     H 1057   0.606   1.597  11.861 -1.1016  1.8521  1.0872
   69TMC2    H1 1058   0.985   1.802  11.823  0.0638 -0.5863 -1.5209
   69TMC2    H2 1059   0.755   1.679  11.483  1.1089 -0.6849  0.4474
   69TMC2    C7 1060   1.015   1.708  11.585  0.5228  0.4875 -0.6826
   69TMC2    C8 1061   0.558   1.578  11.619 -1.1654 -0.4187 -0.1193
   69TMC2    O1 1062   1.110   1.692  11.657  0.1542  0.0448  0.5039
   69TMC2    O2 1063   0.567   1.511  11.523  0.2888 -0.6105 -0.0085
   69TMC2    O5 1064   0.439   1.607  11.681  0.0177  0.2681  0.3456
   69TMC2    H5 1065   0.442   1.682  11.745  0.8320 -0.9302  1.6927
   70MPD2     C 1066   1.155   1.483  12.049  0.3026 -0.4849  0.8310
   70MPD2    C1 1067   1.023   1.491  12.059 -0.3294  0.0734 -0.1255
   70MPD2    C2 1068   0.961   1.425  12.163 -0.5433  0.4704  0.5818
   70MPD2    C3 1069   1.025   1.362  12.261  0.3318  0.0722  0.4591
   70MPD2    C4 1070   1.158   1.335  12.239  0.1735  0.0327 -0.0911
   70MPD2    C5 1071   1.226   1.404  12.140  0.0559 -0.0338  0.2977
   70MPD2     H 1072   0.853   1.437  12.171 -0.6312 -1.0203  1.7354
   70MPD2    H1 1073   1.213   1.273  12.308 -3.0388 -0.1114  2.3508
   70MPD2    H2 1074   1.208   1.524  11.964  0.5683 -0.8925  0.7958
   70MPD2    H3 1075   1.334   1.394  12.140  0.0509 -0.0754  1.0337
   70MPD2     N 1076   0.959   1.302  12.370  0.8718 -0.3281 -0.3152
   70MPD2    H5 1077   1.018   1.266  12.445  1.5102  0.9442 -0.2113
   70MPD2    N1 1078   0.960   1.584  11.974  0.5505 -0.2444  0.1320
   70MPD2    H7 1079   1.009   1.631  11.899  0.7522 -0.3931  0.1693
   71TMC2    C1 1080   3.877   2.045   1.730 -0.2630 -0.4376 -0.9476
   71TMC2    C2 1081   3.959   2.144   1.783  0.2603  0.1329  0.6385
   71TMC2    C3 1082   3.918   2.197   1.901  0.3470  0.0855 -0.1894
   71TMC2    C4 1083   3.757   2.006   1.789  0.1985 -0.5233 -0.4661
   71TMC2    C5 1084   3.721   2.067   1.908 -0.2251  0.1546  0.1180
   71TMC2    C6 1085   3.801   2.164   1.966  0.5295  0.2298 -0.2082
   71TMC2     C 1086   3.886   2.014   1.585 -0.5023  0.2055  0.5544
   71TMC2     O 1087   3.777   2.000   1.533  0.2921  0.7038  0.3795
   71TMC2     H 1088   4.051   2.173   1.734 -2.8621  3.4368 -3.2244
   71TMC2    H1 1089   3.700   1.928   1.741 -0.4823  0.3178 -1.0262
   71TMC2    H2 1090   3.781   2.205   2.064  0.4535 -2.8141  1.0378
   71TMC2    C7 1091   3.578   2.065   1.950  0.5592 -0.4861  0.2862
   71TMC2    C8 1092   3.985   2.317   1.935 -0.3373 -0.0535 -0.0119
   71TMC2    O1 1093   3.551   2.129   2.054  0.0270 -0.4538 -0.0675
   71TMC2    O2 1094   4.107   2.326   1.933  0.3311 -0.1767  0.5119
   71TMC2    O5 1095   3.899   2.412   1.893 -0.3547  0.2143  0.3065
   71TMC2    H5 1096   3.807   2.381   1.881  0.0426  0.0580 -2.3172
   72MPD2     C 1097   4.151   1.886   1.160 -0.5439 -0.1411  0.8687
   72MPD2    C1 1098   4.018   1.914   1.170  0.3611 -0.1192 -0.1835
   72MPD2    C2 1099   3.971   1.948   1.299  0.5335 -0.5502 -0.5266
   72MPD2    C3 1100   4.058   1.959   1.410  0.3001 -0.2158 -0.1442
   72MPD2    C4 1101   4.183   1.926   1.392 -0.6930  0.2110 -0.2595
   72MPD2    C5 1102   4.229   1.891   1.269  0.1453 -0.5471 -0.2487
   72MPD2     H 1103   3.866   1.975   1.307  0.7699 -0.3237  1.9733
   72MPD2    H1 1104   4.249   1.933   1.478 -1.5037  2.5806  0.1858
   72MPD2    H2 1105   4.193   1.844   1.069  1.3138  0.0498  1.6367
   72MPD2    H3 1106   4.333   1.861   1.259  1.1195  2.7097  0.2047
   72MPD2     N 1107   4.012   1.999   1.543  0.1579  0.2219  0.4591
   72MPD2    H5 1108   4.086   2.006   1.613 -0.1855 -1.1766  0.9776
   72MPD2    N1 1109   3.933   1.928   1.054 -0.4682 -0.2050 -0.3093
   72MPD2    H7 1110   3.846   1.980   1.065 -1.6114 -2.0474 -0.7143
   73TMC2    C1 1111   3.600   3.754  13.770 -0.2916  0.1644 -0.0969
   73TMC2    C2 1112   3.673   3.661  13.697  0.2542 -0.0091  0.2487
   73TMC2    C3 1113   3.797   3.629  13.736 -0.0409 -0.6388  0.2064
   73TMC2    C4 1114   3.658   3.797  13.888 -0.5922 -0.2220  0.5055
   73TMC2    C5 1115   3.788   3.774  13.919 -0.2433  0.1808  0.5086
   73TMC2    C6 1116   3.862   3.690  13.839  0.3443 -0.3451  0.4374
   73TMC2     C 1117   3.560   3.875  13.694 -0.3661 -0.0301 -0.4992
   73TMC2     O 1118   3.584   3.981  13.748 -0.4401 -0.4846  0.3536
   73TMC2     H 1119   3.633   3.620  13.605 -1.7259  1.1490  0.6075
   73TMC2    H1 1120   3.600   3.857  13.957 -0.6535  1.5688 -1.0891
   73TMC2    H2 1121   3.967   3.669  13.856  0.2272 -1.1846  0.1348
   73TMC2    C7 1122   3.864   3.886  13.967  0.3821 -0.6415  0.3868
   73TMC2    C8 1123   3.839   3.493  13.708 -0.1950 -0.0494 -1.5883
   73TMC2    O1 1124   3.969   3.855  14.030 -0.3835 -0.7825  0.3173
   73TMC2    O2 1125   3.784   3.431  13.620 -0.0563 -0.5203  0.2632
   73TMC2    O5 1126   3.871   3.440  13.827 -0.1669 -0.1171 -0.3024
   73TMC2    H5 1127   3.871   3.500  13.905  0.9173 -2.1290  1.2547
   74MPD2     C 1128   3.408   4.105  13.257  0.0254  0.1313  0.2645
   74MPD2    C1 1129   3.451   4.163  13.376 -0.2349 -0.2510 -0.4036
   74MPD2    C2 1130   3.462   4.079  13.489  0.6994  0.3071  0.2839
   74MPD2    C3 1131   3.446   3.942  13.477  0.3495 -0.3833 -0.7829
   74MPD2    C4 1132   3.405   3.891  13.358 -0.9840 -0.0028  0.7298
   74MPD2    C5 1133   3.384   3.974  13.246 -0.2248 -0.2850 -0.6022
   74MPD2     H 1134   3.495   4.118  13.585  0.4937  2.4721 -0.5347
   74MPD2    H1 1135   3.383   3.785  13.352  0.4208 -0.3195  1.1701
   74MPD2    H2 1136   3.393   4.162  13.166  0.3917 -0.5974 -0.2522
   74MPD2    H3 1137   3.360   3.935  13.148 -1.2093  0.6871 -0.7450
   74MPD2     N 1138   3.485   3.846  13.577  0.0481 -0.4970 -0.3436
   74MPD2    H5 1139   3.464   3.749  13.557  1.7228 -0.9929  0.2500
   74MPD2    N1 1140   3.489   4.301  13.377  0.2487  0.0166  0.7467
   74MPD2    H7 1141   3.483   4.353  13.290 -1.3434 -1.2220  0.1199
   75TCq2    C1 1142   3.582   0.247  14.156 -0.8522  0.0380 -0.1370
   75TCq2    O2 1143   3.595   0.279  14.275 -0.5703  0.1024  0.3750
   75TCq2    C2 1144   3.496   0.331  14.066 -0.5679 -0.7343  1.0225
   75TCq2    C3 1145   3.436   0.438  14.127  0.1453  0.5624  0.1894
   75TCq2    C4 1146   3.420   0.554  14.058 -0.3375  0.4901  0.8953
   75TCq2    C5 1147   3.447   0.564  13.921  0.2326  0.2233 -0.5036
   75TCq2    C6 1148   3.503   0.454  13.862  0.4469  0.1012 -0.3240
   75TCq2    C7 1149   3.522   0.335  13.937  0.3993  0.2146 -0.5040
   75TCq2    C8 1150   3.486   0.446  13.721  0.1467  0.0445 -0.6057
   75TCq2    O4 1151   3.438   0.342  13.675 -0.0139 -0.5610  0.2935
   75TCq2    C9 1152   3.360   0.670  14.121  0.3084 -0.4126 -0.3830
   75TCq2    O5 1153   3.333   0.767  14.047 -0.1594  0.4474  0.1373
   75TCq2    O6 1154   3.323   0.645  14.241 -0.1999  0.0783  0.7348
   75TCq2    H2 1155   3.416   0.431  14.233  0.0198  0.2225  0.1462
   75TCq2    H3 1156   3.434   0.654  13.861  0.1886  0.5229 -0.0525
   75TCq2    H4 1157   3.562   0.250  13.883  0.9605  0.6914 -0.8350
   76MPD2     C 1158   2.044   1.348  11.952  0.3877  0.1699  0.1483
   76MPD2    C1 1159   2.073   1.400  11.829  0.0793  0.7374 -0.2941
   76MPD2    C2 1160   2.204   1.454  11.811 -0.0670  0.7017  0.1623
   76MPD2    C3 1161   2.297   1.447  11.917 -0.3430  0.5884  0.0367
   76MPD2    C4 1162   2.265   1.387  12.035 -0.3613  0.2324 -0.1173
   76MPD2    C5 1163   2.137   1.339  12.056 -0.0833 -0.6033 -0.2589
   76MPD2     H 1164   2.233   1.495  11.714  0.7140 -0.2005  0.0186
   76MPD2    H1 1165   2.338   1.388  12.115 -1.9537  0.8540  1.3419
   76MPD2    H2 1166   1.950   1.299  11.976  0.5674 -0.4223 -0.3519
   76MPD2    H3 1167   2.113   1.291  12.150  0.3109  0.5987  0.4521
   76MPD2     N 1168   2.429   1.499  11.914 -0.1084  0.3272 -0.2721
   76MPD2    H5 1169   2.480   1.473  11.998  0.1703 -0.4565 -0.6835
   76MPD2    N1 1170   1.988   1.399  11.713  0.2908 -0.5892  0.2587
   76MPD2    H7 1171   2.015   1.443  11.626 -0.5614  2.2922  1.4533
   77TCq2    C1 1172   2.504   1.551  11.815 -0.4019  0.5781 -0.3269
   77TCq2    O2 1173   2.467   1.593  11.707  0.8929 -0.2102 -0.1480
   77TCq2    C2 1174   2.641   1.539  11.845  0.6535 -0.3578  0.0426
   77TCq2    C3 1175   2.710   1.654  11.870 -0.2591  0.2051 -0.4090
   77TCq2    C4 1176   2.817   1.652  11.957  0.1432  0.5610 -0.0318
   77TCq2    C5 1177   2.858   1.533  12.012 -0.2884 -0.0457  0.2963
   77TCq2    C6 1178   2.780   1.425  11.995 -0.3641  0.3967  0.0751
   77TCq2    C7 1179   2.675   1.427  11.911  0.4859  0.7034 -0.5141
   77TCq2    C8 1180   2.794   1.305  12.064 -0.2029  0.1693 -0.5736
   77TCq2    O4 1181   2.715   1.217  12.041 -0.0583 -0.1764 -0.9406
   77TCq2    C9 1182   2.882   1.772  12.001  0.4236  0.0374 -0.2478
   77TCq2    O5 1183   2.818   1.877  11.979  0.0652 -0.0528 -0.5600
   77TCq2    O6 1184   2.986   1.762  12.068  0.1291  0.1653  0.6829
   77TCq2    H2 1185   2.686   1.748  11.822 -0.3816 -0.3112 -1.3512
   77TCq2    H3 1186   2.937   1.544  12.085  0.8477  1.2066 -1.1201
   77TCq2    H4 1187   2.614   1.339  11.890 -0.9535  1.6988 -0.5503
   78MPD1     C 1188   2.626   1.280   1.320  0.7357  0.2852  0.0096
   78MPD1    C1 1189   2.758   1.252   1.328  0.2515 -0.1132 -0.7494
   78MPD1    C2 1190   2.832   1.298   1.437 -0.2259 -0.4263  0.0077
   78MPD1    C3 1191   2.769   1.364   1.546  0.4344 -0.3739 -0.4645
   78MPD1    C4 1192   2.637   1.378   1.542  0.0087  0.3296 -0.8559
   78MPD1    C5 1193   2.566   1.336   1.434 -0.1251 -0.1478  0.1650
   78MPD1     H 1194   2.939   1.278   1.440  0.0435  0.9272 -0.9456
   78MPD1    H1 1195   2.590   1.436   1.621  1.2890 -0.3824  0.4122
   78MPD1    H2 1196   2.563   1.257   1.236 -0.1373  0.4211  0.6261
   78MPD1    H3 1197   2.459   1.348   1.445 -0.1002 -1.2120  1.5161
   78MPD1     N 1198   2.837   1.424   1.657  0.2675  0.7202  0.5479
   78MPD1    H5 1199   2.780   1.479   1.721 -0.6416  0.9386 -0.4364
   78MPD1    N1 1200   2.822   1.202   1.211 -0.9550 -0.0051 -0.2536
   78MPD1    H6 1201   2.905   1.146   1.229 -0.1247  0.7212 -1.8095
   78MPD1    H7 1202   2.762   1.141   1.156 -0.8796 -0.5264  0.2391
   79TCq2    C1 1203   2.970   1.405   1.682 -0.2536  1.0045  0.7021
   79TCq2    O2 1204   3.057   1.355   1.612  0.4076  0.0709  0.2501
   79TCq2    C2 1205   3.020   1.471   1.806 -0.6874  0.2970 -0.8174
   79TCq2    C3 1206   2.937   1.503   1.909 -0.2967 -0.2434  0.7895
   79TCq2    C4 1207   2.991   1.566   2.018 -0.5241 -0.0391  0.2477
   79TCq2    C5 1208   3.126   1.606   2.022 -0.5653  0.5712  0.5196
   79TCq2    C6 1209   3.201   1.569   1.914  0.0550 -0.4093 -0.3645
   79TCq2    C7 1210   3.151   1.490   1.809  0.6139 -0.7115 -0.4599
   79TCq2    C8 1211   3.346   1.593   1.898  0.5729 -0.2295 -0.7145
   79TCq2    O4 1212   3.398   1.531   1.802 -0.1118  0.1289  0.6583
   79TCq2    C9 1213   2.904   1.605   2.124 -0.6456 -0.7491 -0.0470
   79TCq2    O5 1214   2.972   1.628   2.233 -0.1665  0.2019  0.5659
   79TCq2    O6 1215   2.785   1.581   2.105  0.1910  0.3905  0.1310
   79TCq2    H2 1216   2.832   1.474   1.903 -0.4574  0.7372 -1.2818
   79TCq2    H3 1217   3.161   1.671   2.102 -0.0008  1.7015 -0.6535
   79TCq2    H4 1218   3.211   1.461   1.723 -0.8237  0.0510 -1.7166
   80MPD2     C 1219   1.861   0.555  12.178  1.0604 -0.0347  0.3173
   80MPD2    C1 1220   1.758   0.594  12.095  0.6394  0.4985 -0.4457
   80MPD2    C2 1221   1.626   0.579  12.123  0.3157  0.2491 -0.6785
   80MPD2    C3 1222   1.591   0.535  12.248 -0.5548  0.3817 -0.3218
   80MPD2    C4 1223   1.689   0.493  12.334 -0.4209 -0.0849  0.4152
   80MPD2    C5 1224   1.823   0.507  12.302 -0.2959 -0.7480 -0.4909
   80MPD2     H 1225   1.553   0.622  12.055 -0.6417 -2.9970 -1.6791
   80MPD2    H1 1226   1.663   0.471  12.437  0.3031 -2.1934  0.1389
   80MPD2    H2 1227   1.967   0.570  12.157  1.4417  0.6785  2.6867
   80MPD2    H3 1228   1.899   0.471  12.371 -1.3698 -0.2319  0.9588
   80MPD2     N 1229   1.456   0.519  12.294  0.3464 -0.1210  0.1521
   80MPD2    H5 1230   1.446   0.471  12.384 -1.3637 -1.2174 -0.6294
   80MPD2    N1 1231   1.789   0.638  11.964 -1.0626  0.4257 -0.1421
   80MPD2    H7 1232   1.710   0.637  11.901 -2.2230 -2.1842  1.3742
   81TCq2    C1 1233   1.911   0.663  11.918 -0.0394  0.0793  0.1449
   81TCq2    O2 1234   2.019   0.687  11.973 -0.1726  0.2777 -0.7083
   81TCq2    C2 1235   1.918   0.676  11.771 -0.2910  0.2120 -0.3813
   81TCq2    C3 1236   2.046   0.695  11.728  0.1280 -0.6940  0.4658
   81TCq2    C4 1237   2.074   0.656  11.600 -0.3929 -0.4071  0.2371
   81TCq2    C5 1238   1.974   0.604  11.519  0.1885  0.5063 -0.1670
   81TCq2    C6 1239   1.845   0.609  11.558  0.5339  0.3717 -0.2334
   81TCq2    C7 1240   1.813   0.627  11.687  0.2340 -0.8462  0.6546
   81TCq2    C8 1241   1.744   0.540  11.478 -0.3298  0.7703  0.1075
   81TCq2    O4 1242   1.760   0.543  11.356 -0.1546 -0.2740 -0.2270
   81TCq2    C9 1243   2.207   0.655  11.550  0.4470  0.3496  0.5066
   81TCq2    O5 1244   2.244   0.556  11.481  0.0942 -0.0472 -0.1835
   81TCq2    O6 1245   2.289   0.737  11.604  0.1704 -0.0841 -0.2041
   81TCq2    H2 1246   2.123   0.749  11.781  0.7036 -1.9683  0.9121
   81TCq2    H3 1247   2.009   0.578  11.420 -0.5900 -0.4880 -0.1833
   81TCq2    H4 1248   1.706   0.637  11.702  0.1244 -2.9547  1.2918
   82MPD2     C 1249   3.858   0.315  10.211 -0.7458  0.3951 -0.1229
   82MPD2    C1 1250   3.970   0.388  10.229 -0.2963 -0.4760 -0.3329
   82MPD2    C2 1251   4.061   0.354  10.324  0.0974 -0.7255 -0.1068
   82MPD2    C3 1252   4.031   0.248  10.411  0.4321  0.0392 -0.5579
   82MPD2    C4 1253   3.907   0.186  10.405 -0.1793  0.0131  0.0393
   82MPD2    C5 1254   3.827   0.210  10.300  0.1283 -0.2147 -0.1059
   82MPD2     H 1255   4.162   0.394  10.330 -0.8144  1.0710  2.8619
   82MPD2    H1 1256   3.871   0.096  10.454 -1.1717  1.2891  1.6571
   82MPD2    H2 1257   3.796   0.336  10.125  1.0415  0.3924 -1.4067
   82MPD2    H3 1258   3.733   0.156  10.298  0.0442  0.0224 -2.1789
   82MPD2     N 1259   4.118   0.198  10.511  0.3080 -0.3614  0.7091
   82MPD2    H5 1260   4.107   0.103  10.542  0.3672 -1.3129 -2.1384
   82MPD2    N1 1261   3.998   0.473  10.119  0.0742 -0.1856  0.0462
   82MPD2    H7 1262   3.932   0.477  10.041  0.3318 -2.0817 -0.2921
   83TCq2    C1 1263   4.241   0.263  10.544  0.3295 -0.1390 -0.3259
   83TCq2    O2 1264   4.281   0.376  10.521 -0.1822  0.0221 -0.0525
   83TCq2    C2 1265   4.319   0.170  10.619  0.9415  0.0471  0.0932
   83TCq2    C3 1266   4.457   0.186  10.627  0.7390 -0.9172 -0.5382
   83TCq2    C4 1267   4.541   0.089  10.675 -0.4977  0.5111 -0.2457
   83TCq2    C5 1268   4.501   4.684  10.711  0.5615 -0.1828 -0.2092
   83TCq2    C6 1269   4.364   4.666  10.709 -0.2873  0.3694 -0.8028
   83TCq2    C7 1270   4.275   0.048  10.669 -0.5371 -0.1137  0.3596
   83TCq2    C8 1271   4.306   4.543  10.757  0.0347  0.2632 -0.0194
   83TCq2    O4 1272   4.209   4.549  10.830  0.3697  0.4287  0.2380
   83TCq2    C9 1273   4.684   0.119  10.685  0.1274 -0.5196  0.4164
   83TCq2    O5 1274   0.037   0.029  10.724 -0.4092 -0.0049  0.7047
   83TCq2    O6 1275   4.719   0.234  10.662  0.1727  0.0576  0.3473
   83TCq2    H2 1276   4.497   0.279  10.588 -1.7146  0.5314  0.3299
   83TCq2    H3 1277   4.578   4.611  10.736 -0.9636 -1.1788  1.5794
   83TCq2    H4 1278   4.170   0.025  10.680 -0.3469 -1.6109 -0.9701
   84TCq2    C1 1279   1.341   4.009  10.349  0.4705  0.0031  0.0517
   84TCq2    O2 1280   1.236   3.945  10.355  0.2982  0.6519  0.1685
   84TCq2    C2 1281   1.369   4.092  10.460  0.9367  0.0232  0.3157
   84TCq2    C3 1282   1.447   4.206  10.441 -0.1010 -0.2739  0.8468
   84TCq2    C4 1283   1.447   4.297  10.545  0.1343  0.5327 -0.7682
   84TCq2    C5 1284   1.366   4.283  10.650  0.1250  0.0951 -0.7002
   84TCq2    C6 1285   1.288   4.173  10.662 -0.4760  0.1830 -0.0017
   84TCq2    C7 1286   1.299   4.065  10.577 -0.3778  1.0463 -0.3451
   84TCq2    C8 1287   1.195   4.174  10.775 -0.0650  0.0651 -0.1765
   84TCq2    O4 1288   1.150   4.286  10.801  0.1005 -0.4833  0.6326
   84TCq2    C9 1289   1.537   4.401  10.538 -0.1793  0.1463  0.5759
   84TCq2    O5 1290   1.528   4.488  10.626 -0.5711 -0.1986 -0.9866
   84TCq2    O6 1291   1.634   4.389  10.456  0.5217  0.0972  1.0184
   84TCq2    H2 1292   1.510   4.221  10.355 -0.9337 -1.0750  0.0870
   84TCq2    H3 1293   1.355   4.360  10.726  2.3890 -2.2302  1.9449
   84TCq2    H4 1294   1.227   3.984  10.576  0.6633  0.1424 -2.3161
   85MPD2     C 1295   1.259   2.163  16.210  0.2712 -0.6869  0.2441
   85MPD2    C1 1296   1.237   2.080  16.097  0.1989  0.5155 -0.2055
   85MPD2    C2 1297   1.280   2.130  15.975  0.3907 -0.0096 -0.2658
   85MPD2    C3 1298   1.345   2.254  15.969  0.3713 -0.5452  0.2653
   85MPD2    C4 1299   1.359   2.332  16.079 -1.2012 -0.0470  0.0939
   85MPD2    C5 1300   1.329   2.280  16.198  0.2557  0.0619 -0.0902
   85MPD2     H 1301   1.269   2.077  15.881  0.8937 -0.8680  0.1553
   85MPD2    H1 1302   1.391   2.435  16.086  2.2714 -1.0405 -0.9248
   85MPD2    H2 1303   1.252   2.123  16.310  3.1989  0.2865  0.8272
   85MPD2    H3 1304   1.362   2.330  16.289 -0.6533 -0.6466  0.6285
   85MPD2     N 1305   1.375   2.313  15.847  0.0960 -0.8168  0.0374
   85MPD2    H5 1306   1.343   2.256  15.769  2.7340  0.2023 -1.8096
   85MPD2    N1 1307   1.175   1.949  16.098 -0.6628  0.6053 -0.2028
   85MPD2    H7 1308   1.150   1.908  16.009 -1.3599  0.6220 -0.0230
   86TCq2    C1 1309   1.461   2.416  15.825 -0.8126 -0.1807  0.2096
   86TCq2    O2 1310   1.532   2.472  15.903 -0.0269 -0.5172 -0.2778
   86TCq2    C2 1311   1.481   2.447  15.686 -0.3623  0.1188 -0.7338
   86TCq2    C3 1312   1.566   2.549  15.663  0.0203 -0.6221  0.1248
   86TCq2    C4 1313   1.580   2.599  15.536 -0.4437 -0.5900 -0.3808
   86TCq2    C5 1314   1.522   2.532  15.429  0.0986  0.0769  0.0181
   86TCq2    C6 1315   1.450   2.419  15.457 -0.2065 -0.0618 -0.2869
   86TCq2    C7 1316   1.423   2.368  15.586 -0.5680 -0.1198 -0.9277
   86TCq2    C8 1317   1.428   2.312  15.356 -0.8254 -0.8155  0.7026
   86TCq2    O4 1318   1.400   2.205  15.404  0.4649 -0.6277  0.3197
   86TCq2    C9 1319   1.667   2.711  15.504  0.2932 -0.1640 -0.0284
   86TCq2    O5 1320   1.618   2.792  15.424  0.6194  0.2952 -0.1924
   86TCq2    O6 1321   1.792   2.692  15.521  0.2330 -0.6048  0.6834
   86TCq2    H2 1322   1.623   2.597  15.741  0.5245 -0.9307 -0.0532
   86TCq2    H3 1323   1.533   2.573  15.329 -1.8088  2.2143  0.6780
   86TCq2    H4 1324   1.367   2.276  15.602 -2.5919  1.3266  0.2995
   87MPD2     C 1325   3.357   0.955   2.003  0.6188  0.7163 -0.5425
   87MPD2    C1 1326   3.357   0.914   1.867  0.1878  0.1340  0.5996
   87MPD2    C2 1327   3.353   1.014   1.772 -0.5882 -0.8451 -0.1317
   87MPD2    C3 1328   3.380   1.147   1.806 -0.0036  0.6387  0.3424
   87MPD2    C4 1329   3.390   1.179   1.947  0.7844 -0.4758  0.1728
   87MPD2    C5 1330   3.372   1.085   2.040 -0.3504 -0.2262 -0.0580
   87MPD2     H 1331   3.345   0.989   1.667 -0.8770 -0.7538 -0.1292
   87MPD2    H1 1332   3.406   1.283   1.972 -0.4341 -0.3231  0.3207
   87MPD2    H2 1333   3.340   0.890   2.088  0.2117  0.7075 -0.6330
   87MPD2    H3 1334   3.377   1.112   2.145  0.4508  1.7924 -0.6268
   87MPD2     N 1335   3.389   1.246   1.708  0.0495  0.6259 -0.1165
   87MPD2    H5 1336   3.417   1.338   1.738 -0.9606  0.5370  1.0963
   87MPD2    N1 1337   3.351   0.774   1.842 -0.0674  0.1070 -0.2052
   87MPD2    H7 1338   3.317   0.728   1.926 -0.3297 -0.6753 -0.7466
   88TCq2    C1 1339   3.394   0.713   1.727  0.0194 -0.2922  0.0130
   88TCq2    O2 1340   3.458   0.761   1.636 -0.3779 -0.0415 -0.1792
   88TCq2    C2 1341   3.370   0.571   1.728  0.6551 -0.1128  0.3851
   88TCq2    C3 1342   3.282   0.517   1.823 -0.0292 -0.4218 -0.2004
   88TCq2    C4 1343   3.315   0.388   1.870  0.1064  0.0902 -0.5233
   88TCq2    C5 1344   3.398   0.309   1.794  0.1712 -0.2044 -0.7035
   88TCq2    C6 1345   3.452   0.357   1.681  0.3383 -0.0487  0.0159
   88TCq2    C7 1346   3.450   0.489   1.653 -0.2523  0.1953  0.3832
   88TCq2    C8 1347   3.552   0.286   1.607  0.0647  0.2738 -0.1092
   88TCq2    O4 1348   3.580   0.336   1.497  0.1154 -0.0336  0.4451
   88TCq2    C9 1349   3.236   0.336   1.974 -0.8477  0.6471  0.5612
   88TCq2    O5 1350   3.158   0.419   2.032  0.1182  0.0821 -0.1426
   88TCq2    O6 1351   3.265   0.225   2.023 -0.1770  0.3040  0.4273
   88TCq2    H2 1352   3.209   0.569   1.885  2.2039  0.3801  1.7806
   88TCq2    H3 1353   3.396   0.202   1.811 -0.1599 -0.2480 -1.0293
   88TCq2    H4 1354   3.522   0.539   1.588 -0.0971  0.0025  0.4079
   89MPD2     C 1355   4.638   2.755   1.795  0.3163  0.0660  0.1627
   89MPD2    C1 1356   4.599   2.880   1.822  0.6355 -0.6457  0.4633
   89MPD2    C2 1357   4.696   2.979   1.836  1.0353  0.2502  0.0866
   89MPD2    C3 1358   0.109   2.958   1.812 -0.1423  0.7174 -0.2777
   89MPD2    C4 1359   0.144   2.829   1.779  0.6031 -0.5529 -0.4325
   89MPD2    C5 1360   0.049   2.728   1.765  1.0853 -0.1240 -0.4934
   89MPD2     H 1361   4.658   3.076   1.866 -2.1593 -0.0926 -2.9800
   89MPD2    H1 1362   0.249   2.806   1.770  1.1636  1.8564  0.0927
   89MPD2    H2 1363   4.569   2.671   1.796 -1.1170  1.2319 -0.3322
   89MPD2    H3 1364   0.092   2.630   1.746  0.5805 -0.2573 -0.9449
   89MPD2     N 1365   0.206   3.061   1.815  0.0666  0.4747 -0.3722
   89MPD2    H5 1366   0.169   3.154   1.829 -0.2462  0.6551 -2.4238
   89MPD2    N1 1367   4.462   2.916   1.840  0.6140  0.2399 -0.5150
   89MPD2    H7 1368   4.441   3.003   1.888  2.7183  1.4999 -1.8928
   90TCq2    C1 1369   0.342   3.043   1.816 -0.4598  0.5356  0.4947
   90TCq2    O2 1370   0.404   2.941   1.835  0.2647 -0.1404  0.3483
   90TCq2    C2 1371   0.422   3.162   1.811  0.3254  0.2366 -0.1124
   90TCq2    C3 1372   0.551   3.159   1.847 -0.1039  1.0153  0.5070
   90TCq2    C4 1373   0.634   3.263   1.819 -0.8075 -0.1612  0.4649
   90TCq2    C5 1374   0.588   3.367   1.749 -0.2934  0.6752  0.4100
   90TCq2    C6 1375   0.455   3.376   1.710  0.0197 -0.9378 -0.6011
   90TCq2    C7 1376   0.371   3.268   1.734 -0.0152 -0.8866  0.1516
   90TCq2    C8 1377   0.403   3.494   1.636 -0.8669 -0.2186  0.2337
   90TCq2    O4 1378   0.299   3.545   1.681  0.5507 -0.0688  0.0298
   90TCq2    C9 1379   0.778   3.255   1.856  0.3298  0.3945 -0.0200
   90TCq2    O5 1380   0.833   3.143   1.868  0.4797  0.2446 -0.4233
   90TCq2    O6 1381   0.847   3.360   1.837 -0.4171  0.2132 -0.4306
   90TCq2    H2 1382   0.599   3.072   1.891 -2.4431 -0.2493  0.5734
   90TCq2    H3 1383   0.663   3.441   1.723  1.6488 -1.8955 -1.2897
   90TCq2    H4 1384   0.267   3.287   1.713  0.7013 -0.6378 -3.1624
   91TMC2    C1 1385   2.059   2.854  16.507  0.8965  0.7465  0.1324
   91TMC2    C2 1386   2.152   2.758  16.527  0.5299  0.1491 -0.0625
   91TMC2    C3 1387   2.120   2.667  16.629 -0.1574  0.4588 -0.3706
   91TMC2    C4 1388   1.938   2.850  16.565  0.3990  0.1115 -0.6034
   91TMC2    C5 1389   1.902   2.741  16.634  0.8364 -0.3505  0.0880
   91TMC2    C6 1390   1.993   2.647  16.680  0.5962  0.2532  0.3595
   91TMC2     C 1391   2.109   2.983  16.460 -0.3579  0.2790  0.6004
   91TMC2     O 1392   2.043   3.072  16.508  0.1498 -0.0912  0.0288
   91TMC2     H 1393   2.252   2.760  16.484  0.5023 -0.6008 -0.1527
   91TMC2    H1 1394   1.872   2.930  16.535  1.9940  1.1141 -1.4585
   91TMC2    H2 1395   1.963   2.574  16.754 -0.2726  2.0911  1.8377
   91TMC2    C7 1396   1.763   2.726  16.684 -0.1563  0.2501 -0.2910
   91TMC2    C8 1397   2.215   2.564  16.644  0.6696  0.4825 -0.3703
   91TMC2    O1 1398   1.734   2.639  16.765  0.2355 -0.3685  0.1281
   91TMC2    O2 1399   2.270   2.511  16.543 -0.4929  0.3701 -0.0498
   91TMC2    O5 1400   2.203   2.505  16.763  0.4032 -0.6925 -0.5068
   91TMC2    H5 1401   2.162   2.571  16.823  1.9046 -0.1866 -0.0343
   92MPD2     C 1402   2.218   3.223  16.322  0.3889 -0.0010  0.0345
   92MPD2    C1 1403   2.277   3.096  16.323  0.0740  0.3015  0.4876
   92MPD2    C2 1404   2.404   3.076  16.278  0.0221  0.7743 -0.0321
   92MPD2    C3 1405   2.479   3.189  16.239  0.4566 -0.3982  0.2641
   92MPD2    C4 1406   2.413   3.311  16.226  0.7303  0.0658 -0.2772
   92MPD2    C5 1407   2.283   3.327  16.272 -0.5394  0.1717 -0.0685
   92MPD2     H 1408   2.454   2.981  16.290 -0.5810  0.5852  0.9595
   92MPD2    H1 1409   2.467   3.395  16.184  0.5965  0.0897 -0.4025
   92MPD2    H2 1410   2.116   3.236  16.359  0.7849  1.6435  0.5280
   92MPD2    H3 1411   2.232   3.423  16.276 -4.2920 -1.8060 -0.8498
   92MPD2     N 1412   2.619   3.177  16.207  0.4891 -0.0782 -0.1949
   92MPD2    H5 1413   2.651   3.082  16.224 -2.7308 -1.4341 -1.8392
   92MPD2    N1 1414   2.213   2.984  16.377  0.3319  0.2465 -0.5936
   92MPD2    H7 1415   2.253   2.893  16.356  0.7897  0.4114 -0.4303
   93MPD2     C 1416   3.443   2.665  13.977  0.2457  0.0560 -0.3042
   93MPD2    C1 1417   3.429   2.795  14.007  0.1635  0.1111 -0.5230
   93MPD2    C2 1418   3.301   2.856  14.015 -0.2245 -0.4588 -0.1112
   93MPD2    C3 1419   3.192   2.778  13.968 -0.3820  0.8524 -0.4380
   93MPD2    C4 1420   3.207   2.647  13.943  0.2638 -0.0836  0.1290
   93MPD2    C5 1421   3.328   2.588  13.953 -0.9437  0.6893 -0.1839
   93MPD2     H 1422   3.285   2.958  14.049 -0.9425 -0.0390 -1.6805
   93MPD2    H1 1423   3.126   2.577  13.924  1.8535 -2.4302  1.8627
   93MPD2    H2 1424   3.537   2.612  13.970  0.1030 -0.4211  1.2781
   93MPD2    H3 1425   3.345   2.482  13.935 -0.1492  0.3871  2.3118
   93MPD2     N 1426   3.057   2.820  13.954  0.1781  0.2359 -0.3138
   93MPD2    H5 1427   2.987   2.751  13.929  0.8230 -0.8525  0.9342
   93MPD2    N1 1428   3.542   2.879  14.045 -0.6502 -0.0107 -0.4667
   93MPD2    H7 1429   3.521   2.973  14.078  0.9978 -0.2985  1.4398
   94TCq2    C1 1430   3.675   2.856  14.031 -0.2156 -0.2185  0.3942
   94TCq2    O2 1431   3.738   2.757  13.991  0.3636  0.0698 -0.3001
   94TCq2    C2 1432   3.752   2.971  14.065  0.5386  0.3492  0.5473
   94TCq2    C3 1433   3.715   3.055  14.166  0.1474 -0.2687 -0.1438
   94TCq2    C4 1434   3.792   3.165  14.194 -0.6277 -0.5393 -0.8844
   94TCq2    C5 1435   3.894   3.197  14.107  0.4418  0.6302 -0.1666
   94TCq2    C6 1436   3.930   3.112  14.006  0.5461  0.0576  0.6175
   94TCq2    C7 1437   3.861   2.995  13.985  0.1056  0.4704 -0.1366
   94TCq2    C8 1438   4.034   3.145  13.914  0.2447 -0.6092 -0.8312
   94TCq2    O4 1439   4.150   3.158  13.953  0.3714  0.1057 -0.3617
   94TCq2    C9 1440   3.753   3.259  14.287 -0.3952 -0.8624 -0.0607
   94TCq2    O5 1441   3.630   3.254  14.318 -0.0958 -0.0924 -0.7523
   94TCq2    O6 1442   3.833   3.355  14.299  0.0013 -0.9499  0.2882
   94TCq2    H2 1443   3.633   3.023  14.229 -0.2302 -3.2205 -2.1078
   94TCq2    H3 1444   3.944   3.293  14.121  1.9945 -0.2752  0.4768
   94TCq2    H4 1445   3.895   2.923  13.911 -3.1621 -0.5849 -0.6305
   95TMC2    C1 1446   2.776   0.043  16.289  0.3535  0.3773  0.4107
   95TMC2    C2 1447   2.812   0.088  16.418  0.6415 -0.6695  0.1205
   95TMC2    C3 1448   2.721   0.164  16.491 -0.2043 -0.3404  0.8373
   95TMC2    C4 1449   2.652   0.059  16.242 -0.0024 -0.0137 -0.5914
   95TMC2    C5 1450   2.565   0.139  16.307  0.1140 -0.1571 -0.1600
   95TMC2    C6 1451   2.594   0.184  16.435  0.1725 -0.1244 -0.0102
   95TMC2     C 1452   2.882   0.000  16.206  0.0854  0.6361 -0.2510
   95TMC2     O 1453   2.996   0.038  16.234  0.6885 -0.4572 -0.2252
   95TMC2     H 1454   2.916   0.084  16.449  0.7178 -1.0152 -0.1770
   95TMC2    H1 1455   2.626   0.050  16.137 -0.1746 -4.2127 -0.1734
   95TMC2    H2 1456   2.522   0.245  16.488  0.0419  0.8698 -1.3654
   95TMC2    C7 1457   2.426   0.160  16.268  0.1936  0.6502 -0.3062
   95TMC2    C8 1458   2.736   0.199  16.626  0.5395 -0.0269  0.2788
   95TMC2    O1 1459   2.369   0.260  16.303  0.8867 -0.0627 -0.4951
   95TMC2    O2 1460   2.661   0.273  16.686  0.2034  0.2222  0.7247
   95TMC2    O5 1461   2.815   0.110  16.681  0.3349 -0.6173  0.2977
   95TMC2    H5 1462   2.876   0.058  16.625 -0.4050 -0.2592 -0.8409
   96MPD2     C 1463   3.074   4.514  15.765 -0.5927  0.9140 -0.8689
   96MPD2    C1 1464   3.124   4.606  15.851 -0.2029 -0.4156 -0.1464
   96MPD2    C2 1465   3.052   4.643  15.963 -0.4743  1.2980  0.2433
   96MPD2    C3 1466   2.922   4.594  15.993 -0.3152 -0.1031 -0.7378
   96MPD2    C4 1467   2.872   4.503  15.907  0.0291  0.0619  0.0779
   96MPD2    C5 1468   2.951   4.458  15.793  0.3827 -0.4295  0.4043
   96MPD2     H 1469   3.092   0.000  16.027  1.3149  0.8368 -0.3152
   96MPD2    H1 1470   2.770   4.464  15.907 -0.1904  0.6161 -0.9984
   96MPD2    H2 1471   3.127   4.484  15.675 -1.3920 -2.7913 -0.0990
   96MPD2    H3 1472   2.918   4.385  15.720 -3.7495  0.9357  0.9216
   96MPD2     N 1473   2.845   4.642  16.100  0.0144 -0.4489 -0.1745
   96MPD2    H5 1474   2.752   4.601  16.097  0.7884 -2.1509 -1.1883
   96MPD2    N1 1475   3.256   4.644  15.825 -0.1518  0.5134  0.3601
   96MPD2    H7 1476   3.299   4.614  15.738  0.5153 -1.4842  1.3814
   97MPD2     C 1477   0.436   2.394   0.883 -0.4028  0.1528  0.2393
   97MPD2    C1 1478   0.372   2.283   0.844  0.2922 -0.6716  0.6307
   97MPD2    C2 1479   0.375   2.246   0.713  0.1163  0.4662  0.3371
   97MPD2    C3 1480   0.443   2.328   0.625 -0.6125  0.7268  0.5282
   97MPD2    C4 1481   0.508   2.440   0.671 -0.8758  0.0136  0.3458
   97MPD2    C5 1482   0.505   2.476   0.798  0.2325  0.0042 -0.0338
   97MPD2     H 1483   0.327   2.154   0.682 -0.4103  0.8622 -0.0320
   97MPD2    H1 1484   0.556   2.512   0.606  1.2167  0.8667  2.8233
   97MPD2    H2 1485   0.445   2.413   0.990  1.5607  0.2070  0.0651
   97MPD2    H3 1486   0.573   2.551   0.837 -1.5172 -0.5325  4.0812
   97MPD2     N 1487   0.430   2.311   0.488 -0.9289 -0.1874 -0.3172
   97MPD2    H5 1488   0.468   2.386   0.432 -1.0275  0.5012  0.5405
   97MPD2    N1 1489   0.305   2.204   0.941  0.1585  0.5030 -0.3479
   97MPD2    H7 1490   0.283   2.244   1.032 -0.7155 -0.9631  0.0751
   98TCq2    C1 1491   0.349   2.220   0.419  0.1191 -0.4541 -0.1442
   98TCq2    O2 1492   0.303   2.112   0.446  0.0041  0.1676 -0.0676
   98TCq2    C2 1493   0.329   2.260   0.282  0.3607  0.8177 -0.1697
   98TCq2    C3 1494   0.223   2.196   0.212 -0.2534 -0.3104 -0.0627
   98TCq2    C4 1495   0.213   2.194   0.076  0.3804  0.4256  0.5003
   98TCq2    C5 1496   0.310   2.248  17.681 -0.2854  0.2471 -0.1986
   98TCq2    C6 1497   0.417   2.304   0.064 -0.2972 -0.2817  0.1737
   98TCq2    C7 1498   0.427   2.315   0.201 -0.3382 -0.0627  0.6054
   98TCq2    C8 1499   0.513   2.395  17.677 -0.7704  0.5655 -0.3942
   98TCq2    O4 1500   0.592   2.459   0.065  0.2986 -0.8241 -0.3745
   98TCq2    C9 1501   0.092   2.148   0.011  0.0796 -0.4224 -0.5089
   98TCq2    O5 1502   0.077   2.167  17.570 -0.1713  0.1922 -0.2226
   98TCq2    O6 1503   0.009   2.101   0.090 -0.1487  0.2646 -0.1150
   98TCq2    H2 1504   0.152   2.143   0.274 -3.5235  4.8284  0.5486
   98TCq2    H3 1505   0.304   2.252  17.573 -1.3033  0.4342 -0.1336
   98TCq2    H4 1506   0.519   2.345   0.249  2.4521 -2.0695 -3.4280
   99MPD2     C 1507   3.976   4.170   2.078 -0.5073 -0.0477 -0.4628
   99MPD2    C1 1508   4.051   4.261   2.146  0.1281 -0.2613 -0.8804
   99MPD2    C2 1509   4.180   4.298   2.100 -0.0607  0.3448 -0.3176
   99MPD2    C3 1510   4.231   4.228   1.996 -0.9995  0.1445  0.0270
   99MPD2    C4 1511   4.167   4.122   1.942 -0.6548 -0.4492 -0.3825
   99MPD2    C5 1512   4.030   4.104   1.974 -0.8503  0.0286 -0.2237
   99MPD2     H 1513   4.244   4.370   2.150  1.5500 -2.1519  1.2332
   99MPD2    H1 1514   4.212   4.061   1.864  0.1445 -1.4966  0.8978
   99MPD2    H2 1515   3.878   4.140   2.114 -0.6153  0.6698 -0.1576
   99MPD2    H3 1516   3.973   4.026   1.924  1.0500 -0.5255 -1.5063
   99MPD2     N 1517   4.355   4.266   1.944 -0.3120  0.5705  0.2839
   99MPD2    H5 1518   4.410   4.324   2.006 -0.4311  1.0645 -0.0721
   99MPD2    N1 1519   3.997   4.311   2.264 -0.4989  0.4698 -0.8739
   99MPD2    H7 1520   3.909   4.267   2.291 -0.0630 -0.9011 -1.6815
  100TCq2    C1 1521   4.057   4.411   2.346  0.4239 -0.5219 -0.3332
  100TCq2    O2 1522   4.172   4.457   2.338  0.0945  0.6445  0.2451
  100TCq2    C2 1523   3.957   4.467   2.432  0.4105 -0.5280  0.9424
  100TCq2    C3 1524   4.011   4.551   2.524 -0.7613  0.1632 -0.6620
  100TCq2    C4 1525   3.930   4.620   2.606  0.1612  0.1858 -0.2918
  100TCq2    C5 1526   3.791   4.617   2.595  0.0154 -0.4722 -0.1724
  100TCq2    C6 1527   3.739   4.527   2.510  0.5389  0.7483  0.9506
  100TCq2    C7 1528   3.819   4.455   2.422 -0.0091  0.3053  0.0197
  100TCq2    C8 1529   3.594   4.536   2.490 -0.7130 -0.4331 -0.2079
  100TCq2    O4 1530   3.536   4.619   2.557  0.0310  0.1726  0.2028
  100TCq2    C9 1531   3.988   4.712   2.701 -0.2202  0.2381  0.2180
  100TCq2    O5 1532   3.906   0.026   2.791  0.3217 -0.1933  0.3155
  100TCq2    O6 1533   4.109   0.005   2.702 -0.0221  0.0443  0.3118
  100TCq2    H2 1534   4.119   4.559   2.528 -0.8730  2.6140 -2.7495
  100TCq2    H3 1535   3.738   4.697   2.646  0.0868 -0.4371 -0.1522
  100TCq2    H4 1536   3.774   4.398   2.341  0.0937  0.1263  0.0907
  101MPD2     C 1537   0.205   0.319  12.890  0.2273  1.0561 -0.1315
  101MPD2    C1 1538   0.072   0.351  12.865 -0.3410 -0.7063 -0.4559
  101MPD2    C2 1539   4.695   0.295  12.946 -0.1875  0.1850  0.8531
  101MPD2    C3 1540   0.002   0.221  13.065 -0.0717  0.0851 -0.7178
  101MPD2    C4 1541   0.135   0.193  13.091  0.4576  0.0713 -0.2238
  101MPD2    C5 1542   0.231   0.240  13.004  0.3519 -0.0410  0.4410
  101MPD2     H 1543   4.591   0.317  12.924 -0.4293 -1.9652 -0.2096
  101MPD2    H1 1544   0.168   0.125  13.168 -0.2555 -0.2229 -0.1700
  101MPD2    H2 1545   0.286   0.358  12.829 -0.4249  0.5947 -1.2888
  101MPD2    H3 1546   0.335   0.235  13.033  0.5438  1.0731 -0.0683
  101MPD2     N 1547   4.606   0.179  13.136  0.1215  0.0659  0.3046
  101MPD2    H5 1548   4.519   0.220  13.102  0.8766  1.2493 -0.2054
  101MPD2    N1 1549   0.035   0.442  12.757  0.0699 -0.0758 -0.0291
  101MPD2    H7 1550   0.111   0.494  12.714 -0.6127  0.7964 -0.1942
  102TCq2    C1 1551   0.128   0.787  12.408  1.0644 -0.8669  0.8002
  102TCq2    O2 1552   0.225   0.717  12.415 -0.6943  0.6010  0.0447
  102TCq2    C2 1553   0.013   0.746  12.487  0.0885 -0.4495  0.0207
  102TCq2    C3 1554   4.621   0.825  12.484  0.2143  0.1961  0.2301
  102TCq2    C4 1555   4.511   0.785  12.559 -0.5394 -0.4613 -0.3177
  102TCq2    C5 1556   4.523   0.685  12.650 -0.4360  0.8617 -0.1663
  102TCq2    C6 1557   4.637   0.608  12.646  0.0266  0.4893 -0.0044
  102TCq2    C7 1558   0.017   0.628  12.561  0.8072  0.5130  0.9412
  102TCq2    C8 1559   4.630   0.487  12.726 -0.0284  0.0402 -0.2416
  102TCq2    O4 1560   4.517   0.458  12.765  0.0405  0.0852  1.0368
  102TCq2    C9 1561   4.387   0.860  12.544  0.1187  0.1623 -0.3805
  102TCq2    O5 1562   4.387   0.947  12.454  0.2840  1.2233  0.4054
  102TCq2    O6 1563   4.280   0.800  12.587  0.3862 -0.0354 -0.0263
  102TCq2    H2 1564   4.612   0.920  12.434  0.7783 -0.1417 -0.5149
  102TCq2    H3 1565   4.439   0.666  12.716 -0.4742 -1.4840 -0.8688
  102TCq2    H4 1566   0.090   0.549  12.554 -0.1700 -0.2772 -0.4824
  103TMC2    C1 1567   3.394   1.195  12.581 -0.4550  0.4158  0.1545
  103TMC2    C2 1568   3.518   1.254  12.576  0.5723 -0.0825  0.4287
  103TMC2    C3 1569   3.618   1.220  12.663  0.4870 -0.0808 -0.3584
  103TMC2    C4 1570   3.375   1.098  12.673 -0.2361  0.6468 -0.1189
  103TMC2    C5 1571   3.476   1.082  12.764 -0.9539 -0.2493  0.6931
  103TMC2    C6 1572   3.599   1.144  12.773  0.2654 -0.1885  0.2619
  103TMC2     C 1573   3.314   1.203  12.464 -0.3586 -0.1523 -0.3014
  103TMC2     O 1574   3.339   1.289  12.382  0.3514 -0.9247  0.3715
  103TMC2     H 1575   3.534   1.339  12.511 -1.7291 -1.7587 -2.3532
  103TMC2    H1 1576   3.278   1.049  12.675 -0.6812  1.5449  0.2285
  103TMC2    H2 1577   3.672   1.133  12.853 -0.2441  1.1801  0.9221
  103TMC2    C7 1578   3.444   0.996  12.872  0.4499  0.2316  0.6657
  103TMC2    C8 1579   3.737   1.302  12.660  1.0269 -0.2381 -0.2438
  103TMC2    O1 1580   3.513   1.018  12.966  0.2488 -0.7421 -0.0476
  103TMC2    O2 1581   3.725   1.422  12.641  0.2768  0.2654 -0.3248
  103TMC2    O5 1582   3.824   1.240  12.735 -0.3932  0.1141 -0.2883
  103TMC2    H5 1583   3.819   1.142  12.729 -1.0400  0.1289  0.0455
  104MPD2     C 1584   3.033   0.977  12.384 -0.1267  0.8692 -0.0137
  104MPD2    C1 1585   3.110   1.094  12.375  0.1057  0.4117 -0.9270
  104MPD2    C2 1586   3.060   1.204  12.298 -0.6426 -0.1479 -0.3146
  104MPD2    C3 1587   2.952   1.184  12.219  0.3403 -0.1833 -0.7355
  104MPD2    C4 1588   2.888   1.062  12.220 -0.3726  0.4515  0.2818
  104MPD2    C5 1589   2.919   0.966  12.313  0.1990  0.6858  0.3625
  104MPD2     H 1590   3.091   1.308  12.304  0.4347 -0.4277 -0.9782
  104MPD2    H1 1591   2.805   1.045  12.153  1.2325  0.0076 -1.5960
  104MPD2    H2 1592   3.067   0.891  12.440  0.6177  0.4029 -1.1631
  104MPD2    H3 1593   2.859   0.877  12.319 -0.5771  1.2765  1.3115
  104MPD2     N 1594   2.905   1.296  12.145 -0.4152  0.2971 -0.6528
  104MPD2    H5 1595   2.961   1.380  12.134 -1.6314  1.4620  2.1760
  104MPD2    N1 1596   3.227   1.095  12.458 -0.4281  0.4341 -0.3550
  104MPD2    H7 1597   3.254   1.012  12.509  0.0720  0.4215 -0.6330
  105MPD2     C 1598   4.352   4.352   0.393  0.5052  0.1126  0.2467
  105MPD2    C1 1599   4.334   4.488   0.391  0.5180  0.7426  0.1269
  105MPD2    C2 1600   4.264   4.554   0.484  1.0698 -0.1336  0.2285
  105MPD2    C3 1601   4.234   4.492   0.608 -0.3456 -0.3919  0.3397
  105MPD2    C4 1602   4.263   4.356   0.617  0.8383 -0.2204 -0.3535
  105MPD2    C5 1603   4.305   4.285   0.509  0.8085 -0.0701 -0.2232
  105MPD2     H 1604   4.242   4.660   0.475 -0.6259 -0.4854  0.1940
  105MPD2    H1 1605   4.236   4.303   0.708  1.8646 -0.7804 -0.3679
  105MPD2    H2 1606   4.408   4.299   0.317  1.9158  1.5667  0.2679
  105MPD2    H3 1607   4.333   4.180   0.514 -2.5157 -1.0807 -2.2733
  105MPD2     N 1608   4.186   4.571   0.716 -0.4234 -0.6270  0.1123
  105MPD2    H5 1609   4.196   4.672   0.707  2.6620 -1.0951 -1.6925
  105MPD2    N1 1610   4.395   4.557   0.282  0.3644  0.0096  0.0977
  105MPD2    H7 1611   4.358   4.651   0.277  1.5422  0.5054  0.6153
  106TCq2    C1 1612   4.131   4.526   0.835  0.5701  0.0652 -0.3872
  106TCq2    O2 1613   4.122   4.412   0.876 -0.2068 -0.4683  0.4031
  106TCq2    C2 1614   4.105   4.634   0.928 -0.4469 -0.6616  0.7743
  106TCq2    C3 1615   4.050   0.035   0.883 -0.2682  0.6097 -0.1527
  106TCq2    C4 1616   4.006   0.137   0.966 -0.3060  0.5690 -0.1778
  106TCq2    C5 1617   4.003   0.112   1.098 -0.1084 -0.5251 -0.0853
  106TCq2    C6 1618   4.051   4.707   1.149 -0.4566  0.3232  0.1415
  106TCq2    C7 1619   4.095   4.607   1.065  0.0835 -0.0765  0.2596
  106TCq2    C8 1620   4.015   4.672   1.291 -0.2620  0.0915  0.2251
  106TCq2    O4 1621   4.064   4.572   1.346 -0.5637 -0.3878 -0.0737
  106TCq2    C9 1622   3.974   0.266   0.904 -0.3070  0.2213 -0.2332
  106TCq2    O5 1623   4.022   0.279   0.792  0.2575 -0.4462 -0.0369
  106TCq2    O6 1624   3.916   0.352   0.977 -0.0555 -0.5663 -0.1453
  106TCq2    H2 1625   4.045   0.040   0.774  1.0777  0.5120 -0.2147
  106TCq2    H3 1626   3.975   0.196   1.161  2.7301 -1.0069  1.8229
  106TCq2    H4 1627   4.129   4.511   1.103  0.5165  0.1906  0.5464
  107TMC2    C1 1628   0.391   4.387  11.249 -0.1413 -0.1578  0.4075
  107TMC2    C2 1629   0.369   4.463  11.134  0.1437  0.1682 -0.2184
  107TMC2    C3 1630   0.464   4.460  11.034 -0.8078  0.7198  0.0090
  107TMC2    C4 1631   0.508   4.315  11.262 -0.7255  0.0310  0.4126
  107TMC2    C5 1632   0.584   4.305  11.147 -0.1047 -0.5242  0.4878
  107TMC2    C6 1633   0.557   4.367  11.033 -0.2358 -0.1100  0.4540
  107TMC2     C 1634   0.324   4.419  11.376  0.1373  0.1262 -0.4781
  107TMC2     O 1635   0.331   4.334  11.464  0.2032  0.5360  0.8469
  107TMC2     H 1636   0.281   4.527  11.124 -0.6009 -0.8878 -0.3932
  107TMC2    H1 1637   0.523   4.243  11.342 -0.4396 -0.5220 -0.1350
  107TMC2    H2 1638   0.604   4.343  10.938 -1.9244  0.8333 -0.6095
  107TMC2    C7 1639   0.657   4.188  11.146  0.2523  0.3470  0.3822
  107TMC2    C8 1640   0.429   4.525  10.909 -0.0243 -0.7528  0.5001
  107TMC2    O1 1641   0.649   4.107  11.238  0.3540  0.3218  0.0855
  107TMC2    O2 1642   0.312   4.541  10.883 -0.1228  0.6182 -0.5448
  107TMC2    O5 1643   0.520   4.507  10.810  0.0703  0.1836  0.3885
  107TMC2    H5 1644   0.613   4.522  10.838 -0.4068  1.0955  1.4425
  108MPD2     C 1645   0.154   0.003  11.445  0.2362  0.5701  0.4676
  108MPD2    C1 1646   0.208   4.604  11.485  0.2072 -0.0311  0.2304
  108MPD2    C2 1647   0.174   4.537  11.603 -0.2615  0.0839  0.9243
  108MPD2    C3 1648   0.067   4.591  11.675 -0.5769 -0.2028 -0.1807
  108MPD2    C4 1649   0.001   4.700  11.624  0.0516  0.4326 -0.5353
  108MPD2    C5 1650   0.045   0.048  11.515  0.2586 -0.4559 -0.4681
  108MPD2     H 1651   0.217   4.440  11.626  0.7730  0.0495 -1.1443
  108MPD2    H1 1652   4.640   0.012  11.689  0.1712 -1.5544  0.5747
  108MPD2    H2 1653   0.187   0.055  11.355  1.2683  1.4747  1.3659
  108MPD2    H3 1654   0.002   0.139  11.474 -1.1579  0.4674  3.0551
  108MPD2     N 1655   0.021   4.527  11.793  1.1125 -0.6100  0.9067
  108MPD2    H5 1656   4.651   4.558  11.830  1.3832  0.9854  0.2342
  108MPD2    N1 1657   0.282   4.549  11.382 -1.3021  0.5612  0.0441
  108MPD2    H7 1658   0.309   4.605  11.302 -0.6306 -2.0277 -1.5292
  109MPD2     C 1659   4.568   1.215   2.220  0.3223 -0.3151 -0.1613
  109MPD2    C1 1660   4.569   1.277   2.090 -0.9366 -0.5283 -0.7594
  109MPD2    C2 1661   4.690   1.285   2.032 -0.2821 -0.0266  0.0591
  109MPD2    C3 1662   0.085   1.248   2.084  0.1879 -0.3507  0.9135
  109MPD2    C4 1663   0.083   1.206   2.217 -0.0792 -0.0238  0.0588
  109MPD2    C5 1664   4.684   1.183   2.286  0.3070 -0.5300  0.5331
  109MPD2     H 1665   4.688   1.309   1.926  2.9843 -0.7945 -0.1597
  109MPD2    H1 1666   0.180   1.186   2.262  0.6083 -0.1499 -1.4874
  109MPD2    H2 1667   4.471   1.195   2.263  0.2410  0.2725 -0.0781
  109MPD2    H3 1668   4.688   1.134   2.383 -0.5078 -0.1274  0.7623
  109MPD2     N 1669   0.201   1.265   2.006 -0.1830  0.1104 -0.3783
  109MPD2    H5 1670   0.188   1.296   1.910  0.8994  1.7047 -0.0260
  109MPD2    N1 1671   4.445   1.300   2.025  0.0939  0.3690  0.8368
  109MPD2    H7 1672   4.367   1.264   2.079  1.5357 -1.6609  1.5947
  110TCq2    C1 1673   0.333   1.222   2.044 -0.4976  0.2866  0.2294
  110TCq2    O2 1674   0.369   1.149   2.137 -0.8157  0.2918 -0.0973
  110TCq2    C2 1675   0.444   1.275   1.960  0.7317 -0.6496  0.1919
  110TCq2    C3 1676   0.561   1.209   1.962  0.6952  0.1581  0.1300
  110TCq2    C4 1677   0.648   1.226   1.858  0.0440 -0.9505 -0.4172
  110TCq2    C5 1678   0.624   1.316   1.760  0.2445  0.4926  0.6192
  110TCq2    C6 1679   0.505   1.383   1.767  0.0917 -0.4704 -0.1128
  110TCq2    C7 1680   0.409   1.350   1.854 -0.6870 -0.4727 -0.6316
  110TCq2    C8 1681   0.494   1.509   1.691 -0.9048 -0.1660  0.3276
  110TCq2    O4 1682   0.382   1.562   1.681  0.5682  0.2282 -0.4210
  110TCq2    C9 1683   0.770   1.154   1.862  0.1696 -0.1345 -0.1207
  110TCq2    O5 1684   0.851   1.186   1.770  0.3495  0.3954  0.3680
  110TCq2    O6 1685   0.778   1.045   1.923  0.2892  0.6597 -0.5324
  110TCq2    H2 1686   0.580   1.141   2.044 -2.3533 -1.6494 -0.6692
  110TCq2    H3 1687   0.681   1.312   1.668  0.6550  0.3033  0.8827
  110TCq2    H4 1688   0.322   1.414   1.858 -1.2232 -1.2205 -0.5091
  111TMC2    C1 1689   0.648   1.395  11.150  0.7563 -0.9433  0.1879
  111TMC2    C2 1690   0.728   1.403  11.036  0.4637 -0.2816 -0.3687
  111TMC2    C3 1691   0.862   1.385  11.051  0.3741 -0.3943  0.2702
  111TMC2    C4 1692   0.701   1.382  11.274  0.1700  0.2711  0.0108
  111TMC2    C5 1693   0.837   1.366  11.281 -0.0318  0.4912  0.1130
  111TMC2    C6 1694   0.912   1.368  11.170  0.3595  0.2950  0.1162
  111TMC2     C 1695   0.512   1.457  11.130 -0.0086  0.4553 -0.0072
  111TMC2     O 1696   0.460   1.467  11.017 -0.5255  0.1312  0.1202
  111TMC2     H 1697   0.687   1.447  10.946 -2.2839 -1.8475  0.1333
  111TMC2    H1 1698   0.644   1.376  11.366  2.9799  1.1453  1.8051
  111TMC2    H2 1699   1.020   1.363  11.178  0.2707 -1.1181  0.4023
  111TMC2    C7 1700   0.896   1.314  11.401 -0.1404 -0.0373  0.1951
  111TMC2    C8 1701   0.948   1.428  10.938  0.8477  0.2633  0.1405
  111TMC2    O1 1702   0.822   1.311  11.500 -0.8667  0.1550 -0.7669
  111TMC2    O2 1703   0.932   1.533  10.876 -0.1448  0.4528  0.6564
  111TMC2    O5 1704   1.052   1.343  10.931 -0.3929 -0.0787  0.0973
  111TMC2    H5 1705   1.033   1.262  10.983 -1.4408 -0.9887 -1.6762
  112MPD2     C 1706   0.087   1.706  11.297  0.3882  0.0601  0.0941
  112MPD2    C1 1707   0.145   1.708  11.176  0.3354  0.1531 -0.0829
  112MPD2    C2 1708   0.266   1.638  11.157 -0.1147 -0.7022  0.2416
  112MPD2    C3 1709   0.335   1.571  11.260 -0.3641  0.7755  0.1890
  112MPD2    C4 1710   0.280   1.589  11.390 -0.3946  1.2739  0.6125
  112MPD2    C5 1711   0.156   1.654  11.401  0.5550  0.3700  0.2510
  112MPD2     H 1712   0.300   1.628  11.054  0.9101  0.5336  0.4572
  112MPD2    H1 1713   0.335   1.552  11.475  1.0486  0.5651 -0.6566
  112MPD2    H2 1714   4.708   1.747  11.312  0.0499 -0.1600 -1.6388
  112MPD2    H3 1715   0.108   1.641  11.497  1.2021  0.8980  0.6405
  112MPD2     N 1716   0.459   1.498  11.251  0.0397 -0.4560  0.0086
  112MPD2    H5 1717   0.498   1.462  11.337 -0.3678  0.9579  0.7750
  112MPD2    N1 1718   0.077   1.761  11.060  0.3073 -0.2889 -0.0645
  112MPD2    H7 1719   0.121   1.742  10.970  0.6563 -0.7236  0.1977
  113MPD2     C 1720   3.567   4.095   1.356 -0.5675 -0.2124  0.0406
  113MPD2    C1 1721   3.482   4.207   1.348  0.4217  0.0289  0.2355
  113MPD2    C2 1722   3.421   4.225   1.231  0.5447  0.0126 -0.8946
  113MPD2    C3 1723   3.451   4.153   1.121  0.9281 -0.6069 -0.0336
  113MPD2    C4 1724   3.533   4.042   1.127  0.2195 -1.1691 -0.6347
  113MPD2    C5 1725   3.596   4.017   1.245  0.0977 -0.3034 -0.3593
  113MPD2     H 1726   3.360   4.314   1.225 -0.1696 -0.4219 -0.0572
  113MPD2    H1 1727   3.567   3.988   1.039  1.8389 -0.0016 -0.7247
  113MPD2    H2 1728   3.606   4.063   1.452  1.2144 -0.3797 -0.7347
  113MPD2    H3 1729   3.663   3.932   1.252 -0.0317 -0.4076 -0.3904
  113MPD2     N 1730   3.380   4.165   0.998  0.4387  0.2520  0.0797
  113MPD2    H5 1731   3.405   4.109   0.917 -0.3453 -1.2192  0.8602
  113MPD2    N1 1732   3.457   4.296   1.457  0.4451 -0.2446  0.5967
  113MPD2    H7 1733   3.384   4.365   1.445 -0.1177 -0.8477  0.5747
  114TCq2    C1 1734   3.323   4.282   0.957 -0.4052 -0.1072 -0.0999
  114TCq2    O2 1735   3.311   4.392   1.003 -1.0171 -0.1844  0.2037
  114TCq2    C2 1736   3.257   4.264   0.827 -0.5780 -0.7392 -0.5012
  114TCq2    C3 1737   3.229   4.372   0.748 -0.6272 -0.3150  0.1400
  114TCq2    C4 1738   3.139   4.363   0.646  0.5816 -0.0391 -0.5880
  114TCq2    C5 1739   3.070   4.249   0.619  0.4898 -0.0037 -0.3385
  114TCq2    C6 1740   3.087   4.146   0.708 -0.9631  0.7092 -1.5085
  114TCq2    C7 1741   3.191   4.151   0.804  0.5221  0.3453 -0.6219
  114TCq2    C8 1742   3.004   4.032   0.681 -0.0880  0.2341 -0.6412
  114TCq2    O4 1743   2.969   4.018   0.565 -0.2424 -0.3315 -0.1455
  114TCq2    C9 1744   3.114   4.476   0.560 -0.3118 -0.0447 -0.1985
  114TCq2    O5 1745   3.195   4.576   0.572 -0.3016  0.4975 -0.1814
  114TCq2    O6 1746   3.026   4.470   0.471 -0.2752  0.0258  0.4690
  114TCq2    H2 1747   3.284   4.464   0.767 -2.3342  0.4116  1.5573
  114TCq2    H3 1748   3.003   4.238   0.535 -1.3287  1.4805  0.8999
  114TCq2    H4 1749   3.209   4.061   0.862  1.2127  0.0134 -1.3629
  115TMC2    C1 1750   4.055   2.302   0.482  0.0331  0.2485 -0.8904
  115TMC2    C2 1751   3.945   2.381   0.458 -0.1093  0.3710  0.2050
  115TMC2    C3 1752   3.969   2.501   0.389 -0.0208 -0.0260  0.5116
  115TMC2    C4 1753   4.189   2.339   0.466  0.2665  0.9426  1.3779
  115TMC2    C5 1754   4.203   2.459   0.413 -0.1174  0.5615  0.1718
  115TMC2    C6 1755   4.100   2.537   0.363  0.0517  0.6376  0.3637
  115TMC2     C 1756   4.022   2.159   0.500 -0.1120  0.4563 -0.7336
  115TMC2     O 1757   3.931   2.109   0.427  0.5158 -0.0975  0.0938
  115TMC2     H 1758   3.845   2.350   0.483  0.7482 -3.5338 -1.2802
  115TMC2    H1 1759   4.280   2.282   0.484 -0.8969 -1.1072  0.6889
  115TMC2    H2 1760   4.117   2.636   0.323 -1.9824  0.5247 -0.7970
  115TMC2    C7 1761   4.330   2.510   0.412 -0.4773 -0.3831  0.8445
  115TMC2    C8 1762   3.868   2.603   0.378 -0.2310 -0.1937  0.3860
  115TMC2    O1 1763   4.405   2.496   0.511 -0.1259  0.6047  1.0674
  115TMC2    O2 1764   3.873   2.690   0.290 -0.8845  0.2280 -0.3600
  115TMC2    O5 1765   3.796   2.602   0.498  0.4854  0.1120  0.0458
  115TMC2    H5 1766   3.829   2.537   0.564 -0.2944 -0.3770 -0.0409
  116MPD2     C 1767   4.228   1.704   0.641 -0.6534 -0.7954 -0.0938
  116MPD2    C1 1768   4.131   1.731   0.544  0.1674  0.1725  0.6922
  116MPD2    C2 1769   4.095   1.866   0.516  0.4793  0.4179  0.5333
  116MPD2    C3 1770   4.145   1.969   0.600 -0.3613  0.3909 -0.1864
  116MPD2    C4 1771   4.235   1.940   0.700 -0.7040  0.0523  1.2311
  116MPD2    C5 1772   4.268   1.806   0.717  0.3522  0.0018 -0.1546
  116MPD2     H 1773   4.036   1.893   0.429  0.4426  3.5853  1.5499
  116MPD2    H1 1774   4.263   2.005   0.782 -0.0628  3.0705 -1.4145
  116MPD2    H2 1775   4.269   1.606   0.661 -0.8057 -0.6686  0.8448
  116MPD2    H3 1776   4.329   1.778   0.802  1.3785 -1.3512 -1.3529
  116MPD2     N 1777   4.107   2.106   0.591 -0.0269  0.0326 -0.1391
  116MPD2    H5 1778   4.164   2.172   0.644  0.1068 -1.2040  1.2571
  116MPD2    N1 1779   4.066   1.615   0.483 -0.2667  0.3044  0.1993
  116MPD2    H7 1780   4.105   1.523   0.502 -2.1104 -0.1380  1.8704
  117TMC2    C1 1781   2.784   3.304  13.510 -0.1545 -0.0143  0.6320
  117TMC2    C2 1782   2.851   3.186  13.497 -0.2189 -0.2614  0.0789
  117TMC2    C3 1783   2.992   3.186  13.523  0.7727 -0.2280 -0.8644
  117TMC2    C4 1784   2.855   3.421  13.546 -0.0994  0.0997  0.1577
  117TMC2    C5 1785   2.982   3.408  13.587 -0.2876 -0.3326  0.4142
  117TMC2    C6 1786   3.052   3.296  13.576 -0.2197  0.0805 -0.0248
  117TMC2     C 1787   2.648   3.301  13.462 -0.4626  0.1360 -0.2167
  117TMC2     O 1788   2.590   3.194  13.452 -0.1137  0.0418 -0.3758
  117TMC2     H 1789   2.802   3.094  13.468 -1.2654  0.5953 -0.8581
  117TMC2    H1 1790   2.813   3.521  13.550 -0.1719  0.1429 -1.5679
  117TMC2    H2 1791   3.157   3.287  13.600 -0.7920  1.7689  3.1649
  117TMC2    C7 1792   3.050   3.536  13.618 -0.5739 -0.7679 -0.2634
  117TMC2    C8 1793   3.059   3.058  13.531  0.0672  0.0638 -0.2951
  117TMC2    O1 1794   3.003   3.628  13.556 -0.2407 -0.7200 -0.2857
  117TMC2    O2 1795   3.120   3.022  13.628  0.0438  0.2037  0.1707
  117TMC2    O5 1796   3.000   2.979  13.435 -0.3210 -0.0416 -0.3760
  117TMC2    H5 1797   2.942   3.031  13.375 -2.1164  0.1592  1.5471
  118MPD2     C 1798   3.235   3.610  13.925 -0.0712  1.2797 -0.0123
  118MPD2    C1 1799   3.164   3.638  13.807  0.3971 -0.1262  0.8254
  118MPD2    C2 1800   3.175   3.766  13.759  0.5582  0.7264 -0.3555
  118MPD2    C3 1801   3.213   3.875  13.843  0.3989  1.0787  0.2658
  118MPD2    C4 1802   3.272   3.847  13.967 -0.2425 -0.0898 -0.6910
  118MPD2    C5 1803   3.284   3.714  13.998  1.1250 -0.1381 -0.1224
  118MPD2     H 1804   3.144   3.787  13.658 -0.9830 -5.1478 -1.0659
  118MPD2    H1 1805   3.315   3.924  14.031  0.3355 -0.6257 -0.4371
  118MPD2    H2 1806   3.242   3.510  13.967  3.2386  0.9282 -1.3797
  118MPD2    H3 1807   3.338   3.690  14.089  1.2303  0.7204  0.0338
  118MPD2     N 1808   3.225   4.012  13.797  0.2183  0.2600 -0.2628
  118MPD2    H5 1809   3.268   4.080  13.859  0.3111 -0.7645  0.8051
  118MPD2    N1 1810   3.109   3.534  13.736 -0.1324 -0.5746  0.0799
  118MPD2    H7 1811   3.116   3.439  13.771 -2.0712 -0.7576 -0.0642
  119MPD2     C 1812   0.725   0.103  13.174  0.2609  0.3899 -0.7749
  119MPD2    C1 1813   0.634   4.716  13.159  0.4992  0.7588 -0.6337
  119MPD2    C2 1814   0.552   4.705  13.048  0.3017  0.5884 -0.6103
  119MPD2    C3 1815   0.566   0.079  12.946  0.2376 -0.2239 -0.3361
  119MPD2    C4 1816   0.641   0.189  12.965 -0.4418  0.3500  0.3158
  119MPD2    C5 1817   0.712   0.206  13.081 -0.6356  0.4501  0.0026
  119MPD2     H 1818   0.499   4.612  13.034 -1.2624  1.6529 -1.7278
  119MPD2    H1 1819   0.638   0.267  12.890  2.4298  0.3275  0.1898
  119MPD2    H2 1820   0.798   0.119  13.253 -0.9886  2.2092  0.0015
  119MPD2    H3 1821   0.748   0.307  13.098  0.0052  0.3062 -0.5333
  119MPD2     N 1822   0.502   0.072  12.820 -0.6858 -0.0214 -0.0760
  119MPD2    H5 1823   0.506   0.149  12.753 -0.2833 -0.3340 -0.4178
  119MPD2    N1 1824   0.624   4.620  13.258 -0.3454 -0.4745  0.2105
  119MPD2    H7 1825   0.550   4.551  13.249 -0.5101 -0.0965 -1.3860
  120TCq2    C1 1826   0.413   4.691  12.783  0.7730 -0.0556 -0.7827
  120TCq2    O2 1827   0.365   4.599  12.851 -0.2513  0.1039 -0.6404
  120TCq2    C2 1828   0.338   4.720  12.664 -0.0122 -0.5690 -0.8366
  120TCq2    C3 1829   0.362   0.123  12.610  0.2956 -0.8919  0.2292
  120TCq2    C4 1830   0.256   0.191  12.562 -0.4648  0.9908  0.1440
  120TCq2    C5 1831   0.129   0.150  12.592 -0.4796 -0.6052  0.4551
  120TCq2    C6 1832   0.105   0.023  12.638 -0.3338  0.1214  0.2869
  120TCq2    C7 1833   0.208   4.663  12.664 -0.6651  0.4482 -1.0077
  120TCq2    C8 1834   4.713   0.013  12.734  0.5368 -0.0009 -0.7530
  120TCq2    O4 1835   4.607   0.062  12.699 -0.2503 -0.1212  0.5188
  120TCq2    C9 1836   0.276   0.322  12.503  0.5842  0.4824 -0.4600
  120TCq2    O5 1837   0.181   0.364  12.433  0.1682 -0.2300 -0.4318
  120TCq2    O6 1838   0.388   0.377  12.515 -0.2102 -0.1641 -0.1673
  120TCq2    H2 1839   0.457   0.163  12.578  0.0932 -0.6000 -0.0169
  120TCq2    H3 1840   0.052   0.205  12.539  0.6213  1.0478  0.5453
  120TCq2    H4 1841   0.189   4.562  12.700  0.1196  0.7893  0.3918
  121TMC2    C1 1842   2.327   1.815  13.980 -0.2170  0.8854 -0.3776
  121TMC2    C2 1843   2.295   1.950  13.975 -0.3722 -0.6500 -0.4941
  121TMC2    C3 1844   2.163   1.972  14.005 -0.1840  0.0624 -0.6314
  121TMC2    C4 1845   2.235   1.711  13.994 -0.2667 -0.3283  0.1772
  121TMC2    C5 1846   2.103   1.747  14.009  0.1700  0.0521 -0.8190
  121TMC2    C6 1847   2.068   1.875  14.022  0.3653 -0.3294 -0.3259
  121TMC2     C 1848   2.454   1.775  13.917  0.2901  0.9223 -0.2288
  121TMC2     O 1849   2.488   1.662  13.943 -0.0101  0.4469 -0.2631
  121TMC2     H 1850   2.365   2.033  13.973  0.6557 -1.5203 -1.0489
  121TMC2    H1 1851   2.270   1.610  13.976  2.2554  0.6739 -0.5293
  121TMC2    H2 1852   1.960   1.885  14.033  0.3975 -1.4804  1.0412
  121TMC2    C7 1853   2.000   1.642  14.011  0.5131 -0.3022  0.5715
  121TMC2    C8 1854   2.127   2.111  14.016  0.0660  0.0006  0.3206
  121TMC2    O1 1855   2.037   1.528  14.036  0.3371  1.0303  0.3463
  121TMC2    O2 1856   2.188   2.204  13.968 -0.4483 -0.0133  0.6886
  121TMC2    O5 1857   2.013   2.126  14.084 -0.2992 -0.0364 -0.3240
  121TMC2    H5 1858   2.003   2.056  14.151 -1.1772  0.5657  0.1691
  122MPD2     C 1859   2.693   1.730  13.745 -0.1354  0.0494 -0.4254
  122MPD2    C1 1860   2.599   1.831  13.722  0.2314  0.7093  0.7444
  122MPD2    C2 1861   2.599   1.891  13.602 -0.1794  0.0186 -0.0506
  122MPD2    C3 1862   2.698   1.862  13.504  0.4578 -0.6025 -0.3971
  122MPD2    C4 1863   2.788   1.762  13.530  0.5116 -0.1040 -0.3810
  122MPD2    C5 1864   2.773   1.692  13.646  0.3624 -0.1063  0.1245
  122MPD2     H 1865   2.518   1.961  13.583  1.5539  1.8120 -0.8722
  122MPD2    H1 1866   2.852   1.715  13.456  0.6617  0.5089 -0.6428
  122MPD2    H2 1867   2.690   1.672  13.836 -1.0102  0.8397  0.0530
  122MPD2    H3 1868   2.848   1.613  13.651  1.3023  0.6932 -1.2011
  122MPD2     N 1869   2.709   1.945  13.393  0.1439  0.0413 -0.2862
  122MPD2    H5 1870   2.781   1.928  13.323  0.7202  1.9261 -0.1330
  122MPD2    N1 1871   2.494   1.862  13.816 -0.0574  0.0367  0.2844
  122MPD2    H7 1872   2.427   1.934  13.790  0.6726  0.9200  0.8650
  123MPD2     C 1873   4.506   3.902   9.052 -0.0402 -0.2782 -0.8257
  123MPD2    C1 1874   4.527   4.014   8.976 -0.8600  0.7485  0.0366
  123MPD2    C2 1875   4.650   4.039   8.929  0.8180  0.0896 -0.3373
  123MPD2    C3 1876   0.039   3.957   8.951  0.2632 -0.4159 -0.1315
  123MPD2    C4 1877   0.022   3.846   9.030  0.0865  0.6963 -0.2678
  123MPD2    C5 1878   4.615   3.822   9.080  0.2163 -0.8565  0.3416
  123MPD2     H 1879   4.660   4.122   8.860 -0.5168  0.2061 -0.3907
  123MPD2    H1 1880   0.101   3.772   9.038  1.0709  1.7124 -0.5748
  123MPD2    H2 1881   4.408   3.874   9.087 -1.1889  3.0470 -1.3148
  123MPD2    H3 1882   4.598   3.734   9.142 -2.0446 -1.4317 -1.0860
  123MPD2     N 1883   0.165   4.003   8.907 -0.5578  0.5184  0.3758
  123MPD2    H5 1884   0.164   4.076   8.837 -0.2155  0.0262 -0.1472
  123MPD2    N1 1885   4.416   4.097   8.949 -0.0935  0.0080  0.2291
  123MPD2    H7 1886   4.334   4.071   9.003 -1.0785  0.6250 -0.9851
  124TCq2    C1 1887   0.290   3.961   8.961  1.0228 -0.3498 -0.4044
  124TCq2    O2 1888   0.312   3.886   9.056 -0.3578 -0.5260 -0.0574
  124TCq2    C2 1889   0.388   4.059   8.926  0.2134 -0.1907  0.2633
  124TCq2    C3 1890   0.373   4.136   8.815  0.2515 -0.7061 -0.0614
  124TCq2    C4 1891   0.475   4.221   8.783  1.1517  0.4481  0.5036
  124TCq2    C5 1892   0.592   4.236   8.858  0.4170  0.0571  0.1404
  124TCq2    C6 1893   0.594   4.159   8.973  0.1116  0.3523  0.5566
  124TCq2    C7 1894   0.492   4.073   9.009  0.4913  0.0569  0.4404
  124TCq2    C8 1895   0.675   4.206   9.088 -0.0969  0.1275 -0.4326
  124TCq2    O4 1896   0.653   4.154   9.199  0.0630  0.5734  0.3499
  124TCq2    C9 1897   0.453   4.313   8.677 -0.0874 -0.2944  0.0938
  124TCq2    O5 1898   0.545   4.405   8.667  0.0758  0.0808  0.4030
  124TCq2    O6 1899   0.348   4.296   8.609  0.3305 -0.6276 -0.4202
  124TCq2    H2 1900   0.281   4.131   8.758  0.3586  1.0343 -0.3651
  124TCq2    H3 1901   0.678   4.294   8.826 -0.0328 -0.3597 -1.8256
  124TCq2    H4 1902   0.505   4.012   9.098 -2.4654 -0.9279  0.2164
  125TMC2    C1 1903   3.153   2.125   8.567  0.6995  0.4645  0.0607
  125TMC2    C2 1904   3.180   2.081   8.438  0.5066 -0.2309 -0.2521
  125TMC2    C3 1905   3.081   2.074   8.347  0.1713 -0.1643  0.0238
  125TMC2    C4 1906   3.025   2.150   8.606 -0.4352  0.3971  0.0828
  125TMC2    C5 1907   2.923   2.145   8.507 -0.6985  0.0081  0.1265
  125TMC2    C6 1908   2.950   2.113   8.375 -0.2639  0.0674 -0.0915
  125TMC2     C 1909   3.239   2.070   8.667  0.1982 -0.2831  0.6808
  125TMC2     O 1910   3.222   2.107   8.781  0.1350 -0.6981  0.1478
  125TMC2     H 1911   3.281   2.075   8.399  0.3265  0.0326 -0.7693
  125TMC2    H1 1912   3.010   2.203   8.699  0.5708  0.9153 -0.0475
  125TMC2    H2 1913   2.875   2.121   8.297  0.4557  1.9208 -0.5929
  125TMC2    C7 1914   2.799   2.200   8.544  0.0159  0.5198  0.2815
  125TMC2    C8 1915   3.115   2.013   8.216  0.2025  0.0586 -0.4695
  125TMC2    O1 1916   2.740   2.252   8.451 -0.2651 -0.3957 -0.2121
  125TMC2    O2 1917   3.230   1.991   8.175  0.0200  0.1494 -0.2251
  125TMC2    O5 1918   3.005   1.949   8.169 -0.2229  0.2420  0.0379
  125TMC2    H5 1919   2.930   1.943   8.233  1.6140  1.5217  2.3173
  126MPD1     C 1920   3.636   1.769   8.833 -0.0597  0.4186 -0.0053
  126MPD1    C1 1921   3.603   1.742   8.702 -0.5026  0.3685 -0.3704
  126MPD1    C2 1922   3.507   1.816   8.637 -1.0521 -0.5259  0.2051
  126MPD1    C3 1923   3.429   1.911   8.699 -0.3583 -0.5974  0.2029
  126MPD1    C4 1924   3.463   1.932   8.830 -0.2559 -0.3750 -0.1539
  126MPD1    C5 1925   3.563   1.866   8.896  1.3204 -1.0852 -0.4430
  126MPD1     H 1926   3.499   1.796   8.531  0.7284  0.9054 -0.1882
  126MPD1    H1 1927   3.412   2.007   8.890  0.2821  0.5454 -0.8607
  126MPD1    H2 1928   3.714   1.712   8.882  0.8342  0.5668 -1.2679
  126MPD1    H3 1929   3.588   1.895   8.997 -1.1454 -0.0536 -0.1390
  126MPD1     N 1930   3.327   1.976   8.616  0.1928 -0.1924  0.3986
  126MPD1    H5 1931   3.296   1.925   8.534 -0.0725  0.9275 -0.2015
  126MPD1    N1 1932   3.702   1.684   8.623  0.6615 -0.2282 -0.8842
  126MPD1    H6 1933   3.665   1.639   8.540  1.4188  0.0213 -1.3575
  126MPD1    H7 1934   3.758   1.620   8.679  0.0052 -1.0769 -1.2179
  127MPD2     C 1935   3.220   0.854   9.539  0.3491 -0.7110  0.2781
  127MPD2    C1 1936   3.169   0.846   9.666  0.5512 -0.0949 -0.1638
  127MPD2    C2 1937   3.171   0.963   9.742  0.0260 -0.7035 -0.3456
  127MPD2    C3 1938   3.226   1.084   9.689 -0.0093  0.3734  0.0559
  127MPD2    C4 1939   3.262   1.088   9.553 -0.6984 -0.0662  0.4785
  127MPD2    C5 1940   3.258   0.974   9.477  0.6445  0.1337 -0.3394
  127MPD2     H 1941   3.128   0.969   9.842  0.5226 -1.6977 -0.0719
  127MPD2    H1 1942   3.299   1.177   9.503 -0.3099  0.4351  1.6517
  127MPD2    H2 1943   3.209   0.766   9.475 -0.0966 -0.0660 -0.5293
  127MPD2    H3 1944   3.270   0.966   9.370 -3.3335  0.3217 -0.8098
  127MPD2     N 1945   3.230   1.192   9.775 -0.4197  0.8793 -0.6001
  127MPD2    H5 1946   3.207   1.179   9.873 -1.2580  0.6822 -0.8239
  127MPD2    N1 1947   3.107   0.727   9.709  0.1960  0.3269  0.2280
  127MPD2    H7 1948   3.096   0.653   9.640  0.5184 -1.4368  2.0744
  128TCq2    C1 1949   3.042   0.705   9.825 -0.1076 -0.0340 -0.2278
  128TCq2    O2 1950   3.029   0.776   9.923 -0.5810 -0.7689  0.1019
  128TCq2    C2 1951   2.994   0.564   9.834 -0.6085 -0.5302  0.1828
  128TCq2    C3 1952   2.962   0.532   9.960 -0.1246  0.0553 -0.5008
  128TCq2    C4 1953   2.888   0.420   9.986 -0.1475 -0.0211  0.1163
  128TCq2    C5 1954   2.835   0.347   9.890 -0.2340  0.5718  0.0831
  128TCq2    C6 1955   2.849   0.385   9.759 -0.6730  0.2739  1.0593
  128TCq2    C7 1956   2.935   0.490   9.733 -0.2106 -0.1530  0.5892
  128TCq2    C8 1957   2.781   0.333   9.642 -0.0330 -0.1519  0.1787
  128TCq2    O4 1958   2.818   0.366   9.534  0.2540  0.1786 -0.5992
  128TCq2    C9 1959   2.863   0.373  10.120  0.4123  0.0801  0.0292
  128TCq2    O5 1960   2.911   0.438  10.217  0.0218 -0.9923  0.1199
  128TCq2    O6 1961   2.805   0.261  10.133 -0.1715  0.1202 -0.2902
  128TCq2    H2 1962   3.015   0.573  10.045  0.6625 -0.9573 -0.4945
  128TCq2    H3 1963   2.772   0.261   9.910  1.3269 -0.4096  0.8064
  128TCq2    H4 1964   2.942   0.539   9.636  0.3228  1.0403  1.2264
  129MPD2     C 1965   0.616   1.910   1.006  0.3978  0.3274 -0.1186
  129MPD2    C1 1966   0.726   1.835   1.019  0.7118 -0.5935 -0.0870
  129MPD2    C2 1967   0.855   1.889   0.998 -0.2269  0.1979 -0.2825
  129MPD2    C3 1968   0.870   2.021   0.976 -0.1142 -0.7091  0.6838
  129MPD2    C4 1969   0.759   2.097   0.971  0.1372 -0.5838 -0.0515
  129MPD2    C5 1970   0.635   2.042   0.978  0.2738 -0.4546  0.0038
  129MPD2     H 1971   0.948   1.833   1.004  0.0042  0.4312 -1.7165
  129MPD2    H1 1972   0.754   2.203   0.949  2.7054 -0.3351  0.5495
  129MPD2    H2 1973   0.516   1.870   1.016 -1.6655  5.3706 -0.9251
  129MPD2    H3 1974   0.549   2.106   0.966  0.7135  0.2642  0.6887
  129MPD2     N 1975   1.001   2.069   0.963  0.3580  0.1813  0.7581
  129MPD2    H5 1976   1.074   2.000   0.948 -2.1257 -2.2112 -0.3746
  129MPD2    N1 1977   0.720   1.694   1.060 -0.5609  0.3806 -0.7092
  129MPD2    H7 1978   0.809   1.649   1.081 -0.5391  0.4064 -0.7462
  130TCq2    C1 1979   0.605   1.624   1.085  0.3294  0.0595 -0.4859
  130TCq2    O2 1980   0.487   1.651   1.102  0.5554  0.3093  0.0941
  130TCq2    C2 1981   0.642   1.497   1.135  0.2325 -0.0815  0.7149
  130TCq2    C3 1982   0.763   1.445   1.104  0.1302 -0.2103  0.9415
  130TCq2    C4 1983   0.813   1.350   1.190  0.4236  0.5263  0.1274
  130TCq2    C5 1984   0.742   1.285   1.282 -0.8100  0.1806 -0.4810
  130TCq2    C6 1985   0.616   1.334   1.307  0.0784 -0.4888 -0.3813
  130TCq2    C7 1986   0.569   1.441   1.237 -0.3729  0.2552  0.9607
  130TCq2    C8 1987   0.528   1.266   1.402 -0.7828 -0.4745  0.3228
  130TCq2    O4 1988   0.418   1.312   1.423 -0.5159  0.0822  0.5664
  130TCq2    C9 1989   0.948   1.306   1.160  0.2975  0.1757  0.2573
  130TCq2    O5 1990   0.997   1.216   1.240 -0.1810 -0.1395 -1.0999
  130TCq2    O6 1991   1.000   1.342   1.047  0.1689 -0.7091  0.3021
  130TCq2    H2 1992   0.806   1.464   1.006  0.6285 -1.4741  0.9128
  130TCq2    H3 1993   0.787   1.203   1.336 -0.4341  0.3736 -0.5024
  130TCq2    H4 1994   0.465   1.465   1.259 -1.0093 -2.1357  0.4833
  131MPD2     C 1995   4.475   0.093   9.547 -0.2103 -0.1195  0.1718
  131MPD2    C1 1996   4.522   0.137   9.427 -0.6294  0.3043 -0.1974
  131MPD2    C2 1997   4.460   0.082   9.312 -0.6042 -0.1952 -0.3483
  131MPD2    C3 1998   4.372   4.693   9.325 -0.1583  0.0896 -0.0869
  131MPD2    C4 1999   4.347   4.641   9.451  0.4588  0.0803  0.0317
  131MPD2    C5 2000   4.382   4.715   9.555  0.0541 -0.3895 -0.0162
  131MPD2     H 2001   4.497   0.117   9.217 -0.4426  1.8358  0.4709
  131MPD2    H1 2002   4.286   4.553   9.469 -0.5982  0.7772 -0.1829
  131MPD2    H2 2003   4.512   0.149   9.633  0.9822  0.5509 -0.7700
  131MPD2    H3 2004   4.339   4.687   9.650 -0.5912 -2.4517 -0.9309
  131MPD2     N 2005   4.346   4.618   9.213  0.1296  1.0202 -0.1913
  131MPD2    H5 2006   4.375   4.661   9.126 -0.4708  1.3033 -0.2505
  131MPD2    N1 2007   4.624   0.229   9.427  0.0870  0.8824 -0.0303
  131MPD2    H7 2008   4.653   0.269   9.516 -0.1778 -3.8488  2.2082
  132TCq2    C1 2009   0.263   0.640   9.231 -0.5165  0.2988  0.6394
  132TCq2    O2 2010   0.206   0.638   9.126 -0.0320 -0.1490 -0.4198
  132TCq2    C2 2011   0.184   0.579   9.334  0.9143  0.2695  0.0093
  132TCq2    C3 2012   0.249   0.558   9.455  0.5713 -0.1090 -0.5860
  132TCq2    C4 2013   0.224   0.448   9.531  0.2576 -0.5720 -0.7781
  132TCq2    C5 2014   0.131   0.356   9.483 -0.3505  0.1092  0.1605
  132TCq2    C6 2015   0.070   0.373   9.359  0.3722  0.1181  0.1129
  132TCq2    C7 2016   0.094   0.490   9.289 -0.3665 -0.9809 -0.0036
  132TCq2    C8 2017   4.683   0.290   9.321 -0.1367  1.0148  0.3596
  132TCq2    O4 2018   4.648   0.301   9.203  0.5130 -0.0107  0.3377
  132TCq2    C9 2019   0.295   0.423   9.654 -0.4244  0.4649 -0.3994
  132TCq2    O5 2020   0.417   0.456   9.653  0.0971  0.7302 -0.3865
  132TCq2    O6 2021   0.251   0.336   9.731  0.3854 -0.1981 -0.2547
  132TCq2    H2 2022   0.314   0.638   9.489  0.4094 -0.1830 -0.0991
  132TCq2    H3 2023   0.119   0.267   9.543  2.5352 -2.1531 -2.5975
  132TCq2    H4 2024   0.039   0.504   9.197  1.3607 -2.2026 -1.2358
  133MPD2     C 2025   3.936   4.533   9.416  0.6240 -0.1551 -0.1022
  133MPD2    C1 2026   3.952   4.612   9.307  0.0623  0.2547  0.4723
  133MPD2    C2 2027   4.020   0.011   9.307 -0.2726  0.4860 -0.0280
  133MPD2    C3 2028   4.048   0.073   9.428  0.5067 -0.4622  0.6742
  133MPD2    C4 2029   4.009   4.718   9.535 -0.4970 -0.6866 -0.3902
  133MPD2    C5 2030   3.956   4.589   9.539  0.1094 -0.1361  0.0647
  133MPD2     H 2031   4.042   0.061   9.214  0.2289 -0.0811 -0.2171
  133MPD2    H1 2032   4.026   0.038   9.635 -0.7290  0.1644 -0.6887
  133MPD2    H2 2033   3.883   4.439   9.414 -0.4588  0.4334  1.1953
  133MPD2    H3 2034   3.931   4.540   9.633  0.4835  0.6845  0.5835
  133MPD2     N 2035   4.090   0.206   9.450 -0.0936  0.6578 -1.2130
  133MPD2    H5 2036   4.097   0.243   9.544  2.8635 -0.1203 -1.1180
  133MPD2    N1 2037   3.913   4.557   9.179 -0.0761  0.0179 -0.5092
  133MPD2    H7 2038   3.872   4.464   9.185  1.4888 -0.6004  0.5578
  134TCq2    C1 2039   3.895   4.629   9.062  0.5221 -0.3096  0.7207
  134TCq2    O2 2040   3.914   0.028   9.037 -0.1721  0.1985  0.1118
  134TCq2    C2 2041   3.857   4.545   8.952 -0.4402 -0.0433 -0.2872
  134TCq2    C3 2042   3.905   4.418   8.943 -0.3351 -0.0849  0.2145
  134TCq2    C4 2043   3.912   4.358   8.821  0.0437  0.2126  0.5251
  134TCq2    C5 2044   3.861   4.413   8.708  0.1691  0.8054 -0.0052
  134TCq2    C6 2045   3.830   4.546   8.722  0.1042 -0.3382  0.1895
  134TCq2    C7 2046   3.819   4.609   8.840  0.1165 -0.9129  0.5995
  134TCq2    C8 2047   3.777   4.614   8.608 -0.4268 -0.3340 -0.4001
  134TCq2    O4 2048   3.692   4.696   8.631 -0.2644  0.1108  0.0060
  134TCq2    C9 2049   3.966   4.219   8.827  0.1581  0.3280  0.4770
  134TCq2    O5 2050   3.971   4.156   8.942 -0.2246  0.2156  0.6976
  134TCq2    O6 2051   3.996   4.171   8.717 -0.2829 -0.3546 -0.2712
  134TCq2    H2 2052   3.936   4.355   9.026  2.0758  2.2829  1.1245
  134TCq2    H3 2053   3.858   4.345   8.624  1.5219 -0.9760  1.4151
  134TCq2    H4 2054   3.777   4.709   8.837  0.6689 -0.6704  1.0907
  135MPD2     C 2055   2.238   2.753   9.313 -0.7216 -0.1605  0.1531
  135MPD2    C1 2056   2.249   2.624   9.362 -0.5965 -0.7918 -0.9175
  135MPD2    C2 2057   2.356   2.542   9.322 -0.9777 -0.0265 -0.1484
  135MPD2    C3 2058   2.450   2.593   9.222 -0.2471 -0.0253 -0.4290
  135MPD2    C4 2059   2.437   2.723   9.184 -0.2016 -0.7296  0.0327
  135MPD2    C5 2060   2.336   2.798   9.234 -0.3550 -0.0338  0.4066
  135MPD2     H 2061   2.363   2.439   9.354 -0.5351  0.2403  0.6076
  135MPD2    H1 2062   2.504   2.773   9.115 -1.3932  3.1960  1.7008
  135MPD2    H2 2063   2.159   2.815   9.355  0.2391 -1.7637  4.3739
  135MPD2    H3 2064   2.334   2.902   9.204  1.0474  0.3653  1.6442
  135MPD2     N 2065   2.568   2.517   9.178  0.1879 -0.2861  0.5457
  135MPD2    H5 2066   2.638   2.565   9.121 -1.4792 -0.4625 -1.6760
  135MPD2    N1 2067   2.150   2.562   9.445 -0.3463  0.6873  0.5258
  135MPD2    H7 2068   2.172   2.467   9.473  0.7532  0.2811 -1.7764
  136TCq2    C1 2069   2.032   2.617   9.494  0.8029  0.3900  0.9937
  136TCq2    O2 2070   1.988   2.730   9.476 -0.2603 -0.0401  0.3233
  136TCq2    C2 2071   1.971   2.534   9.599  0.8814 -0.6564 -0.0505
  136TCq2    C3 2072   1.857   2.572   9.654  0.2707  0.4467 -0.0261
  136TCq2    C4 2073   1.784   2.490   9.734  0.1434 -0.5833 -0.3442
  136TCq2    C5 2074   1.828   2.365   9.772 -0.3039 -0.2900  0.0923
  136TCq2    C6 2075   1.950   2.328   9.723  0.2749  0.0240 -0.3468
  136TCq2    C7 2076   2.022   2.410   9.641 -0.6572  0.0440 -0.7536
  136TCq2    C8 2077   2.030   2.221   9.784 -0.7089  0.0713  0.6353
  136TCq2    O4 2078   2.152   2.219   9.772  0.4491 -0.1385 -0.7513
  136TCq2    C9 2079   1.661   2.543   9.786  0.0907 -0.2519  0.5042
  136TCq2    O5 2080   1.599   2.479   9.877 -0.3855  0.4563 -0.3387
  136TCq2    O6 2081   1.624   2.658   9.741  0.4286 -0.0439 -0.2275
  136TCq2    H2 2082   1.822   2.671   9.626 -1.4216  0.0397  0.6608
  136TCq2    H3 2083   1.767   2.293   9.825 -0.4056  1.3102  2.1808
  136TCq2    H4 2084   2.115   2.371   9.602  0.5271  4.0970 -2.0179
  137MPD2     C 2085   2.482   1.123   9.290  0.2677 -0.0112 -0.2536
  137MPD2    C1 2086   2.408   1.020   9.338  0.7363  0.2518  0.2102
  137MPD2    C2 2087   2.402   0.989   9.473  0.0190  0.7208 -1.0711
  137MPD2    C3 2088   2.475   1.066   9.560  0.3457 -0.2780  0.0988
  137MPD2    C4 2089   2.544   1.176   9.513  0.3722 -0.3067 -1.1814
  137MPD2    C5 2090   2.545   1.205   9.379 -0.6274  0.5980  0.3334
  137MPD2     H 2091   2.349   0.906   9.517  2.6731 -0.7668 -0.6914
  137MPD2    H1 2092   2.606   1.241   9.574 -0.3528  0.7548 -1.5667
  137MPD2    H2 2093   2.492   1.151   9.186  1.0053  0.2148 -0.1209
  137MPD2    H3 2094   2.602   1.290   9.344  0.5719 -0.2334  0.2852
  137MPD2     N 2095   2.465   1.021   9.690  0.8813 -0.1222  0.7536
  137MPD2    H5 2096   2.430   0.926   9.703  0.9424 -0.3372 -0.6848
  137MPD2    N1 2097   2.336   0.944   9.241  0.0441 -0.3377 -0.1603
  137MPD2    H7 2098   2.360   0.955   9.143  0.4687  0.1086 -0.0136
  138TCq2    C1 2099   2.235   0.855   9.269 -0.3558  0.2996  0.5045
  138TCq2    O2 2100   2.203   0.793   9.370 -0.4274  0.0858  0.2490
  138TCq2    C2 2101   2.177   0.815   9.143  0.3010 -0.4867 -0.0615
  138TCq2    C3 2102   2.159   0.910   9.053  0.5222 -0.2963  0.7112
  138TCq2    C4 2103   2.058   0.903   8.965 -0.1794 -0.7440  0.2823
  138TCq2    C5 2104   1.975   0.799   8.965  0.6452  0.2382 -0.2989
  138TCq2    C6 2105   1.999   0.691   9.052  0.1541  0.0527  0.1722
  138TCq2    C7 2106   2.099   0.701   9.141  0.1706 -0.3906  0.1005
  138TCq2    C8 2107   1.885   0.625   9.112  0.2578  0.3053 -1.0935
  138TCq2    O4 2108   1.906   0.518   9.162  0.0600  0.3863  0.3562
  138TCq2    C9 2109   2.036   1.011   8.872  0.6002  0.4783  0.1247
  138TCq2    O5 2110   2.132   1.086   8.843  0.0486  0.2584 -0.7128
  138TCq2    O6 2111   1.929   1.005   8.804 -0.6475  0.0058 -0.1249
  138TCq2    H2 2112   2.209   1.005   9.041 -0.7387  0.3966  0.9529
  138TCq2    H3 2113   1.901   0.792   8.886 -1.1381 -0.4404  1.4425
  138TCq2    H4 2114   2.127   0.621   9.209  0.0159 -0.0877  0.5228
  139TMC2    C1 2115   2.357   4.110  13.131 -0.0336  0.4716 -0.4241
  139TMC2    C2 2116   2.267   4.130  13.031 -0.7816  0.0925  0.0675
  139TMC2    C3 2117   2.185   4.238  13.040 -0.6217  1.0862 -0.3999
  139TMC2    C4 2118   2.365   4.190  13.243  0.2895  0.0510 -0.3457
  139TMC2    C5 2119   2.284   4.297  13.242  0.3204 -0.1535  0.3046
  139TMC2    C6 2120   2.190   4.322  13.145 -0.2627  0.0126  0.0684
  139TMC2     C 2121   2.451   3.997  13.102  0.3509 -0.2910  0.2082
  139TMC2     O 2122   2.457   3.942  12.993  0.5582  0.2094  0.2441
  139TMC2     H 2123   2.262   4.047  12.960  0.9445 -0.2566  0.3478
  139TMC2    H1 2124   2.434   4.173  13.325  1.6208  0.0968 -1.4802
  139TMC2    H2 2125   2.128   4.411  13.146  1.8300  1.4601 -0.4917
  139TMC2    C7 2126   2.327   4.401  13.337  0.1332 -0.0779 -0.0764
  139TMC2    C8 2127   2.116   4.278  12.920 -0.1959  0.3156  0.3315
  139TMC2    O1 2128   2.435   4.374  13.394  0.5105 -0.0337  0.7320
  139TMC2    O2 2129   2.091   4.195  12.833  0.0701  0.4909  0.1699
  139TMC2    O5 2130   2.176   4.394  12.895  0.3659  0.0319 -0.1998
  139TMC2    H5 2131   2.200   4.453  12.969 -1.8283  2.7048 -1.6541
  140MPD2     C 2132   2.676   3.854  13.349 -1.1787 -0.1598 -0.1454
  140MPD2    C1 2133   2.606   3.857  13.226  0.0219 -0.1955  0.8494
  140MPD2    C2 2134   2.615   3.754  13.132 -0.6517  0.2116 -0.0880
  140MPD2    C3 2135   2.704   3.650  13.161 -0.0400 -0.2036  0.4509
  140MPD2    C4 2136   2.787   3.657  13.273 -0.6481 -0.5665 -0.4437
  140MPD2    C5 2137   2.771   3.759  13.368 -0.0560 -0.3088 -0.2858
  140MPD2     H 2138   2.554   3.750  13.043  0.7725  0.0387 -1.0616
  140MPD2    H1 2139   2.867   3.591  13.302 -1.7744 -2.5371 -1.8102
  140MPD2    H2 2140   2.671   3.931  13.425 -1.4179 -0.3206  0.0003
  140MPD2    H3 2141   2.827   3.754  13.460  0.6459  2.0899 -0.5953
  140MPD2     N 2142   2.695   3.531  13.082  0.7907 -0.3115 -0.3821
  140MPD2    H5 2143   2.633   3.532  13.002  1.5409  1.5089 -0.9242
  140MPD2    N1 2144   2.518   3.963  13.215  0.3406  0.3047  0.1932
  140MPD2    H7 2145   2.511   4.018  13.300 -0.8044  0.0244  0.2816
  141TCq2    C1 2146   2.763   0.613  14.374  0.2633  0.4635  0.6555
  141TCq2    O2 2147   2.683   0.516  14.371  0.0264  0.1981 -0.3951
  141TCq2    C2 2148   2.769   0.699  14.488  0.3465 -0.1057 -0.9463
  141TCq2    C3 2149   2.795   0.649  14.608  0.1343 -0.3234  0.3184
  141TCq2    C4 2150   2.833   0.724  14.717 -0.1810  0.1907  0.5725
  141TCq2    C5 2151   2.859   0.853  14.693  0.3264  0.1183  0.6864
  141TCq2    C6 2152   2.850   0.902  14.565  0.6336  0.9875  0.1613
  141TCq2    C7 2153   2.807   0.826  14.460  0.0215 -0.3028  1.0595
  141TCq2    C8 2154   2.911   1.021  14.519  0.5808  0.0316 -0.0764
  141TCq2    O4 2155   2.863   1.073  14.419 -0.1406 -0.3958  0.0655
  141TCq2    C9 2156   2.870   0.668  14.846  0.0708 -0.2071 -0.0474
  141TCq2    O5 2157   2.907   0.740  14.939  0.6451  0.8586  0.8334
  141TCq2    O6 2158   2.892   0.544  14.836 -0.4883 -0.4118 -0.2715
  141TCq2    H2 2159   2.787   0.542  14.617 -0.8877 -0.0168  3.2276
  141TCq2    H3 2160   2.883   0.928  14.768  1.6638  0.3047  0.0634
  141TCq2    H4 2161   2.799   0.868  14.361  0.6757 -1.4072  0.5370
  142MPD2     C 2162   0.809   3.970  10.492 -0.2429 -0.5924  0.7876
  142MPD2    C1 2163   0.752   3.945  10.372 -0.1792  1.3251  0.0509
  142MPD2    C2 2164   0.819   3.994  10.257  0.2681  0.2152  0.0018
  142MPD2    C3 2165   0.934   4.081  10.262 -0.0999 -0.1938 -0.7114
  142MPD2    C4 2166   0.977   4.114  10.396 -0.0354 -0.5160 -0.2176
  142MPD2    C5 2167   0.915   4.057  10.506  0.0722  0.2646  0.8302
  142MPD2     H 2168   0.780   3.954  10.164 -1.4767 -1.7837  1.5821
  142MPD2    H1 2169   1.064   4.177  10.414 -0.0447 -0.2717 -1.0554
  142MPD2    H2 2170   0.762   3.944  10.586  1.6571 -0.1058  1.8782
  142MPD2    H3 2171   0.952   4.083  10.604 -0.2509  1.9014  0.5170
  142MPD2     N 2172   1.001   4.130  10.150  0.2564  0.5635  0.0673
  142MPD2    H5 2173   1.073   4.199  10.167  0.4011  0.2495  0.7113
  142MPD2    N1 2174   0.636   3.864  10.355 -0.2517 -0.1623 -0.7642
  142MPD2    H7 2175   0.596   3.847  10.263  0.9184 -0.3278 -1.2332
  143TCq2    C1 2176   0.958   4.112  10.016 -0.3338  0.3114 -0.7445
  143TCq2    O2 2177   0.858   4.055   9.984  0.8515  0.0789 -0.6846
  143TCq2    C2 2178   1.030   4.195   9.909 -0.2961  0.3226 -0.4513
  143TCq2    C3 2179   1.161   4.249   9.915  0.2611  0.3298  0.6297
  143TCq2    C4 2180   1.222   4.312   9.816 -0.9804  0.1722  0.0726
  143TCq2    C5 2181   1.162   4.331   9.694 -0.3315 -0.6296  0.0441
  143TCq2    C6 2182   1.030   4.276   9.686  0.7599  0.6488  0.0844
  143TCq2    C7 2183   0.964   4.206   9.786  0.4426  0.2245 -0.9419
  143TCq2    C8 2184   0.957   4.285   9.561 -0.0163  0.4447 -0.2000
  143TCq2    O4 2185   0.868   4.202   9.540  0.3657 -0.6689 -0.3236
  143TCq2    C9 2186   1.353   4.354   9.831  0.3618  0.4199  0.5883
  143TCq2    O5 2187   1.408   4.405   9.728  0.5504  0.8442  0.7204
  143TCq2    O6 2188   1.394   4.373   9.950 -0.0011 -0.0912  0.0282
  143TCq2    H2 2189   1.215   4.228  10.006 -0.7087  0.7445  1.3010
  143TCq2    H3 2190   1.206   4.388   9.613  0.6665  0.6071  1.4663
  143TCq2    H4 2191   0.872   4.153   9.766  1.0197 -1.4082  0.6749
  144MPD2     C 2192   3.255   3.745   0.879 -0.0636 -0.2289 -0.3748
  144MPD2    C1 2193   3.271   3.609   0.863  0.0912  0.3645 -0.8861
  144MPD2    C2 2194   3.363   3.534   0.938  0.0106 -0.0225 -0.0871
  144MPD2    C3 2195   3.445   3.588   1.031 -0.3527 -0.9517 -0.7880
  144MPD2    C4 2196   3.418   3.723   1.057 -0.7169 -0.1680  0.6446
  144MPD2    C5 2197   3.319   3.796   0.988 -0.4328 -0.0706  0.2337
  144MPD2     H 2198   3.359   3.426   0.938 -1.2164  0.0126 -1.3691
  144MPD2    H1 2199   3.462   3.768   1.146 -0.7212  0.9438  0.0881
  144MPD2    H2 2200   3.191   3.810   0.820 -2.0127 -0.4108  1.5232
  144MPD2    H3 2201   3.298   3.898   1.017  1.5488  0.1478  0.8747
  144MPD2     N 2202   3.549   3.512   1.102  0.2965 -0.4033  0.4356
  144MPD2    H5 2203   3.603   3.557   1.175 -0.4195  0.3822  0.4826
  144MPD2    N1 2204   3.194   3.531   0.777 -0.3962  0.1667  0.7768
  144MPD2    H7 2205   3.199   3.430   0.785  0.2478  0.0954 -0.4965
  145TCq2    C1 2206   3.588   3.382   1.076 -0.2624  0.2653 -0.3712
  145TCq2    O2 2207   3.568   3.322   0.970  0.5686 -0.3116  0.2005
  145TCq2    C2 2208   3.701   3.349   1.158 -0.8081 -1.1072 -0.4021
  145TCq2    C3 2209   3.789   3.261   1.097  0.0729 -0.5154 -0.0063
  145TCq2    C4 2210   3.913   3.259   1.151 -0.7946 -0.8136 -1.0407
  145TCq2    C5 2211   3.936   3.325   1.269 -1.0469 -0.1219  0.4619
  145TCq2    C6 2212   3.838   3.379   1.344 -0.2497  0.7057  0.4236
  145TCq2    C7 2213   3.720   3.402   1.279 -0.1461 -0.1851 -0.2716
  145TCq2    C8 2214   3.878   3.443   1.467 -0.1886  0.6336  0.0762
  145TCq2    O4 2215   3.991   3.425   1.510 -0.3612 -0.0637  0.5995
  145TCq2    C9 2216   4.019   3.198   1.070  0.2864  0.7919  0.3569
  145TCq2    O5 2217   3.993   3.106   0.988  0.4029  0.0094 -0.7942
  145TCq2    O6 2218   4.137   3.245   1.084 -0.0923 -0.1076  0.5233
  145TCq2    H2 2219   3.774   3.218   0.999 -1.3939  2.6693 -1.1866
  145TCq2    H3 2220   4.041   3.317   1.295 -0.3209  1.6640 -1.8428
  145TCq2    H4 2221   3.645   3.461   1.329  1.0220  0.8800  0.2237
  146TMC2    C1 2222   4.445   2.084  12.656 -0.1326 -0.0349 -0.1525
  146TMC2    C2 2223   4.368   2.135  12.553 -0.2662  1.1175 -0.0580
  146TMC2    C3 2224   4.360   2.053  12.446  0.1269 -0.3759  0.4615
  146TMC2    C4 2225   4.494   1.957  12.648  0.1351 -0.2951 -0.0496
  146TMC2    C5 2226   4.474   1.877  12.540  0.6711 -0.5889  0.2142
  146TMC2    C6 2227   4.417   1.925  12.431  0.6959 -0.1555 -0.1861
  146TMC2     C 2228   4.457   2.164  12.780  0.2875  0.3088 -0.9727
  146TMC2     O 2229   4.445   2.285  12.776 -0.3403  0.8378  0.3600
  146TMC2     H 2230   4.314   2.228  12.565 -0.3023  1.1593 -0.5595
  146TMC2    H1 2231   4.551   1.916  12.731  0.2337  0.2142  0.1386
  146TMC2    H2 2232   4.401   1.854  12.350  0.5307  0.3223 -0.5752
  146TMC2    C7 2233   4.533   1.742  12.543 -0.0063  0.2014 -0.3917
  146TMC2    C8 2234   4.269   2.103  12.346  0.4352 -0.6752  0.1372
  146TMC2    O1 2235   4.542   1.694  12.657  0.4027  0.1838  0.4481
  146TMC2    O2 2236   4.247   2.224  12.335  0.4844  0.5316 -0.4370
  146TMC2    O5 2237   4.289   2.011  12.243 -0.3951  0.0760  0.1118
  146TMC2    H5 2238   4.260   1.919  12.260 -1.3029  0.1691 -0.9283
  147MPD2     C 2239   0.114   1.383  12.334  0.7501 -0.7288 -0.4483
  147MPD2    C1 2240   0.083   1.417  12.467  0.0905 -0.6095 -0.4100
  147MPD2    C2 2241   4.710   1.519  12.501  0.3623 -0.3970 -0.5051
  147MPD2    C3 2242   4.650   1.585  12.396 -0.6524  0.9475 -0.3563
  147MPD2    C4 2243   4.680   1.551  12.262  0.7779 -0.4666 -0.4796
  147MPD2    C5 2244   0.049   1.453  12.229  0.3116  0.1755  0.1683
  147MPD2     H 2245   4.711   1.562  12.600 -1.7053  1.0095 -1.1046
  147MPD2    H1 2246   4.636   1.609  12.182  0.8099  1.3013  0.7909
  147MPD2    H2 2247   0.184   1.305  12.304  1.4234 -0.1974 -0.2471
  147MPD2    H3 2248   0.074   1.448  12.123 -1.6617  1.0840 -0.3495
  147MPD2     N 2249   4.579   1.708  12.421  0.1427  0.0917 -0.1726
  147MPD2    H5 2250   4.566   1.766  12.339  1.4027  0.7938  0.1331
  147MPD2    N1 2251   0.162   1.355  12.565 -0.2456  0.3064  0.1140
  147MPD2    H7 2252   0.242   1.302  12.532 -1.0344  0.1600 -1.5632
  148MPD2     C 2253   0.762   0.213  10.418  0.3876  0.3473 -0.8008
  148MPD2    C1 2254   0.731   0.138  10.306  0.9172  0.2502 -0.7293
  148MPD2    C2 2255   0.596   0.113  10.279 -0.3726 -0.4111 -0.4022
  148MPD2    C3 2256   0.496   0.163  10.365 -0.3704  0.3181  0.1880
  148MPD2    C4 2257   0.533   0.253  10.464  0.0186 -0.2420 -0.4382
  148MPD2    C5 2258   0.666   0.266  10.488 -0.5624  0.3815  0.8110
  148MPD2     H 2259   0.569   0.040  10.204  0.2270 -0.0173 -1.0002
  148MPD2    H1 2260   0.460   0.308  10.522 -0.5411 -1.3900 -0.0401
  148MPD2    H2 2261   0.862   0.241  10.449 -0.5950  3.1344 -0.2115
  148MPD2    H3 2262   0.689   0.342  10.561 -1.8367 -0.1483  1.7837
  148MPD2     N 2263   0.358   0.146  10.340 -0.2159 -0.0379 -0.4117
  148MPD2    H5 2264   0.292   0.208  10.385 -0.4105 -0.2346 -0.4252
  148MPD2    N1 2265   0.833   0.078  10.227  0.6442  0.4782  0.7323
  148MPD2    H7 2266   0.813   4.717  10.169  0.1347  1.1731 -0.0636
  149TCq2    C1 2267   0.965   0.113  10.229 -0.3570 -0.2132 -0.2330
  149TCq2    O2 2268   1.016   0.207  10.284 -0.4156 -0.3216 -0.6929
  149TCq2    C2 2269   1.044   0.046  10.127  0.0275  0.0042 -0.0255
  149TCq2    C3 2270   1.176   0.075  10.116  0.0623 -0.3402  0.0088
  149TCq2    C4 2271   1.249   0.014  10.013 -0.1075  0.1580  0.3959
  149TCq2    C5 2272   1.185   4.669   9.910 -1.0350  0.1258  0.6016
  149TCq2    C6 2273   1.055   4.637   9.922 -0.1888 -0.1549 -0.0427
  149TCq2    C7 2274   0.982   4.691  10.030 -0.0220 -0.1475 -0.1920
  149TCq2    C8 2275   0.986   4.618   9.795 -0.0838 -0.1780  0.4514
  149TCq2    O4 2276   1.053   4.641   9.695  0.0703  0.0872 -0.3395
  149TCq2    C9 2277   1.381   0.071   9.986  0.0168  0.6747  0.1391
  149TCq2    O5 2278   1.394   0.193  10.011  0.7834  0.3195 -0.0150
  149TCq2    O6 2279   1.454   4.716   9.926 -0.1906 -0.6101 -0.2398
  149TCq2    H2 2280   1.240   0.129  10.185 -0.4411  2.9452 -2.0868
  149TCq2    H3 2281   1.240   4.639   9.821 -1.0807 -0.3509  0.7308
  149TCq2    H4 2282   0.874   4.687  10.021 -0.1086  1.1775  0.1610
  150MPD2     C 2283   1.846   0.193  11.881 -0.4984 -0.5503  0.0776
  150MPD2    C1 2284   1.923   0.239  11.773 -0.0769 -0.4238  0.9118
  150MPD2    C2 2285   2.039   0.314  11.794  0.0026  0.0003  0.3313
  150MPD2    C3 2286   2.079   0.333  11.922 -0.3822  0.2440  0.3760
  150MPD2    C4 2287   2.005   0.279  12.025 -0.0591 -0.3039 -0.4195
  150MPD2    C5 2288   1.889   0.214  12.009  0.2884 -0.5022 -0.0624
  150MPD2     H 2289   2.091   0.353  11.707 -0.4245 -0.5476 -0.1730
  150MPD2    H1 2290   2.027   0.292  12.130 -0.1140 -1.3049 -0.2887
  150MPD2    H2 2291   1.753   0.138  11.866 -0.5343 -0.9797  1.8948
  150MPD2    H3 2292   1.834   0.168  12.090 -0.0598 -2.8347 -1.6369
  150MPD2     N 2293   2.204   0.396  11.941  0.0215 -0.3532  0.3754
  150MPD2    H5 2294   2.271   0.398  11.864  0.9296 -2.6560  1.1051
  150MPD2    N1 2295   1.872   0.201  11.647  0.7438 -0.7579 -0.0079
  150MPD2    H7 2296   1.783   0.153  11.651  1.6268 -2.3636  0.2206
  151TCq2    C1 2297   2.248   0.435  12.067 -0.6546 -0.1732  0.1264
  151TCq2    O2 2298   2.186   0.439  12.173 -0.5786 -0.1044  0.1830
  151TCq2    C2 2299   2.384   0.483  12.070 -0.2420 -0.0985 -0.3909
  151TCq2    C3 2300   2.440   0.516  11.955 -0.6531  0.1789 -0.4558
  151TCq2    C4 2301   2.562   0.571  11.952 -0.2545 -0.2138  0.5841
  151TCq2    C5 2302   2.632   0.598  12.071  0.5350 -0.3702  0.1707
  151TCq2    C6 2303   2.570   0.566  12.189 -0.6109 -0.0464  0.1707
  151TCq2    C7 2304   2.447   0.503  12.186  0.1086 -0.8867  0.6389
  151TCq2    C8 2305   2.661   0.538  12.295 -0.7617  0.5049 -0.1145
  151TCq2    O4 2306   2.730   0.629  12.334  0.6522 -0.1369 -0.2751
  151TCq2    C9 2307   2.620   0.599  11.820 -0.8134  0.1585 -0.2254
  151TCq2    O5 2308   2.547   0.571  11.726 -0.2525 -0.1492  0.2831
  151TCq2    O6 2309   2.716   0.675  11.825  0.1474 -0.1951  0.4335
  151TCq2    H2 2310   2.384   0.510  11.863 -0.0877  1.0550 -0.8608
  151TCq2    H3 2311   2.731   0.644  12.074  0.4600 -0.0759 -2.2288
  151TCq2    H4 2312   2.391   0.493  12.279 -0.2650  0.3042  0.5411
  152MPD2     C 2313   1.655   0.114  12.459  0.0080  0.0874 -0.3898
  152MPD2    C1 2314   1.752   0.068  12.374  0.2194  0.3560  0.9578
  152MPD2    C2 2315   1.716   4.692  12.277 -0.0351  0.2737  0.1853
  152MPD2    C3 2316   1.584   4.668  12.249 -0.3072 -0.2589  0.2322
  152MPD2    C4 2317   1.494   4.719  12.340  0.7444  0.5603  0.0925
  152MPD2    C5 2318   1.525   0.082  12.445 -0.0528 -0.8577 -0.3134
  152MPD2     H 2319   1.798   4.647  12.222 -0.1611 -3.6892  3.2045
  152MPD2    H1 2320   1.388   4.705  12.322  0.9689  1.3727 -1.8797
  152MPD2    H2 2321   1.672   0.190  12.534 -0.9226  0.0945 -0.1879
  152MPD2    H3 2322   1.445   0.109  12.512 -0.6865 -1.3809 -0.8582
  152MPD2     N 2323   1.541   4.596  12.130  0.2202 -0.0368  0.1902
  152MPD2    H5 2324   1.615   4.569  12.066 -0.0165  1.6949 -0.8103
  152MPD2    N1 2325   1.889   0.102  12.391  0.0585  0.7153 -0.3854
  152MPD2    H7 2326   1.956   0.053  12.334  0.1953  1.4111 -0.8305
  153TCq2    C1 2327   1.941   0.195  12.480  0.7720 -0.4058  0.0134
  153TCq2    O2 2328   1.883   0.264  12.565  0.0749 -0.2078  0.5473
  153TCq2    C2 2329   2.087   0.216  12.471  0.3043 -0.2518  0.6085
  153TCq2    C3 2330   2.156   0.195  12.362  0.5253 -0.7516  0.1084
  153TCq2    C4 2331   2.290   0.212  12.365  0.0038 -0.0822  0.4492
  153TCq2    C5 2332   2.345   0.259  12.476 -0.1375  0.1992 -0.0354
  153TCq2    C6 2333   2.275   0.268  12.594 -0.2676  0.6297  0.3804
  153TCq2    C7 2334   2.140   0.254  12.589 -0.1044  0.2767  0.1872
  153TCq2    C8 2335   2.344   0.296  12.719  0.1322  0.3586 -0.7496
  153TCq2    O4 2336   2.272   0.309  12.818  0.3976  0.0196 -0.5110
  153TCq2    C9 2337   2.366   0.181  12.247  0.4298  0.6411  0.0450
  153TCq2    O5 2338   2.485   0.211  12.248 -0.6396 -0.3802  0.0507
  153TCq2    O6 2339   2.314   0.099  12.164 -0.0293 -0.2915  0.2208
  153TCq2    H2 2340   2.108   0.157  12.272  1.1487  2.4009 -1.5389
  153TCq2    H3 2341   2.448   0.293  12.476 -0.1905  0.3612  0.1707
  153TCq2    H4 2342   2.086   0.250  12.683  1.2176 -0.9540  0.9102
  154MPD2     C 2343   3.800   4.569   0.595 -0.3130 -0.1558  0.0921
  154MPD2    C1 2344   3.761   4.556   0.726  0.5998 -0.7964 -0.0223
  154MPD2    C2 2345   3.694   4.649   0.798 -0.7609 -0.4117  0.1979
  154MPD2    C3 2346   3.667   0.052   0.740  0.2117 -0.8061 -0.1644
  154MPD2    C4 2347   3.718   0.077   0.614  0.3794 -0.9139 -0.4357
  154MPD2    C5 2348   3.775   4.692   0.546 -0.8338 -0.0895 -0.4746
  154MPD2     H 2349   3.678   4.638   0.904  0.7339 -3.5202  0.1040
  154MPD2    H1 2350   3.687   0.169   0.567  1.9078 -0.5259 -0.6842
  154MPD2    H2 2351   3.856   4.502   0.531 -0.4839 -0.1395 -0.0727
  154MPD2    H3 2352   3.809   4.716   0.445 -1.1460 -0.9560 -0.7840
  154MPD2     N 2353   3.590   0.143   0.813 -0.5100 -0.5876 -0.5983
  154MPD2    H5 2354   3.570   0.121   0.909  1.4921  0.6090  0.1042
  154MPD2    N1 2355   3.798   4.431   0.787 -0.1704  0.1077 -0.3855
  154MPD2    H7 2356   3.878   4.389   0.742  2.1460  2.9436  1.0955
  155TCq2    C1 2357   3.770   4.381   0.912  0.1738  0.0851  0.8609
  155TCq2    O2 2358   3.701   4.425   1.006  0.4273 -0.2426  0.1461
  155TCq2    C2 2359   3.842   4.261   0.940 -0.0504 -0.3264  0.3167
  155TCq2    C3 2360   3.888   4.256   1.069  1.3557  0.0328 -0.4937
  155TCq2    C4 2361   3.974   4.155   1.098  0.1361 -0.4312 -0.5088
  155TCq2    C5 2362   4.010   4.065   1.004 -0.3844 -0.9791  0.7145
  155TCq2    C6 2363   3.967   4.081   0.871  1.2131 -0.4431 -0.5406
  155TCq2    C7 2364   3.873   4.177   0.842  0.0403  0.1921  0.1882
  155TCq2    C8 2365   4.037   4.022   0.763 -0.1197  0.0552 -0.4302
  155TCq2    O4 2366   4.001   4.041   0.646  0.1773 -0.7475  0.1302
  155TCq2    C9 2367   4.020   4.135   1.228  0.2738 -0.6762 -0.9729
  155TCq2    O5 2368   3.958   4.191   1.320  0.3187  0.4611 -0.2588
  155TCq2    O6 2369   4.121   4.059   1.250  0.6652 -0.6507  0.9280
  155TCq2    H2 2370   3.858   4.328   1.143  0.5626 -0.5019 -0.2954
  155TCq2    H3 2371   4.089   3.994   1.028  0.6574  0.4960  1.6855
  155TCq2    H4 2372   3.837   4.193   0.741 -1.0366  0.7942  0.6728
  156MPD2     C 2373   0.646   2.054  11.771 -0.1752 -0.0313 -0.5269
  156MPD2    C1 2374   0.770   2.077  11.716  0.0450 -0.1547  0.0335
  156MPD2    C2 2375   0.873   2.111  11.805  0.2688 -0.3266 -0.3219
  156MPD2    C3 2376   0.855   2.102  11.943 -0.2253  0.2008 -0.2996
  156MPD2    C4 2377   0.731   2.068  11.987 -0.0293 -0.1775 -0.1353
  156MPD2    C5 2378   0.621   2.062  11.908 -1.1425  0.2479 -0.7234
  156MPD2     H 2379   0.974   2.127  11.770  0.5030  1.4351  1.1724
  156MPD2    H1 2380   0.717   2.065  12.095  1.3329 -0.5797  0.0251
  156MPD2    H2 2381   0.562   2.035  11.704 -2.0543  3.0929  0.9256
  156MPD2    H3 2382   0.519   2.067  11.944 -0.8129  1.1028  0.0860
  156MPD2     N 2383   0.966   2.133  12.024 -0.2400  0.4922 -0.2654
  156MPD2    H5 2384   1.044   2.166  11.968 -0.1928  0.5146 -0.1853
  156MPD2    N1 2385   0.786   2.073  11.574  0.1574 -0.1246  0.1698
  156MPD2    H7 2386   0.707   2.063  11.511  1.2552 -1.9467 -0.9481
  157TCq2    C1 2387   0.909   2.082  11.510  0.1018 -0.4606  0.0665
  157TCq2    O2 2388   1.018   2.090  11.565  0.3400  0.1555  0.8580
  157TCq2    C2 2389   0.902   2.066  11.364 -0.0923  0.3715  0.7665
  157TCq2    C3 2390   0.781   2.031  11.315  1.1633  0.3710 -0.1995
  157TCq2    C4 2391   0.748   2.071  11.186  0.4574 -0.9016  0.1017
  157TCq2    C5 2392   0.826   2.151  11.106 -0.0540 -0.3903  0.4246
  157TCq2    C6 2393   0.948   2.191  11.170 -0.3467  0.6576  0.3583
  157TCq2    C7 2394   0.994   2.141  11.292 -0.7621 -0.3327  0.7020
  157TCq2    C8 2395   1.013   2.315  11.116 -0.0763  0.6975 -0.4375
  157TCq2    O4 2396   1.128   2.332  11.152 -0.6258 -0.0523  0.1296
  157TCq2    C9 2397   0.638   2.006  11.115 -0.2563  0.1970 -0.4877
  157TCq2    O5 2398   0.579   1.907  11.173  0.2326 -0.2758  0.9366
  157TCq2    O6 2399   0.616   2.046  11.000  0.3775  0.1901  0.4464
  157TCq2    H2 2400   0.715   1.965  11.370  1.8386 -0.1326  0.0136
  157TCq2    H3 2401   0.795   2.184  11.008  2.7333  1.0373  0.0224
  157TCq2    H4 2402   1.086   2.183  11.329 -0.3476 -1.1332  0.6019
  158TMC2    C1 2403   2.846   0.944  13.555 -0.0170 -0.4141  0.4217
  158TMC2    C2 2404   2.949   0.966  13.470 -0.4049  0.4394  0.6523
  158TMC2    C3 2405   2.914   0.974  13.336 -0.1708  0.2608  0.0214
  158TMC2    C4 2406   2.712   0.941  13.518 -0.2786  0.1906 -0.2438
  158TMC2    C5 2407   2.682   0.953  13.386 -0.1033 -0.0492  0.4373
  158TMC2    C6 2408   2.780   0.969  13.295 -0.8732 -0.1796 -0.1065
  158TMC2     C 2409   2.879   0.933  13.694 -0.0256  0.3656  0.6811
  158TMC2     O 2410   2.976   0.987  13.749 -0.2362 -0.2510  0.2957
  158TMC2     H 2411   3.050   0.955  13.507 -0.2779  1.5671  0.6446
  158TMC2    H1 2412   2.643   0.957  13.600 -0.9289 -0.5602 -0.6490
  158TMC2    H2 2413   2.759   0.984  13.189  1.1139 -0.1254 -0.4998
  158TMC2    C7 2414   2.554   0.992  13.350  0.1399  0.0211  0.9155
  158TMC2    C8 2415   3.004   1.051  13.247 -0.6387  0.0006 -0.3993
  158TMC2    O1 2416   2.547   1.077  13.259  0.1542 -0.0865 -0.0904
  158TMC2    O2 2417   2.969   1.064  13.131 -0.2357 -0.1242  0.0800
  158TMC2    O5 2418   3.032   1.154  13.328  0.5041  0.6447 -0.2513
  158TMC2    H5 2419   3.042   1.132  13.423 -0.5565  0.3541 -0.2041
  159MPD2     C 2420   2.628   0.839  14.126 -0.2395  0.1026 -0.6076
  159MPD2    C1 2421   2.589   0.740  14.034 -0.2897  0.4075  0.0590
  159MPD2    C2 2422   2.655   0.739  13.909 -0.1586  1.0911  0.7409
  159MPD2    C3 2423   2.755   0.831  13.882  0.6124  0.4964 -0.3577
  159MPD2    C4 2424   2.780   0.934  13.973  0.1453 -0.3770 -0.4001
  159MPD2    C5 2425   2.720   0.927  14.092 -0.2087 -0.7062 -0.5642
  159MPD2     H 2426   2.639   0.657  13.840  1.8369 -0.9254  2.6661
  159MPD2    H1 2427   2.855   1.009  13.951 -1.1061  0.9173 -0.2151
  159MPD2    H2 2428   2.574   0.846  14.220 -0.6585  0.1744 -0.8534
  159MPD2    H3 2429   2.748   1.000  14.166 -1.3324 -0.2141 -0.6150
  159MPD2     N 2430   2.794   0.843  13.749 -0.6202 -0.2272  0.3809
  159MPD2    H5 2431   2.750   0.783  13.680  1.5542  0.7004 -1.8172
  159MPD2    N1 2432   2.486   0.650  14.070  0.0561  0.1683 -0.2381
  159MPD2    H7 2433   2.463   0.624  14.165 -0.5969  1.8433  0.0628
  160TMC2    C1 2434   2.280   4.004   1.296 -0.0376 -0.1242  0.1540
  160TMC2    C2 2435   2.228   3.878   1.298  0.2921  0.3294  0.4070
  160TMC2    C3 2436   2.265   3.799   1.194  0.1508  0.6068  0.0559
  160TMC2    C4 2437   2.370   4.049   1.205  0.8996 -0.6404 -0.3069
  160TMC2    C5 2438   2.411   3.968   1.103 -0.5075 -0.1155 -0.2813
  160TMC2    C6 2439   2.354   3.842   1.100 -0.6946 -0.1359 -0.6805
  160TMC2     C 2440   2.212   4.114   1.364  0.2331  0.1057 -0.0818
  160TMC2     O 2441   2.282   4.209   1.401  0.1900  0.1417 -0.3143
  160TMC2     H 2442   2.175   3.851   1.389 -0.6982 -0.6732 -0.4752
  160TMC2    H1 2443   2.390   4.156   1.210 -0.8552 -0.3195 -0.3000
  160TMC2    H2 2444   2.386   3.779   1.017 -2.1129 -0.2269 -1.1562
  160TMC2    C7 2445   2.458   4.028   0.985  0.4066 -0.1190 -0.3550
  160TMC2    C8 2446   2.231   3.668   1.193  0.1316  0.0331 -0.4297
  160TMC2    O1 2447   2.416   3.979   0.881 -0.1062  0.3517 -0.0153
  160TMC2    O2 2448   2.297   3.583   1.136  0.2229  0.6645 -0.4736
  160TMC2    O5 2449   2.106   3.657   1.230  0.3889  0.5634 -0.2557
  160TMC2    H5 2450   2.077   3.746   1.258 -0.1808 -0.1564  1.4393
  161MPD2     C 2451   2.019   4.256   1.545 -0.4648 -0.0051  0.1617
  161MPD2    C1 2452   1.981   4.166   1.443 -0.0193  0.2187 -0.7757
  161MPD2    C2 2453   1.852   4.162   1.404 -0.4924 -0.1631  0.0220
  161MPD2    C3 2454   1.749   4.241   1.463  0.4378 -0.4358  0.3047
  161MPD2    C4 2455   1.789   4.332   1.566  0.0396 -0.8980 -0.2818
  161MPD2    C5 2456   1.924   4.335   1.607 -0.5013  0.5994  0.0339
  161MPD2     H 2457   1.836   4.089   1.326 -1.4675  0.8384 -0.7188
  161MPD2    H1 2458   1.725   4.411   1.605  1.7078  0.4879 -0.3630
  161MPD2    H2 2459   2.122   4.272   1.572 -0.9935  0.4802  1.8877
  161MPD2    H3 2460   1.949   4.411   1.680  2.8480  0.7101 -1.2395
  161MPD2     N 2461   1.611   4.243   1.420  0.1370  0.0477  0.6117
  161MPD2    H5 2462   1.552   4.313   1.465  3.6279  2.6807  1.0316
  161MPD2    N1 2463   2.073   4.091   1.371  0.5153 -0.2205 -0.1267
  161MPD2    H7 2464   2.030   4.020   1.313 -1.2230  1.0749 -0.4440
  162TMC2    C1 2465   4.128   0.700   1.065  1.0570  0.0864  0.2148
  162TMC2    C2 2466   4.015   0.665   0.996 -0.2059  0.4124  0.0180
  162TMC2    C3 2467   3.897   0.671   1.063 -0.9276  0.0067  0.3166
  162TMC2    C4 2468   4.128   0.751   1.195 -1.0994 -0.5762 -0.3982
  162TMC2    C5 2469   4.008   0.779   1.244  0.6030  0.0731 -0.0983
  162TMC2    C6 2470   3.893   0.729   1.185 -1.0369  0.6725 -0.1606
  162TMC2     C 2471   4.252   0.707   0.983 -0.0946 -0.1059 -0.2335
  162TMC2     O 2472   4.251   0.726   0.864  0.3007 -0.7095 -0.3844
  162TMC2     H 2473   4.027   0.625   0.896 -1.6740  0.6412 -0.2434
  162TMC2    H1 2474   4.217   0.792   1.242 -1.3626 -0.8450  0.3279
  162TMC2    H2 2475   3.793   0.743   1.224 -1.4725  0.8074 -1.3524
  162TMC2    C7 2476   4.004   0.816   1.384  0.4853 -0.3558  0.1954
  162TMC2    C8 2477   3.775   0.657   0.987  0.3099  0.6370  1.2099
  162TMC2    O1 2478   3.891   0.825   1.424 -0.4313  0.0085  0.3541
  162TMC2    O2 2479   3.709   0.758   0.971  0.2749  0.4074  0.2834
  162TMC2    O5 2480   3.808   0.569   0.888 -0.4198 -0.1592 -0.9111
  162TMC2    H5 2481   3.860   0.497   0.931 -1.0740  0.8316  1.5797
  163MPD2     C 2482   0.039   0.699   0.939  0.1563  0.2939  0.3451
  163MPD2    C1 2483   4.671   0.732   0.845  0.0906  0.4280 -0.2131
  163MPD2    C2 2484   4.536   0.732   0.882 -0.6901 -0.2651 -0.0765
  163MPD2    C3 2485   4.493   0.701   1.014  1.0952 -0.1081 -0.3793
  163MPD2    C4 2486   4.588   0.669   1.107 -0.2170 -0.4293  0.4095
  163MPD2    C5 2487   0.002   0.674   1.066  0.8037 -0.2752  0.0450
  163MPD2     H 2488   4.471   0.740   0.796 -2.9494  0.6848  1.7469
  163MPD2    H1 2489   4.558   0.643   1.208  1.5602 -1.7256  0.6011
  163MPD2    H2 2490   0.146   0.702   0.926  0.1023  1.9527  0.2900
  163MPD2    H3 2491   0.072   0.665   1.148  0.5637 -0.9458  0.1801
  163MPD2     N 2492   4.358   0.688   1.059  0.4534 -0.5808 -0.2848
  163MPD2    H5 2493   4.339   0.650   1.150 -2.8167 -1.0756 -1.1722
  163MPD2    N1 2494   4.711   0.752   0.713  0.3114 -0.0262 -0.2823
  163MPD2    H7 2495   0.087   0.727   0.694 -0.0755 -2.4027  0.8726
  164TCq2    C1 2496   0.827   0.628  10.796 -0.2321 -1.0107  0.1634
  164TCq2    O2 2497   0.724   0.569  10.790 -0.0523  0.2311 -0.3878
  164TCq2    C2 2498   0.827   0.765  10.840  0.0463  0.0694 -0.3260
  164TCq2    C3 2499   0.938   0.839  10.882 -0.2145 -0.4191 -0.1553
  164TCq2    C4 2500   0.930   0.953  10.960  0.3349 -0.3115  0.6693
  164TCq2    C5 2501   0.810   1.003  10.992  0.1619 -0.1561  0.4552
  164TCq2    C6 2502   0.704   0.920  10.966  0.3398 -0.2211  0.4181
  164TCq2    C7 2503   0.703   0.805  10.884  0.3334  0.9562 -0.7502
  164TCq2    C8 2504   0.586   0.944  11.038 -0.7480 -0.3264  0.1313
  164TCq2    O4 2505   0.482   0.909  10.988 -0.6470  0.0236 -0.2893
  164TCq2    C9 2506   1.047   1.010  11.016  0.0808 -0.0997 -0.7850
  164TCq2    O5 2507   1.153   0.943  11.017 -0.2064 -0.4591 -0.3501
  164TCq2    O6 2508   1.043   1.129  11.063  0.2022  0.0163  0.5181
  164TCq2    H2 2509   1.037   0.809  10.853  0.2112 -0.2389  1.0974
  164TCq2    H3 2510   0.798   1.093  11.051  1.7618 -1.0949  2.2051
  164TCq2    H4 2511   0.613   0.755  10.851  0.5611 -0.5298  0.8807
  165MPD2     C 2512   0.979   3.762   1.357  0.9516 -0.0916 -0.7045
  165MPD2    C1 2513   1.089   3.685   1.336 -0.1337 -0.1942  0.3327
  165MPD2    C2 2514   1.214   3.717   1.390 -0.4851  0.3616  0.3231
  165MPD2    C3 2515   1.230   3.836   1.459  0.3190  0.2029 -0.0878
  165MPD2    C4 2516   1.120   3.914   1.470  0.3921  0.3953  0.1671
  165MPD2    C5 2517   0.996   3.877   1.421  0.0433 -0.3745  0.5167
  165MPD2     H 2518   1.300   3.654   1.368 -0.5111  0.0824  1.0306
  165MPD2    H1 2519   1.127   4.008   1.523 -2.5737  0.0376  1.2290
  165MPD2    H2 2520   0.883   3.741   1.310  2.0547 -2.3603 -1.8792
  165MPD2    H3 2521   0.910   3.943   1.423 -0.2894 -0.7753 -1.5849
  165MPD2     N 2522   1.348   3.885   1.519 -0.0258 -0.3113 -0.8506
  165MPD2    H5 2523   1.348   3.978   1.560 -2.8777 -2.0690  3.1748
  165MPD2    N1 2524   1.065   3.560   1.268  0.5874 -0.8445  0.3095
  165MPD2    H7 2525   0.968   3.543   1.243  0.3779 -0.0869  0.5826
  166TCq2    C1 2526   1.466   3.815   1.522 -0.9123  0.1085 -0.3270
  166TCq2    O2 2527   1.500   3.713   1.458 -0.0683  0.1775 -0.1509
  166TCq2    C2 2528   1.556   3.878   1.617  0.1185 -0.2299  0.0497
  166TCq2    C3 2529   1.504   3.947   1.724  0.4092 -0.4297  0.2412
  166TCq2    C4 2530   1.598   4.025   1.793  0.8207 -0.0621 -0.5153
  166TCq2    C5 2531   1.730   4.014   1.765  0.4867  0.1351  0.5354
  166TCq2    C6 2532   1.780   3.918   1.678 -0.4696  0.7040 -0.3265
  166TCq2    C7 2533   1.694   3.855   1.600  0.3884  0.4507  0.6852
  166TCq2    C8 2534   1.922   3.908   1.646  0.0271  0.7578 -0.0871
  166TCq2    O4 2535   1.953   3.828   1.558 -0.3670 -0.2630  0.2298
  166TCq2    C9 2536   1.554   4.112   1.908  0.2829  0.0228 -0.3248
  166TCq2    O5 2537   1.438   4.103   1.961 -0.2643 -0.1315 -0.2918
  166TCq2    O6 2538   1.642   4.168   1.968  0.5248  0.0956 -0.5947
  166TCq2    H2 2539   1.400   3.951   1.752  0.2171 -1.7098 -0.3035
  166TCq2    H3 2540   1.793   4.064   1.838  1.5418  1.5160 -1.3148
  166TCq2    H4 2541   1.722   3.771   1.538 -0.3984 -0.3474  1.3950
  167TMC2    C1 2542   4.461   0.573  12.285 -0.6487  0.0168  0.1728
  167TMC2    C2 2543   4.350   0.605  12.365 -0.4379 -0.1536  0.3636
  167TMC2    C3 2544   4.300   0.498  12.439 -0.1080  0.1268  0.0967
  167TMC2    C4 2545   4.510   0.442  12.269  0.9177 -0.1517 -0.1974
  167TMC2    C5 2546   4.457   0.347  12.356 -0.1558 -0.8728  1.0325
  167TMC2    C6 2547   4.356   0.378  12.440  0.3359 -0.4832 -0.0890
  167TMC2     C 2548   4.501   0.679  12.190 -0.0515 -0.0972  0.0944
  167TMC2     O 2549   4.430   0.775  12.180 -0.2379 -0.1609  0.4520
  167TMC2     H 2550   4.299   0.701  12.360  1.9326  1.0901 -0.1290
  167TMC2    H1 2551   4.581   0.420  12.190  0.8034  0.0739 -0.3627
  167TMC2    H2 2552   4.310   0.296  12.493 -1.1994 -0.4984 -1.4620
  167TMC2    C7 2553   4.503   0.214  12.361  0.9070 -0.5100 -0.0934
  167TMC2    C8 2554   4.167   0.494  12.478 -0.3849 -0.2626 -0.1284
  167TMC2    O1 2555   4.442   0.137  12.426 -0.4283 -0.3075 -0.8520
  167TMC2    O2 2556   4.098   0.392  12.458  0.5393 -0.1212  0.3251
  167TMC2    O5 2557   4.116   0.619  12.506 -0.2767  0.4171  0.5337
  167TMC2    H5 2558   4.186   0.686  12.521 -0.2368  0.3489  0.6516
  168MPD2     C 2559   4.600   0.834  11.971 -0.7301  0.3187  0.2532
  168MPD2    C1 2560   4.682   0.754  12.049 -0.3468 -0.3783 -0.7572
  168MPD2    C2 2561   0.097   0.754  12.023 -0.0516  0.4236  0.0807
  168MPD2    C3 2562   0.153   0.829  11.918  0.4568 -0.2922  0.0565
  168MPD2    C4 2563   0.066   0.917  11.852 -0.3282 -0.2411  0.2420
  168MPD2    C5 2564   4.653   0.917  11.874  0.5903  0.1549  0.2638
  168MPD2     H 2565   0.161   0.696  12.088 -0.6128  0.1225  0.3634
  168MPD2    H1 2566   0.102   0.971  11.766  1.3890 -1.5962  0.1253
  168MPD2    H2 2567   4.493   0.839  11.987 -0.4572 -0.4803  2.2652
  168MPD2    H3 2568   4.592   0.992  11.825  0.2262  1.7115  3.1282
  168MPD2     N 2569   0.288   0.829  11.876 -0.2379  0.0656 -0.6220
  168MPD2    H5 2570   0.304   0.920  11.834 -0.6376  0.5116  0.1884
  168MPD2    N1 2571   4.624   0.664  12.140 -0.3862  0.1150 -0.2594
  168MPD2    H7 2572   4.675   0.582  12.172 -1.2157 -0.5168 -0.5502
  169MPD1     C 2573   3.236   3.354   9.753 -0.0516  0.2975  0.4083
  169MPD1    C1 2574   3.127   3.301   9.691  0.4550  0.5212 -0.2338
  169MPD1    C2 2575   3.070   3.375   9.591 -0.5677 -0.3170 -0.2351
  169MPD1    C3 2576   3.114   3.495   9.548 -0.1343 -0.5911  0.3534
  169MPD1    C4 2577   3.230   3.544   9.616 -0.7144  0.6726  0.2253
  169MPD1    C5 2578   3.291   3.477   9.718 -0.0342  0.8168  0.4597
  169MPD1     H 2579   2.973   3.341   9.559 -1.7792 -0.1129  3.2082
  169MPD1    H1 2580   3.282   3.633   9.584 -0.4251 -0.0721 -1.3998
  169MPD1    H2 2581   3.285   3.298   9.832  0.8480 -0.0870 -0.4331
  169MPD1    H3 2582   3.377   3.517   9.771  0.4509 -0.1185  0.3809
  169MPD1     N 2583   3.051   3.558   9.434 -0.2076 -0.3591  0.3925
  169MPD1    H5 2584   2.973   3.510   9.389 -1.4749  0.6770  1.4628
  169MPD1    N1 2585   3.056   3.196   9.748 -0.1585  0.2711  0.2447
  169MPD1    H6 2586   3.125   3.143   9.802  1.5886  1.5457 -0.7426
  169MPD1    H7 2587   3.007   3.132   9.686  1.0832 -1.0661  0.6236
  170MPD1     C 2588   1.477   2.626  13.062 -1.0185 -0.2877 -0.5766
  170MPD1    C1 2589   1.469   2.594  13.194 -0.6237 -0.5676 -0.1086
  170MPD1    C2 2590   1.408   2.688  13.272  0.0682  0.5260 -0.4293
  170MPD1    C3 2591   1.324   2.786  13.229  0.8426 -0.3379  0.7380
  170MPD1    C4 2592   1.317   2.805  13.094  0.9696 -0.7578  0.4006
  170MPD1    C5 2593   1.396   2.724  13.013  0.4001  1.1631 -0.1549
  170MPD1     H 2594   1.417   2.666  13.378  0.2682  0.5083 -0.4485
  170MPD1    H1 2595   1.252   2.882  13.052 -2.5011 -2.9133  1.7697
  170MPD1    H2 2596   1.524   2.565  12.986 -0.4083 -2.9595  1.9806
  170MPD1    H3 2597   1.396   2.749  12.907  1.6245 -2.1201 -0.9277
  170MPD1     N 2598   1.263   2.872  13.322 -0.6426  0.5306 -0.2361
  170MPD1    H5 2599   1.287   2.850  13.418  1.3116  0.9996 -0.6246
  170MPD1    N1 2600   1.551   2.489  13.237 -0.3722  0.6777 -0.4082
  170MPD1    H6 2601   1.547   2.424  13.158 -2.8185 -2.7231  2.5200
  170MPD1    H7 2602   1.508   2.440  13.315  2.2826 -1.3012 -0.2015
  171MPD1     C 2603   0.343   4.497  15.622  0.3228 -0.0309  0.1261
  171MPD1    C1 2604   0.439   4.409  15.666  0.0437 -0.1916 -0.3840
  171MPD1    C2 2605   0.402   4.279  15.706  0.3664 -0.5334 -0.1821
  171MPD1    C3 2606   0.262   4.248  15.704 -0.1835 -0.8024  0.1234
  171MPD1    C4 2607   0.172   4.333  15.645  0.1829 -0.1724  0.1519
  171MPD1    C5 2608   0.211   4.456  15.603 -0.7532  0.7694  0.3408
  171MPD1     H 2609   0.485   4.225  15.748  1.9643  0.9044 -1.5065
  171MPD1    H1 2610   0.070   4.306  15.624 -0.0035 -0.0514  0.9206
  171MPD1    H2 2611   0.376   4.592  15.581 -3.2483  0.8260 -0.7313
  171MPD1    H3 2612   0.139   4.531  15.573 -2.2244 -1.3404 -1.3789
  171MPD1     N 2613   0.217   4.125  15.746 -0.2074 -0.1319  0.3848
  171MPD1    H5 2614   0.117   4.115  15.759 -0.4405  0.3861 -0.9472
  171MPD1    N1 2615   0.570   4.432  15.626  0.7799  0.0136 -0.1613
  171MPD1    H6 2616   0.626   4.372  15.686 -1.4305 -1.9510 -0.0811
  171MPD1    H7 2617   0.602   4.528  15.614 -1.8617  0.9013 -0.1509
  172MPD1     C 2618   3.683   3.068   0.354 -0.5747  0.5938  0.9866
  172MPD1    C1 2619   3.564   3.143   0.337  0.0330  0.2178 -0.0611
  172MPD1    C2 2620   3.539   3.256   0.409  0.0468 -0.3173  0.8868
  172MPD1    C3 2621   3.632   3.291   0.500 -0.4526 -1.0246 -0.2184
  172MPD1    C4 2622   3.744   3.215   0.528 -0.4695  0.2218 -0.4053
  172MPD1    C5 2623   3.771   3.107   0.448 -0.8422  0.0676 -0.0384
  172MPD1     H 2624   3.456   3.323   0.388  2.0367  1.7083 -0.4610
  172MPD1    H1 2625   3.816   3.235   0.607 -0.1189 -0.3327 -0.5844
  172MPD1    H2 2626   3.712   2.982   0.294 -0.2038  1.8830 -0.6647
  172MPD1    H3 2627   3.868   3.063   0.466 -1.3977 -0.9677  0.4387
  172MPD1     N 2628   3.624   3.409   0.580  0.1676  0.0048  0.2992
  172MPD1    H5 2629   3.699   3.419   0.647  0.7277 -0.2698 -0.2788
  172MPD1    N1 2630   3.494   3.127   0.220 -0.1771 -0.0297 -0.6548
  172MPD1    H6 2631   3.502   3.029   0.196  0.4154 -0.2511  0.4588
  172MPD1    H7 2632   3.395   3.139   0.243  0.3782  1.4219  1.0063
  173MPD1     C 2633   0.633   3.359  14.349  0.7825 -0.1136 -0.4563
  173MPD1    C1 2634   0.676   3.232  14.338  0.3173 -0.7659 -0.1740
  173MPD1    C2 2635   0.627   3.141  14.425  0.5378 -0.0780  0.3725
  173MPD1    C3 2636   0.556   3.174  14.532  0.3696 -0.1037 -0.5414
  173MPD1    C4 2637   0.533   3.308  14.556 -0.0126 -0.0878 -0.4396
  173MPD1    C5 2638   0.574   3.403  14.464 -0.4142  0.6236  0.4966
  173MPD1     H 2639   0.636   3.036  14.397 -0.4734 -0.6166  2.0173
  173MPD1    H1 2640   0.482   3.357  14.638  3.1851  0.8185  1.0209
  173MPD1    H2 2641   0.656   3.434  14.273  1.6737  2.5292  2.4173
  173MPD1    H3 2642   0.540   3.505  14.476 -1.0153  0.3592  1.0870
  173MPD1     N 2643   0.510   3.073  14.617 -0.4447  0.0874  0.5583
  173MPD1    H5 2644   0.549   2.981  14.600 -0.8419  0.4268 -2.0821
  173MPD1    N1 2645   0.747   3.193  14.219 -0.3293  0.1353  0.1687
  173MPD1    H6 2646   0.814   3.123  14.251 -1.3329 -0.3968  1.1032
  173MPD1    H7 2647   0.802   3.272  14.184 -1.8470  0.8010 -0.6906
  174MPD1     C 2648   0.438   2.112  14.562 -0.1803 -0.2696  0.2339
  174MPD1    C1 2649   0.502   2.222  14.507  0.5731 -0.0522 -0.3946
  174MPD1    C2 2650   0.508   2.340  14.581  0.6457  0.9095 -0.2546
  174MPD1    C3 2651   0.426   2.355  14.691 -0.1214  0.1267 -0.1965
  174MPD1    C4 2652   0.348   2.248  14.729  0.5221 -0.1629 -0.2176
  174MPD1    C5 2653   0.358   2.128  14.672  1.3290 -0.2072  0.9692
  174MPD1     H 2654   0.567   2.410  14.524  0.3385 -0.1738 -1.8820
  174MPD1    H1 2655   0.282   2.252  14.814 -0.6124 -0.2985 -1.0867
  174MPD1    H2 2656   0.429   2.016  14.512  0.6374 -0.8289  1.1564
  174MPD1    H3 2657   0.298   2.046  14.710  0.7307 -0.3236 -0.2403
  174MPD1     N 2658   0.406   2.484  14.747 -0.2567  0.7833 -0.2257
  174MPD1    H5 2659   0.334   2.485  14.819  1.2750 -0.6646  1.3468
  174MPD1    N1 2660   0.590   2.200  14.394 -0.3665  0.8073 -0.5040
  174MPD1    H6 2661   0.617   2.279  14.336  0.0077  1.9073  1.1595
  174MPD1    H7 2662   0.545   2.131  14.334  0.2154  1.4894 -1.7083
  175MPD1     C 2663   3.164   3.889  15.726 -0.3106  0.6035  0.0600
  175MPD1    C1 2664   3.228   3.808  15.819 -0.1153  0.1906 -0.4382
  175MPD1    C2 2665   3.211   3.843  15.949  0.2003  0.0690  0.2605
  175MPD1    C3 2666   3.158   3.965  15.991  0.1485 -1.0816  0.4607
  175MPD1    C4 2667   3.099   4.039  15.894  0.1010 -0.2537  0.4495
  175MPD1    C5 2668   3.098   4.001  15.765 -0.0837  0.4356 -0.1303
  175MPD1     H 2669   3.246   3.774  16.026 -1.2164  0.0198  0.8640
  175MPD1    H1 2670   3.043   4.130  15.911 -0.9449 -0.9673  0.8154
  175MPD1    H2 2671   3.181   3.881  15.619  1.9767 -0.3872  0.5010
  175MPD1    H3 2672   3.059   4.062  15.684  0.9398  0.3013 -0.7274
  175MPD1     N 2673   3.151   4.013  16.123  0.3908  0.0598 -0.0330
  175MPD1    H5 2674   3.128   4.112  16.127  0.8232  0.1905 -0.9341
  175MPD1    N1 2675   3.279   3.683  15.786 -0.8582  0.0972 -0.1092
  175MPD1    H6 2676   3.316   3.688  15.692  0.3145  1.2333  0.4129
  175MPD1    H7 2677   3.352   3.669  15.856 -0.3346 -0.0973 -0.7023
  176MPD1     C 2678   4.132   0.573  16.554 -0.4089  0.1836  0.0226
  176MPD1    C1 2679   4.057   0.689  16.587  0.3300  0.1901 -0.7303
  176MPD1    C2 2680   4.118   0.780  16.669  0.3147  0.1299 -0.3941
  176MPD1    C3 2681   4.237   0.748  16.737  0.6069 -0.7217 -0.6071
  176MPD1    C4 2682   4.292   0.624  16.720 -0.1162 -0.6007  0.2644
  176MPD1    C5 2683   4.245   0.539  16.626  0.5112 -0.1414 -0.0988
  176MPD1     H 2684   4.067   0.873  16.692 -0.2775 -0.1614 -0.5430
  176MPD1    H1 2685   4.377   0.591  16.779  0.5084  2.8699  1.2888
  176MPD1    H2 2686   4.092   0.503  16.482 -2.2417 -0.5751  1.7600
  176MPD1    H3 2687   4.289   0.442  16.604  0.3417 -0.2704  0.1301
  176MPD1     N 2688   4.294   0.843  16.821 -0.9906 -0.2352  0.1758
  176MPD1    H5 2689   4.232   0.920  16.846 -0.1207  0.2395  0.8876
  176MPD1    N1 2690   3.942   0.712  16.512  0.0147  0.0136  0.0164
  176MPD1    H6 2691   3.873   0.761  16.568 -1.6696 -0.9116 -1.2755
  176MPD1    H7 2692   3.897   0.623  16.493  0.4676  0.4205 -2.9488
  177MPD1     C 2693   3.710   1.239  10.468  0.2067  0.3188  0.7293
  177MPD1    C1 2694   3.721   1.173  10.342 -1.0765 -0.2126 -0.2915
  177MPD1    C2 2695   3.644   1.219  10.239 -0.3666  0.0115  0.4438
  177MPD1    C3 2696   3.558   1.326  10.255 -0.2134 -0.1930  1.2755
  177MPD1    C4 2697   3.551   1.379  10.383  0.1005  0.3855  0.8110
  177MPD1    C5 2698   3.631   1.343  10.481  1.1768 -0.0891  0.0230
  177MPD1     H 2699   3.651   1.175  10.140 -3.3542  0.3098  0.0852
  177MPD1    H1 2700   3.488   1.465  10.401 -0.3036 -0.2367  2.3857
  177MPD1    H2 2701   3.771   1.210  10.553 -0.5768 -0.2642  1.0888
  177MPD1    H3 2702   3.629   1.396  10.576  0.8891 -0.7323  0.3785
  177MPD1     N 2703   3.486   1.379  10.146 -0.5150 -0.0519 -0.2101
  177MPD1    H5 2704   3.485   1.321  10.063 -1.1683 -0.7079  0.2470
  177MPD1    N1 2705   3.795   1.059  10.338 -0.7988 -0.0248  0.2309
  177MPD1    H6 2706   3.860   1.063  10.416 -0.3735 -0.8585 -0.0854
  177MPD1    H7 2707   3.855   1.052  10.256  0.4460  0.5789  1.0910
  178MPD1     C 2708   0.646   1.918   0.652 -0.7774 -1.0028 -0.2642
  178MPD1    C1 2709   0.734   1.820   0.602  0.4637 -0.2673 -0.2286
  178MPD1    C2 2710   0.808   1.844   0.487 -0.3178  0.1569 -0.2580
  178MPD1    C3 2711   0.804   1.968   0.418  0.0331 -0.2218 -0.2486
  178MPD1    C4 2712   0.721   2.064   0.476  0.0598  0.2033 -0.1436
  178MPD1    C5 2713   0.652   2.039   0.595 -0.1254 -0.6133  0.2999
  178MPD1     H 2714   0.879   1.769   0.453 -0.6731  0.3908 -1.5191
  178MPD1    H1 2715   0.707   2.160   0.428  0.7525  0.9522  1.1728
  178MPD1    H2 2716   0.579   1.896   0.733  0.7758 -0.4893  1.1589
  178MPD1    H3 2717   0.595   2.120   0.636  1.0392  0.1390  0.4251
  178MPD1     N 2718   0.863   2.002   0.290 -0.2608  0.1051 -0.1497
  178MPD1    H5 2719   0.838   2.095   0.259 -0.5238 -0.4714 -1.6760
  178MPD1    N1 2720   0.724   1.692   0.650 -0.3482 -0.5551  0.0084
  178MPD1    H6 2721   0.686   1.698   0.744  2.4075  3.2663  0.8220
  178MPD1    H7 2722   0.804   1.634   0.627 -0.6644 -0.3775 -1.5386
  179MPD1     C 2723   0.454   0.781  16.540 -0.5644  0.2254  0.0899
  179MPD1    C1 2724   0.334   0.721  16.551  0.0681  0.0790 -0.3088
  179MPD1    C2 2725   0.302   0.626  16.454 -0.2453 -0.1740  0.5625
  179MPD1    C3 2726   0.395   0.581  16.359 -0.3769 -1.5659  0.3725
  179MPD1    C4 2727   0.516   0.651  16.352 -0.3756 -0.3468 -0.0754
  179MPD1    C5 2728   0.544   0.750  16.436 -0.6895  0.3478 -0.2322
  179MPD1     H 2729   0.200   0.591  16.449 -0.4923  0.3669  1.7755
  179MPD1    H1 2730   0.587   0.623  16.274  0.1452 -0.6966  0.5277
  179MPD1    H2 2731   0.483   0.859  16.610 -3.3114  1.8062 -0.5405
  179MPD1    H3 2732   0.642   0.796  16.430 -1.7760  2.8858  1.3444
  179MPD1     N 2733   0.375   0.475  16.265 -0.0394  0.4840  0.3782
  179MPD1    H5 2734   0.452   0.459  16.202 -1.4472  0.2069 -1.2673
  179MPD1    N1 2735   0.235   0.771  16.636  0.0271 -0.3436 -0.1557
  179MPD1    H6 2736   0.283   0.806  16.718 -1.6219 -1.4467  1.3000
  179MPD1    H7 2737   0.170   0.702  16.675 -0.8412  0.1275 -0.7516
  180MPD1     C 2738   0.494   1.246  15.380 -0.4264 -0.1859 -0.6390
  180MPD1    C1 2739   0.381   1.297  15.319 -0.3623  0.1706 -0.5664
  180MPD1    C2 2740   0.340   1.243  15.195  0.5546  0.6674  0.7708
  180MPD1    C3 2741   0.421   1.150  15.126  0.1221 -0.8811 -0.2139
  180MPD1    C4 2742   0.546   1.122  15.185 -0.7673 -0.0222  0.8001
  180MPD1    C5 2743   0.579   1.162  15.313 -0.4986  0.0805  0.1241
  180MPD1     H 2744   0.246   1.273  15.149 -0.5663 -3.8698  0.1053
  180MPD1    H1 2745   0.620   1.060  15.134 -2.7098 -1.1378 -0.7069
  180MPD1    H2 2746   0.531   1.274  15.478 -0.6027  2.1616 -1.2485
  180MPD1    H3 2747   0.674   1.136  15.359 -1.1499 -0.8199  0.9451
  180MPD1     N 2748   0.364   1.085  15.009 -0.2557  0.8743 -0.1637
  180MPD1    H5 2749   0.275   1.118  14.973 -0.5263 -1.3633 -1.5644
  180MPD1    N1 2750   0.292   1.385  15.384 -0.0094  0.5032 -0.8888
  180MPD1    H6 2751   0.346   1.448  15.443 -0.4295  0.1807 -0.1683
  180MPD1    H7 2752   0.239   1.436  15.313 -0.5589  0.0075 -0.8318
  181MPD1     C 2753   1.871   2.857  10.018 -0.5950 -0.4799  0.2011
  181MPD1    C1 2754   1.847   2.963   9.936  0.0463  0.1524  0.4958
  181MPD1    C2 2755   1.936   2.985   9.832  0.0788 -0.4296  0.5703
  181MPD1    C3 2756   2.047   2.906   9.808 -0.1015 -0.2223 -0.5268
  181MPD1    C4 2757   2.086   2.820   9.912 -0.2753  0.1883  0.0978
  181MPD1    C5 2758   1.992   2.797  10.012 -0.0573  0.2926  0.4494
  181MPD1     H 2759   1.918   3.080   9.782 -0.0063  1.0094  3.3107
  181MPD1    H1 2760   2.174   2.758   9.901 -0.9598 -0.8099  0.2102
  181MPD1    H2 2761   1.807   2.817  10.096 -1.8459 -1.6358 -1.4349
  181MPD1    H3 2762   2.012   2.718  10.083 -0.4014 -1.3839 -1.3191
  181MPD1     N 2763   2.134   2.930   9.698 -0.5293 -0.2948  0.7664
  181MPD1    H5 2764   2.223   2.882   9.708  0.6232  1.4671 -1.1250
  181MPD1    N1 2765   1.731   3.030   9.948 -0.2237 -0.7098 -0.1787
  181MPD1    H6 2766   1.694   3.038  10.043 -0.7082 -1.3295 -0.3145
  181MPD1    H7 2767   1.732   3.120   9.900 -1.0639 -0.6915 -0.1718
  182MPD1     C 2768   3.170   2.081   1.369  0.6434  0.0908  0.0582
  182MPD1    C1 2769   3.118   2.212   1.356  0.3058 -0.4831 -0.1648
  182MPD1    C2 2770   3.055   2.248   1.239 -0.2145  0.8933  0.7973
  182MPD1    C3 2771   3.031   2.153   1.141 -0.1323  0.1432  0.1464
  182MPD1    C4 2772   3.074   2.024   1.163  0.4901  0.6223 -0.5622
  182MPD1    C5 2773   3.142   1.989   1.269 -0.7448 -0.2133 -0.3823
  182MPD1     H 2774   3.034   2.353   1.229  0.6672  1.0868  0.9382
  182MPD1    H1 2775   3.059   1.947   1.088  1.1810 -0.2529  0.2000
  182MPD1    H2 2776   3.218   2.048   1.461  0.3481 -0.2219  0.0994
  182MPD1    H3 2777   3.168   1.884   1.267  0.1371 -0.0009 -0.4161
  182MPD1     N 2778   2.970   2.183   1.011  0.8113 -0.3926 -0.1715
  182MPD1    H5 2779   2.988   2.117   0.936  0.9609  0.0558 -0.5271
  182MPD1    N1 2780   3.149   2.305   1.457  0.1461 -0.4541  0.5793
  182MPD1    H6 2781   3.141   2.262   1.549  1.9876 -1.2932  0.3432
  182MPD1    H7 2782   3.078   2.378   1.452  0.9290  0.3316  0.8138
  183MPD1     C 2783   3.734   4.300   9.659 -0.1865 -0.1629 -0.3222
  183MPD1    C1 2784   3.626   4.211   9.666 -0.1790 -1.0532  0.2609
  183MPD1    C2 2785   3.632   4.080   9.618 -0.0376 -0.7390  0.9649
  183MPD1    C3 2786   3.755   4.036   9.563  0.5724  0.3505  0.6577
  183MPD1    C4 2787   3.870   4.114   9.582  0.8212  0.6847 -0.0205
  183MPD1    C5 2788   3.858   4.246   9.622  0.0585 -0.5069 -0.7567
  183MPD1     H 2789   3.545   4.016   9.622  0.7268 -1.9670 -2.5039
  183MPD1    H1 2790   3.967   4.083   9.544  0.6509 -0.4962  0.5126
  183MPD1    H2 2791   3.718   4.404   9.685  0.8667 -0.1423  0.2393
  183MPD1    H3 2792   3.945   4.311   9.620 -0.1450 -0.2711 -2.0233
  183MPD1     N 2793   3.755   3.907   9.516 -0.0915  0.3547  0.5828
  183MPD1    H5 2794   3.666   3.857   9.520 -0.0010  0.0768 -0.7965
  183MPD1    N1 2795   3.504   4.271   9.703 -0.2211 -0.2113  0.2279
  183MPD1    H6 2796   3.509   4.327   9.788 -2.1894 -2.0706  1.5947
  183MPD1    H7 2797   3.435   4.198   9.722  0.0492 -0.6764 -0.5715
  184MPD1     C 2798   2.466   0.541   9.891 -0.6694  0.3641 -0.2059
  184MPD1    C1 2799   2.455   0.561   9.756 -0.3771  0.3069  0.2289
  184MPD1    C2 2800   2.556   0.635   9.698  0.1958 -0.0898 -0.6674
  184MPD1    C3 2801   2.647   0.714   9.772  0.0078  0.7254  0.0880
  184MPD1    C4 2802   2.637   0.705   9.913  0.3090  0.0242 -0.2945
  184MPD1    C5 2803   2.553   0.613   9.968  0.8003 -0.3426  0.0490
  184MPD1     H 2804   2.567   0.646   9.591 -0.8907 -0.9248 -0.8624
  184MPD1    H1 2805   2.708   0.764   9.969  1.4686  0.0999 -1.8329
  184MPD1    H2 2806   2.397   0.477   9.945  0.1485 -0.4463 -0.1107
  184MPD1    H3 2807   2.553   0.609  10.076 -2.9181 -0.1347  0.0458
  184MPD1     N 2808   2.730   0.815   9.720  0.7541 -0.0199  0.0710
  184MPD1    H5 2809   2.766   0.886   9.783  2.3437 -1.3431  0.6483
  184MPD1    N1 2810   2.352   0.495   9.681  0.3084 -0.2444  0.1513
  184MPD1    H6 2811   2.332   0.547   9.595  0.6420  0.3842  0.4530
  184MPD1    H7 2812   2.382   0.409   9.637 -0.4889  0.7356 -2.2934
  185MPD1     C 2813   3.267   1.212   8.842 -0.3758 -0.6167 -0.1698
  185MPD1    C1 2814   3.162   1.130   8.841  0.5650  0.3583  0.4207
  185MPD1    C2 2815   3.094   1.102   8.959  1.6541 -0.2527 -0.4959
  185MPD1    C3 2816   3.126   1.171   9.082  0.2120 -0.0541  1.6046
  185MPD1    C4 2817   3.229   1.256   9.082 -0.4819  0.2928 -1.0673
  185MPD1    C5 2818   3.297   1.271   8.964  0.2590  0.2598 -0.3021
  185MPD1     H 2819   3.022   1.021   8.957  0.5517  0.7503 -1.2975
  185MPD1    H1 2820   3.257   1.315   9.169  0.5885 -1.0492 -0.4981
  185MPD1    H2 2821   3.347   1.219   8.769  0.2839  1.1989  0.7060
  185MPD1    H3 2822   3.388   1.331   8.967 -0.4069  1.1960  0.8036
  185MPD1     N 2823   3.060   1.147   9.202 -0.2731 -0.3975  0.3724
  185MPD1    H5 2824   3.088   1.208   9.278  0.1087 -1.5696  1.1682
  185MPD1    N1 2825   3.143   1.043   8.733 -0.0423  0.6238  0.1337
  185MPD1    H6 2826   3.048   1.027   8.700  0.7415  1.2614 -2.4956
  185MPD1    H7 2827   3.183   1.080   8.646 -0.3342  0.9065  0.1186
  186MPD1     C 2828   0.962   0.290  15.905 -0.7085  0.1104  0.1714
  186MPD1    C1 2829   0.976   0.273  16.047 -0.2362 -0.6953 -0.0044
  186MPD1    C2 2830   1.030   0.375  16.118  0.1648 -0.3963  0.2276
  186MPD1    C3 2831   1.046   0.502  16.062  0.8215  0.6563  0.0644
  186MPD1    C4 2832   1.024   0.521  15.927  0.0284  0.2604 -0.2172
  186MPD1    C5 2833   0.986   0.413  15.848 -0.9198 -0.0123  0.2095
  186MPD1     H 2834   1.043   0.357  16.224 -1.1021 -0.6735  0.3351
  186MPD1    H1 2835   1.024   0.621  15.886 -1.3600  1.3517  2.4142
  186MPD1    H2 2836   0.921   0.211  15.843  1.4908  0.1331 -1.3253
  186MPD1    H3 2837   0.970   0.426  15.742  1.8345  0.7661 -0.1133
  186MPD1     N 2838   1.078   0.619  16.139  0.8877  0.0160 -0.1787
  186MPD1    H5 2839   1.119   0.700  16.094  2.2402  0.0253  1.0686
  186MPD1    N1 2840   0.975   0.142  16.110 -0.1956  0.4322 -0.2354
  186MPD1    H6 2841   0.963   0.140  16.211  2.8202  2.8103  0.1579
  186MPD1    H7 2842   0.893   0.097  16.069 -2.1726 -0.1864  4.4264
  187MPD1     C 2843   4.586   2.199   0.838 -0.3598  0.3852  0.3034
  187MPD1    C1 2844   4.651   2.319   0.825 -0.3213  0.0603  0.0404
  187MPD1    C2 2845   4.676   2.361   0.696  0.2562 -0.2900 -0.5928
  187MPD1    C3 2846   4.652   2.278   0.590  0.1365  1.1549  0.3781
  187MPD1    C4 2847   4.580   2.160   0.603 -0.9369  0.5191  0.4179
  187MPD1    C5 2848   4.554   2.119   0.732 -0.6746 -0.3032 -0.0234
  187MPD1     H 2849   0.005   2.454   0.669 -1.9141  0.7340 -0.9826
  187MPD1    H1 2850   4.536   2.105   0.521  0.9244 -0.2047 -0.0984
  187MPD1    H2 2851   4.552   2.164   0.935 -1.3526 -0.0568 -0.2062
  187MPD1    H3 2852   4.496   2.029   0.750  0.3882 -0.8405  0.7602
  187MPD1     N 2853   4.682   2.315   0.454 -0.4563 -0.3139  0.8183
  187MPD1    H5 2854   4.667   2.239   0.389 -0.3629  1.4684 -1.2651
  187MPD1    N1 2855   4.651   2.410   0.933  0.1698 -0.1872 -0.1511
  187MPD1    H6 2856   4.665   2.374   1.027  1.4388 -0.5613 -0.4903
  187MPD1    H7 2857   4.719   2.485   0.921 -1.5686  1.3296 -0.5162
  188MPD1     C 2858   0.220   2.237   9.808  0.0077 -0.1202 -0.1132
  188MPD1    C1 2859   0.254   2.156   9.916  1.0369 -0.3870 -0.0489
  188MPD1    C2 2860   0.285   2.022   9.898 -0.4064 -0.1149  0.2291
  188MPD1    C3 2861   0.259   1.960   9.773  0.7358  1.2039  0.3042
  188MPD1    C4 2862   0.216   2.042   9.672  0.2600  0.0764 -0.3634
  188MPD1    C5 2863   0.211   2.178   9.688  0.1580 -0.4450  0.2128
  188MPD1     H 2864   0.315   1.965   9.985  2.4151  0.4168 -0.3976
  188MPD1    H1 2865   0.214   2.007   9.569 -1.4557 -0.9393  0.0109
  188MPD1    H2 2866   0.194   2.342   9.820 -1.1079 -0.1265 -2.5824
  188MPD1    H3 2867   0.202   2.243   9.602 -0.3932  1.1433  1.4542
  188MPD1     N 2868   0.283   1.822   9.748  0.2333  0.2228  0.2914
  188MPD1    H5 2869   0.258   1.790   9.655 -2.9201  1.7121  0.6096
  188MPD1    N1 2870   0.277   2.218  10.039 -0.0784  0.2871 -0.1309
  188MPD1    H6 2871   0.279   2.150  10.115  1.0503  1.0654  0.5384
  188MPD1    H7 2872   0.214   2.295  10.059  0.6918  0.5845  1.1352
  189MPD1     C 2873   1.760   2.203  17.530 -0.5997 -0.3577  0.5266
  189MPD1    C1 2874   1.639   2.147  17.504 -0.1687 -0.2027 -0.5909
  189MPD1    C2 2875   1.538   2.234  17.479  0.2036 -0.1784  0.1823
  189MPD1    C3 2876   1.559   2.379  17.478  0.6585 -0.0477  0.2057
  189MPD1    C4 2877   1.682   2.431  17.493  0.3389 -0.2641  0.0726
  189MPD1    C5 2878   1.775   2.338  17.512  0.4803 -0.2540 -0.2304
  189MPD1     H 2879   1.436   2.200  17.467  0.1187 -0.3520  1.4701
  189MPD1    H1 2880   1.718   2.533  17.487  1.9738 -0.8760 -0.3715
  189MPD1    H2 2881   1.856   2.152  17.530 -0.3512  0.1004 -0.5189
  189MPD1    H3 2882   1.881   2.360  17.522  0.4323  0.0129 -0.3048
  189MPD1     N 2883   1.448   2.468  17.461  0.0774 -0.4002 -0.6311
  189MPD1    H5 2884   1.360   2.421  17.447 -0.4088  0.0061  1.1201
  189MPD1    N1 2885   1.628   2.005  17.491  0.2383 -0.3884 -0.5643
  189MPD1    H6 2886   1.531   1.983  17.513 -0.1963  0.5618 -1.5213
  189MPD1    H7 2887   1.681   1.961  17.566  0.7478 -0.1821 -0.8058
  190MPD1     C 2888   4.678   1.619  15.754 -0.5147 -0.4081 -0.0501
  190MPD1    C1 2889   0.033   1.690  15.849 -0.2232 -0.2156 -0.5035
  190MPD1    C2 2890   0.171   1.704  15.822 -0.0996  0.2385  0.2366
  190MPD1    C3 2891   0.236   1.643  15.721 -0.2354  0.1678  0.1810
  190MPD1    C4 2892   0.153   1.589  15.617 -0.5125 -0.0857 -0.4954
  190MPD1    C5 2893   0.016   1.577  15.637 -0.0250 -1.5870 -0.2679
  190MPD1     H 2894   0.222   1.746  15.908  1.8706  0.7628 -1.1749
  190MPD1    H1 2895   0.187   1.552  15.521  0.6264  1.3223 -0.6366
  190MPD1    H2 2896   4.570   1.610  15.759 -0.3430 -1.3313  2.1923
  190MPD1    H3 2897   4.677   1.533  15.557 -1.7544 -1.8842  1.1841
  190MPD1     N 2898   0.374   1.661  15.723  0.0210 -0.7313 -0.8710
  190MPD1    H5 2899   0.415   1.688  15.812 -1.4605  1.7476 -0.9523
  190MPD1    N1 2900   4.702   1.714  15.978  0.4853  0.2419 -0.4911
  190MPD1    H6 2901   4.601   1.729  15.983  0.2913 -1.2687  0.2338
  190MPD1    H7 2902   0.034   1.796  16.006  1.0543 -0.0661 -0.6472
  191MPD1     C 2903   4.640   3.664  12.965 -0.4555  1.2698 -0.4346
  191MPD1    C1 2904   4.580   3.766  12.896 -0.0042  0.0227  0.2359
  191MPD1    C2 2905   4.627   3.788  12.767 -0.4283  0.1012  0.3271
  191MPD1    C3 2906   0.028   3.743  12.715 -0.2435  0.4697  0.2605
  191MPD1    C4 2907   0.097   3.655  12.798  0.2117 -0.2648  0.0585
  191MPD1    C5 2908   0.044   3.618  12.921 -0.1372 -0.3177 -0.4643
  191MPD1     H 2909   4.565   3.849  12.702  1.1992 -1.6602 -2.9108
  191MPD1    H1 2910   0.198   3.624  12.776 -0.3544 -0.3924 -2.3122
  191MPD1    H2 2911   4.611   3.634  13.065 -0.7393 -1.9734 -1.4957
  191MPD1    H3 2912   0.104   3.551  12.982  1.0084 -0.7876 -2.1070
  191MPD1     N 2913   0.050   3.780  12.583  0.1593  0.5282  0.8280
  191MPD1    H5 2914   4.702   3.840  12.538  0.3675 -0.1463 -0.3814
  191MPD1    N1 2915   4.459   3.823  12.943 -0.3655  0.2380 -0.1670
  191MPD1    H6 2916   4.445   3.825  13.043  0.5514  1.6960 -0.0599
  191MPD1    H7 2917   4.427   3.909  12.898  2.0789  1.5771  0.6753
  192MPD1     C 2918   4.168   3.936  12.056  0.5576  0.3094  0.1107
  192MPD1    C1 2919   4.262   3.966  11.961  0.2582 -0.0185 -0.5812
  192MPD1    C2 2920   4.396   3.956  11.998  0.1558  1.0596 -0.0127
  192MPD1    C3 2921   4.431   3.922  12.124 -0.0556 -0.6482 -0.1572
  192MPD1    C4 2922   4.332   3.897  12.221 -0.2442  0.1898 -0.4419
  192MPD1    C5 2923   4.198   3.897  12.186 -1.1929 -0.5105 -0.1208
  192MPD1     H 2924   4.473   3.969  11.922 -1.9209  3.0068 -1.7637
  192MPD1    H1 2925   4.367   3.861  12.316  2.8478  1.8712 -0.9425
  192MPD1    H2 2926   4.062   3.937  12.031  0.0347 -0.3592  2.3219
  192MPD1    H3 2927   4.122   3.875  12.260  0.5162 -1.9346  1.2129
  192MPD1     N 2928   4.564   3.899  12.174  0.0352  0.2676 -0.9846
  192MPD1    H5 2929   4.567   3.872  12.271  1.4611  1.8374 -0.5835
  192MPD1    N1 2930   4.220   3.975  11.820 -0.7501 -0.0898  0.0633
  192MPD1    H6 2931   4.130   4.023  11.821 -0.7736 -0.1172 -0.4874
  192MPD1    H7 2932   4.283   4.039  11.773 -1.7692 -0.2796 -1.5494
  193MPD1     C 2933   4.205   3.624  16.270 -0.1850 -0.6170 -0.6919
  193MPD1    C1 2934   4.160   3.640  16.395 -0.2238 -0.4895 -0.4845
  193MPD1    C2 2935   4.231   3.722  16.484 -0.5724  0.2725  0.6024
  193MPD1    C3 2936   4.340   3.799  16.438 -0.2258 -0.5505 -0.1240
  193MPD1    C4 2937   4.391   3.765  16.311 -0.4719  0.5985 -0.2254
  193MPD1    C5 2938   4.319   3.686  16.224 -0.2268 -0.3242 -0.1237
  193MPD1     H 2939   4.198   3.731  16.587  0.3586 -0.6907  0.9912
  193MPD1    H1 2940   4.481   3.809  16.270 -0.1205  0.8584  0.8196
  193MPD1    H2 2941   4.153   3.558  16.202  0.1097 -0.5812 -0.9504
  193MPD1    H3 2942   4.350   3.678  16.121  0.8407 -0.1699  0.1907
  193MPD1     N 2943   4.425   3.875  16.521 -0.8496 -0.0582 -0.4511
  193MPD1    H5 2944   4.510   3.913  16.481 -0.0579 -0.9562  0.3532
  193MPD1    N1 2945   4.050   3.562  16.438 -0.0867 -0.3147 -0.1135
  193MPD1    H6 2946   3.992   3.556  16.355  3.4386 -0.8393 -2.5459
  193MPD1    H7 2947   3.997   3.612  16.509 -1.9475 -0.2585 -1.5581
  194MPD1     C 2948   2.097   1.577  16.436 -0.0228 -0.1444  0.1794
  194MPD1    C1 2949   2.046   1.593  16.565 -1.0643  0.2219 -0.5094
  194MPD1    C2 2950   2.045   1.491  16.659  0.6028  0.3568 -0.2372
  194MPD1    C3 2951   2.052   1.362  16.612 -0.2644 -0.6222 -0.2034
  194MPD1    C4 2952   2.085   1.335  16.480  0.6213 -0.3442  0.7404
  194MPD1    C5 2953   2.116   1.443  16.403  0.1375  0.3841  0.1027
  194MPD1     H 2954   2.021   1.517  16.761 -0.1112  0.4176 -0.4189
  194MPD1    H1 2955   2.113   1.239  16.439 -1.5806 -0.7660  0.2781
  194MPD1    H2 2956   2.130   1.661  16.376  0.1139  0.7431  1.4910
  194MPD1    H3 2957   2.158   1.410  16.308  0.8995  1.7128 -0.0191
  194MPD1     N 2958   2.040   1.249  16.698 -0.4935 -0.2837  0.1791
  194MPD1    H5 2959   2.064   1.158  16.663 -0.2035 -0.8797  1.9376
  194MPD1    N1 2960   2.035   1.729  16.609  0.0467  0.4673  0.3001
  194MPD1    H6 2961   1.999   1.795  16.540 -2.1435 -0.9158  0.1188
  194MPD1    H7 2962   1.973   1.733  16.689  0.3499 -0.6932  0.5928
  195MPD1     C 2963   3.960   2.491   0.049 -0.2622 -0.9459 -0.2505
  195MPD1    C1 2964   4.097   2.472   0.058  0.3023 -0.7932 -0.2799
  195MPD1    C2 2965   4.143   2.347   0.107 -0.0790  1.0417 -0.7582
  195MPD1    C3 2966   4.052   2.246   0.129  0.3385 -0.1849 -0.6564
  195MPD1    C4 2967   3.920   2.269   0.100 -0.6496 -0.0600 -0.8978
  195MPD1    C5 2968   3.870   2.391   0.062 -0.4929 -0.5355 -0.6171
  195MPD1     H 2969   4.247   2.324   0.129 -0.2427  0.5322 -0.5206
  195MPD1    H1 2970   3.845   2.191   0.111 -1.0270  0.7021  2.0438
  195MPD1    H2 2971   3.926   2.593   0.035  1.6463 -0.2391  0.2716
  195MPD1    H3 2972   3.764   2.414   0.053 -0.5149 -0.6672 -0.6959
  195MPD1     N 2973   4.095   2.124   0.176 -0.2908  0.7785 -0.0988
  195MPD1    H5 2974   4.028   2.047   0.172 -1.2999  1.7955 -2.6628
  195MPD1    N1 2975   4.188   2.575   0.065 -0.0888 -0.3661 -0.2798
  195MPD1    H6 2976   4.153   2.649   0.004 -0.2599  0.3088  0.6385
  195MPD1    H7 2977   4.282   2.554   0.032 -0.2463 -0.6912 -0.5249
  196MPD1     C 2978   3.439   1.296   0.448 -1.1439  0.0033 -0.1439
  196MPD1    C1 2979   3.456   1.408   0.375 -1.0103  0.1053  0.3013
  196MPD1    C2 2980   3.522   1.517   0.431  0.3455 -0.4965 -0.5402
  196MPD1    C3 2981   3.549   1.530   0.566 -0.4603  0.1667  0.0914
  196MPD1    C4 2982   3.508   1.421   0.649 -0.5399  0.0655  0.3107
  196MPD1    C5 2983   3.469   1.305   0.582  0.4574  0.7600 -0.1715
  196MPD1     H 2984   3.545   1.596   0.360  0.2724  0.0485  0.0335
  196MPD1    H1 2985   3.528   1.417   0.755  0.0707  0.6987  0.2222
  196MPD1    H2 2986   3.409   1.200   0.409 -0.5706  0.4226 -1.6022
  196MPD1    H3 2987   3.448   1.219   0.645  0.6066  0.8431 -0.0075
  196MPD1     N 2988   3.618   1.641   0.630  0.4897 -0.5548 -0.4568
  196MPD1    H5 2989   3.617   1.641   0.732  0.9203 -0.2024 -0.4516
  196MPD1    N1 2990   3.452   1.405   0.234 -0.5546  0.4271 -0.0867
  196MPD1    H6 2991   3.433   1.496   0.193  1.5844  0.8988 -0.0173
  196MPD1    H7 2992   3.369   1.351   0.209  1.2234 -0.9117 -3.0915
  197MPD1     C 2993   3.924   4.530   0.266  0.3022 -0.3195 -0.0035
  197MPD1    C1 2994   3.902   4.654   0.210 -0.0044 -0.7785  0.1274
  197MPD1    C2 2995   3.784   4.674   0.148 -0.4837  0.3258 -0.2626
  197MPD1    C3 2996   3.676   4.588   0.159 -0.3167  0.2913  0.0477
  197MPD1    C4 2997   3.704   4.458   0.200 -1.0394  0.2397  0.1991
  197MPD1    C5 2998   3.828   4.433   0.253 -0.2075  0.0316 -0.2017
  197MPD1     H 2999   3.774   0.055   0.109 -0.2975 -0.1564 -1.5634
  197MPD1    H1 3000   3.631   4.378   0.203 -2.0502  1.1233 -0.7981
  197MPD1    H2 3001   4.015   4.511   0.322  0.2684 -0.4129  0.0202
  197MPD1    H3 3002   3.862   4.337   0.289  0.4328  0.4899  0.4332
  197MPD1     N 3003   3.547   4.623   0.126 -0.1142 -0.9334 -0.3665
  197MPD1    H5 3004   3.476   4.552   0.112 -0.1646 -0.2921 -3.2742
  197MPD1    N1 3005   4.001   0.038   0.226  1.0101  0.7298 -0.6076
  197MPD1    H6 3006   4.011   0.103   0.148 -1.3784 -0.2383 -1.7059
  197MPD1    H7 3007   4.093   0.013   0.261  0.6890 -0.1508 -0.3980
  198MPD1     C 3008   0.377   3.429  16.025  0.4115 -0.2683 -0.1109
  198MPD1    C1 3009   0.477   3.434  15.930  0.0629  0.5305 -0.1509
  198MPD1    C2 3010   0.607   3.412  15.968 -0.1763 -0.1730 -0.3738
  198MPD1    C3 3011   0.635   3.355  16.091 -0.8105 -0.0860 -0.2087
  198MPD1    C4 3012   0.532   3.334  16.184  0.3104  0.7578 -0.3888
  198MPD1    C5 3013   0.411   3.386  16.150 -0.1597 -0.0500  0.3011
  198MPD1     H 3014   0.686   3.447  15.903  1.4660 -4.5855 -0.7698
  198MPD1    H1 3015   0.546   3.297  16.285 -2.2396  1.2729  0.1407
  198MPD1    H2 3016   0.275   3.462  16.014  0.3684 -0.4806 -0.3454
  198MPD1    H3 3017   0.332   3.381  16.224 -0.7785  2.7582 -0.1669
  198MPD1     N 3018   0.762   3.309  16.130 -0.5423 -0.0498 -0.4885
  198MPD1    H5 3019   0.836   3.337  16.066 -0.8541  0.7286 -0.5011
  198MPD1    N1 3020   0.444   3.514  15.820 -0.1852 -0.0552 -0.6173
  198MPD1    H6 3021   0.507   3.507  15.741  0.4539 -0.3786 -0.0710
  198MPD1    H7 3022   0.352   3.508  15.776  0.2818  0.5140 -1.6800
  199MPD1     C 3023   1.674   2.503   9.081  0.3184  0.2585  0.7792
  199MPD1    C1 3024   1.744   2.554   8.976 -0.3220  0.3956  0.1125
  199MPD1    C2 3025   1.821   2.668   9.001  0.6662  0.1137 -0.0065
  199MPD1    C3 3026   1.812   2.732   9.126 -0.2618  0.3978  0.2979
  199MPD1    C4 3027   1.720   2.690   9.225 -0.6324 -0.5790  0.0874
  199MPD1    C5 3028   1.653   2.573   9.203  0.1774  0.1376 -0.0089
  199MPD1     H 3029   1.891   2.710   8.929  1.2530 -2.0832 -0.7169
  199MPD1    H1 3030   1.694   2.744   9.316 -1.7500 -0.2882 -0.4122
  199MPD1    H2 3031   1.623   2.409   9.072  2.1683 -0.8343  1.5468
  199MPD1    H3 3032   1.576   2.543   9.273  2.2700 -0.4118  2.0300
  199MPD1     N 3033   1.879   2.854   9.158 -0.1205  0.1157  0.3622
  199MPD1    H5 3034   1.839   2.900   9.239 -0.3741  1.3197 -0.4407
  199MPD1    N1 3035   1.757   2.477   8.858  0.4890  0.3178  0.1762
  199MPD1    H6 3036   1.775   2.531   8.773 -2.2740 -1.5514 -1.5971
  199MPD1    H7 3037   1.667   2.429   8.849  0.5470  0.0269  1.2167
  200MPD1     C 3038   1.390   4.506  15.294  0.0555  0.5894  0.8049
  200MPD1    C1 3039   1.440   4.514  15.166  0.5834 -0.1027  0.6921
  200MPD1    C2 3040   1.435   4.397  15.095 -0.8995 -0.1229 -0.3937
  200MPD1    C3 3041   1.375   4.286  15.139 -0.0632 -0.2148  0.7917
  200MPD1    C4 3042   1.307   4.288  15.261 -0.1848 -0.1777  0.7290
  200MPD1    C5 3043   1.318   4.400  15.338 -0.0185  0.4515 -0.0675
  200MPD1     H 3044   1.474   4.410  14.995  0.7471  0.8511  0.3686
  200MPD1    H1 3045   1.259   4.201  15.303  0.9118 -0.8245  0.6358
  200MPD1    H2 3046   1.402   4.582  15.371  1.4655  1.9294 -0.7216
  200MPD1    H3 3047   1.279   4.397  15.438  0.3831  0.6226  0.0957
  200MPD1     N 3048   1.385   4.183  15.041  0.1755 -0.3676 -0.4805
  200MPD1    H5 3049   1.428   4.197  14.950  2.8901 -0.6020  0.7742
  200MPD1    N1 3050   1.514   4.629  15.119  0.0263 -0.1080 -0.0723
  200MPD1    H6 3051   1.468   4.716  15.144 -2.7989 -1.8083  0.6958
  200MPD1    H7 3052   1.543   4.620  15.022 -0.7276 -0.3564 -0.2746
  201MPD1     C 3053   3.460   2.850  13.634  0.8212  0.0222  0.0283
  201MPD1    C1 3054   3.432   2.747  13.545 -0.0977 -0.5045 -0.0077
  201MPD1    C2 3055   3.531   2.680  13.493 -0.2547 -0.2327  0.1749
  201MPD1    C3 3056   3.658   2.689  13.540 -0.1873  0.7243 -0.4168
  201MPD1    C4 3057   3.682   2.771  13.643  0.2727 -0.2282 -0.5545
  201MPD1    C5 3058   3.587   2.857  13.687  0.1374  0.2872  0.8533
  201MPD1     H 3059   3.505   2.600  13.424  1.3285 -2.6102  2.3356
  201MPD1    H1 3060   3.781   2.773  13.686  0.7130  0.3787 -1.6017
  201MPD1    H2 3061   3.379   2.906  13.680 -1.1330 -3.0916  0.3721
  201MPD1    H3 3062   3.616   2.922  13.769 -0.8275 -0.0829  1.4918
  201MPD1     N 3063   3.754   2.598  13.491 -0.1962 -0.2164 -0.3924
  201MPD1    H5 3064   3.725   2.531  13.419 -2.7211  1.8341 -1.2857
  201MPD1    N1 3065   3.310   2.738  13.485 -0.0011 -0.4087 -0.0921
  201MPD1    H6 3066   3.287   2.640  13.469 -3.0952 -0.4815  4.5385
  201MPD1    H7 3067   3.241   2.782  13.546  1.1250  2.3644 -0.8247
  202MPD1     C 3068   3.567   2.562   9.067  0.4107 -0.8873 -0.4521
  202MPD1    C1 3069   3.587   2.434   9.106 -0.1457  0.3195  0.4454
  202MPD1    C2 3070   3.670   2.411   9.219  0.1260 -0.2670 -0.2238
  202MPD1    C3 3071   3.729   2.518   9.287  0.6336 -0.0663  0.7675
  202MPD1    C4 3072   3.706   2.644   9.236  1.0235  0.0784 -0.6276
  202MPD1    C5 3073   3.620   2.669   9.132 -0.2601 -0.0832 -0.0962
  202MPD1     H 3074   3.709   2.310   9.225  1.5054  0.3326  1.0517
  202MPD1    H1 3075   3.750   2.727   9.290  1.7653  0.0307 -1.1658
  202MPD1    H2 3076   3.511   2.585   8.977 -0.3808  1.7106  0.7093
  202MPD1    H3 3077   3.608   2.772   9.102  0.8135  1.2502  4.1453
  202MPD1     N 3078   3.824   2.502   9.398  0.4423 -0.4016 -0.3399
  202MPD1    H5 3079   3.873   2.589   9.418 -1.1402  0.7468 -1.4179
  202MPD1    N1 3080   3.561   2.329   9.010  0.6834  0.4333  0.0759
  202MPD1    H6 3081   3.577   2.234   9.043  1.8518  0.8139  0.6032
  202MPD1    H7 3082   3.469   2.332   8.966  0.9727  1.2402 -0.4757
  203MPD1     C 3083   1.679   2.115  11.868  0.0751  0.2788  0.4309
  203MPD1    C1 3084   1.635   2.091  11.995  0.6391  0.5199  0.5036
  203MPD1    C2 3085   1.687   2.176  12.095  0.3388 -0.0399  0.0944
  203MPD1    C3 3086   1.761   2.289  12.061  0.2300 -0.0522  1.1218
  203MPD1    C4 3087   1.785   2.321  11.930  0.0849  0.0498  0.2710
  203MPD1    C5 3088   1.741   2.236  11.831  0.4672  0.2196 -0.2818
  203MPD1     H 3089   1.668   2.154  12.199 -0.3834 -1.8453 -0.4316
  203MPD1    H1 3090   1.832   2.415  11.902  0.5985 -0.5117 -0.7627
  203MPD1    H2 3091   1.644   2.058  11.783 -1.8171  0.6430  0.9785
  203MPD1    H3 3092   1.758   2.256  11.725  0.7219  1.1550 -0.0646
  203MPD1     N 3093   1.802   2.371  12.167  0.2444  0.0108 -0.0715
  203MPD1    H5 3094   1.786   2.336  12.261  1.2334 -2.0949 -0.6827
  203MPD1    N1 3095   1.573   1.968  12.037 -0.0690  0.7387 -0.0581
  203MPD1    H6 3096   1.493   1.944  11.979  2.9556 -0.9309 -3.5257
  203MPD1    H7 3097   1.540   1.973  12.133  0.4483  0.2107  0.1437
  204MPD1     C 3098   1.195   3.991   0.086 -0.6045  0.5203  0.5946
  204MPD1    C1 3099   1.286   3.910   0.155 -1.0944  0.0744  0.0027
  204MPD1    C2 3100   1.404   3.889   0.096  0.2715  0.0675  0.4539
  204MPD1    C3 3101   1.435   3.920  17.647  0.6459 -0.3280 -0.5720
  204MPD1    C4 3102   1.343   3.982  17.575  0.4392 -0.0941  0.1654
  204MPD1    C5 3103   1.228   4.017  17.636 -0.0317  0.3619  0.6568
  204MPD1     H 3104   1.485   3.837   0.145  1.8722  1.4583 -0.7540
  204MPD1    H1 3105   1.342   3.997  17.468 -1.9008  1.7948  0.4676
  204MPD1    H2 3106   1.104   4.031   0.129 -0.8227 -0.1105  0.7211
  204MPD1    H3 3107   1.153   4.072  17.581  1.3950  1.5628 -0.0905
  204MPD1     N 3108   1.556   3.879  17.590 -0.1554  0.2166 -0.5427
  204MPD1    H5 3109   1.614   3.827  17.655 -2.2601 -0.1779  1.0031
  204MPD1    N1 3110   1.269   3.895   0.291 -0.0431 -0.2504  0.0405
  204MPD1    H6 3111   1.178   3.886   0.336  0.0204  3.2210  0.8365
  204MPD1    H7 3112   1.326   3.818   0.328  0.0892  0.0547  0.4746
  205MPD1     C 3113   2.533   2.916  16.553 -0.4522  0.3716 -0.1143
  205MPD1    C1 3114   2.553   2.797  16.624 -0.0268  0.0431 -0.0561
  205MPD1    C2 3115   2.504   2.795  16.758 -0.0703 -0.5330  0.1886
  205MPD1    C3 3116   2.432   2.904  16.811 -0.3235  0.3556  0.8883
  205MPD1    C4 3117   2.406   3.012  16.740 -0.3085 -0.4916 -0.1708
  205MPD1    C5 3118   2.465   3.025  16.615  0.1683  0.3832  0.9230
  205MPD1     H 3119   2.522   2.705  16.816 -0.0421  0.1709  1.2567
  205MPD1    H1 3120   2.354   3.099  16.779  0.4354 -0.0917 -0.0684
  205MPD1    H2 3121   2.563   2.918  16.449 -0.7525  0.3276 -0.2012
  205MPD1    H3 3122   2.454   3.117  16.558 -0.1759 -1.2321 -1.6258
  205MPD1     N 3123   2.377   2.900  16.947 -0.1644 -0.3023 -0.2920
  205MPD1    H5 3124   2.344   2.988  16.983  0.0125 -0.4255  0.1674
  205MPD1    N1 3125   2.636   2.695  16.567  0.6158 -0.1034  0.7375
  205MPD1    H6 3126   2.658   2.623  16.635  0.0029 -1.3134 -0.3568
  205MPD1    H7 3127   2.721   2.726  16.521  0.2107  3.8914  2.6720
  206MPD1     C 3128   2.573   0.601  16.527 -0.4045 -0.8361 -0.6004
  206MPD1    C1 3129   2.499   0.713  16.570  0.0413  0.7115 -0.1195
  206MPD1    C2 3130   2.457   0.799  16.472 -0.3452  0.0382  0.0421
  206MPD1    C3 3131   2.474   0.776  16.337 -1.1740 -0.7567  0.3742
  206MPD1    C4 3132   2.549   0.667  16.297 -0.3495 -0.5226  0.1423
  206MPD1    C5 3133   2.583   0.578  16.391  0.5193  1.0297 -0.2742
  206MPD1     H 3134   2.392   0.880  16.504  1.0213  1.2085 -0.1772
  206MPD1    H1 3135   2.565   0.648  16.192  1.1195  1.4116  0.0190
  206MPD1    H2 3136   2.627   0.534  16.594 -2.2699 -1.2551  0.4981
  206MPD1    H3 3137   2.614   0.479  16.359  1.1529  1.5349 -1.2312
  206MPD1     N 3138   2.412   0.851  16.232 -1.0703  0.1475 -0.2400
  206MPD1    H5 3139   2.430   0.823  16.136  0.1265  1.9397 -0.5461
  206MPD1    N1 3140   2.490   0.735  16.710 -0.1827  0.2507 -0.1029
  206MPD1    H6 3141   2.489   0.649  16.764  0.2662  0.1013 -0.3299
  206MPD1    H7 3142   2.422   0.798  16.751 -1.2933 -1.4611  0.6779
  207MPD1     C 3143   0.112   3.860   9.717  0.4809 -0.5848 -0.1205
  207MPD1    C1 3144   0.052   3.760   9.784  1.1319  0.0074  0.2810
  207MPD1    C2 3145   0.094   3.714   9.910 -0.6071 -0.3395 -0.7795
  207MPD1    C3 3146   0.192   3.783   9.979 -0.7704  0.5126  0.4937
  207MPD1    C4 3147   0.255   3.879   9.909 -0.0823 -0.2899 -0.0978
  207MPD1    C5 3148   0.215   3.920   9.782  0.1705  0.5863  0.6046
  207MPD1     H 3149   0.048   3.624   9.950 -1.4242  0.0185 -0.9153
  207MPD1    H1 3150   0.337   3.939   9.946 -0.0590 -0.4895  0.1753
  207MPD1    H2 3151   0.092   3.886   9.613 -0.0097  0.4449  0.2299
  207MPD1    H3 3152   0.263   3.997   9.725 -0.9887  1.0632  0.2745
  207MPD1     N 3153   0.244   3.743  10.107 -0.3062 -0.5334  1.1740
  207MPD1    H5 3154   0.335   3.783  10.127 -0.3144  0.2546 -0.4359
  207MPD1    N1 3155   4.680   3.672   9.716 -0.1015 -0.2940 -0.5155
  207MPD1    H6 3156   4.627   3.711   9.638 -0.5477  2.4974  1.1948
  207MPD1    H7 3157   4.617   3.633   9.785  0.7393  0.0565  0.4434
  208MPD1     C 3158   2.995   2.114  16.777  0.7736 -0.7396  0.2946
  208MPD1    C1 3159   2.874   2.050  16.786 -0.2405  0.2483 -0.0489
  208MPD1    C2 3160   2.824   2.026  16.916  0.4982  0.1520 -0.3552
  208MPD1    C3 3161   2.892   2.069  17.032 -0.1353  0.0564 -0.2171
  208MPD1    C4 3162   3.004   2.157  17.017 -0.1376 -0.8269  0.1667
  208MPD1    C5 3163   3.052   2.176  16.889  0.1290 -0.6131 -0.0588
  208MPD1     H 3164   2.731   1.970  16.924 -0.1980  1.2186 -1.0239
  208MPD1    H1 3165   3.074   2.186  17.094 -1.6628  1.3021  0.7671
  208MPD1    H2 3166   3.036   2.135  16.679 -0.1941 -0.0356  0.0340
  208MPD1    H3 3167   3.146   2.223  16.864  1.0262 -1.2200  2.2363
  208MPD1     N 3168   2.852   2.027  17.156 -0.2373 -0.2389  0.0170
  208MPD1    H5 3169   2.779   1.956  17.155  0.7205 -1.2125 -0.0349
  208MPD1    N1 3170   2.805   2.011  16.669  0.2090 -0.4386  0.4897
  208MPD1    H6 3171   2.831   2.078  16.596 -0.7304 -0.4976  0.0945
  208MPD1    H7 3172   2.705   1.996  16.678  0.1050 -0.8102 -1.1876
  209MPD1     C 3173   0.504   2.816  12.040 -0.0179 -0.1280  0.1786
  209MPD1    C1 3174   0.532   2.946  12.070  0.1889  0.6138  0.6883
  209MPD1    C2 3175   0.558   3.037  11.971  0.3971  0.2578 -0.1882
  209MPD1    C3 3176   0.548   2.999  11.841  0.0670  0.4349 -0.7468
  209MPD1    C4 3177   0.511   2.867  11.819 -0.1385 -0.0194 -0.3630
  209MPD1    C5 3178   0.494   2.774  11.914  0.3994 -0.0480  1.0038
  209MPD1     H 3179   0.581   3.138  12.001 -1.0905  0.1123  1.4180
  209MPD1    H1 3180   0.497   2.817  11.723  0.7936  0.4186 -0.7251
  209MPD1    H2 3181   0.487   2.746  12.121 -0.3315 -1.9708 -1.4953
  209MPD1    H3 3182   0.473   2.670  11.894 -0.0812  0.0785  0.8491
  209MPD1     N 3183   0.564   3.087  11.731 -0.1761  0.2531  0.2143
  209MPD1    H5 3184   0.596   3.181  11.752  0.0956  0.3307 -0.5330
  209MPD1    N1 3185   0.528   2.986  12.203  0.0450  0.0599  0.0040
  209MPD1    H6 3186   0.560   3.083  12.213 -1.1164  0.4469 -0.0801
  209MPD1    H7 3187   0.577   2.925  12.269  0.1715 -0.4296 -0.5497
  210MPD1     C 3188   1.238   3.769  11.469 -0.6437 -0.4718 -0.3235
  210MPD1    C1 3189   1.208   3.686  11.573  0.1104 -0.4526  0.4393
  210MPD1    C2 3190   1.095   3.603  11.562 -0.4583  0.3166 -0.5306
  210MPD1    C3 3191   1.019   3.599  11.448 -0.5110  0.4973 -0.0255
  210MPD1    C4 3192   1.037   3.700  11.351  0.1539  0.2251 -0.5544
  210MPD1    C5 3193   1.155   3.770  11.364 -0.2930  0.3302  0.2391
  210MPD1     H 3194   1.080   3.526  11.637 -0.8188  0.1959 -0.7282
  210MPD1    H1 3195   0.978   3.698  11.260 -2.7659  1.2534  1.2922
  210MPD1    H2 3196   1.329   3.827  11.464  1.0832 -3.0761  0.4492
  210MPD1    H3 3197   1.186   3.846  11.294 -0.0512 -0.6420 -0.7070
  210MPD1     N 3198   0.901   3.522  11.431 -0.3133  0.1840  0.1824
  210MPD1    H5 3199   0.846   3.544  11.349  1.2128  2.4596 -0.2410
  210MPD1    N1 3200   1.300   3.666  11.674  0.0099 -0.1021 -0.0486
  210MPD1    H6 3201   1.254   3.649  11.763  2.0483  0.7177  1.1625
  210MPD1    H7 3202   1.362   3.744  11.697  0.3703  0.0195 -1.4522
  211MPD1     C 3203   3.011   2.387  16.455 -0.0605 -0.1619 -0.1981
  211MPD1    C1 3204   3.071   2.462  16.561 -0.0273  0.7816  0.1132
  211MPD1    C2 3205   3.045   2.602  16.568  0.5017 -0.1047 -0.3161
  211MPD1    C3 3206   2.968   2.660  16.469  0.5169  0.5453  0.6352
  211MPD1    C4 3207   2.914   2.581  16.366  0.3233  0.3638 -0.4036
  211MPD1    C5 3208   2.933   2.452  16.364  0.2334  0.0645  0.0182
  211MPD1     H 3209   3.089   2.653  16.653 -0.2123  0.4486 -0.2765
  211MPD1    H1 3210   2.859   2.614  16.278 -1.2656 -0.7088  0.1850
  211MPD1    H2 3211   3.022   2.280  16.448 -1.3261 -0.0992 -3.0500
  211MPD1    H3 3212   2.891   2.398  16.280  0.6460  1.8556 -1.3368
  211MPD1     N 3213   2.931   2.799  16.482 -0.2190  0.1048 -0.5798
  211MPD1    H5 3214   2.951   2.842  16.572  0.0561 -0.5334 -0.3384
  211MPD1    N1 3215   3.149   2.402  16.657  0.1688 -0.5894 -0.2099
  211MPD1    H6 3216   3.202   2.333  16.605  0.2492  0.9235 -2.1707
  211MPD1    H7 3217   3.226   2.459  16.690 -1.0286  1.8046 -1.5247
  212MPD1     C 3218   1.722   1.796  16.456 -0.1059  0.1849  0.5657
  212MPD1    C1 3219   1.692   1.855  16.577 -0.2869  0.3523  0.3376
  212MPD1    C2 3220   1.645   1.780  16.678 -0.0278 -0.4927  0.0533
  212MPD1    C3 3221   1.642   1.642  16.662  0.1272 -0.8738  0.4917
  212MPD1    C4 3222   1.677   1.586  16.545  0.3747  0.0078 -0.0995
  212MPD1    C5 3223   1.726   1.658  16.439 -0.6891  0.7827 -0.4174
  212MPD1     H 3224   1.613   1.832  16.768  1.1795  1.5043 -0.6525
  212MPD1    H1 3225   1.662   1.480  16.526  0.7524 -0.3771  1.7831
  212MPD1    H2 3226   1.751   1.857  16.371  0.9112 -3.5683 -1.7356
  212MPD1    H3 3227   1.751   1.606  16.347  1.0845 -1.4915  1.3311
  212MPD1     N 3228   1.592   1.557  16.763 -0.7080  0.4961  0.3624
  212MPD1    H5 3229   1.587   1.458  16.738 -0.8576  0.4635  0.5247
  212MPD1    N1 3230   1.666   1.990  16.568  0.3325 -0.7229 -0.2317
  212MPD1    H6 3231   1.739   2.044  16.522  0.0889 -1.3141 -1.3356
  212MPD1    H7 3232   1.666   2.021  16.665 -0.6315 -4.0752  0.8439
  213MPD1     C 3233   4.685   1.961  16.347 -0.3465  0.7793  0.5722
  213MPD1    C1 3234   4.568   2.030  16.320  0.4238 -0.8663 -0.7655
  213MPD1    C2 3235   4.545   2.051  16.185  0.7461 -0.0265  0.1940
  213MPD1    C3 3236   4.643   2.045  16.085  0.4424  0.1473 -0.2384
  213MPD1    C4 3237   0.045   1.998  16.128  0.1416  0.0022  0.0010
  213MPD1    C5 3238   0.064   1.959  16.254 -0.0055  0.4140  0.1631
  213MPD1     H 3239   4.449   2.082  16.146  0.7977 -2.7793 -2.1671
  213MPD1    H1 3240   0.121   1.982  16.052  2.0679  3.5982  1.1760
  213MPD1    H2 3241   4.705   1.925  16.447  1.0398  0.1360  0.0604
  213MPD1    H3 3242   0.161   1.917  16.276 -0.1138  0.0556 -0.0438
  213MPD1     N 3243   4.612   2.080  15.946 -0.3717 -0.0158  0.0573
  213MPD1    H5 3244   4.515   2.078  15.918 -0.2415 -2.1637 -0.2475
  213MPD1    N1 3245   4.454   2.030  16.403  0.0442  0.1397  0.2934
  213MPD1    H6 3246   4.478   2.064  16.496 -0.6779 -0.8183  0.8226
  213MPD1    H7 3247   4.383   2.096  16.372 -0.1795 -0.4505 -0.4424
  214MPD1     C 3248   3.853   2.132  15.377 -0.0609  0.0062  0.1414
  214MPD1    C1 3249   3.919   2.015  15.405  0.2393 -0.0229  0.2720
  214MPD1    C2 3250   4.056   2.016  15.431  0.9348 -0.3393 -0.4291
  214MPD1    C3 3251   4.110   2.138  15.461 -0.0166 -0.2828  0.0831
  214MPD1    C4 3252   4.040   2.259  15.441 -0.3756 -0.4325  0.2240
  214MPD1    C5 3253   3.915   2.252  15.395  0.5337 -0.5583  0.3908
  214MPD1     H 3254   4.110   1.924  15.449  0.7536  0.1184  2.4420
  214MPD1    H1 3255   4.093   2.347  15.474 -0.3850 -0.8997  1.4621
  214MPD1    H2 3256   3.750   2.129  15.345 -0.7613  0.0981  2.4217
  214MPD1    H3 3257   3.869   2.349  15.384 -0.1154 -0.9386 -0.2809
  214MPD1     N 3258   4.240   2.154  15.518  0.1284  0.1435  0.0486
  214MPD1    H5 3259   4.265   2.252  15.525 -0.5953  0.3969 -0.9623
  214MPD1    N1 3260   3.856   1.896  15.379  0.1170 -0.8155 -0.1923
  214MPD1    H6 3261   3.755   1.896  15.397  0.2099 -0.9457  0.3124
  214MPD1    H7 3262   3.893   1.816  15.430 -1.8382 -2.5510 -1.4817
  215MPD1     C 3263   0.214   2.402  10.598  0.0837  0.3379 -0.3914
  215MPD1    C1 3264   0.176   2.507  10.525 -0.2615 -0.9083  0.3322
  215MPD1    C2 3265   0.130   2.619  10.591  0.2249  0.4700  0.2426
  215MPD1    C3 3266   0.144   2.634  10.725 -0.2626 -0.7941  0.4112
  215MPD1    C4 3267   0.198   2.525  10.797  0.3774 -0.3290  0.1569
  215MPD1    C5 3268   0.245   2.413  10.730 -0.2985 -0.0802  0.5570
  215MPD1     H 3269   0.104   2.702  10.526 -0.1967 -0.8333 -1.2671
  215MPD1    H1 3270   0.211   2.533  10.905 -0.4568 -0.6165  0.2779
  215MPD1    H2 3271   0.260   2.315  10.553  0.8103  0.2651  0.4816
  215MPD1    H3 3272   0.287   2.331  10.786  0.0085  0.8909  1.7390
  215MPD1     N 3273   0.095   2.753  10.783  0.5058  0.3823  0.0200
  215MPD1    H5 3274   0.059   2.825  10.721 -1.4498 -0.8389 -0.2660
  215MPD1    N1 3275   0.150   2.488  10.391 -0.7257 -0.1304 -0.0561
  215MPD1    H6 3276   0.169   2.578  10.346 -2.0421 -0.6392 -1.6509
  215MPD1    H7 3277   0.212   2.416  10.353 -1.1433 -0.0289 -0.9330
  216MPD1     C 3278   1.709   0.393  16.763  0.4224 -0.6432  0.2350
  216MPD1    C1 3279   1.650   0.359  16.884  0.4736 -0.0599 -0.0626
  216MPD1    C2 3280   1.700   0.258  16.953 -0.0927  0.2743  0.6199
  216MPD1    C3 3281   1.814   0.189  16.907 -0.3830  0.3294  0.1896
  216MPD1    C4 3282   1.868   0.221  16.787 -0.4939  0.5061  0.3089
  216MPD1    C5 3283   1.815   0.323  16.719 -0.4885 -0.2233 -0.5358
  216MPD1     H 3284   1.654   0.236  17.049 -0.9367  1.3772  0.4676
  216MPD1    H1 3285   1.956   0.174  16.747 -0.5157  0.4405  0.3374
  216MPD1    H2 3286   1.681   0.476  16.699  1.3800 -0.3037  0.2544
  216MPD1    H3 3287   1.849   0.350  16.620  0.2959 -1.7985 -0.6830
  216MPD1     N 3288   1.853   0.073  16.979  0.4319 -0.7177  0.0683
  216MPD1    H5 3289   1.796   0.060  17.061  1.2721  2.7736  1.1800
  216MPD1    N1 3290   1.548   0.441  16.936 -0.1371 -0.5158  0.8607
  216MPD1    H6 3291   1.500   0.495  16.864  3.4242  2.0189  0.3926
  216MPD1    H7 3292   1.475   0.395  16.990 -2.1420 -0.5939 -1.9082
  217MPD1     C 3293   3.347   2.499   8.572  0.2064 -0.7258  0.3606
  217MPD1    C1 3294   3.215   2.517   8.539 -0.0563  0.4192 -0.2964
  217MPD1    C2 3295   3.124   2.476   8.636 -0.4052 -0.6746  0.3752
  217MPD1    C3 3296   3.160   2.428   8.762 -0.3953 -0.2003  0.0751
  217MPD1    C4 3297   3.297   2.410   8.791 -0.1550 -0.9106 -0.1118
  217MPD1    C5 3298   3.385   2.445   8.692 -0.8804  0.4653  0.5014
  217MPD1     H 3299   3.025   2.464   8.594 -0.8767 -0.2516  1.3704
  217MPD1    H1 3300   3.334   2.372   8.885  1.2036  2.0862  0.5886
  217MPD1    H2 3301   3.425   2.515   8.498 -2.1783  0.4230 -1.9079
  217MPD1    H3 3302   3.491   2.431   8.706 -1.0689 -0.4738  0.9816
  217MPD1     N 3303   3.072   2.389   8.865 -0.1173  0.4324  0.0146
  217MPD1    H5 3304   3.109   2.325   8.935  2.1968  0.6299 -1.0335
  217MPD1    N1 3305   3.175   2.551   8.404  0.8052 -0.6022 -0.3541
  217MPD1    H6 3306   3.244   2.612   8.360 -3.1865  3.5828 -0.8267
  217MPD1    H7 3307   3.081   2.588   8.389  2.5375  3.1516 -1.8624
  218MPD1     C 3308   4.151   3.602  12.639  0.2033 -0.1128 -0.2758
  218MPD1    C1 3309   4.250   3.601  12.547 -0.5369 -0.2670 -0.7482
  218MPD1    C2 3310   4.359   3.527  12.573 -0.0524 -0.3604  0.7906
  218MPD1    C3 3311   4.375   3.455  12.689  0.5130  0.3284  0.0861
  218MPD1    C4 3312   4.269   3.451  12.778  0.9556 -0.2344  0.2426
  218MPD1    C5 3313   4.155   3.532  12.757  1.0791  0.0998  0.7085
  218MPD1     H 3314   4.428   3.515  12.490 -0.4834  1.7810  0.1372
  218MPD1    H1 3315   4.273   3.398  12.872 -0.3336 -1.6146 -0.4745
  218MPD1    H2 3316   4.061   3.662  12.634 -0.0106 -0.2090  2.4931
  218MPD1    H3 3317   4.071   3.522  12.824  0.9056  1.7101  0.7210
  218MPD1     N 3318   4.497   3.390  12.703  0.1123 -0.7820 -0.1739
  218MPD1    H5 3319   4.564   3.397  12.627 -0.8272  0.0105 -0.9432
  218MPD1    N1 3320   4.231   3.675  12.424 -0.3958 -0.2314  0.5790
  218MPD1    H6 3321   4.136   3.670  12.389 -0.0339  0.6385 -0.5343
  218MPD1    H7 3322   4.288   3.629  12.352 -0.2942  1.1285 -0.2069
  219MPD1     C 3323   0.707   3.626  12.827  0.9724  0.2173 -0.3448
  219MPD1    C1 3324   0.636   3.613  12.711  0.0000  0.2205 -0.1624
  219MPD1    C2 3325   0.522   3.524  12.708  0.0279  0.7814  0.5530
  219MPD1    C3 3326   0.482   3.467  12.826 -0.2291  0.9209 -0.5596
  219MPD1    C4 3327   0.559   3.474  12.945 -0.7001  0.1344 -0.3492
  219MPD1    C5 3328   0.672   3.549  12.936 -0.1484 -0.9024  0.1355
  219MPD1     H 3329   0.470   3.496  12.618  1.9139 -3.0274  0.6906
  219MPD1    H1 3330   0.536   3.432  13.042  1.9589 -1.6674 -0.5180
  219MPD1    H2 3331   0.801   3.680  12.822  2.5731 -2.1491  3.9868
  219MPD1    H3 3332   0.738   3.549  13.022 -1.0563 -0.7820  0.8383
  219MPD1     N 3333   0.370   3.389  12.832  0.3206  0.1636  0.2762
  219MPD1    H5 3334   0.357   3.342  12.922  3.1793 -0.3690  0.4151
  219MPD1    N1 3335   0.694   3.663  12.589 -0.3497 -0.1404  0.3438
  219MPD1    H6 3336   0.640   3.670  12.503  1.6014  0.4164 -0.8508
  219MPD1    H7 3337   0.747   3.747  12.610 -0.3502 -0.5108  1.7746
  220MPD1     C 3338   3.741   3.869   9.851 -0.7991  0.0250  0.4326
  220MPD1    C1 3339   3.858   3.894   9.916  0.7708  0.9348 -0.2015
  220MPD1    C2 3340   3.919   3.787   9.970  0.0734  0.6197 -0.7485
  220MPD1    C3 3341   3.886   3.662   9.928 -0.5250 -0.2725  0.6313
  220MPD1    C4 3342   3.773   3.641   9.849  0.2174  0.1232  0.2213
  220MPD1    C5 3343   3.695   3.748   9.810  1.0805  0.1370  0.7312
  220MPD1     H 3344   4.004   3.786  10.037 -0.6032 -0.7399  0.0888
  220MPD1    H1 3345   3.739   3.543   9.818  1.5521 -0.8786  1.8999
  220MPD1    H2 3346   3.674   3.949   9.823 -3.2164 -2.7690 -1.7288
  220MPD1    H3 3347   3.600   3.748   9.759  1.0917  1.8351  0.7039
  220MPD1     N 3348   3.959   3.549   9.988 -0.1529 -0.6509 -0.2415
  220MPD1    H5 3349   4.050   3.568  10.030 -0.1665 -1.2419  0.0496
  220MPD1    N1 3350   3.884   4.024   9.945 -0.2906  0.0455  0.0405
  220MPD1    H6 3351   3.862   4.092   9.873  0.4043 -0.8566 -1.0248
  220MPD1    H7 3352   3.985   4.031   9.955 -0.1670 -0.6886 -0.7258
  221MPD1     C 3353   1.826   3.170  16.208  0.1010 -0.2001  0.1388
  221MPD1    C1 3354   1.802   3.040  16.246  0.0452 -0.5219  0.1472
  221MPD1    C2 3355   1.881   2.942  16.186  0.6635  0.3044 -0.4243
  221MPD1    C3 3356   1.992   2.969  16.109  0.8225 -0.0481 -0.2427
  221MPD1    C4 3357   2.018   3.097  16.082  0.7430 -0.2056 -0.3875
  221MPD1    C5 3358   1.933   3.193  16.131  0.3470 -0.6225 -0.7933
  221MPD1     H 3359   1.871   2.839  16.218  0.1053  0.3239 -0.5496
  221MPD1    H1 3360   2.103   3.135  16.027  0.0706  1.4282 -0.3070
  221MPD1    H2 3361   1.766   3.254  16.240 -1.3229 -1.2473  0.2095
  221MPD1    H3 3362   1.950   3.295  16.098  3.1362 -1.2684 -1.4122
  221MPD1     N 3363   2.071   2.873  16.053 -0.4354 -0.1561  0.9555
  221MPD1    H5 3364   2.146   2.905  15.993 -1.6639  1.8077  0.4613
  221MPD1    N1 3365   1.709   3.009  16.340  0.1206  0.5191 -0.1842
  221MPD1    H6 3366   1.624   3.062  16.360  0.2041  0.9513 -0.9826
  221MPD1    H7 3367   1.678   2.912  16.338 -0.0525  0.5802 -0.4797
  222MPD1     C 3368   2.636   0.471   0.692 -0.0843 -0.3877 -0.9638
  222MPD1    C1 3369   2.558   0.357   0.661 -0.9520  0.1638 -0.6972
  222MPD1    C2 3370   2.462   0.372   0.563 -0.3385 -0.6213  0.3518
  222MPD1    C3 3371   2.453   0.490   0.490  0.0549 -0.4655  0.2161
  222MPD1    C4 3372   2.547   0.590   0.513 -0.1600 -0.1529  0.4998
  222MPD1    C5 3373   2.635   0.580   0.616  0.2560  0.8626 -0.2196
  222MPD1     H 3374   2.411   0.279   0.539 -1.0951  0.0557 -0.6614
  222MPD1    H1 3375   2.567   0.671   0.444 -0.8922 -0.9469 -0.6473
  222MPD1    H2 3376   2.704   0.469   0.776  1.3838  0.6866 -2.1348
  222MPD1    H3 3377   2.704   0.660   0.639  0.7247  0.1628  0.8356
  222MPD1     N 3378   2.367   0.505   0.379 -0.5841 -0.1157  0.1929
  222MPD1    H5 3379   2.381   0.589   0.323 -0.7836 -0.1559  0.0830
  222MPD1    N1 3380   2.579   0.237   0.734 -0.6274 -0.3806 -0.3562
  222MPD1    H6 3381   2.489   0.190   0.749  0.4577 -3.4028 -3.2809
  222MPD1    H7 3382   2.623   0.268   0.821 -1.5990 -0.8962  0.3293
  223MPD1     C 3383   1.481   0.147  17.461 -0.3353  0.3850  0.0387
  223MPD1    C1 3384   1.550   0.239  17.393  0.1084  0.1688  0.0664
  223MPD1    C2 3385   1.665   0.292  17.454  0.1102 -0.5771  0.1702
  223MPD1    C3 3386   1.704   0.254  17.580 -0.0544  0.3763  0.5736
  223MPD1    C4 3387   1.638   0.150  17.641  0.0292  0.1943 -0.3019
  223MPD1    C5 3388   1.523   0.099  17.585  0.4673 -0.1340 -0.4534
  223MPD1     H 3389   1.730   0.356  17.395 -1.5108  1.0640  0.1609
  223MPD1    H1 3390   1.681   0.110   0.048  0.8500  0.3145 -0.6438
  223MPD1    H2 3391   1.390   0.109  17.415 -0.6859 -0.0929  1.1106
  223MPD1    H3 3392   1.465   0.021  17.632 -0.2657  1.3929  1.1880
  223MPD1     N 3393   1.813   0.326  17.642 -0.6323  0.2214  0.3957
  223MPD1    H5 3394   1.855   0.401  17.589 -0.1738  0.8711  1.6836
  223MPD1    N1 3395   1.517   0.275  17.263 -0.4450  0.3655 -0.8006
  223MPD1    H6 3396   1.417   0.277  17.246 -0.5092  1.3334 -0.3566
  223MPD1    H7 3397   1.548   0.372  17.251  0.5817 -0.0633 -1.6776
  224MPD1     C 3398   3.729   3.192   9.177 -0.3859  0.5238 -0.3333
  224MPD1    C1 3399   3.794   3.130   9.282  0.4829 -0.4451  0.2207
  224MPD1    C2 3400   3.736   3.028   9.355 -0.2094  0.8347 -0.5679
  224MPD1    C3 3401   3.599   3.004   9.341 -0.1647  0.0157 -0.2363
  224MPD1    C4 3402   3.536   3.070   9.239 -0.4170 -0.6654  0.3474
  224MPD1    C5 3403   3.599   3.162   9.160  0.4703 -0.4072  0.0668
  224MPD1     H 3404   3.794   2.969   9.425 -1.1704  0.0928 -0.4077
  224MPD1    H1 3405   3.434   3.048   9.210  0.2346  0.6010 -2.9023
  224MPD1    H2 3406   3.778   3.260   9.108 -3.1457  0.7100 -2.1070
  224MPD1    H3 3407   3.542   3.218   9.087  1.0454 -1.1550 -0.9550
  224MPD1     N 3408   3.526   2.905   9.409 -0.0350  0.2120  0.5254
  224MPD1    H5 3409   3.429   2.895   9.383 -0.6225  1.7938  2.1097
  224MPD1    N1 3410   3.935   3.145   9.288  0.6685 -0.1092 -0.1049
  224MPD1    H6 3411   3.960   3.233   9.244  2.4746 -0.0811  1.0077
  224MPD1    H7 3412   3.981   3.131   9.378  1.9758  0.1296 -0.7387
  225MPD1     C 3413   3.546   3.386  12.919 -0.6029  0.1142 -0.5519
  225MPD1    C1 3414   3.480   3.498  12.879 -0.1009  0.1287  0.2298
  225MPD1    C2 3415   3.479   3.520  12.744  0.1500 -0.3549 -0.2451
  225MPD1    C3 3416   3.510   3.423  12.652 -0.1083  0.4627 -0.0944
  225MPD1    C4 3417   3.554   3.300  12.703  0.2987 -0.0580 -0.1468
  225MPD1    C5 3418   3.579   3.282  12.836 -0.1791 -0.2833 -0.3326
  225MPD1     H 3419   3.451   3.616  12.702 -0.3368  0.7752  2.6932
  225MPD1    H1 3420   3.591   3.220  12.640  1.8212  0.7926 -0.3461
  225MPD1    H2 3421   3.575   3.384  13.024 -0.0701  0.5637 -0.6932
  225MPD1    H3 3422   3.652   3.209  12.869 -1.0760 -0.3972  1.3819
  225MPD1     N 3423   3.511   3.447  12.513  0.2968 -0.1328 -0.2200
  225MPD1    H5 3424   3.531   3.364  12.458 -2.7838 -0.6523 -0.5598
  225MPD1    N1 3425   3.467   3.613  12.957  0.1857 -0.2735 -0.4954
  225MPD1    H6 3426   3.446   3.599  13.056 -1.4917 -2.6951 -1.1985
  225MPD1    H7 3427   3.414   3.687  12.913 -2.0163 -1.0564  0.8546
  226MPD1     C 3428   3.326   2.308   9.499 -0.2803  0.2008  0.0828
  226MPD1    C1 3429   3.196   2.293   9.462  0.2713 -0.0932 -0.7453
  226MPD1    C2 3430   3.133   2.399   9.402  0.5080 -0.9050 -0.2586
  226MPD1    C3 3431   3.201   2.517   9.360 -0.3678 -0.3800  0.4552
  226MPD1    C4 3432   3.336   2.522   9.390 -0.8564  0.1415 -0.1750
  226MPD1    C5 3433   3.390   2.426   9.465  0.2938 -0.4476 -0.6386
  226MPD1     H 3434   3.025   2.396   9.388  0.6302 -1.3735 -1.0890
  226MPD1    H1 3435   3.397   2.604   9.357  1.9273 -1.1143  1.8678
  226MPD1    H2 3436   3.383   2.225   9.540 -0.2129 -0.2311 -0.8784
  226MPD1    H3 3437   3.496   2.437   9.489  0.6363 -2.3198 -1.3151
  226MPD1     N 3438   3.133   2.621   9.294  0.0893  0.4916 -0.6792
  226MPD1    H5 3439   3.036   2.597   9.278  0.2450 -0.8988  0.4611
  226MPD1    N1 3440   3.126   2.182   9.506  0.4440  0.0505 -0.3581
  226MPD1    H6 3441   3.187   2.100   9.499  0.7987  0.3723 -1.0448
  226MPD1    H7 3442   3.051   2.172   9.437  1.1939  2.3770 -1.4906
  227MPD1     C 3443   2.428   2.774   8.624  0.0133 -0.2715  0.2293
  227MPD1    C1 3444   2.538   2.829   8.560 -0.4431  0.2566  0.4805
  227MPD1    C2 3445   2.647   2.858   8.642  0.0875 -0.0806 -0.0345
  227MPD1    C3 3446   2.648   2.818   8.782  0.4537 -0.0558  0.0917
  227MPD1    C4 3447   2.535   2.756   8.835  0.0111 -0.2066  0.6420
  227MPD1    C5 3448   2.426   2.740   8.753  0.2997 -0.3568 -0.8366
  227MPD1     H 3449   2.727   2.920   8.604  0.9897 -0.5951  1.0211
  227MPD1    H1 3450   2.526   2.700   8.928 -1.6480  0.1654  0.7169
  227MPD1    H2 3451   2.336   2.763   8.568 -0.7223 -0.4484  1.4579
  227MPD1    H3 3452   2.340   2.698   8.804  0.9732 -0.9002 -0.1485
  227MPD1     N 3453   2.761   2.853   8.854  0.2846 -0.3504 -0.5225
  227MPD1    H5 3454   2.824   2.913   8.801  0.8024 -1.1887 -0.8585
  227MPD1    N1 3455   2.535   2.882   8.434  0.0612 -0.7190 -0.4576
  227MPD1    H6 3456   2.625   2.863   8.390  0.3211  0.0269 -0.2390
  227MPD1    H7 3457   2.461   2.850   8.373 -0.3478 -2.6847  1.0531
  228MPD1     C 3458   0.985   1.629  12.682  0.1846 -0.5792  0.4302
  228MPD1    C1 3459   0.879   1.657  12.597 -0.0289  0.1280  0.2026
  228MPD1    C2 3460   0.759   1.593  12.628 -0.1807  0.1172  0.9834
  228MPD1    C3 3461   0.757   1.498  12.728 -0.0898  0.9758  0.5477
  228MPD1    C4 3462   0.862   1.477  12.813 -0.0075 -0.3451  0.5063
  228MPD1    C5 3463   0.979   1.551  12.789  0.0843 -0.3354  0.6651
  228MPD1     H 3464   0.679   1.596  12.555 -1.0888 -0.9229  1.9292
  228MPD1    H1 3465   0.861   1.407  12.896  0.8813 -2.9126 -1.6460
  228MPD1    H2 3466   1.075   1.689  12.671 -1.3980  1.6463 -0.4313
  228MPD1    H3 3467   1.061   1.534  12.857  0.4540  1.3132  0.6185
  228MPD1     N 3468   0.625   1.443  12.755 -0.0680 -0.3606 -0.2548
  228MPD1    H5 3469   0.540   1.476  12.710  1.0900  0.6850 -1.6737
  228MPD1    N1 3470   0.892   1.749  12.493 -0.4202 -0.1430  0.0209
  228MPD1    H6 3471   0.973   1.726  12.436  0.0063  1.1456  0.0931
  228MPD1    H7 3472   0.810   1.761  12.435 -1.1779 -0.6120  1.0008
  229MPD1     C 3473   0.498   3.693  14.662  0.4249  0.3252 -0.9536
  229MPD1    C1 3474   0.408   3.774  14.599  0.2202  0.1695 -0.2061
  229MPD1    C2 3475   0.441   3.909  14.595 -1.2150 -0.4420  0.2380
  229MPD1    C3 3476   0.561   3.957  14.645  0.5709 -0.6153  0.4197
  229MPD1    C4 3477   0.651   3.866  14.703  0.0674 -0.4800  0.3387
  229MPD1    C5 3478   0.619   3.738  14.700 -0.3784 -0.9238 -0.4271
  229MPD1     H 3479   0.381   3.977  14.536 -0.8420 -1.4087 -1.2522
  229MPD1    H1 3480   0.749   3.899  14.736 -0.1334 -2.0255  2.5311
  229MPD1    H2 3481   0.484   3.587  14.680 -0.7486  0.6336 -0.0205
  229MPD1    H3 3482   0.685   3.661  14.738  1.8353  0.5975 -1.2044
  229MPD1     N 3483   0.603   4.090  14.637  0.5271  0.2348 -0.2939
  229MPD1    H5 3484   0.696   4.112  14.669 -0.1019  1.2635  0.8378
  229MPD1    N1 3485   0.275   3.728  14.564 -0.0555 -0.1122 -0.0120
  229MPD1    H6 3486   0.247   3.787  14.486 -0.7805 -0.4358  0.0115
  229MPD1    H7 3487   0.270   3.632  14.529 -0.5671  0.5099 -1.6245
  230MPD1     C 3488   0.543   4.715  15.323 -0.6711 -0.3911 -0.4824
  230MPD1    C1 3489   0.428   4.682  15.242  0.1086  0.7499 -0.0381
  230MPD1    C2 3490   0.453   4.629  15.114 -0.2618  0.0137  0.4195
  230MPD1    C3 3491   0.580   4.616  15.064 -0.7732  0.3157 -0.1757
  230MPD1    C4 3492   0.687   4.643  15.152  0.1339 -0.1657 -0.0473
  230MPD1    C5 3493   0.667   4.694  15.273  0.0313  0.0059 -0.5882
  230MPD1     H 3494   0.366   4.584  15.067 -0.3975 -0.3196  0.9930
  230MPD1    H1 3495   0.786   4.622  15.113  0.6973  1.3531  0.5900
  230MPD1    H2 3496   0.536   0.038  15.422 -2.8245  1.3169 -1.3541
  230MPD1    H3 3497   0.752   0.001  15.334 -1.8348  2.5712  0.8843
  230MPD1     N 3498   0.591   4.566  14.929 -0.1005  0.1956  0.2838
  230MPD1    H5 3499   0.509   4.546  14.873  0.4549 -0.7983 -0.1809
  230MPD1    N1 3500   0.304   4.671  15.310  0.0096 -0.1098  0.2381
  230MPD1    H6 3501   0.301   0.014  15.390  1.0445 -0.1724  0.3221
  230MPD1    H7 3502   0.218   4.678  15.255  0.9512 -0.8198 -1.3098
  231MPD1     C 3503   3.387   2.155  15.094 -0.2678 -0.5697  0.2975
  231MPD1    C1 3504   3.470   2.038  15.095 -0.2428  0.5080 -0.4736
  231MPD1    C2 3505   3.601   2.058  15.071  0.1415 -0.4454 -0.9244
  231MPD1    C3 3506   3.659   2.187  15.071  0.4809 -0.7396  0.1548
  231MPD1    C4 3507   3.577   2.292  15.093  0.1747  1.4727  0.3042
  231MPD1    C5 3508   3.441   2.277  15.098  0.5313 -0.0613 -0.4973
  231MPD1     H 3509   3.680   1.984  15.060 -0.5523 -1.4251  0.6915
  231MPD1    H1 3510   3.621   2.391  15.085  1.7573  0.8327  1.2522
  231MPD1    H2 3511   3.280   2.149  15.107 -0.7046  3.0941 -1.6207
  231MPD1    H3 3512   3.373   2.361  15.095 -0.2501 -0.7214 -1.2059
  231MPD1     N 3513   3.799   2.191  15.062  0.1753 -0.5733  0.2160
  231MPD1    H5 3514   3.850   2.104  15.068 -1.8293 -1.7442  0.5504
  231MPD1    N1 3515   3.417   1.905  15.084  0.6222 -0.4459  0.1464
  231MPD1    H6 3516   3.324   1.893  15.125 -0.2938  0.2386 -1.7585
  231MPD1    H7 3517   3.470   1.842  15.145  0.6315  1.0712  1.7251
  232MPD1     C 3518   1.282   4.462   0.166  0.4812 -0.0088 -0.4022
  232MPD1    C1 3519   1.196   4.364   0.202  0.3966 -0.2242  0.0067
  232MPD1    C2 3520   1.062   4.366   0.172 -0.2300  0.2649  0.0632
  232MPD1    C3 3521   1.006   4.471   0.103  0.0601  0.5454 -0.0373
  232MPD1    C4 3522   1.094   4.567   0.060  0.6115 -0.0138 -0.1389
  232MPD1    C5 3523   1.224   4.559   0.092  0.0336  0.3266  0.0589
  232MPD1     H 3524   1.004   4.283   0.210 -1.9840  1.9565  1.0492
  232MPD1    H1 3525   1.059   4.651   0.001 -0.9958  0.5158  1.5834
  232MPD1    H2 3526   1.389   4.448   0.172 -0.0737 -3.2514  2.2859
  232MPD1    H3 3527   1.285   4.632   0.040 -1.0708  0.7261 -0.6657
  232MPD1     N 3528   0.870   4.475   0.080  0.2186 -0.0232 -0.3048
  232MPD1    H5 3529   0.817   4.398   0.121 -1.1887  0.5847 -0.9847
  232MPD1    N1 3530   1.245   4.261   0.286  0.1872 -0.3581 -0.1059
  232MPD1    H6 3531   1.347   4.257   0.277  0.2991 -0.8323  1.3467
  232MPD1    H7 3532   1.219   4.166   0.260 -0.5492 -0.1307 -0.1804
  233MPD1     C 3533   1.194   1.914   1.212  0.1047 -0.1400  0.4013
  233MPD1    C1 3534   1.274   1.871   1.107  0.2407 -0.4633 -0.3081
  233MPD1    C2 3535   1.404   1.921   1.110  0.5893  0.3852  0.1527
  233MPD1    C3 3536   1.449   1.998   1.224 -0.1180  0.6896 -0.1528
  233MPD1    C4 3537   1.367   2.025   1.332  0.3463  0.1415 -0.2769
  233MPD1    C5 3538   1.235   1.978   1.328  0.4973 -0.2246 -0.0281
  233MPD1     H 3539   1.466   1.890   1.026  0.5012  1.4182 -0.2905
  233MPD1    H1 3540   1.401   2.073   1.423 -0.9154  0.7046 -0.1003
  233MPD1    H2 3541   1.090   1.885   1.207  0.0126  0.5354 -1.9106
  233MPD1    H3 3542   1.171   1.995   1.414  1.7343 -0.9380  1.0385
  233MPD1     N 3543   1.586   2.040   1.232 -0.0556 -0.6435  0.6733
  233MPD1    H5 3544   1.603   2.061   1.329  1.5943  0.2887  0.1847
  233MPD1    N1 3545   1.219   1.814   0.990 -0.1126  0.4556 -0.3658
  233MPD1    H6 3546   1.298   1.777   0.937 -0.8016  0.1651 -1.1883
  233MPD1    H7 3547   1.150   1.741   1.005  0.4198  0.0336  0.0486
  234MPD1     C 3548   3.566   0.990   9.380  0.0923 -0.3631 -0.3532
  234MPD1    C1 3549   3.512   1.078   9.293 -0.4428  0.2174  0.4382
  234MPD1    C2 3550   3.498   1.211   9.341 -0.0177 -0.3453 -0.8987
  234MPD1    C3 3551   3.550   1.251   9.466 -0.0230 -0.0922 -0.0197
  234MPD1    C4 3552   3.597   1.154   9.549  0.6820  0.0691 -0.6113
  234MPD1    C5 3553   3.606   1.027   9.504  0.2717 -0.3777 -0.3499
  234MPD1     H 3554   3.461   1.288   9.275 -0.5653 -0.3570 -0.6031
  234MPD1    H1 3555   3.638   1.169   9.648  1.0046  1.0743 -0.8955
  234MPD1    H2 3556   3.592   0.894   9.338  0.9061  0.3583 -1.5300
  234MPD1    H3 3557   3.657   0.951   9.563  1.1198 -0.2632 -0.9437
  234MPD1     N 3558   3.538   1.385   9.518  0.4658 -0.4082  1.0162
  234MPD1    H5 3559   3.511   1.450   9.445 -1.0804 -1.2112  0.8761
  234MPD1    N1 3560   3.501   1.046   9.157  0.3122  0.4041  0.2495
  234MPD1    H6 3561   3.437   1.102   9.102 -0.7702 -1.2272 -0.1433
  234MPD1    H7 3562   3.473   0.951   9.135 -1.6590  1.2069 -0.6828
  235MPD1     C 3563   3.984   0.331   8.595  0.1439 -0.1577 -0.5295
  235MPD1    C1 3564   4.018   0.338   8.720 -0.5662 -0.8516  0.4324
  235MPD1    C2 3565   4.062   0.220   8.781  0.0660 -0.1089 -0.2707
  235MPD1    C3 3566   4.097   0.108   8.711  0.6708  0.3954  0.2799
  235MPD1    C4 3567   4.063   0.102   8.574 -0.1746  0.5521  0.3066
  235MPD1    C5 3568   3.994   0.208   8.526  0.0055  0.2268 -0.6631
  235MPD1     H 3569   4.078   0.228   8.887 -0.9939  1.2176 -0.2201
  235MPD1    H1 3570   4.085   0.011   8.519  3.2183  1.5319  0.0781
  235MPD1    H2 3571   3.947   0.418   8.541  0.4264  1.0451  1.2310
  235MPD1    H3 3572   3.964   0.202   8.422 -2.8315  0.5611  0.1365
  235MPD1     N 3573   4.171   0.012   8.785  0.6012  0.2225  0.4372
  235MPD1    H5 3574   4.201   0.040   8.878 -1.2791 -1.8518  1.6776
  235MPD1    N1 3575   3.987   0.445   8.801  0.1793 -0.5379  0.2201
  235MPD1    H6 3576   3.972   0.530   8.746 -3.1921 -1.3177 -0.1029
  235MPD1    H7 3577   4.040   0.463   8.886  0.1723 -0.4091  0.1982
  236MPD1     C 3578   4.561   0.799  10.455 -0.5045  0.3364 -0.0269
  236MPD1    C1 3579   4.466   0.711  10.405  0.6649 -0.5618  0.1472
  236MPD1    C2 3580   4.502   0.583  10.386 -0.0210  0.2971 -0.3542
  236MPD1    C3 3581   4.631   0.535  10.414  0.2101  0.3022 -0.9231
  236MPD1    C4 3582   0.004   0.625  10.453 -0.8365  0.0331 -0.3109
  236MPD1    C5 3583   4.686   0.753  10.477  0.4503 -0.3640 -0.0192
  236MPD1     H 3584   4.429   0.511  10.352 -0.3518 -0.8467  2.8446
  236MPD1    H1 3585   0.106   0.596  10.474 -1.3560 -1.9752 -0.4981
  236MPD1    H2 3586   4.532   0.898  10.489  0.5646  0.1348  1.4677
  236MPD1    H3 3587   0.034   0.824  10.523 -0.7167  1.1666 -0.6772
  236MPD1     N 3588   4.683   0.407  10.395  0.5417 -0.7555  0.4092
  236MPD1    H5 3589   0.060   0.397  10.423  0.7285  1.6290  0.6328
  236MPD1    N1 3590   4.334   0.757  10.382  0.5629 -0.0191 -0.0086
  236MPD1    H6 3591   4.333   0.852  10.346  1.6547 -0.1609 -0.4355
  236MPD1    H7 3592   4.279   0.704  10.315 -1.3169 -0.4741  1.8760
  237MPD1     C 3593   4.617   3.469  15.336  0.0996  0.3074  0.5562
  237MPD1    C1 3594   4.570   3.579  15.273 -0.7523  0.2623 -0.1318
  237MPD1    C2 3595   4.429   3.580  15.270  0.3082 -0.2792 -0.2911
  237MPD1    C3 3596   4.346   3.492  15.324 -0.7536 -0.8977  0.0335
  237MPD1    C4 3597   4.400   3.388  15.391 -0.0517 -0.8502  0.6664
  237MPD1    C5 3598   4.532   3.380  15.402  1.1944  0.0694  0.2865
  237MPD1     H 3599   4.389   3.665  15.216  0.1998  1.0183  1.8351
  237MPD1    H1 3600   4.333   3.317  15.438  0.1927 -1.1327  0.5856
  237MPD1    H2 3601   0.002   3.449  15.353  0.2292 -0.2084 -0.8239
  237MPD1    H3 3602   4.576   3.300  15.461  1.0814  0.9844  1.6220
  237MPD1     N 3603   4.206   3.504  15.314 -0.3775  0.7195  0.4934
  237MPD1    H5 3604   4.156   3.432  15.365 -0.6477  2.0170  2.0748
  237MPD1    N1 3605   4.643   3.686  15.227 -0.0432 -0.1278  0.0737
  237MPD1    H6 3606   4.601   3.723  15.142 -1.3846  1.9209  1.6348
  237MPD1    H7 3607   0.015   3.661  15.192  0.9588  0.7534  2.1041
  238MPD1     C 3608   1.813   0.949  14.347 -0.0825 -0.3332 -0.3137
  238MPD1    C1 3609   1.786   1.004  14.472  0.1032  0.5126 -0.1571
  238MPD1    C2 3610   1.655   1.011  14.511  0.5140 -0.1968 -0.1935
  238MPD1    C3 3611   1.548   0.965  14.432  0.3943 -0.2728  0.8373
  238MPD1    C4 3612   1.577   0.910  14.306 -0.0185 -0.4117  0.0556
  238MPD1    C5 3613   1.710   0.909  14.265  0.1003  0.2721  0.6206
  238MPD1     H 3614   1.638   1.042  14.613  1.4321  0.1548 -0.1407
  238MPD1    H1 3615   1.499   0.880  14.237 -0.1484  1.8126 -0.7651
  238MPD1    H2 3616   1.916   0.940  14.317 -0.7658  0.2841 -2.7898
  238MPD1    H3 3617   1.730   0.879  14.162 -1.0952  1.5059  0.0263
  238MPD1     N 3618   1.412   0.978  14.470  0.0072  0.3048 -0.0482
  238MPD1    H5 3619   1.339   0.948  14.406 -0.0085 -0.5146  0.3530
  238MPD1    N1 3620   1.890   1.019  14.568 -0.4008 -0.8106 -0.0320
  238MPD1    H6 3621   1.864   1.090  14.636 -1.6131  0.0041 -1.3393
  238MPD1    H7 3622   1.972   1.062  14.525  1.1246 -2.2624  1.4357
  239MPD1     C 3623   1.484   3.165  15.124  0.6805 -0.4136  0.0636
  239MPD1    C1 3624   1.566   3.076  15.059 -0.3484 -0.2767  0.4931
  239MPD1    C2 3625   1.531   3.029  14.936  0.0179  0.0718  0.7690
  239MPD1    C3 3626   1.413   3.054  14.880  0.3466 -0.4641 -0.6322
  239MPD1    C4 3627   1.323   3.128  14.960  0.1848  0.1788  0.3584
  239MPD1    C5 3628   1.361   3.187  15.073 -0.5416 -0.4115 -0.5077
  239MPD1     H 3629   1.605   2.976  14.878 -0.2613 -0.5075  0.9382
  239MPD1    H1 3630   1.227   3.161  14.921  0.3520 -1.1968 -1.2233
  239MPD1    H2 3631   1.512   3.211  15.218 -1.5394  0.9638  0.0712
  239MPD1    H3 3632   1.296   3.257  15.125  2.4728  3.4803 -1.9590
  239MPD1     N 3633   1.369   3.015  14.754 -0.4854 -0.8110  0.1200
  239MPD1    H5 3634   1.281   3.055  14.723  0.3622  3.1908  2.7864
  239MPD1    N1 3635   1.699   3.064  15.101 -0.2720  0.6579  0.0930
  239MPD1    H6 3636   1.711   3.053  15.202  1.2356  0.1598 -0.1324
  239MPD1    H7 3637   1.753   2.984  15.070 -1.6782  0.9161 -2.9549
  240MPD1     C 3638   1.241   1.971  15.032 -0.1140  0.0237  0.3079
  240MPD1    C1 3639   1.220   2.105  15.029 -0.3165  0.2129 -0.6606
  240MPD1    C2 3640   1.112   2.156  15.101  0.4166  0.1965  0.0225
  240MPD1    C3 3641   1.038   2.082  15.188  0.4933 -0.5413  0.2976
  240MPD1    C4 3642   1.078   1.951  15.208 -0.0738  0.6821 -0.0792
  240MPD1    C5 3643   1.177   1.897  15.128 -0.1361  0.2493  0.3144
  240MPD1     H 3644   1.091   2.261  15.082 -0.8536  0.1110  0.9563
  240MPD1    H1 3645   1.030   1.885  15.279  1.9737 -1.3989 -0.5889
  240MPD1    H2 3646   1.319   1.928  14.969 -1.5482 -1.1378 -0.6669
  240MPD1    H3 3647   1.189   1.789  15.119 -0.5222 -0.0527  3.3977
  240MPD1     N 3648   0.924   2.146  15.240 -0.3213 -1.0394 -0.1286
  240MPD1    H5 3649   0.892   2.233  15.200 -0.7981 -0.4645  1.4954
  240MPD1    N1 3650   1.270   2.180  14.919 -0.4457  0.7087  0.1564
  240MPD1    H6 3651   1.259   2.280  14.935  0.4517  0.6484  1.1542
  240MPD1    H7 3652   1.364   2.151  14.891 -0.6511  0.7739 -0.6025
  241MPD1     C 3653   0.533   2.960  15.672 -0.6612 -0.1011  0.7087
  241MPD1    C1 3654   0.614   2.928  15.568  0.2662  0.0327 -0.0911
  241MPD1    C2 3655   0.629   2.799  15.526 -0.4898 -0.3792 -1.2169
  241MPD1    C3 3656   0.568   2.693  15.595 -0.0134 -0.7056  0.1149
  241MPD1    C4 3657   0.488   2.732  15.708 -0.6233  0.2691 -0.2117
  241MPD1    C5 3658   0.472   2.863  15.742 -0.3753  0.1454  0.2930
  241MPD1     H 3659   0.682   2.777  15.434  0.1547  0.7322 -1.1096
  241MPD1    H1 3660   0.428   2.657  15.758 -0.2916 -1.0405 -1.7431
  241MPD1    H2 3661   0.500   3.060  15.699  0.1150  0.4213 -0.2911
  241MPD1    H3 3662   0.404   2.883  15.824  0.0858  2.0425  0.1999
  241MPD1     N 3663   0.591   2.555  15.576 -0.0906  0.5237 -0.2552
  241MPD1    H5 3664   0.554   2.493  15.648 -0.4488 -0.2873 -1.1403
  241MPD1    N1 3665   0.646   3.040  15.477 -0.0873  0.0018  0.4034
  241MPD1    H6 3666   0.668   3.125  15.528  4.0041  0.7079 -2.5562
  241MPD1    H7 3667   0.730   3.022  15.422  0.0307 -0.9805  0.8978
  242MPD1     C 3668   4.660   0.533  16.184  1.2223 -0.2142  0.3546
  242MPD1    C1 3669   4.569   0.457  16.115 -0.3346 -0.3536 -1.2239
  242MPD1    C2 3670   4.587   0.444  15.975 -0.0544  0.2730  0.2580
  242MPD1    C3 3671   4.711   0.479  15.916 -0.2661  0.3696  0.5767
  242MPD1    C4 3672   0.079   0.549  15.994  0.6414  0.1526  0.8958
  242MPD1    C5 3673   0.048   0.578  16.121  0.2154 -0.7516 -0.2207
  242MPD1     H 3674   4.512   0.399  15.911  0.2746  1.1448 -0.7379
  242MPD1    H1 3675   0.173   0.589  15.958 -0.1161  0.4720 -0.7652
  242MPD1    H2 3676   4.648   0.558  16.289  0.9135 -0.2932  0.3383
  242MPD1    H3 3677   0.125   0.634  16.172  0.2570 -0.3017 -0.7816
  242MPD1     N 3678   0.030   0.460  15.783  0.3190  0.1281  0.3050
  242MPD1    H5 3679   0.108   0.516  15.751 -0.1698 -0.8509 -2.6408
  242MPD1    N1 3680   4.456   0.415  16.182 -0.0061 -0.3989  0.8426
  242MPD1    H6 3681   4.482   0.387  16.277  1.0575 -1.5990  0.1973
  242MPD1    H7 3682   4.414   0.344  16.123  2.3639 -0.5834 -0.6152
  243MPD1     C 3683   1.676   3.459  17.247  0.1783 -0.0695 -0.2665
  243MPD1    C1 3684   1.632   3.588  17.239  0.3084  0.4317 -0.9044
  243MPD1    C2 3685   1.704   3.679  17.162 -0.7632 -0.4570  0.4645
  243MPD1    C3 3686   1.821   3.647  17.092  0.2492  0.5767 -0.4240
  243MPD1    C4 3687   1.859   3.515  17.098 -0.6585 -0.5086 -0.6008
  243MPD1    C5 3688   1.792   3.431  17.183  0.2619  0.4297  0.4250
  243MPD1     H 3689   1.661   3.778  17.165  1.4764  0.5407 -0.6099
  243MPD1    H1 3690   1.948   3.471  17.054 -0.5463  1.1012 -1.9973
  243MPD1    H2 3691   1.626   3.385  17.308 -0.2783  0.9799  0.6378
  243MPD1    H3 3692   1.832   3.330  17.182 -1.2294 -0.1525 -3.0054
  243MPD1     N 3693   1.895   3.743  17.022 -0.5198  0.1489 -0.0615
  243MPD1    H5 3694   1.859   3.837  17.035  1.2756  0.6001  1.5585
  243MPD1    N1 3695   1.535   3.640  17.327 -0.0123  0.2608  1.0237
  243MPD1    H6 3696   1.464   3.569  17.348 -0.5452  0.3892 -0.3527
  243MPD1    H7 3697   1.488   3.727  17.301  1.7753  0.4074 -1.7331
  244MPD1     C 3698   2.813   3.586  16.686  0.1765  0.5586 -0.3312
  244MPD1    C1 3699   2.758   3.573  16.807  0.0331  0.3438  0.4292
  244MPD1    C2 3700   2.641   3.644  16.830  0.8198 -0.0964  0.2522
  244MPD1    C3 3701   2.577   3.718  16.731 -0.3607  0.6884 -0.4108
  244MPD1    C4 3702   2.633   3.716  16.608  0.2068 -0.1865 -0.3057
  244MPD1    C5 3703   2.756   3.654  16.588  0.5996  1.1659 -0.3895
  244MPD1     H 3704   2.590   3.617  16.922  0.0709 -2.2551 -0.8065
  244MPD1    H1 3705   2.586   3.761  16.522  1.5481  0.4919 -0.6859
  244MPD1    H2 3706   2.908   3.546  16.653 -1.0293 -1.9836 -0.7893
  244MPD1    H3 3707   2.810   3.671  16.496  2.3952 -1.3497  0.1787
  244MPD1     N 3708   2.450   3.781  16.764  0.6467 -0.1165  0.2839
  244MPD1    H5 3709   2.411   3.749  16.852  0.9740 -0.5261  0.2764
  244MPD1    N1 3710   2.820   3.500  16.909 -0.3938 -0.2330  0.8259
  244MPD1    H6 3711   2.854   3.412  16.872 -0.7996  0.1319 -0.4089
  244MPD1    H7 3712   2.761   3.472  16.987 -1.0349  1.1297  0.8325
  245MPD1     C 3713   3.451   0.035  13.238  0.3679  0.7827  0.3012
  245MPD1    C1 3714   3.462   0.047  13.373  0.3249 -0.8379  0.3858
  245MPD1    C2 3715   3.557   0.128  13.432  0.2016 -0.7927  0.3807
  245MPD1    C3 3716   3.647   0.203  13.360 -0.3165  0.2408 -1.1730
  245MPD1    C4 3717   3.635   0.186  13.223  0.0624  0.3231 -0.0841
  245MPD1    C5 3718   3.534   0.107  13.161 -0.1368 -0.7974 -0.1517
  245MPD1     H 3719   3.572   0.120  13.539  2.4652  0.5751  0.1658
  245MPD1    H1 3720   3.699   0.246  13.160 -2.2154  2.3022 -0.5132
  245MPD1    H2 3721   3.385   4.693  13.179  1.3627 -0.2655  0.2913
  245MPD1    H3 3722   3.517   0.104  13.054  0.9275 -2.5107 -0.2875
  245MPD1     N 3723   3.736   0.289  13.422 -0.5108  0.1110 -0.0964
  245MPD1    H5 3724   3.735   0.298  13.523  1.7847  1.2320 -0.1640
  245MPD1    N1 3725   3.384   4.682  13.455 -0.5336 -0.3489 -0.2809
  245MPD1    H6 3726   3.296   4.667  13.407 -1.6673 -0.6764  1.9048
  245MPD1    H7 3727   3.370   0.000  13.548 -1.5514  1.1182 -1.0443
  246MPD1     C 3728   3.709   4.689   8.110  0.2242 -0.1437  0.7858
  246MPD1    C1 3729   3.804   4.592   8.123 -0.5044 -0.1929 -0.6976
  246MPD1    C2 3730   3.843   4.556   8.250 -0.3646 -0.1420 -0.2810
  246MPD1    C3 3731   3.800   4.621   8.361  0.4191  0.1408 -0.0264
  246MPD1    C4 3732   3.717   0.009   8.341 -0.1071 -0.6955  0.2346
  246MPD1    C5 3733   3.667   0.047   8.215  0.4628  0.2253 -0.1170
  246MPD1     H 3734   3.910   4.471   8.262  0.8759  0.8661 -0.1611
  246MPD1    H1 3735   3.661   0.048   8.425  0.2735  3.4593 -1.4517
  246MPD1    H2 3736   3.650   4.692   8.019  0.6417 -2.1742  0.4396
  246MPD1    H3 3737   3.590   0.124   8.214  1.3423  1.0918 -0.8963
  246MPD1     N 3738   3.830   4.564   8.490  0.5525 -0.1724 -0.0317
  246MPD1    H5 3739   3.892   4.484   8.493 -0.3402 -0.8907 -0.8735
  246MPD1    N1 3740   3.838   4.510   8.013 -0.1124  0.1952 -0.5381
  246MPD1    H6 3741   3.803   4.527   7.919 -2.2542  0.8016  0.3882
  246MPD1    H7 3742   3.936   4.480   8.016 -0.1058  0.0878 -1.7008
  247MPD1     C 3743   1.961   4.709  16.097 -0.4972 -0.7272  0.0034
  247MPD1    C1 3744   2.008   0.121  16.122  1.1343 -0.6203 -0.2463
  247MPD1    C2 3745   2.138   0.132  16.172  0.3963  0.0335  0.3471
  247MPD1    C3 3746   2.229   0.026  16.176  0.2394 -0.1273 -1.0987
  247MPD1    C4 3747   2.181   4.619  16.152 -0.1103 -0.0240  0.2881
  247MPD1    C5 3748   2.053   4.602  16.104  0.7018 -0.7268 -0.1030
  247MPD1     H 3749   2.170   0.231  16.200 -0.3809  0.6478 -0.9317
  247MPD1    H1 3750   2.242   4.529  16.153  0.2672  0.2052 -2.0927
  247MPD1    H2 3751   1.858   4.684  16.078 -0.1057 -1.9271 -0.5707
  247MPD1    H3 3752   2.016   4.502  16.084 -3.8808  1.0338 -0.3473
  247MPD1     N 3753   2.361   0.045  16.219  0.3325 -0.4825 -0.0673
  247MPD1    H5 3754   2.413   4.678  16.215  0.1939 -0.5947  0.6600
  247MPD1    N1 3755   1.919   0.229  16.134 -0.6024  0.0345 -0.2070
  247MPD1    H6 3756   1.971   0.316  16.129  2.2788 -1.6777 -0.2315
  247MPD1    H7 3757   1.848   0.225  16.062 -0.0568 -2.8830 -0.6059
  248MPD1     C 3758   4.421   3.706   0.608 -0.3599  0.3117  0.0683
  248MPD1    C1 3759   4.440   3.738   0.741  0.1804  0.3326  0.6045
  248MPD1    C2 3760   4.355   3.828   0.802  0.4206 -0.3107  0.2270
  248MPD1    C3 3761   4.242   3.876   0.733  0.1102 -0.0971  1.1163
  248MPD1    C4 3762   4.217   3.833   0.604  0.7270 -0.3501 -0.0650
  248MPD1    C5 3763   4.311   3.755   0.544 -0.1871 -0.0907  0.3648
  248MPD1     H 3764   4.369   3.846   0.908  0.3523 -1.2282  0.3979
  248MPD1    H1 3765   4.127   3.856   0.548  1.1757  1.5750 -0.0078
  248MPD1    H2 3766   4.492   3.646   0.553  0.5988  0.8568  0.7092
  248MPD1    H3 3767   4.295   3.721   0.442  2.5221 -0.3016  0.0005
  248MPD1     N 3768   4.149   3.955   0.804  0.0083  0.3472 -0.0342
  248MPD1    H5 3769   4.163   3.966   0.904  2.4127  0.8849 -0.4466
  248MPD1    N1 3770   4.539   3.669   0.810  0.3519 -0.2566  0.2150
  248MPD1    H6 3771   4.616   3.632   0.755 -0.7196 -0.8964 -0.8503
  248MPD1    H7 3772   4.574   3.712   0.895  0.6829  1.3739 -0.7492
  249MPD1     C 3773   0.291   3.362  10.019 -0.1954  0.3110  0.4604
  249MPD1    C1 3774   0.273   3.407   9.890 -0.9612 -0.3905  0.0683
  249MPD1    C2 3775   0.374   3.493   9.843 -0.1811 -0.1014 -0.8500
  249MPD1    C3 3776   0.487   3.536   9.916 -0.1055  0.1577  0.1412
  249MPD1    C4 3777   0.499   3.490  10.047  0.3157  0.2086  0.0626
  249MPD1    C5 3778   0.395   3.412  10.094 -0.4138 -0.6256  0.0702
  249MPD1     H 3779   0.363   3.529   9.741  0.6211  0.4333 -0.7478
  249MPD1    H1 3780   0.582   3.514  10.113 -0.8152  2.4350  0.6605
  249MPD1    H2 3781   0.230   3.288  10.068  0.9824 -0.5036  0.6976
  249MPD1    H3 3782   0.405   3.371  10.194  1.7074  1.9765  0.9008
  249MPD1     N 3783   0.591   3.590   9.841 -0.3866 -0.3673  0.3813
  249MPD1    H5 3784   0.575   3.609   9.742  1.6628  0.3348  0.1829
  249MPD1    N1 3785   0.174   3.346   9.810 -0.1695  0.0009  0.0368
  249MPD1    H6 3786   0.096   3.322   9.871 -0.4995  0.8697 -0.0483
  249MPD1    H7 3787   0.143   3.406   9.734 -2.1207  0.6364  1.3122
  250MPD2     C 3788   1.695   3.215  13.193 -0.2143  0.0731  0.4535
  250MPD2    C1 3789   1.678   3.314  13.106 -0.8733 -0.5610 -0.2203
  250MPD2    C2 3790   1.607   3.302  12.990 -0.5039 -0.1423 -0.0053
  250MPD2    C3 3791   1.529   3.189  12.975  0.4490  0.3723 -0.1915
  250MPD2    C4 3792   1.538   3.091  13.073  0.3446 -0.0262  0.2588
  250MPD2    C5 3793   1.618   3.103  13.183  0.3505  0.5889 -0.2588
  250MPD2     H 3794   1.585   3.381  12.920 -0.7516 -0.1890  0.0226
  250MPD2    H1 3795   1.477   3.002  13.069  2.0124 -1.2124  1.5108
  250MPD2    H2 3796   1.768   3.214  13.273 -0.3605  0.6548  0.5962
  250MPD2    H3 3797   1.626   3.031  13.264 -0.7300 -0.5723 -1.1724
  250MPD2     N 3798   1.437   3.172  12.870  0.2608 -0.1359 -0.0738
  250MPD2    H5 3799   1.378   3.091  12.881  0.8785 -0.4990  0.5154
  250MPD2    N1 3800   1.759   3.425  13.130  0.2888  0.8065 -0.5458
  250MPD2    H7 3801   1.811   3.429  13.217  0.6761 -0.6779 -0.7138
  251TMC3    C1 3802   1.872   3.620  13.100  0.1787 -0.6455 -0.0370
  251TMC3    C2 3803   1.858   3.752  13.114 -0.4246 -0.3680  0.3485
  251TMC3    C3 3804   1.972   3.825  13.120  0.3529  0.3965  0.5026
  251TMC3    C4 3805   1.992   3.562  13.079 -0.0448  0.2970  0.0209
  251TMC3    C5 3806   2.103   3.635  13.076  0.0181 -0.3404 -0.2272
  251TMC3    C6 3807   2.096   3.770  13.101 -0.1860 -0.2040 -0.6597
  251TMC3     C 3808   1.759   3.537  13.063 -0.3998 -0.0220  0.5282
  251TMC3     O 3809   1.662   3.592  13.011  0.6877 -0.2605 -0.8138
  251TMC3     H 3810   1.762   3.795  13.138 -0.2641  0.2442 -0.1093
  251TMC3    H1 3811   1.992   3.456  13.057  0.1063  0.3744 -0.3526
  251TMC3    H2 3812   2.187   3.828  13.103 -1.5294  1.9476 -2.3327
  251TMC3    C7 3813   2.214   3.576  12.995  0.0297  0.1984  0.0555
  251TMC3    C8 3814   1.967   3.967  13.122 -0.2130 -0.3984  0.0916
  251TMC3    O1 3815   2.229   3.455  13.003 -0.5170  0.2558 -0.0137
  251TMC3    O2 3816   2.044   4.024  13.200  0.3023  0.3268 -0.2958
  252TMC3    C1 3817   3.047   3.705   9.243 -0.0402 -0.0406  0.7366
  252TMC3    C2 3818   3.107   3.816   9.184  0.5448 -0.3105 -0.2272
  252TMC3    C3 3819   3.100   3.829   9.046 -0.2588 -1.2169 -0.2083
  252TMC3    C4 3820   2.988   3.608   9.169 -0.1576 -0.1627  0.0386
  252TMC3    C5 3821   2.972   3.629   9.034  0.4655  0.4309  0.3002
  252TMC3    C6 3822   3.023   3.738   8.972  0.3654  0.0329  0.0583
  252TMC3     C 3823   3.107   3.669   9.371  0.0417  0.5299  0.5122
  252TMC3     O 3824   3.187   3.749   9.418  0.3703  0.5523  0.6460
  252TMC3     H 3825   3.161   3.888   9.244  1.8885 -1.5026  0.0065
  252TMC3    H1 3826   2.962   3.514   9.216  0.3880 -0.9191 -1.2017
  252TMC3    H2 3827   2.983   3.750   8.872  2.8812  0.0899 -0.9484
  252TMC3    C7 3828   2.888   3.540   8.954 -0.2180  0.4314  0.2293
  252TMC3    C8 3829   3.167   3.931   8.969 -0.2463  0.2622 -0.6475
  252TMC3    O1 3830   2.920   3.532   8.836  0.5984 -0.0111  0.8955
  252TMC3    O2 3831   3.157   3.933   8.846  0.2949 -0.2758 -0.6450
  253MPD2     C 3832   3.093   3.362  15.289  0.2695 -0.1711 -0.5854
  253MPD2    C1 3833   2.984   3.314  15.368 -0.5385  0.1738 -0.2039
  253MPD2    C2 3834   2.976   3.361  15.498  0.7660  0.1356 -0.2395
  253MPD2    C3 3835   3.076   3.444  15.555  0.2037 -0.2686 -0.4475
  253MPD2    C4 3836   3.167   3.499  15.469  0.2748 -0.4236  0.6166
  253MPD2    C5 3837   3.181   3.456  15.337  0.4910  0.0242  1.6645
  253MPD2     H 3838   2.889   3.331  15.554 -0.6919  2.0126 -1.4970
  253MPD2    H1 3839   3.231   3.572  15.517  1.4754 -1.6516  0.9046
  253MPD2    H2 3840   3.114   3.329  15.188 -1.1103 -2.2094 -0.2021
  253MPD2    H3 3841   3.259   3.498  15.275  0.3388 -1.9485  0.1177
  253MPD2     N 3842   3.085   3.471  15.694  0.0226  0.1138 -0.2261
  253MPD2    H5 3843   3.147   3.547  15.720  1.0197 -1.3897  1.7439
  253MPD2    N1 3844   2.881   3.240  15.307  0.3821  0.3645  0.0932
  253MPD2    H7 3845   2.793   3.225  15.356 -0.3966  1.1723 -1.0628
  254TMC3    C1 3846   3.075   3.430  15.917  0.3563  0.3322 -0.0265
  254TMC3    C2 3847   3.024   3.546  15.962 -0.4731  0.2900  0.3681
  254TMC3    C3 3848   3.029   3.565  16.094  0.3995  0.1829  0.0219
  254TMC3    C4 3849   3.098   3.321  15.997 -0.6271 -1.2106  0.2749
  254TMC3    C5 3850   3.121   3.344  16.132  0.0317 -0.3926  0.3835
  254TMC3    C6 3851   3.077   3.467  16.181 -0.5993 -0.1024  0.5743
  254TMC3     C 3852   3.034   3.393  15.784 -1.3465 -0.2393 -0.3277
  254TMC3     O 3853   2.970   3.289  15.779  0.7209 -0.7435  0.0871
  254TMC3     H 3854   3.004   3.623  15.888 -2.3697 -1.1671 -0.6088
  254TMC3    H1 3855   3.127   3.225  15.953  2.4136 -0.0933 -0.1660
  254TMC3    H2 3856   3.068   3.491  16.286 -1.8555  0.1906  0.4069
  254TMC3    C7 3857   3.134   3.232  16.224 -0.3092 -0.1033  0.3531
  254TMC3    C8 3858   2.965   3.676  16.167  0.0527  0.0312 -0.2305
  254TMC3    O1 3859   3.124   3.121  16.173 -0.2877 -0.3509  0.6977
  254TMC3    O2 3860   2.974   3.677  16.293 -0.0183 -0.1912 -0.1806
  255MPD2     C 3861   1.740   0.831  10.192 -0.3724 -0.1046 -0.7896
  255MPD2    C1 3862   1.812   0.939  10.233  0.8669  0.2014 -0.6030
  255MPD2    C2 3863   1.952   0.926  10.248 -0.2403  0.0720  0.4547
  255MPD2    C3 3864   2.022   0.818  10.197 -0.2635  0.4187 -0.1415
  255MPD2    C4 3865   1.943   0.711  10.158 -0.0463 -0.1421  0.0855
  255MPD2    C5 3866   1.803   0.716  10.159  0.1196 -0.3435  0.1805
  255MPD2     H 3867   2.025   0.999  10.283  0.4006  1.9770 -4.8824
  255MPD2    H1 3868   1.984   0.616  10.127  0.4968 -0.2719  1.2038
  255MPD2    H2 3869   1.631   0.829  10.190 -0.4734  1.9249  1.7132
  255MPD2    H3 3870   1.743   0.632  10.125 -1.1168  0.6011  0.0063
  255MPD2     N 3871   2.165   0.832  10.181  0.4887  0.7611 -0.9208
  255MPD2    H5 3872   2.201   0.920  10.218 -0.9722  1.1097 -0.3022
  255MPD2    N1 3873   1.752   1.064  10.232 -0.0127 -0.1429  0.2585
  255MPD2    H7 3874   1.656   1.073  10.201 -0.7045  0.5636  2.6085
  256TMC3    C1 3875   1.747   1.303  10.207 -0.7943  0.8923  0.5255
  256TMC3    C2 3876   1.796   1.423  10.256  0.2534  0.1726 -0.4875
  256TMC3    C3 3877   1.766   1.533  10.184 -0.4826 -0.5405 -0.8954
  256TMC3    C4 3878   1.647   1.291  10.116  0.8461  0.5374  0.1628
  256TMC3    C5 3879   1.616   1.412  10.055 -0.2815 -0.7900  0.2398
  256TMC3    C6 3880   1.673   1.535  10.082 -0.6870  0.9561 -0.2048
  256TMC3     C 3881   1.817   1.180  10.265 -0.4808  0.0933  0.9608
  256TMC3     O 3882   1.926   1.199  10.316 -0.3263  0.1114  0.2597
  256TMC3     H 3883   1.874   1.433  10.331  0.1249  1.2250 -0.4855
  256TMC3    H1 3884   1.634   1.198  10.063 -1.5218  1.4677 -0.8481
  256TMC3    H2 3885   1.645   1.626  10.030 -0.7752  1.2302  0.3207
  256TMC3    C7 3886   1.529   1.406   9.945 -0.1424 -0.5161  0.2576
  256TMC3    C8 3887   1.869   1.642  10.203  0.2318  0.9147 -0.6745
  256TMC3    O1 3888   1.443   1.322   9.952 -0.2107 -0.0907 -0.3521
  256TMC3    O2 3889   1.961   1.624  10.277 -0.2007 -0.5234 -0.8467
  257MPD2     C 3890   1.211   3.854  13.364 -0.2808  0.8460  0.2871
  257MPD2    C1 3891   1.147   3.792  13.256  0.1518  0.7684 -0.3472
  257MPD2    C2 3892   1.097   3.659  13.276 -0.3592  0.3525 -0.9132
  257MPD2    C3 3893   1.116   3.599  13.400 -0.1620 -0.4007 -0.0373
  257MPD2    C4 3894   1.180   3.668  13.506  0.4725  0.2545 -0.3165
  257MPD2    C5 3895   1.231   3.795  13.484 -0.4377  0.9559 -0.0174
  257MPD2     H 3896   1.039   3.607  13.200  1.1401  0.3531 -2.0712
  257MPD2    H1 3897   1.193   3.622  13.604  1.4441 -1.4653 -1.2477
  257MPD2    H2 3898   1.258   3.947  13.336 -0.0458  1.3661  2.3608
  257MPD2    H3 3899   1.280   3.858  13.559 -1.8385  0.2784  1.4519
  257MPD2     N 3900   1.087   3.460  13.420 -0.0390  0.2098  0.1216
  257MPD2    H5 3901   1.041   3.408  13.346 -0.7340 -0.6917  1.1882
  257MPD2    N1 3902   1.140   3.861  13.133 -0.0602 -0.2786  0.6846
  257MPD2    H7 3903   1.183   3.953  13.125 -3.0308  1.0674 -0.0110
  258TMC3    C1 3904   1.061   3.248  13.517 -0.1848  0.5023  0.0875
  258TMC3    C2 3905   1.105   3.181  13.405  0.0309 -0.0280 -0.5112
  258TMC3    C3 3906   1.133   3.044  13.425 -0.2261 -0.1969 -0.7400
  258TMC3    C4 3907   1.054   3.182  13.634 -0.3643  0.3113 -0.1329
  258TMC3    C5 3908   1.095   3.053  13.649 -0.0785  0.6636 -0.3048
  258TMC3    C6 3909   1.137   2.985  13.545 -0.2479  0.0055 -0.3044
  258TMC3     C 3910   1.095   3.387  13.537 -0.4894 -0.2790 -0.0340
  258TMC3     O 3911   1.121   3.421  13.650  0.3312  0.8574 -0.0965
  258TMC3     H 3912   1.114   3.225  13.306  1.7791  0.7493  0.0040
  258TMC3    H1 3913   1.010   3.234  13.719 -0.6199  0.8367 -0.5874
  258TMC3    H2 3914   1.133   2.877  13.546  1.3946 -0.0553 -0.1366
  258TMC3    C7 3915   1.087   2.987  13.775 -0.3689 -0.2190  0.5808
  258TMC3    C8 3916   1.180   2.977  13.302 -0.0638  0.1479 -0.0360
  258TMC3    O1 3917   1.017   3.032  13.864  0.0524  0.7958  0.1764
  258TMC3    O2 3918   1.147   3.041  13.197  0.1496 -0.2818 -0.8845
  259MPD2     C 3919   4.231   0.344   1.360  0.5518  0.9236  0.0379
  259MPD2    C1 3920   4.283   0.214   1.362  0.4766 -0.9560  0.7257
  259MPD2    C2 3921   4.327   0.155   1.242 -0.0540  0.0087 -0.0259
  259MPD2    C3 3922   4.326   0.223   1.116  0.3431  0.2730 -0.2688
  259MPD2    C4 3923   4.256   0.345   1.118 -0.2647 -0.1867  0.3788
  259MPD2    C5 3924   4.205   0.401   1.236 -0.3688  0.4619  1.0293
  259MPD2     H 3925   4.375   0.058   1.250  1.6002  0.9663  1.6046
  259MPD2    H1 3926   4.233   0.406   1.031 -1.0547  1.9464  2.0947
  259MPD2    H2 3927   4.186   0.387   1.449  0.0065  1.0029 -0.2758
  259MPD2    H3 3928   4.149   0.495   1.235 -2.4695 -0.7797  1.6865
  259MPD2     N 3929   4.379   0.169   1.001 -0.5524  0.1249  0.4174
  259MPD2    H5 3930   4.422   0.077   0.999 -2.3162 -0.6720 -0.4814
  259MPD2    N1 3931   4.295   0.151   1.492  0.6452  0.1738 -0.0741
  259MPD2    H7 3932   4.265   0.193   1.579  1.0072  1.8937 -0.7955
  260TMC3    C1 3933   4.481   0.174   0.786 -0.1175  0.0464 -0.3362
  260TMC3    C2 3934   4.536   0.249   0.688 -0.2606  0.2340  0.6942
  260TMC3    C3 3935   4.587   0.178   0.579  0.4350 -0.6844  1.1266
  260TMC3    C4 3936   4.474   0.032   0.790  0.3253 -0.4725  0.2651
  260TMC3    C5 3937   4.526   4.696   0.675  0.5523  0.2177 -0.1844
  260TMC3    C6 3938   4.577   0.044   0.568  0.3003 -0.5016  0.1958
  260TMC3     C 3939   4.408   0.247   0.885  0.5015  0.6596 -0.2155
  260TMC3     O 3940   4.394   0.368   0.868  0.0522 -0.3971  0.1710
  260TMC3     H 3941   4.569   0.350   0.710 -0.9273  0.7667 -0.7727
  260TMC3    H1 3942   4.420   4.692   0.862 -3.3927  2.5394 -0.0052
  260TMC3    H2 3943   4.585   4.717   0.471 -1.2931 -1.5886  0.5846
  260TMC3    C7 3944   4.559   4.555   0.672  0.1800  0.4410 -0.2418
  260TMC3    C8 3945   4.655   0.257   0.473  0.2118 -0.4610  0.0634
  260TMC3    O1 3946   4.587   4.499   0.566  0.4459 -0.0100  0.0600
  260TMC3    O2 3947   4.646   0.379   0.479  0.3652 -0.4043  0.4049
  261MPD2     C 3948   1.006   3.630  12.320  0.3024  0.0180 -0.0393
  261MPD2    C1 3949   1.147   3.590  12.333 -0.1072 -0.3008  0.1421
  261MPD2    C2 3950   1.246   3.690  12.314  0.1323  0.3333  0.1843
  261MPD2    C3 3951   1.210   3.819  12.288 -0.8632  0.4376 -0.6642
  261MPD2    C4 3952   1.080   3.859  12.291  0.4966  0.1373  0.2934
  261MPD2    C5 3953   0.982   3.766  12.302 -0.0380 -0.4731 -0.1473
  261MPD2     H 3954   1.352   3.669  12.304  0.1822  1.1243 -0.9396
  261MPD2    H1 3955   1.042   3.954  12.254 -0.0868 -0.7609 -1.4317
  261MPD2    H2 3956   0.926   3.564  12.349 -1.7760  1.8119 -1.7453
  261MPD2    H3 3957   0.878   3.796  12.291  0.5762  1.9266  0.7061
  261MPD2     N 3958   1.318   3.901  12.253  0.1532 -0.0545 -0.4247
  261MPD2    H5 3959   1.412   3.861  12.254 -0.2498 -0.9572  0.6265
  261MPD2    N1 3960   1.192   3.464  12.368  0.5595  0.9132  0.1631
  261MPD2    H7 3961   1.292   3.460  12.383  0.4759 -1.2818  0.1620
  262TMC3    C1 3962   1.443   4.052  12.137  0.5501  0.6064  0.2999
  262TMC3    C2 3963   1.440   4.132  12.027  0.5055 -0.9801 -0.2909
  262TMC3    C3 3964   1.549   4.120  11.947 -0.0567 -0.3007  0.0344
  262TMC3    C4 3965   1.549   3.971  12.171 -0.3978  0.0232  0.1865
  262TMC3    C5 3966   1.661   3.972  12.092  0.2223 -0.7846 -0.3405
  262TMC3    C6 3967   1.657   4.048  11.975  0.0373 -0.5267  0.4506
  262TMC3     C 3968   1.317   4.026  12.208 -0.7792  0.0274  0.0657
  262TMC3     O 3969   1.222   4.104  12.194  0.5321 -0.8472  0.0271
  262TMC3     H 3970   1.354   4.189  11.995  0.9771 -1.6404 -2.7261
  262TMC3    H1 3971   1.544   3.917  12.264 -0.0286  1.0628  0.8165
  262TMC3    H2 3972   1.743   4.039  11.910 -0.1494  0.3669  0.0883
  262TMC3    C7 3973   1.763   3.863  12.110  0.4444  0.2354  0.3433
  262TMC3    C8 3974   1.560   4.205  11.828 -0.2500  0.5121 -0.4864
  262TMC3    O1 3975   1.871   3.881  12.047  0.3680 -0.6843  0.5641
  262TMC3    O2 3976   1.674   4.236  11.795  0.0800 -0.4661 -0.3072
  263MPD2     C 3977   2.443   3.021  11.208  0.1895  0.5879 -0.3195
  263MPD2    C1 3978   2.502   2.899  11.250  0.5083  0.0125 -0.4053
  263MPD2    C2 3979   2.487   2.785  11.181 -0.3356  0.5812 -0.7677
  263MPD2    C3 3980   2.411   2.789  11.068  0.0970 -0.0300 -0.4998
  263MPD2    C4 3981   2.362   2.903  11.017  0.2504 -0.7298  0.2714
  263MPD2    C5 3982   2.381   3.016  11.086  0.0487  0.5673 -0.0111
  263MPD2     H 3983   2.539   2.698  11.220  0.9026  1.0202 -1.4338
  263MPD2    H1 3984   2.289   2.914  10.938  0.9189 -1.2160 -0.4189
  263MPD2    H2 3985   2.442   3.108  11.273  0.7607  0.3004  0.0817
  263MPD2    H3 3986   2.332   3.104  11.048 -0.3871  0.1962 -0.3149
  263MPD2     N 3987   2.400   2.661  11.002 -0.0336 -0.2433 -0.4821
  263MPD2    H5 3988   2.449   2.582  11.041 -1.4581  0.0481  1.9427
  263MPD2    N1 3989   2.572   2.884  11.373  0.0556  0.3795  0.0381
  263MPD2    H7 3990   2.608   2.791  11.392 -0.1577  0.0431 -1.1893
  264TMC3    C1 3991   2.367   2.513  10.828  0.0467  0.1734 -0.6141
  264TMC3    C2 3992   2.275   2.468  10.741  1.0089  0.3564  0.3392
  264TMC3    C3 3993   2.312   2.381  10.645 -0.5527  0.2089 -0.5747
  264TMC3    C4 3994   2.496   2.476  10.823 -0.1065 -0.6921  0.4349
  264TMC3    C5 3995   2.532   2.375  10.744  0.1856  0.4880 -0.8082
  264TMC3    C6 3996   2.438   2.331  10.652  0.4652  0.0352 -0.5495
  264TMC3     C 3997   2.340   2.641  10.882  0.2452  0.3054  0.9133
  264TMC3     O 3998   2.278   2.716  10.808  0.0203  0.2777  0.0771
  264TMC3     H 3999   2.178   2.516  10.746 -0.2897 -2.1419 -0.6495
  264TMC3    H1 4000   2.556   2.521  10.901  2.1088 -1.0837 -1.0414
  264TMC3    H2 4001   2.457   2.248  10.583 -0.3653  0.1782 -0.9495
  264TMC3    C7 4002   2.674   2.382  10.701  0.3600  0.5633  0.3304
  264TMC3    C8 4003   2.306   2.441  10.511  0.0099 -0.4928  0.4352
  264TMC3    O1 4004   2.762   2.400  10.785  0.1119  0.7595 -0.0444
  264TMC3    O2 4005   2.413   2.451  10.453 -0.1077 -0.2279  0.3320
  265MPD2     C 4006   0.026   3.297  15.716  0.4107  0.2601 -0.3526
  265MPD2    C1 4007   0.101   3.388  15.647 -0.1524 -0.4303 -0.1564
  265MPD2    C2 4008   0.186   3.347  15.546  0.0205  0.1169 -0.1399
  265MPD2    C3 4009   0.180   3.211  15.505  0.1608  0.2517  0.1658
  265MPD2    C4 4010   0.093   3.128  15.564  0.5647 -0.2532 -0.1488
  265MPD2    C5 4011   0.016   3.170  15.665 -0.3131 -0.2407 -0.2536
  265MPD2     H 4012   0.245   3.417  15.489 -0.6724 -1.1326 -2.3841
  265MPD2    H1 4013   0.089   3.031  15.516 -2.6042 -0.3822  0.3545
  265MPD2    H2 4014   4.678   3.326  15.795  1.7479 -0.4480  1.0591
  265MPD2    H3 4015   4.670   3.100  15.716 -1.2422  1.5149  0.9497
  265MPD2     N 4016   0.256   3.156  15.396  0.2693  0.2631  0.5135
  265MPD2    H5 4017   0.275   3.057  15.405  2.1422  0.4774 -0.9667
  265MPD2    N1 4018   0.119   3.525  15.681  0.8031 -0.9082 -0.2586
  265MPD2    H7 4019   0.165   3.585  15.614 -0.5665  1.0944  0.5697
  266TMC3    C1 4020   0.084   3.719  15.806 -0.4109  0.0701  0.7320
  266TMC3    C2 4021   0.013   3.768  15.915  0.6521 -0.2790 -0.3306
  266TMC3    C3 4022   0.055   3.879  15.980  0.2693  0.4637  0.1372
  266TMC3    C4 4023   0.199   3.793  15.769  0.4197  0.0726  0.4492
  266TMC3    C5 4024   0.230   3.909  15.833 -0.3982 -0.3037  0.1576
  266TMC3    C6 4025   0.164   3.955  15.938 -0.0101 -1.0915  0.0429
  266TMC3     C 4026   0.074   3.571  15.797  0.4106 -1.0937  0.6590
  266TMC3     O 4027   0.039   3.512  15.899 -0.4609  0.8060  0.2679
  266TMC3     H 4028   4.652   3.719  15.967 -1.2059  3.6673  0.4008
  266TMC3    H1 4029   0.267   3.768  15.689  0.8172  0.4324  0.6796
  266TMC3    H2 4030   0.194   4.048  15.986 -0.3106 -2.0839  2.1456
  266TMC3    C7 4031   0.299   4.012  15.770 -0.0437  0.3187 -0.0271
  266TMC3    C8 4032   4.681   3.952  16.066  0.5524 -1.1877  0.4774
  266TMC3    O1 4033   0.412   3.976  15.736 -0.5899  0.2777  0.5904
  266TMC3    O2 4034   4.562   3.935  16.047 -0.3045 -0.2213 -0.9264
  267MPD2     C 4035   2.539   4.542   0.018  0.3790  0.5969 -0.1058
  267MPD2    C1 4036   2.503   4.655  17.620 -0.3339  0.3477 -0.4714
  267MPD2    C2 4037   2.435   4.640  17.504 -0.3054 -0.0647 -0.3363
  267MPD2    C3 4038   2.400   4.513  17.463 -0.2603 -0.6302  0.7024
  267MPD2    C4 4039   2.428   4.405  17.545 -0.2799  0.6372 -0.6794
  267MPD2    C5 4040   2.507   4.421  17.656  0.5096 -0.1937 -0.0139
  267MPD2     H 4041   2.414   0.003  17.438  1.0370  0.9569  0.5474
  267MPD2    H1 4042   2.413   4.304  17.509  2.9152 -0.5589  1.3683
  267MPD2    H2 4043   2.596   4.549   0.110 -0.1088 -1.0863  0.3447
  267MPD2    H3 4044   2.539   4.337   0.034  2.7083  1.6684  1.4078
  267MPD2     N 4045   2.310   4.494  17.358 -0.1113  0.7948  0.5658
  267MPD2    H5 4046   2.284   4.396  17.346  1.6375  0.1915  1.6691
  267MPD2    N1 4047   2.540   0.061  17.674  0.4180  0.3424 -0.0991
  267MPD2    H7 4048   2.594   0.060   0.078  1.4107  0.9873 -0.7063
  268TMC3    C1 4049   2.588   0.295  17.672  0.9969  0.3793  0.4985
  268TMC3    C2 4050   2.522   0.414  17.663  0.5069 -1.0696 -0.4752
  268TMC3    C3 4051   2.553   0.523   0.055 -0.7995 -0.2734  0.4664
  268TMC3    C4 4052   2.690   0.283   0.079 -0.7604 -0.6819  1.0904
  268TMC3    C5 4053   2.729   0.403   0.146  0.2389 -0.0005 -0.6373
  268TMC3    C6 4054   2.650   0.515   0.148 -0.2673 -0.0013 -0.7595
  268TMC3     C 4055   2.525   0.181  17.608  0.0783  0.0784 -0.3230
  268TMC3     O 4056   2.453   0.202  17.511 -0.1592  0.0113  0.4967
  268TMC3     H 4057   2.427   0.408  17.611  0.0508  3.0599 -0.0845
  268TMC3    H1 4058   2.753   0.196   0.089  0.2352  0.0648  1.3596
  268TMC3    H2 4059   2.676   0.590   0.222  0.0570 -1.0167  0.1590
  268TMC3    C7 4060   2.809   0.383   0.272  0.4120  0.5540  0.4012
  268TMC3    C8 4061   2.482   0.648   0.050  0.3019  0.3646 -0.2844
  268TMC3    O1 4062   2.809   0.267   0.316 -0.7899 -0.2537 -0.0945
  268TMC3    O2 4063   2.465   0.694   0.160  0.0361 -0.2310  0.3853
  269MPD2     C 4064   2.688   4.001  15.647 -0.5279 -0.6223  0.1867
  269MPD2    C1 4065   2.569   4.027  15.715 -0.2935 -0.2193 -0.2662
  269MPD2    C2 4066   2.499   4.148  15.691 -0.1352  0.3300  0.2547
  269MPD2    C3 4067   2.561   4.246  15.612  0.0912  0.5570 -0.0746
  269MPD2    C4 4068   2.691   4.224  15.563  0.1417  0.9689  0.9026
  269MPD2    C5 4069   2.742   4.100  15.572 -0.1425  0.0539 -0.0371
  269MPD2     H 4070   2.412   4.171  15.752  1.7608 -0.7518  3.3710
  269MPD2    H1 4071   2.747   4.296  15.504 -2.0696  0.9111 -1.2763
  269MPD2    H2 4072   2.728   3.901  15.661  0.1995 -0.0555  2.1613
  269MPD2    H3 4073   2.829   4.080  15.510  1.5143  0.2756  2.2262
  269MPD2     N 4074   2.500   4.373  15.606 -0.0987  0.5303  0.4229
  269MPD2    H5 4075   2.414   4.388  15.659  0.4850  2.7118  0.7290
  269MPD2    N1 4076   2.527   3.911  15.796  0.1611 -0.2044  0.2678
  269MPD2    H7 4077   2.594   3.835  15.797 -2.1189 -2.2055  1.5361
  270TMC3    C1 4078   2.388   3.786  15.943 -0.6789 -0.7499 -0.2775
  270TMC3    C2 4079   2.254   3.753  15.962 -0.1117 -0.1681  0.1286
  270TMC3    C3 4080   2.223   3.621  15.969  0.8004 -0.8828 -0.0950
  270TMC3    C4 4081   2.499   3.704  15.946  0.5414  0.2856  0.0118
  270TMC3    C5 4082   2.462   3.578  15.971 -0.1611 -0.3816  0.7188
  270TMC3    C6 4083   2.327   3.535  15.984 -0.4928 -0.0583 -0.4367
  270TMC3     C 4084   2.407   3.908  15.860  0.4649  0.2509 -0.4064
  270TMC3     O 4085   2.321   3.997  15.859  0.1570  0.1129  0.2658
  270TMC3     H 4086   2.180   3.824  15.924 -1.4122 -1.5804  0.0388
  270TMC3    H1 4087   2.605   3.730  15.942 -0.4657  3.9765 -2.4762
  270TMC3    H2 4088   2.301   3.436  16.019  1.1466 -0.4343 -0.2764
  270TMC3    C7 4089   2.524   3.478  15.886  0.0606  0.1294  0.4999
  270TMC3    C8 4090   2.121   3.567  15.878 -0.0571 -0.6662  0.2751
  270TMC3    O1 4091   2.641   3.472  15.893 -0.1548  0.0432 -0.4049
  270TMC3    O2 4092   2.146   3.455  15.836 -0.1640 -0.3667  0.4404
  271MPD2     C 4093   1.495   3.493  14.124  0.8809  0.8272 -0.0655
  271MPD2    C1 4094   1.391   3.455  14.204  0.1241 -1.1137  0.5717
  271MPD2    C2 4095   1.267   3.446  14.146 -0.1697  0.2502 -0.1497
  271MPD2    C3 4096   1.245   3.473  14.010  0.0891 -0.9096  0.1357
  271MPD2    C4 4097   1.350   3.527  13.937 -0.2257 -0.5451  0.4382
  271MPD2    C5 4098   1.476   3.532  13.991  0.2139 -0.4709  0.6639
  271MPD2     H 4099   1.184   3.420  14.210  0.3363  1.9446  1.1957
  271MPD2    H1 4100   1.335   3.569  13.839  2.9487 -1.3645 -0.4004
  271MPD2    H2 4101   1.589   3.522  14.168  1.0832  0.2223 -0.1044
  271MPD2    H3 4102   1.560   3.587  13.950 -0.7968 -0.0512 -0.8669
  271MPD2     N 4103   1.124   3.454  13.948  0.4891 -0.7747  0.2274
  271MPD2    H5 4104   1.113   3.488  13.853  0.5200  1.4491  1.0186
  271MPD2    N1 4105   1.413   3.419  14.346 -0.3704 -0.0544  0.1362
  271MPD2    H7 4106   1.331   3.398  14.402  1.3213 -1.6734  1.9875
  272TMC3    C1 4107   1.540   3.309  14.509 -0.9800  0.8208  0.2664
  272TMC3    C2 4108   1.654   3.235  14.511  0.1279 -0.3976  0.2859
  272TMC3    C3 4109   1.701   3.200  14.634  0.2678  0.1140 -0.0657
  272TMC3    C4 4110   1.465   3.339  14.620  0.2932 -0.2750 -0.1147
  272TMC3    C5 4111   1.530   3.326  14.735 -0.3908  0.2917  0.6427
  272TMC3    C6 4112   1.636   3.248  14.749  0.7977  0.3854 -0.1323
  272TMC3     C 4113   1.538   3.384  14.385  0.1760  0.1255  0.6925
  272TMC3     O 4114   1.642   3.383  14.323  0.3763 -0.1549 -0.1560
  272TMC3     H 4115   1.699   3.188  14.423  1.3336 -0.4126  0.9078
  272TMC3    H1 4116   1.379   3.404  14.607 -0.6921 -1.4014  0.7853
  272TMC3    H2 4117   1.680   3.234  14.847 -1.0842  0.5667  0.7250
  272TMC3    C7 4118   1.476   3.403  14.841 -0.5586  0.6424 -0.3370
  272TMC3    C8 4119   1.820   3.114  14.643 -0.1380 -0.1774 -0.0229
  272TMC3    O1 4120   1.354   3.415  14.838 -0.2517  0.3663 -0.3918
  272TMC3    O2 4121   1.856   3.059  14.537 -0.3691  0.0460 -0.3132
  273MPD2     C 4122   3.277   1.349  12.073  0.7634  0.1104 -0.3358
  273MPD2    C1 4123   3.285   1.484  12.111  0.2061  0.2984  1.0169
  273MPD2    C2 4124   3.221   1.569  12.024 -0.2243 -0.1809  0.5808
  273MPD2    C3 4125   3.175   1.528  11.898  0.3427 -0.0284 -0.4048
  273MPD2    C4 4126   3.168   1.396  11.869  0.2389  0.2430  0.0372
  273MPD2    C5 4127   3.221   1.306  11.957 -0.9961 -0.6613  0.5384
  273MPD2     H 4128   3.204   1.672  12.054  0.4616  0.3503 -0.8520
  273MPD2    H1 4129   3.139   1.362  11.770 -0.8945  0.6583  0.2276
  273MPD2    H2 4130   3.312   1.269  12.139  0.8569 -0.0518 -0.5833
  273MPD2    H3 4131   3.227   1.199  11.937  1.8989 -0.8079  2.2307
  273MPD2     N 4132   3.143   1.614  11.794 -0.1110  0.0984 -0.4286
  273MPD2    H5 4133   3.086   1.574  11.721  0.7938  0.5220 -1.3688
  273MPD2    N1 4134   3.333   1.535  12.235 -0.6032  0.1247 -0.1664
  273MPD2    H7 4135   3.370   1.463  12.297  0.5889 -0.1151 -1.1474
  274TMC3    C1 4136   3.139   1.824  11.686  0.1852  0.0766 -0.0883
  274TMC3    C2 4137   3.091   1.768  11.568  0.5668  0.4281  0.8863
  274TMC3    C3 4138   3.035   1.852  11.472 -0.1304  0.4417 -0.2976
  274TMC3    C4 4139   3.130   1.953  11.713 -1.0675  0.2998 -0.6881
  274TMC3    C5 4140   3.061   2.035  11.626 -0.0069  0.0667  0.0009
  274TMC3    C6 4141   3.021   1.985  11.505  1.3643  0.3204  0.2429
  274TMC3     C 4142   3.199   1.740  11.783 -0.0896 -0.4174 -0.4038
  274TMC3     O 4143   3.283   1.794  11.853  0.3736  0.3051  0.0139
  274TMC3     H 4144   3.106   1.661  11.555 -2.7168  0.1008 -0.1809
  274TMC3    H1 4145   3.165   1.981  11.812  1.9718  0.9683 -1.9322
  274TMC3    H2 4146   2.953   2.042  11.444  1.4282  0.2054  0.0646
  274TMC3    C7 4147   3.030   2.175  11.654 -0.1330 -0.8574  0.3550
  274TMC3    C8 4148   2.986   1.807  11.345  0.1062  0.0089  0.1415
  274TMC3    O1 4149   2.954   2.239  11.589 -0.0236 -0.5142 -0.3845
  274TMC3    O2 4150   2.939   1.694  11.339 -0.4452  0.1537  0.1596
  275MPD2     C 4151   3.066   4.302  14.458  0.2697  0.0610 -0.3201
  275MPD2    C1 4152   3.016   4.203  14.543  0.1430 -0.7871 -0.0796
  275MPD2    C2 4153   2.914   4.124  14.501  0.3075 -0.3142  0.1814
  275MPD2    C3 4154   2.859   4.139  14.375 -0.5682  0.3904  0.2080
  275MPD2    C4 4155   2.907   4.238  14.299 -0.9786  0.0120  0.6796
  275MPD2    C5 4156   3.007   4.322  14.337 -0.3820  0.1159  0.0387
  275MPD2     H 4157   2.877   4.048  14.569  2.6822 -3.1075 -1.6555
  275MPD2    H1 4158   2.854   4.261  14.208 -2.4904  0.6649  1.7200
  275MPD2    H2 4159   3.132   4.384  14.487  0.6002 -0.2715 -0.1365
  275MPD2    H3 4160   3.029   4.412  14.281 -0.9819  1.4643  1.9668
  275MPD2     N 4161   2.753   4.058  14.328 -0.3253  0.3753  0.1137
  275MPD2    H5 4162   2.722   4.079  14.234  0.9626  0.6317 -0.2452
  275MPD2    N1 4163   3.073   4.166  14.666 -0.2080 -0.5086 -0.0202
  275MPD2    H7 4164   3.030   4.092  14.720  0.5494 -1.1954 -0.3601
  276TMC3    C1 4165   3.209   4.176  14.861 -0.4136  0.2257 -0.1128
  276TMC3    C2 4166   3.228   4.044  14.875 -0.0791 -0.0908 -0.2693
  276TMC3    C3 4167   3.303   4.002  14.979  0.3492 -0.6301 -0.9159
  276TMC3    C4 4168   3.273   4.264  14.945 -0.7874  0.0118  0.5399
  276TMC3    C5 4169   3.346   4.216  15.049 -0.4497 -0.3341  0.0965
  276TMC3    C6 4170   3.355   4.084  15.076  0.8943  0.4513 -0.0736
  276TMC3     C 4171   3.171   4.234  14.735  0.1048 -1.5177 -0.6835
  276TMC3     O 4172   3.209   4.349  14.705 -0.5889  0.1728  0.7884
  276TMC3     H 4173   3.216   3.977  14.791 -0.9708  0.9369 -0.9778
  276TMC3    H1 4174   3.263   4.372  14.946  0.5102  0.1153  1.3736
  276TMC3    H2 4175   3.409   4.055  15.165 -0.2327 -0.1432  0.4227
  276TMC3    C7 4176   3.414   4.307  15.137 -0.5069  0.7406  0.4341
  276TMC3    C8 4177   3.313   3.863  15.006 -0.7247  0.5134 -0.3690
  276TMC3    O1 4178   3.364   4.418  15.145  0.0679 -0.3774  0.1531
  276TMC3    O2 4179   3.378   3.820  15.099 -0.0687  0.8577  0.2816
  277MPD2     C 4180   0.400   3.696  13.191 -0.4852 -0.2937  0.4033
  277MPD2    C1 4181   0.266   3.700  13.213  0.1101  0.3139  0.2167
  277MPD2    C2 4182   0.204   3.587  13.267  0.4339  0.2648  0.0549
  277MPD2    C3 4183   0.282   3.482  13.304 -0.0360  0.2132 -0.0760
  277MPD2    C4 4184   0.418   3.486  13.297 -0.1388  0.6297 -0.5661
  277MPD2    C5 4185   0.474   3.592  13.234  0.3766 -0.2068  0.1916
  277MPD2     H 4186   0.097   3.581  13.287  0.2446  0.7761 -0.8232
  277MPD2    H1 4187   0.483   3.410  13.337  0.1446  2.3126  2.2023
  277MPD2    H2 4188   0.458   3.779  13.152 -0.2966 -0.2417  0.7961
  277MPD2    H3 4189   0.582   3.590  13.224  0.3093 -1.3439 -0.2675
  277MPD2     N 4190   0.213   3.377  13.363  0.2704 -0.0885  0.9942
  277MPD2    H5 4191   0.114   3.383  13.343  0.9205  1.0270 -1.8831
  277MPD2    N1 4192   0.200   3.821  13.179  0.7050  0.8851 -0.2223
  277MPD2    H7 4193   0.246   3.892  13.124  0.0182  1.3274 -0.2311
  278TMC3    C1 4194   0.161   3.179  13.447 -0.8254 -0.4352  0.1740
  278TMC3    C2 4195   0.194   3.052  13.485  0.4254  0.1363 -0.4030
  278TMC3    C3 4196   0.086   2.968  13.522  0.4416  0.4106  0.2095
  278TMC3    C4 4197   0.031   3.223  13.462 -0.3908  0.3669  0.5718
  278TMC3    C5 4198   4.654   3.136  13.500 -0.2285  0.2710 -0.5890
  278TMC3    C6 4199   4.679   3.010  13.535 -0.2562 -0.6534  0.1869
  278TMC3     C 4200   0.272   3.263  13.404 -0.0471 -0.5108  0.1676
  278TMC3     O 4201   0.391   3.247  13.437  0.0646  0.2063 -0.0102
  278TMC3     H 4202   0.291   3.007  13.466  0.4207  0.4407 -1.1379
  278TMC3    H1 4203   4.716   3.325  13.458  2.3633  1.4153  3.1824
  278TMC3    H2 4204   4.603   2.940  13.568 -0.4428 -0.4404  0.2094
  278TMC3    C7 4205   4.515   3.182  13.471  0.0458 -0.6244 -0.0836
  278TMC3    C8 4206   0.103   2.834  13.544 -0.9494  0.3534 -0.5640
  278TMC3    O1 4207   4.509   3.243  13.365  0.1344  0.5378 -0.0726
  278TMC3    O2 4208   0.212   2.788  13.576  0.0882  0.5525 -0.5049
  279MPD2     C 4209   4.077   3.471   0.669  0.5079  0.1888 -0.5425
  279MPD2    C1 4210   3.984   3.571   0.683  0.2263 -0.1368 -0.5824
  279MPD2    C2 4211   3.928   3.627   0.565  0.8449  0.5445  0.2398
  279MPD2    C3 4212   3.981   3.584   0.439  0.0270 -0.0021 -0.0262
  279MPD2    C4 4213   4.074   3.485   0.432  0.1625 -0.2079 -0.6605
  279MPD2    C5 4214   4.126   3.429   0.550  0.0298  0.0639 -0.0590
  279MPD2     H 4215   3.853   3.706   0.570 -0.1304 -0.5691  2.9420
  279MPD2    H1 4216   4.110   3.450   0.336  0.8943 -0.3979 -0.3167
  279MPD2    H2 4217   4.125   3.443   0.762  0.7632 -1.4641 -1.1724
  279MPD2    H3 4218   4.205   3.355   0.545  0.8389  0.8881  0.4250
  279MPD2     N 4219   3.952   3.641   0.315 -0.5697 -0.3847 -1.1981
  279MPD2    H5 4220   4.013   3.621   0.237  1.1217  1.5798 -0.3767
  279MPD2    N1 4221   3.953   3.600   0.821 -0.4000 -0.3612  0.0637
  279MPD2    H7 4222   4.017   3.562   0.890  0.4767 -1.9224 -1.5942
  280TMC3    C1 4223   3.742   3.707   0.791  0.2542 -0.2695 -0.1394
  280TMC3    C2 4224   3.673   3.592   0.746  0.8250 -0.0030 -0.2890
  280TMC3    C3 4225   3.563   3.611   0.671 -0.4945 -0.0524 -0.1407
  280TMC3    C4 4226   3.690   3.831   0.788  0.2141 -0.3877  0.5293
  280TMC3    C5 4227   3.565   3.843   0.730  0.0875  0.2455  0.2591
  280TMC3    C6 4228   3.504   3.733   0.663 -0.4890 -0.1202  0.5155
  280TMC3     C 4229   3.859   3.689   0.874  0.1088 -0.3352  0.1381
  280TMC3     O 4230   3.861   3.747   0.983 -0.1151  0.3788 -0.2018
  280TMC3     H 4231   3.716   3.496   0.771  0.8897 -0.0344 -0.5223
  280TMC3    H1 4232   3.751   3.914   0.821 -0.3392 -0.0089  0.5956
  280TMC3    H2 4233   3.406   3.736   0.618  0.0141 -0.6085 -0.6037
  280TMC3    C7 4234   3.526   3.980   0.711 -0.2280 -0.1907  0.2687
  280TMC3    C8 4235   3.530   3.510   0.568 -0.0433  0.5228  0.8592
  280TMC3    O1 4236   3.558   4.066   0.793  0.6034  0.4059 -0.0562
  280TMC3    O2 4237   3.439   3.531   0.489  0.5258 -0.3205 -0.0333
  281TMC3    C1 4238   2.696   3.317  13.028  0.0791  0.2651 -0.2664
  281TMC3    C2 4239   2.661   3.348  12.898 -0.1081  0.2217 -0.8607
  281TMC3    C3 4240   2.574   3.263  12.831  0.2328 -0.6725 -0.0351
  281TMC3    C4 4241   2.632   3.211  13.091  0.4242  0.2045  0.1447
  281TMC3    C5 4242   2.535   3.143  13.026  0.0515  0.3335  0.3031
  281TMC3    C6 4243   2.515   3.156  12.894  0.0808  0.4519  0.4562
  281TMC3     C 4244   2.757   3.416  13.111 -0.4060  0.2146 -0.1887
  281TMC3     O 4245   2.823   3.371  13.203 -0.5041 -0.2065 -0.0805
  281TMC3     H 4246   2.714   3.426  12.845  0.2490  0.7302  0.2512
  281TMC3    H1 4247   2.653   3.190  13.196 -1.9190 -0.9029  0.3820
  281TMC3    H2 4248   2.444   3.096  12.838 -0.1975  3.2899 -2.2439
  281TMC3    C7 4249   2.444   3.052  13.093  0.5814  0.1812  0.6596
  281TMC3    C8 4250   2.550   3.266  12.687  1.0461 -0.3870 -0.9731
  281TMC3    O1 4251   2.330   3.041  13.051  0.1775  0.2414  0.1713
  281TMC3    O2 4252   2.558   3.158  12.625  0.6840 -0.1793 -0.0704
  282MPD2     C 4253   4.482   0.150  15.419 -0.4075 -0.0639  0.6415
  282MPD2    C1 4254   4.358   0.207  15.418  0.9173  0.3726  0.3008
  282MPD2    C2 4255   4.282   0.206  15.311  0.0447  0.3789 -0.8270
  282MPD2    C3 4256   4.328   0.146  15.194 -0.6020  0.0616 -0.0105
  282MPD2    C4 4257   4.457   0.096  15.197 -0.6728 -0.1565 -0.1098
  282MPD2    C5 4258   4.530   0.084  15.311 -0.3758 -0.1103 -0.1203
  282MPD2     H 4259   4.182   0.247  15.307  0.6516  2.0312  1.1487
  282MPD2    H1 4260   4.511   0.058  15.111  0.2716 -1.7163  1.1651
  282MPD2    H2 4261   4.544   0.157  15.508  1.4208  0.0437 -0.6352
  282MPD2    H3 4262   4.629   0.041  15.301  0.4568  1.8596 -0.5325
  282MPD2     N 4263   4.256   0.157  15.075  0.1728 -0.5645  0.4387
  282MPD2    H5 4264   4.171   0.210  15.091 -0.9258 -2.6419  1.3947
  282MPD2    N1 4265   4.305   0.267  15.536  0.6759 -0.3203 -0.3919
  282MPD2    H7 4266   4.379   0.299  15.597  1.6686 -0.4100 -1.5637
  283TMC3    C1 4267   4.154   0.361  15.688  0.3852 -0.5045 -0.4605
  283TMC3    C2 4268   4.246   0.451  15.734 -0.3980 -0.8531  1.2592
  283TMC3    C3 4269   4.220   0.513  15.851  1.0893  0.1314 -0.5460
  283TMC3    C4 4270   4.053   0.312  15.763  1.1309  0.4002  0.0888
  283TMC3    C5 4271   4.043   0.358  15.889 -0.2626 -0.2272  0.1327
  283TMC3    C6 4272   4.114   0.471  15.930  0.9762  0.2062 -0.4514
  283TMC3     C 4273   4.171   0.296  15.555 -0.8924  0.3768  0.0519
  283TMC3     O 4274   4.072   0.251  15.496  1.0583  0.2152  0.1436
  283TMC3     H 4275   4.322   0.493  15.669 -1.1474  1.1356  1.6416
  283TMC3    H1 4276   3.988   0.237  15.721  0.6636  2.2796 -2.4680
  283TMC3    H2 4277   4.111   0.507  16.033  2.6744 -0.2669 -0.2312
  283TMC3    C7 4278   3.957   0.292  15.978  0.4961 -0.1870 -0.2041
  283TMC3    C8 4279   4.294   0.632  15.897 -0.0234 -0.9479  0.0633
  283TMC3    O1 4280   3.934   0.344  16.089 -0.1494  0.0439  0.1514
  283TMC3    O2 4281   4.289   0.662  16.015 -0.0759  0.1419 -0.0950
  284MPD2     C 4282   2.517   3.489  11.451  0.0851 -0.4016 -0.8341
  284MPD2    C1 4283   2.553   3.623  11.452  0.7502  0.2489  0.4359
  284MPD2    C2 4284   2.594   3.675  11.572 -0.0970  0.3249 -0.2775
  284MPD2    C3 4285   2.587   3.603  11.692  0.1713  0.7665 -0.0412
  284MPD2    C4 4286   2.556   3.475  11.683 -0.0980  0.0176  1.1933
  284MPD2    C5 4287   2.524   3.416  11.567 -0.4369 -0.1071 -0.1237
  284MPD2     H 4288   2.627   3.778  11.565 -0.7020  0.4820 -0.9147
  284MPD2    H1 4289   2.570   3.410  11.768 -1.4519 -0.6959  0.8670
  284MPD2    H2 4290   2.494   3.430  11.363  1.1152 -0.0362 -1.3459
  284MPD2    H3 4291   2.503   3.310  11.557  1.1154 -0.1869 -2.3699
  284MPD2     N 4292   2.592   3.659  11.820  0.5784  0.1082 -0.1098
  284MPD2    H5 4293   2.581   3.601  11.903  2.3793  0.6021  0.4684
  284MPD2    N1 4294   2.547   3.707  11.340 -0.3170 -0.3069 -0.0454
  284MPD2    H7 4295   2.604   3.791  11.341 -0.7388 -0.0042 -1.1148
  285TMC3    C1 4296   2.452   3.781  11.127 -0.5876 -0.4728 -0.7776
  285TMC3    C2 4297   2.410   3.735  11.007  0.2732 -0.7121  0.0043
  285TMC3    C3 4298   2.421   3.822  10.902 -0.0202 -0.1877  0.1938
  285TMC3    C4 4299   2.500   3.906  11.151  0.0876 -0.3066  0.3533
  285TMC3    C5 4300   2.495   3.999  11.042  0.0620 -0.0983  0.1344
  285TMC3    C6 4301   2.467   3.952  10.915 -0.1176  0.3732 -0.1582
  285TMC3     C 4302   2.462   3.677  11.233  0.1144  0.2014  0.4679
  285TMC3     O 4303   2.398   3.576  11.207 -0.4349 -0.0952 -0.1915
  285TMC3     H 4304   2.371   3.635  10.991  0.6008 -1.0866  1.6040
  285TMC3    H1 4305   2.525   3.937  11.252 -1.6083  1.1336  0.3200
  285TMC3    H2 4306   2.437   4.028  10.844 -0.6713  0.1757 -0.1362
  285TMC3    C7 4307   2.514   4.143  11.054 -0.5575  0.9196 -0.2914
  285TMC3    C8 4308   2.408   3.767  10.770  0.2616 -0.2377  0.4511
  285TMC3    O1 4309   2.511   4.211  10.952 -0.0608  0.2461 -0.3213
  285TMC3    O2 4310   2.365   3.653  10.758 -0.4660 -0.3481 -0.7118
  286MPD2     C 4311   2.596   3.097   1.176 -0.0318  0.6810 -0.0513
  286MPD2    C1 4312   2.703   3.139   1.256  0.0917 -1.1435  0.8014
  286MPD2    C2 4313   2.818   3.057   1.257 -0.1886  0.2717  0.4894
  286MPD2    C3 4314   2.821   2.937   1.191 -0.2988 -0.3962  0.1729
  286MPD2    C4 4315   2.721   2.911   1.104 -0.0571 -0.3657  0.1789
  286MPD2    C5 4316   2.608   2.976   1.099  0.3308 -0.6098  0.4399
  286MPD2     H 4317   2.902   3.083   1.321  3.5020  0.5575 -4.4450
  286MPD2    H1 4318   2.723   2.822   1.042 -0.6311  1.0353 -1.8479
  286MPD2    H2 4319   2.505   3.153   1.160 -1.7406 -2.3211 -0.8317
  286MPD2    H3 4320   2.526   2.953   1.032  1.4554 -3.2066 -0.0652
  286MPD2     N 4321   2.932   2.849   1.188  0.2952 -0.1362 -0.8283
  286MPD2    H5 4322   2.942   2.772   1.123 -1.5318 -1.1831  0.1285
  286MPD2    N1 4323   2.706   3.265   1.309  0.1850  0.0220 -0.3342
  286MPD2    H7 4324   2.797   3.297   1.341  0.1344  0.6195 -0.7998
  287TMC3    C1 4325   3.130   2.746   1.252 -0.1753 -0.4968 -0.1880
  287TMC3    C2 4326   3.113   2.660   1.151  0.1174  0.9422  0.7029
  287TMC3    C3 4327   3.217   2.569   1.136 -0.5828  0.1128  0.3910
  287TMC3    C4 4328   3.239   2.742   1.339 -0.1983 -1.0406 -0.2290
  287TMC3    C5 4329   3.333   2.645   1.323 -0.5023  0.4954  0.6407
  287TMC3    C6 4330   3.325   2.551   1.222 -0.8921 -0.1686 -0.0240
  287TMC3     C 4331   3.038   2.849   1.279  0.0111  0.8097 -0.4781
  287TMC3     O 4332   3.067   2.937   1.358  0.0550 -0.1067  0.2956
  287TMC3     H 4333   3.023   2.651   1.091 -0.0196  0.9508  0.9042
  287TMC3    H1 4334   3.239   2.801   1.430  0.7010  1.0175 -1.5682
  287TMC3    H2 4335   3.405   2.483   1.193 -0.9083 -0.3937  0.4653
  287TMC3    C7 4336   3.450   2.658   1.403  0.9167  0.1845  0.4117
  287TMC3    C8 4337   3.229   2.491   1.007 -0.7912  0.0322 -0.1773
  287TMC3    O1 4338   3.473   2.765   1.459  0.4262  0.1347 -0.6883
  287TMC3    O2 4339   3.294   2.390   1.016  0.4326  0.3352 -0.4613
  288TMC3    C1 4340   0.426   2.713  14.791 -0.5863  0.1056 -0.7490
  288TMC3    C2 4341   0.316   2.705  14.881  0.4236 -0.6298 -0.2011
  288TMC3    C3 4342   0.273   2.824  14.932 -0.2825 -0.2718 -0.5223
  288TMC3    C4 4343   0.475   2.832  14.748  0.4298 -0.4198 -0.3243
  288TMC3    C5 4344   0.420   2.951  14.798  0.6357  0.5586  0.0919
  288TMC3    C6 4345   0.324   2.947  14.898  0.0356  1.1037  0.3255
  288TMC3     C 4346   0.472   2.597  14.716 -0.1238 -0.3393  0.3803
  288TMC3     O 4347   0.555   2.619  14.627  0.5929 -0.8223  0.0739
  288TMC3     H 4348   0.274   2.609  14.910 -0.3210  0.0082  0.8602
  288TMC3    H1 4349   0.561   2.831  14.681 -0.3619  0.0041 -1.3518
  288TMC3    H2 4350   0.284   3.039  14.937  1.4904  2.2121 -0.7869
  288TMC3    C7 4351   0.443   3.084  14.737  0.2420  0.0594  0.3409
  288TMC3    C8 4352   0.167   2.828  15.027 -0.1545  0.1311 -0.4898
  288TMC3    O1 4353   0.404   3.186  14.797 -0.1627  0.6733  0.7945
  288TMC3    O2 4354   0.150   2.931  15.085  0.0058  0.3359 -0.1248
  289MPD2     C 4355   0.154   1.948  15.466  0.0293  0.2671  0.2279
  289MPD2    C1 4356   0.227   1.996  15.361 -0.2502  0.0186  0.0889
  289MPD2    C2 4357   0.181   1.974  15.232 -0.2257  0.4184 -0.1614
  289MPD2    C3 4358   0.059   1.909  15.208  0.3121 -0.2071 -0.4448
  289MPD2    C4 4359   4.703   1.855  15.319  0.5383  1.1847  0.4563
  289MPD2    C5 4360   0.036   1.880  15.440  0.1903 -0.1788  0.0126
  289MPD2     H 4361   0.233   2.013  15.146  0.6520 -0.7157 -0.1443
  289MPD2    H1 4362   4.607   1.807  15.313  0.9244  0.1376  2.8563
  289MPD2    H2 4363   0.183   1.965  15.569  2.9166  0.7466 -0.6736
  289MPD2    H3 4364   4.692   1.858  15.524  1.5111  0.3096  1.1433
  289MPD2     N 4365   0.011   1.884  15.081  0.8163  0.3039 -0.4343
  289MPD2    H5 4366   4.651   1.822  15.076  2.4235 -1.7463 -0.5068
  289MPD2    N1 4367   0.352   2.050  15.379 -0.2158  0.0907 -0.3718
  289MPD2    H7 4368   0.415   2.046  15.299 -1.4350  0.5196 -1.3567
  290TMC3    C1 4369   4.719   1.885  14.840  0.2047 -0.5864  0.0663
  290TMC3    C2 4370   0.003   1.956  14.721  0.3481 -0.0105 -0.3722
  290TMC3    C3 4371   4.677   1.908  14.602  0.0031 -0.0044  0.4045
  290TMC3    C4 4372   4.667   1.759  14.848 -0.2919  0.0556  0.7582
  290TMC3    C5 4373   4.622   1.710  14.726 -0.6492 -0.4194  0.4184
  290TMC3    C6 4374   4.619   1.779  14.610 -0.5975 -0.0745 -0.3649
  290TMC3     C 4375   0.063   1.938  14.963 -0.4721 -0.0138  0.2175
  290TMC3     O 4376   0.146   2.027  14.945  0.5174 -0.4226 -0.1475
  290TMC3     H 4377   0.071   2.040  14.713  0.1840  0.2843  1.3084
  290TMC3    H1 4378   4.676   1.699  14.939  0.3981 -0.2023  0.5220
  290TMC3    H2 4379   4.596   1.729  14.517  1.7864 -0.2835 -0.8532
  290TMC3    C7 4380   4.555   1.580  14.722 -0.4173 -0.1390 -0.3924
  290TMC3    C8 4381   4.715   1.968  14.473 -0.7031  0.6031 -0.4592
  290TMC3    O1 4382   4.546   1.530  14.612  0.7510  0.0944 -0.1810
  290TMC3    O2 4383   4.690   1.901  14.375 -0.3883  0.4380  0.5247
  291MPD2     C 4384   0.033   1.816   0.767  0.3528  0.4083 -0.1323
  291MPD2    C1 4385   4.665   1.713   0.744 -0.6857  0.1139  0.3923
  291MPD2    C2 4386   4.624   1.692   0.617 -0.3605 -0.0857  0.7199
  291MPD2    C3 4387   4.654   1.784   0.513 -0.3891  0.0805  0.1554
  291MPD2    C4 4388   0.022   1.885   0.536  0.3036  0.3419  0.1616
  291MPD2    C5 4389   0.066   1.905   0.667 -0.4078 -0.1405  0.0002
  291MPD2     H 4390   4.558   1.608   0.598  0.0330 -0.4827  1.1156
  291MPD2    H1 4391   0.039   1.955   0.455 -0.6795  2.6017  1.9114
  291MPD2    H2 4392   0.059   1.849   0.867  1.0582 -0.7300  0.0646
  291MPD2    H3 4393   0.143   1.978   0.689 -0.7059 -0.2058  1.2473
  291MPD2     N 4394   4.576   1.789   0.396 -0.1585  0.1665  0.2415
  291MPD2    H5 4395   4.594   1.862   0.328  0.2191 -0.2203 -0.0706
  291MPD2    N1 4396   4.630   1.616   0.840  0.3832 -0.3209 -0.0006
  291MPD2    H7 4397   4.599   1.525   0.807  0.0890 -0.4293  0.5754
  292TMC3    C1 4398   4.569   1.517   1.046 -0.1335  0.5245  0.2914
  292TMC3    C2 4399   4.503   1.566   1.157 -0.3739 -0.7165  0.6005
  292TMC3    C3 4400   4.384   1.512   1.187  0.0809 -0.5308 -0.5770
  292TMC3    C4 4401   4.518   1.427   0.958  0.4599 -0.1137 -0.5299
  292TMC3    C5 4402   4.388   1.399   0.979 -0.2969  0.3151  0.4165
  292TMC3    C6 4403   4.321   1.432   1.102 -0.3525  0.2682 -0.3754
  292TMC3     C 4404   4.641   1.627   0.975  0.2982  0.3001 -0.5224
  292TMC3     O 4405   4.677   1.721   1.042 -0.2686  0.3499  0.1544
  292TMC3     H 4406   4.560   1.629   1.224 -1.2593  0.8843 -0.1597
  292TMC3    H1 4407   4.568   1.385   0.871  3.1951  0.6338  0.6665
  292TMC3    H2 4408   4.217   1.406   1.118  0.0741 -1.4087 -0.2787
  292TMC3    C7 4409   4.306   1.382   0.860  0.2414 -0.6486  0.2636
  292TMC3    C8 4410   4.337   1.533   1.320  0.1920 -0.8191  0.3675
  292TMC3    O1 4411   4.370   1.362   0.757  0.3176  0.3889 -0.5635
  292TMC3    O2 4412   4.411   1.517   1.417 -0.0438  0.1560 -0.0530
  293MPD2     C 4413   1.092   3.603  12.658 -0.1090  0.0631  0.6443
  293MPD2    C1 4414   1.053   3.504  12.739  0.3039 -0.4782  0.2657
  293MPD2    C2 4415   1.128   3.465  12.851  0.0165 -0.1747 -0.1139
  293MPD2    C3 4416   1.243   3.534  12.881 -0.1560  0.3833  0.5181
  293MPD2    C4 4417   1.288   3.626  12.789 -0.3487  0.4856  0.6268
  293MPD2    C5 4418   1.211   3.666  12.685 -0.1820  0.7019 -0.4655
  293MPD2     H 4419   1.094   3.384  12.913  2.7147 -1.1315  0.0824
  293MPD2    H1 4420   1.388   3.664  12.806 -0.6951  1.1460  1.2273
  293MPD2    H2 4421   1.039   3.638  12.571 -3.2986  0.6600  2.8385
  293MPD2    H3 4422   1.243   3.744  12.617 -0.1881  0.4719 -0.7336
  293MPD2     N 4423   1.322   3.504  12.989 -0.0965  0.6187 -0.4285
  293MPD2    H5 4424   1.414   3.547  12.990 -0.0645  0.4774  1.7370
  293MPD2    N1 4425   0.936   3.443  12.697 -0.3979 -1.1516 -0.0152
  293MPD2    H7 4426   0.881   3.483  12.622 -0.3219  1.5928  1.3790
  294TMC3    C1 4427   0.759   3.283  12.688  0.4314 -0.4539  0.3021
  294TMC3    C2 4428   0.688   3.180  12.748 -0.1424  0.9489  0.8447
  294TMC3    C3 4429   0.587   3.129  12.674 -0.3012  0.3351  0.5516
  294TMC3    C4 4430   0.729   3.332  12.565  0.1632 -0.2175  0.1135
  294TMC3    C5 4431   0.615   3.277  12.501  0.2812  0.4795  0.7543
  294TMC3    C6 4432   0.548   3.175  12.551 -0.1766  0.0840 -0.4183
  294TMC3     C 4433   0.883   3.325  12.746  0.0887 -0.0822  0.4680
  294TMC3     O 4434   0.925   3.252  12.834  0.1185  0.4481 -0.3210
  294TMC3     H 4435   0.714   3.147  12.848  1.3030 -1.2862 -0.2634
  294TMC3    H1 4436   0.780   3.416  12.519 -0.6883  1.3192  1.9912
  294TMC3    H2 4437   0.456   3.159  12.496 -0.0692 -3.0535  0.3105
  294TMC3    C7 4438   0.588   3.295  12.364 -0.1400  0.5880 -0.0610
  294TMC3    C8 4439   0.521   3.012  12.725 -0.0874  0.1515  0.2116
  294TMC3    O1 4440   0.478   3.270  12.321  0.0169  0.8392  0.4491
  294TMC3    O2 4441   0.530   2.993  12.846  0.1980 -0.3947 -0.4434
  295MPD2     C 4442   1.859   1.772   0.582 -0.1593 -0.4669  0.0305
  295MPD2    C1 4443   1.737   1.778   0.518  0.1371  0.3664 -0.5487
  295MPD2    C2 4444   1.640   1.864   0.564 -0.3919 -0.1359 -0.4530
  295MPD2    C3 4445   1.665   1.934   0.682  0.1963  0.5705  0.1155
  295MPD2    C4 4446   1.782   1.922   0.750 -0.3065  0.0443 -0.5227
  295MPD2    C5 4447   1.880   1.844   0.695 -0.0650  0.1361 -0.7547
  295MPD2     H 4448   1.541   1.855   0.521  0.2066 -0.0740 -1.8435
  295MPD2    H1 4449   1.801   1.977   0.842  1.3932 -0.6881 -0.4346
  295MPD2    H2 4450   1.942   1.713   0.543 -0.2605 -0.8245  0.3576
  295MPD2    H3 4451   1.981   1.848   0.734  0.2646  1.2008 -1.7140
  295MPD2     N 4452   1.573   2.027   0.739  0.2300  0.4950 -0.8106
  295MPD2    H5 4453   1.599   2.076   0.824 -0.8958  0.4781 -0.4593
  295MPD2    N1 4454   1.706   1.705   0.406 -0.5589 -0.1083  0.6582
  295MPD2    H7 4455   1.619   1.723   0.357 -0.9645  0.6538  1.6499
  296TMC3    C1 4456   1.368   2.127   0.803  0.0281 -0.2204 -0.3308
  296TMC3    C2 4457   1.437   2.227   0.859 -0.2241 -0.6095 -0.0953
  296TMC3    C3 4458   1.373   2.324   0.938  0.1961  0.5145 -0.1308
  296TMC3    C4 4459   1.238   2.108   0.829 -0.1979  0.4550  0.7172
  296TMC3    C5 4460   1.174   2.208   0.896 -0.0491  0.5122 -0.8460
  296TMC3    C6 4461   1.237   2.317   0.949 -0.0550 -0.5290  0.2057
  296TMC3     C 4462   1.438   2.038   0.715 -0.1010 -0.3991  1.0607
  296TMC3     O 4463   1.367   1.968   0.647 -0.8423  0.1002  0.1441
  296TMC3     H 4464   1.543   2.239   0.842 -0.2236  0.1184  0.4241
  296TMC3    H1 4465   1.184   2.024   0.786  1.8119 -1.2752  1.5602
  296TMC3    H2 4466   1.184   2.384   1.016 -0.2872 -0.7784  0.2712
  296TMC3    C7 4467   1.039   2.199   0.939 -0.5157 -0.5062  0.2408
  296TMC3    C8 4468   1.451   2.431   0.998  0.9536  0.2321  0.2331
  296TMC3    O1 4469   0.977   2.308   0.949 -0.2695 -0.2757  0.4965
  296TMC3    O2 4470   1.573   2.410   1.005 -0.4179 -0.5238 -0.0738
  297MPD2     C 4471   3.570   4.146  16.887 -0.0440 -0.4596 -0.2049
  297MPD2    C1 4472   3.587   4.235  16.782  0.4537  0.5360 -0.5478
  297MPD2    C2 4473   3.674   4.343  16.801 -0.5640  0.6330 -0.6481
  297MPD2    C3 4474   3.738   4.363  16.921  0.2472 -0.9661  0.2698
  297MPD2    C4 4475   3.717   4.270  17.025  0.0815 -0.4121 -0.1923
  297MPD2    C5 4476   3.638   4.165  17.007  0.2741  0.7739  0.6409
  297MPD2     H 4477   3.698   4.417  16.725 -1.8857  1.2542 -0.4547
  297MPD2    H1 4478   3.781   4.268  17.114 -1.0079  2.0664  0.6614
  297MPD2    H2 4479   3.499   4.064  16.888 -1.4567  0.7998  2.6320
  297MPD2    H3 4480   3.646   4.089  17.085  2.2979 -0.5544 -0.8599
  297MPD2     N 4481   3.839   4.466  16.939  0.3874 -0.8265  0.1524
  297MPD2    H5 4482   3.862   4.531  16.865 -0.3041 -1.2794 -0.4526
  297MPD2    N1 4483   3.506   4.223  16.661  0.0605 -0.1056  0.0368
  297MPD2    H7 4484   3.504   4.296  16.591 -0.8322 -1.0582 -0.9194
  298TMC3    C1 4485   3.353   4.141  16.514 -0.2617 -0.6884 -0.1162
  298TMC3    C2 4486   3.332   4.043  16.424 -0.6119  0.2256 -0.5066
  298TMC3    C3 4487   3.228   4.059  16.333 -0.0137  0.2939  0.6135
  298TMC3    C4 4488   3.269   4.244  16.531  0.7690 -0.2935 -0.9180
  298TMC3    C5 4489   3.163   4.254  16.450  0.4023 -0.1275  0.0228
  298TMC3    C6 4490   3.139   4.165  16.345 -0.5276 -0.3258  0.3894
  298TMC3     C 4491   3.446   4.111  16.622  0.7264 -0.3605 -0.2933
  298TMC3     O 4492   3.452   3.994  16.655 -0.3180  0.0532 -0.4816
  298TMC3     H 4493   3.409   3.970  16.401  0.7406  0.2972  3.8285
  298TMC3    H1 4494   3.277   4.312  16.615  2.1883 -0.8707 -0.5835
  298TMC3    H2 4495   3.044   4.165  16.292 -0.3584  3.4025  0.1162
  298TMC3    C7 4496   3.060   4.355  16.471 -0.4885 -0.0337 -0.6788
  298TMC3    C8 4497   3.217   3.962  16.234  0.0355 -0.5842 -0.6967
  298TMC3    O1 4498   3.047   4.403  16.580  0.2892  0.4185  0.1504
  298TMC3    O2 4499   3.266   3.850  16.248  0.5576  0.3272 -0.1157
  299MPD2     C 4500   4.185   3.301  10.620  0.4916  0.6469 -0.3302
  299MPD2    C1 4501   4.193   3.426  10.561 -0.6973  0.0211 -0.0523
  299MPD2    C2 4502   4.102   3.464  10.461  0.9346  0.0155 -0.3351
  299MPD2    C3 4503   3.995   3.379  10.439  0.0220 -0.3251  0.5389
  299MPD2    C4 4504   3.995   3.252  10.495  0.1487 -0.5619  0.5576
  299MPD2    C5 4505   4.085   3.216  10.584 -0.1683  0.3290  0.7469
  299MPD2     H 4506   4.104   3.567  10.428 -0.9828  0.4540  0.9532
  299MPD2    H1 4507   3.915   3.183  10.469 -0.5923  0.2090  0.7953
  299MPD2    H2 4508   4.257   3.263  10.692  0.0857  3.1051  1.3875
  299MPD2    H3 4509   4.082   3.113  10.616 -0.3258 -0.2937 -1.2488
  299MPD2     N 4510   3.875   3.412  10.370  0.1822 -0.4370 -0.0461
  299MPD2    H5 4511   3.791   3.355  10.374 -0.4433  0.5606  1.1674
  299MPD2    N1 4512   4.284   3.515  10.612 -0.4438  0.4396 -1.1016
  299MPD2    H7 4513   4.345   3.485  10.688 -2.1111  1.2460  0.5764
  300TMC3    C1 4514   3.720   3.538  10.233  0.1332 -0.7100  0.1513
  300TMC3    C2 4515   3.667   3.658  10.207 -0.2158 -0.1989  0.1240
  300TMC3    C3 4516   3.546   3.659  10.144 -0.1472  0.4697 -0.5327
  300TMC3    C4 4517   3.662   3.416  10.212  0.2329 -0.2433  0.2916
  300TMC3    C5 4518   3.539   3.415  10.157 -0.1021  0.2938 -0.3117
  300TMC3    C6 4519   3.480   3.537  10.119  0.1268  0.1240  0.1840
  300TMC3     C 4520   3.844   3.536  10.314  0.7136 -0.4365 -0.1315
  300TMC3     O 4521   3.918   3.630  10.302 -0.3043  0.3391 -0.3205
  300TMC3     H 4522   3.718   3.750  10.234 -0.2940 -0.5368  1.4126
  300TMC3    H1 4523   3.714   3.323  10.231  1.5817  0.2793 -0.8513
  300TMC3    H2 4524   3.379   3.534  10.080  0.4365 -2.3435 -0.3912
  300TMC3    C7 4525   3.489   3.290  10.116  0.3757 -0.2296  0.0447
  300TMC3    C8 4526   3.476   3.782  10.103 -0.3168  0.1450  0.4952
  300TMC3    O1 4527   3.563   3.207  10.065  0.2653  0.8909  0.2083
  300TMC3    O2 4528   3.386   3.763  10.019 -0.0356 -0.0988  0.1974
  301MPD2     C 4529   1.166   0.234   1.510 -0.6115  0.3765 -0.0328
  301MPD2    C1 4530   1.085   0.170   1.417 -0.5152 -0.0627 -0.3138
  301MPD2    C2 4531   1.106   0.033   1.383 -0.6992 -0.2602 -0.1923
  301MPD2    C3 4532   1.211   4.690   1.446 -0.0031 -0.1150  0.2354
  301MPD2    C4 4533   1.286   0.035   1.538 -0.2674  0.0606  0.5119
  301MPD2    C5 4534   1.274   0.168   1.558 -0.3388 -0.6761 -0.3171
  301MPD2     H 4535   1.059   4.706   1.298 -0.5245 -1.7734  0.5469
  301MPD2    H1 4536   1.372   4.702   1.579 -0.9684 -1.4328  0.0439
  301MPD2    H2 4537   1.159   0.339   1.537 -1.0672  0.5461 -0.8264
  301MPD2    H3 4538   1.349   0.217   1.619  0.0875 -0.2459 -1.1836
  301MPD2     N 4539   1.249   4.552   1.409  0.0233  0.2550 -0.0436
  301MPD2    H5 4540   1.321   4.511   1.469 -0.8281  1.0643  1.5277
  301MPD2    N1 4541   0.964   0.232   1.370 -0.0513 -0.0529 -0.3199
  301MPD2    H7 4542   0.904   0.183   1.305 -0.9229 -0.1134  0.5382
  302TMC3    C1 4543   1.233   4.335   1.308 -0.1901  0.1852 -0.8616
  302TMC3    C2 4544   1.369   4.315   1.324  0.0382  0.1230 -0.3272
  302TMC3    C3 4545   1.428   4.202   1.278  0.0621 -0.4157  0.3636
  302TMC3    C4 4546   1.154   4.237   1.247 -0.0141  0.5620  0.3650
  302TMC3    C5 4547   1.220   4.129   1.191 -0.7664 -0.2450 -0.1622
  302TMC3    C6 4548   1.353   4.102   1.219  0.4023 -0.0800 -0.0275
  302TMC3     C 4549   1.183   4.468   1.325  0.5422 -0.1133 -0.5501
  302TMC3     O 4550   1.081   4.481   1.261  0.3728  0.2825  0.1393
  302TMC3     H 4551   1.438   4.396   1.345  0.7257 -0.7665  0.8229
  302TMC3    H1 4552   1.048   4.251   1.228 -0.5699 -4.0351  0.0827
  302TMC3    H2 4553   1.400   4.011   1.183 -0.9568 -0.7168 -0.1841
  302TMC3    C7 4554   1.189   4.087   1.052  0.2623  0.9941 -0.0154
  302TMC3    C8 4555   1.560   4.164   1.322 -0.4495 -0.1232 -0.0180
  302TMC3    O1 4556   1.251   3.999   0.995  0.2979 -0.3930 -0.6514
  302TMC3    O2 4557   1.607   4.064   1.271  0.0564 -0.2800 -1.2185
  303MPD2     C 4558   1.238   2.861  10.627  1.1693  0.2494  0.3192
  303MPD2    C1 4559   1.204   2.768  10.533 -0.1491 -0.2560 -0.1411
  303MPD2    C2 4560   1.194   2.793  10.395  0.0736 -0.8591 -0.2482
  303MPD2    C3 4561   1.216   2.921  10.356 -0.4923  0.2818 -0.0788
  303MPD2    C4 4562   1.255   3.017  10.450  0.6572  0.0240  0.6920
  303MPD2    C5 4563   1.266   2.988  10.581  0.2131  0.5562  0.0142
  303MPD2     H 4564   1.179   2.712  10.325  0.8904 -1.1914 -0.0415
  303MPD2    H1 4565   1.282   3.118  10.420  1.3601 -0.0818  0.9606
  303MPD2    H2 4566   1.235   2.835  10.732  1.1393 -0.8329  0.0444
  303MPD2    H3 4567   1.306   3.067  10.645 -2.2169  0.8810  1.1356
  303MPD2     N 4568   1.213   2.960  10.221  0.0838 -0.0516 -0.4552
  303MPD2    H5 4569   1.253   3.050  10.195 -0.4020  0.2934 -0.0024
  303MPD2    N1 4570   1.169   2.647  10.586  0.2854  0.2302  0.3914
  303MPD2    H7 4571   1.181   2.628  10.685  0.5170 -2.0606 -0.0564
  304TMC3    C1 4572   1.056   2.450  10.604 -0.1499  0.4633  0.5492
  304TMC3    C2 4573   0.953   2.374  10.556  0.1175 -0.6185  0.0519
  304TMC3    C3 4574   0.948   2.241  10.589  0.4844 -0.1688 -0.3094
  304TMC3    C4 4575   1.168   2.394  10.663  0.0594  0.4129 -0.1810
  304TMC3    C5 4576   1.163   2.256  10.677 -0.1225  0.1802 -0.1264
  304TMC3    C6 4577   1.052   2.183  10.655 -0.1498 -0.1893  0.7171
  304TMC3     C 4578   1.086   2.560  10.520  0.1736  0.2274 -0.1479
  304TMC3     O 4579   1.012   2.577  10.425  0.5903  0.2963 -0.4104
  304TMC3     H 4580   0.875   2.435  10.512 -0.2590 -0.5896  0.7564
  304TMC3    H1 4581   1.261   2.451  10.671  0.0293  0.4328  0.0526
  304TMC3    H2 4582   1.056   2.076  10.672  1.0811  0.1740  2.7219
  304TMC3    C7 4583   1.278   2.180  10.637 -0.1357 -0.0841  0.1950
  304TMC3    C8 4584   0.918   2.158  10.474  0.4944 -0.2323 -0.4122
  304TMC3    O1 4585   1.384   2.220  10.684  0.5905 -0.9802 -0.6949
  304TMC3    O2 4586   0.987   2.181  10.375 -0.3909  0.5989 -0.2431
  305MPD2     C 4587   4.296   0.613  13.878  0.1480  0.0882 -0.1882
  305MPD2    C1 4588   4.341   0.490  13.927  0.3924  0.2199  0.3104
  305MPD2    C2 4589   4.351   0.384  13.838  0.3609  0.3673 -1.0789
  305MPD2    C3 4590   4.308   0.397  13.708 -0.4587 -0.1168  0.9821
  305MPD2    C4 4591   4.257   0.518  13.666 -0.3787  0.3757 -1.0238
  305MPD2    C5 4592   4.243   0.627  13.752  0.4221  0.9574 -0.3309
  305MPD2     H 4593   4.399   0.290  13.864 -2.2329 -0.6268  0.0637
  305MPD2    H1 4594   4.219   0.530  13.565  0.5852 -1.8236 -1.6432
  305MPD2    H2 4595   4.288   0.694  13.950 -1.7105 -0.6125  0.3783
  305MPD2    H3 4596   4.207   0.727  13.730 -3.1511  0.0177  1.2146
  305MPD2     N 4597   4.313   0.298  13.615 -0.4026 -0.0996 -0.0813
  305MPD2    H5 4598   4.288   0.321  13.519  1.3796  0.2576 -0.4630
  305MPD2    N1 4599   4.385   0.492  14.064  0.4110  0.2259 -0.3303
  305MPD2    H7 4600   4.381   0.582  14.110 -0.5927 -0.3843  0.7487
  306TMC3    C1 4601   4.481   0.406  14.256 -0.5209  0.0162  0.2184
  306TMC3    C2 4602   4.586   0.324  14.274 -0.5649  0.0961  0.6558
  306TMC3    C3 4603   4.609   0.263  14.399 -0.4624  0.2401  0.0020
  306TMC3    C4 4604   4.386   0.424  14.353  0.2660  1.3305 -0.7824
  306TMC3    C5 4605   4.417   0.380  14.476 -0.1599  0.2262 -0.2628
  306TMC3    C6 4606   4.525   0.296  14.500 -0.5692 -0.4219  0.0928
  306TMC3     C 4607   4.435   0.385  14.127  0.5607  0.3615  0.2486
  306TMC3     O 4608   4.458   0.268  14.087  0.0186 -0.3512  0.5049
  306TMC3     H 4609   4.657   0.311  14.194 -1.2611  2.9865 -0.4160
  306TMC3    H1 4610   4.298   0.483  14.335 -1.0271 -0.1072  0.8691
  306TMC3    H2 4611   4.531   0.251  14.599  0.3737 -0.8752 -0.1650
  306TMC3    C7 4612   4.344   0.439  14.594  0.2802 -0.2050 -0.0227
  306TMC3    C8 4613   4.699   0.148  14.400 -0.2172  0.3689 -0.7169
  306TMC3    O1 4614   4.249   0.506  14.559  0.2167 -0.0614  0.0717
  306TMC3    O2 4615   0.040   0.118  14.301  0.5776 -0.1737  0.1015
  307MPD2     C 4616   1.676   2.073   0.169 -0.1105 -0.2766 -0.5323
  307MPD2    C1 4617   1.694   2.200   0.220 -0.5295 -0.0215  0.0585
  307MPD2    C2 4618   1.593   2.251   0.310 -0.2827 -0.3238  0.5120
  307MPD2    C3 4619   1.470   2.185   0.325 -0.7635  0.0479 -0.3146
  307MPD2    C4 4620   1.452   2.066   0.259  0.1579  0.4779 -0.3117
  307MPD2    C5 4621   1.552   2.014   0.179  0.2166  0.3250 -1.2363
  307MPD2     H 4622   1.605   2.348   0.355  1.7639  0.0593 -0.8362
  307MPD2    H1 4623   1.363   2.005   0.265  0.2267  0.4007 -0.1099
  307MPD2    H2 4624   1.748   2.031   0.100  1.7538  1.8868  0.0998
  307MPD2    H3 4625   1.545   1.920   0.125  0.2893  0.3764 -1.3366
  307MPD2     N 4626   1.376   2.236   0.418 -0.5351  0.0897 -1.0657
  307MPD2    H5 4627   1.408   2.314   0.475 -1.5605  1.0135 -1.7347
  307MPD2    N1 4628   1.808   2.281   0.198 -0.5549 -0.4091  0.5446
  307MPD2    H7 4629   1.805   2.368   0.250 -2.0736  0.0944 -0.4045
  308TMC3    C1 4630   1.049   2.513   0.428  0.5875  1.3343  0.3666
  308TMC3    C2 4631   1.146   2.596   0.488  0.3988  0.4676 -0.3672
  308TMC3    C3 4632   1.229   2.524   0.572 -0.6738 -0.0265  0.6026
  308TMC3    C4 4633   1.066   2.374   0.427  0.1314  0.1391  0.2862
  308TMC3    C5 4634   1.171   2.309   0.488  0.9174 -0.0257  0.1142
  308TMC3    C6 4635   1.249   2.383   0.570 -0.3349 -0.0432  0.7231
  308TMC3     C 4636   0.977   2.564   0.316 -0.2818  0.3095  0.6068
  308TMC3     O 4637   0.893   2.490   0.259  0.1557  0.9663 -0.5176
  308TMC3     H 4638   1.142   2.703   0.505 -0.3971  0.5029 -0.7413
  308TMC3    H1 4639   1.004   2.317   0.358  0.5408 -0.9591  0.8158
  308TMC3    H2 4640   1.327   2.333   0.626  0.2433  0.2573  0.1715
  308TMC3    C7 4641   1.246   2.212   0.406  0.2980 -1.3343  0.2089
  308TMC3    C8 4642   1.329   2.599   0.644 -0.1133  0.7264  0.6714
  308TMC3    O1 4643   1.187   2.150   0.316  0.1204  0.3630  0.0582
  308TMC3    O2 4644   1.403   2.527   0.704  0.1592  0.2168 -0.0701
  309MPD2     C 4645   1.469   3.544  16.961  0.4706  0.3461 -0.0431
  309MPD2    C1 4646   1.490   3.614  16.846  0.1093  0.7621  0.3817
  309MPD2    C2 4647   1.405   3.710  16.806 -0.1111 -0.4152 -0.6170
  309MPD2    C3 4648   1.276   3.717  16.860  0.8267 -0.1983  0.2930
  309MPD2    C4 4649   1.251   3.622  16.959 -0.4761 -0.0965 -0.9709
  309MPD2    C5 4650   1.347   3.546  17.023 -0.2945 -0.4473  0.4114
  309MPD2     H 4651   1.428   3.777  16.724  1.5189  1.4999  1.4053
  309MPD2    H1 4652   1.147   3.629  16.990  0.1102 -1.0648  1.2357
  309MPD2    H2 4653   1.546   3.484  17.009  0.1173 -0.2287 -0.1988
  309MPD2    H3 4654   1.324   3.478  17.105 -0.4943 -0.1712  0.5855
  309MPD2     N 4655   1.179   3.814  16.826  0.8805  0.2141 -0.0768
  309MPD2    H5 4656   1.085   3.801  16.861  0.4310 -2.3051 -2.2411
  309MPD2    N1 4657   1.610   3.625  16.768 -0.0103  0.7417  0.4408
  309MPD2    H7 4658   1.612   3.706  16.708 -2.3897  0.2671 -0.2544
  310TMC3    C1 4659   1.823   3.587  16.667  0.3403  0.4770  0.1782
  310TMC3    C2 4660   1.777   3.682  16.571 -0.3199 -0.0366 -0.3970
  310TMC3    C3 4661   1.873   3.725  16.481 -0.4237  0.3122 -0.1963
  310TMC3    C4 4662   1.948   3.533  16.671  0.5458 -0.4109 -0.7003
  310TMC3    C5 4663   2.034   3.568  16.572 -0.5285 -0.3332  0.0626
  310TMC3    C6 4664   2.004   3.671  16.485 -0.1671  0.0269 -0.0451
  310TMC3     C 4665   1.725   3.550  16.775 -0.2044  0.0397 -0.1453
  310TMC3     O 4666   1.735   3.442  16.835 -0.3128 -0.5456  0.1835
  310TMC3     H 4667   1.675   3.718  16.564 -0.1419  0.6104  0.2982
  310TMC3    H1 4668   1.963   3.449  16.739  0.6398 -0.7004 -1.0834
  310TMC3    H2 4669   2.073   3.715  16.414 -0.8733  0.2961 -0.5635
  310TMC3    C7 4670   2.173   3.536  16.576  0.6719 -0.7251 -0.1185
  310TMC3    C8 4671   1.819   3.812  16.378 -0.0931 -0.3389  0.3387
  310TMC3    O1 4672   2.251   3.569  16.488 -0.4400 -0.1304  0.4349
  310TMC3    O2 4673   1.886   3.836  16.279  0.0725  0.2993  0.1169
  311MPD2     C 4674   3.586   0.246  12.219 -0.0944  0.5666 -0.1132
  311MPD2    C1 4675   3.640   0.332  12.310  0.2813 -0.5985  0.1285
  311MPD2    C2 4676   3.592   0.334  12.438 -0.7392  0.6163 -0.6894
  311MPD2    C3 4677   3.481   0.265  12.463 -0.2465 -0.4087 -0.3724
  311MPD2    C4 4678   3.422   0.182  12.371 -0.6059 -0.2975 -0.3214
  311MPD2    C5 4679   3.481   0.165  12.249 -0.3105  0.6234 -0.0776
  311MPD2     H 4680   3.639   0.391  12.518  1.7238 -3.0967  0.4911
  311MPD2    H1 4681   3.336   0.117  12.386 -0.7624 -0.3784 -1.5769
  311MPD2    H2 4682   3.626   0.219  12.122  1.4383 -2.5880  1.3913
  311MPD2    H3 4683   3.428   0.102  12.177  0.5476 -0.0062 -0.1570
  311MPD2     N 4684   3.441   0.274  12.598  0.2129  0.1740  0.2801
  311MPD2    H5 4685   3.495   0.338  12.654 -0.1380  1.6541 -1.0566
  311MPD2    N1 4686   3.760   0.397  12.270  0.2157  0.3983  0.2070
  311MPD2    H7 4687   3.785   0.469  12.337 -1.1935 -0.1801  1.3572
  312TMC3    C1 4688   3.309   0.246  12.796  0.3537 -0.8123  0.6183
  312TMC3    C2 4689   3.179   0.224  12.840 -0.1203 -0.6687 -0.6492
  312TMC3    C3 4690   3.152   0.272  12.964 -0.0316  0.6180 -0.8535
  312TMC3    C4 4691   3.403   0.326  12.862  0.5795  0.1767 -0.2402
  312TMC3    C5 4692   3.363   0.369  12.983 -0.1220  0.6860  0.2123
  312TMC3    C6 4693   3.244   0.338  13.041 -0.1429 -0.0102 -0.4557
  312TMC3     C 4694   3.335   0.208  12.656 -0.0017 -0.6760 -0.5853
  312TMC3     O 4695   3.259   0.131  12.600 -0.2265 -0.5315  0.6090
  312TMC3     H 4696   3.108   0.162  12.786 -0.2473 -1.6212  0.5957
  312TMC3    H1 4697   3.502   0.345  12.822  0.6401 -1.2511 -0.7695
  312TMC3    H2 4698   3.213   0.377  13.137  2.3381  0.2878  0.2076
  312TMC3    C7 4699   3.450   0.461  13.048 -0.8315 -0.5272 -0.6036
  312TMC3    C8 4700   3.017   0.287  13.024 -0.1024  0.0602  0.5252
  312TMC3    O1 4701   3.502   0.545  12.977  0.1243 -0.3034  0.0703
  312TMC3    O2 4702   3.002   0.348  13.127 -0.1704  0.3441 -0.0252
  313MPD2     C 4703   3.226   4.073  10.630  0.3664  0.0413  0.6375
  313MPD2    C1 4704   3.179   4.139  10.517  0.2731  0.3046  0.6340
  313MPD2    C2 4705   3.139   4.066  10.403  0.9150  0.0104  0.7240
  313MPD2    C3 4706   3.167   3.930  10.399 -0.7547  0.8671  0.2797
  313MPD2    C4 4707   3.228   3.867  10.506  0.4149  0.6860 -0.1545
  313MPD2    C5 4708   3.250   3.939  10.618 -0.6148  0.8315  0.1922
  313MPD2     H 4709   3.097   4.114  10.315  2.8204  1.0213  0.3688
  313MPD2    H1 4710   3.239   3.760  10.508 -0.8543  0.5894  1.1295
  313MPD2    H2 4711   3.248   4.122  10.724 -0.8050 -1.1491  1.5274
  313MPD2    H3 4712   3.293   3.894  10.707 -2.7220 -2.0140 -0.2278
  313MPD2     N 4713   3.104   3.860  10.291 -0.4511  0.5041 -0.0692
  313MPD2    H5 4714   3.076   3.912  10.208 -1.1083 -1.0172 -0.7931
  313MPD2    N1 4715   3.163   4.277  10.518  0.5410  0.2536 -0.8732
  313MPD2    H7 4716   3.140   4.324  10.431  0.3535  1.5538 -0.1270
  314TMC3    C1 4717   3.179   4.508  10.597  0.8512  0.1545  0.4462
  314TMC3    C2 4718   3.205   4.601  10.692  0.6609  0.0558  0.4084
  314TMC3    C3 4719   3.181   0.016  10.676  0.5567 -0.5929 -0.4061
  314TMC3    C4 4720   3.144   4.548  10.473 -0.1129  0.2177  0.0179
  314TMC3    C5 4721   3.147   4.684  10.445  0.6346  0.1837 -0.1323
  314TMC3    C6 4722   3.163   0.055  10.544 -0.4572  0.7193  0.2005
  314TMC3     C 4723   3.185   4.365  10.628 -0.2868 -0.1892 -0.0406
  314TMC3     O 4724   3.194   4.341  10.749 -0.1074  0.0380  0.1069
  314TMC3     H 4725   3.250   4.568  10.784 -0.5963 -1.5864  0.4424
  314TMC3    H1 4726   3.136   4.479  10.390  1.5085 -0.6161  0.5635
  314TMC3    H2 4727   3.179   0.161  10.526 -1.9842  1.0266  0.6262
  314TMC3    C7 4728   3.106   0.013  10.321 -0.4322 -0.7153 -0.2365
  314TMC3    C8 4729   3.260   0.112  10.756 -0.5692 -0.0612 -0.7782
  314TMC3    O1 4730   3.045   0.112  10.318 -0.1750  0.1393  0.6255
  314TMC3    O2 4731   3.303   0.205  10.689 -0.1915 -0.0128 -0.0287
  315MPD2     C 4732   2.703   3.650   0.110  0.3448 -0.2632 -0.1702
  315MPD2    C1 4733   2.793   3.693   0.207  0.2907 -0.2332 -0.3611
  315MPD2    C2 4734   2.836   3.829   0.208  0.1077  0.1345 -0.1434
  315MPD2    C3 4735   2.800   3.914   0.106 -0.3147 -0.5077 -0.0612
  315MPD2    C4 4736   2.720   3.862   0.005 -0.5161  0.4983  0.5571
  315MPD2    C5 4737   2.670   3.739   0.011  0.3944  0.9852 -0.0099
  315MPD2     H 4738   2.910   3.856   0.283  1.9354 -0.1185 -1.8654
  315MPD2    H1 4739   2.701   3.912  17.593  1.9709  1.7852  0.7328
  315MPD2    H2 4740   2.666   3.548   0.114  1.4106 -0.5573  2.7480
  315MPD2    H3 4741   2.604   3.720  17.610  0.3361  1.4810 -0.0724
  315MPD2     N 4742   2.863   4.040   0.098  0.4671 -0.3828  0.0568
  315MPD2    H5 4743   2.931   4.052   0.172  2.0439 -2.1211 -1.1114
  315MPD2    N1 4744   2.849   3.614   0.311  0.1282 -0.2686 -0.1022
  315MPD2    H7 4745   2.924   3.652   0.368  0.4560 -0.7611 -0.2091
  316TMC3    C1 4746   2.907   4.260   0.017 -0.0694  0.5257  0.3640
  316TMC3    C2 4747   3.027   4.260   0.087  0.5021 -0.2266 -0.4615
  316TMC3    C3 4748   3.101   4.373   0.085  0.8933 -0.0075  0.7311
  316TMC3    C4 4749   2.859   4.379  17.653 -0.1979 -0.1949  0.6933
  316TMC3    C5 4750   2.931   4.497  17.678 -0.6156  0.0162 -0.3227
  316TMC3    C6 4751   3.054   4.494   0.048 -0.2559  0.7087  0.3375
  316TMC3     C 4752   2.824   4.142   0.013 -0.7731  0.5454 -0.9528
  316TMC3     O 4753   2.715   4.149  17.643 -0.5700  0.4089  0.0054
  316TMC3     H 4754   3.070   4.162   0.104 -0.0971 -0.6965 -1.5985
  316TMC3    H1 4755   2.755   4.385  17.621  0.8845 -2.4057 -3.2248
  316TMC3    H2 4756   3.112   4.585   0.058 -0.1791  0.9771 -2.7654
  316TMC3    C7 4757   2.899   4.624  17.620 -0.2381 -0.5393  0.4234
  316TMC3    C8 4758   3.215   4.387   0.174  0.2319  0.6933  0.3948
  316TMC3    O1 4759   2.920   4.712   0.015  0.2049 -0.7569 -0.2770
  316TMC3    O2 4760   3.283   4.490   0.173  0.8014  0.2738 -0.0196
  317MPD2     C 4761   4.467   2.258  13.065 -0.1637 -0.8494 -0.5379
  317MPD2    C1 4762   4.488   2.122  13.022  0.0331 -0.1327 -0.0926
  317MPD2    C2 4763   4.530   2.027  13.118 -0.2560 -0.3337  0.1367
  317MPD2    C3 4764   4.565   2.066  13.250 -0.0054 -0.0056  0.2543
  317MPD2    C4 4765   4.548   2.197  13.282 -0.4366  0.3250  0.0639
  317MPD2    C5 4766   4.505   2.289  13.195  0.7681  0.1988  0.0152
  317MPD2     H 4767   4.548   1.922  13.096  0.1962  0.1463 -1.7888
  317MPD2    H1 4768   4.567   2.236  13.381  0.2066  0.5515 -0.1433
  317MPD2    H2 4769   4.472   2.341  12.995 -0.1240 -0.6897 -0.3438
  317MPD2    H3 4770   4.499   2.391  13.232  0.1864 -1.0737  3.4515
  317MPD2     N 4771   4.617   1.970  13.338 -0.5202 -0.0373 -0.2257
  317MPD2    H5 4772   4.622   1.879  13.294  2.0137  0.4839 -1.0001
  317MPD2    N1 4773   4.481   2.084  12.889 -0.0654 -0.2188  0.0561
  317MPD2    H7 4774   4.480   1.985  12.866  2.6066 -0.2717  0.1407
  318TMC3    C1 4775   4.703   1.860  13.528 -0.4291  0.1644  0.1032
  318TMC3    C2 4776   4.646   1.751  13.470  0.2014 -0.4889  0.2017
  318TMC3    C3 4777   4.689   1.626  13.504  0.3646  0.4441  0.3089
  318TMC3    C4 4778   0.106   1.844  13.593  0.0289 -0.0223  0.2320
  318TMC3    C5 4779   0.157   1.721  13.609  0.0125  0.4867 -0.1221
  318TMC3    C6 4780   0.092   1.605  13.565  0.1698  0.1648  0.3478
  318TMC3     C 4781   4.670   1.988  13.461 -0.3418 -0.8186 -0.1319
  318TMC3     O 4782   4.720   2.088  13.516 -0.3164 -0.2248 -0.5124
  318TMC3     H 4783   4.547   1.758  13.425  0.8291  3.6479 -0.4890
  318TMC3    H1 4784   0.151   1.929  13.644 -2.6619  0.4511  1.8048
  318TMC3    H2 4785   0.137   1.513  13.600  0.5700  0.3253  0.2512
  318TMC3    C7 4786   0.291   1.715  13.666 -0.1466 -1.1647  0.0224
  318TMC3    C8 4787   4.632   1.506  13.448 -0.1361  0.0076  0.0652
  318TMC3    O1 4788   0.316   1.802  13.744  0.3134  0.0049  0.1845
  318TMC3    O2 4789   4.663   1.397  13.496  0.6503  0.1279  0.5072
  319MPD2     C 4790   1.227   3.450  16.457  0.1154  0.2243 -0.2928
  319MPD2    C1 4791   1.152   3.411  16.567 -0.9684  0.5893  0.4502
  319MPD2    C2 4792   1.018   3.448  16.561 -0.1741 -0.1079 -0.0179
  319MPD2    C3 4793   0.952   3.513  16.453 -0.0022  0.1583  0.5144
  319MPD2    C4 4794   1.029   3.550  16.342  0.2094 -0.3393  0.6377
  319MPD2    C5 4795   1.168   3.524  16.353 -0.2682 -0.6978  0.0761
  319MPD2     H 4796   0.955   3.416  16.643 -0.2409  0.3329  0.0999
  319MPD2    H1 4797   0.988   3.589  16.249  1.3361 -0.2295  0.1852
  319MPD2    H2 4798   1.325   3.411  16.432  0.4053  2.0060 -1.9663
  319MPD2    H3 4799   1.214   3.546  16.258  0.0290 -0.2261  0.3345
  319MPD2     N 4800   0.814   3.541  16.445  0.0266 -0.0370  0.2140
  319MPD2    H5 4801   0.772   3.585  16.364 -1.1810 -0.2229  0.7354
  319MPD2    N1 4802   1.199   3.338  16.681  0.6935  0.2798 -0.3162
  319MPD2    H7 4803   1.128   3.325  16.753 -0.2024 -0.7335 -1.3928
  320TMC3    C1 4804   0.589   3.551  16.526  0.2595  0.2327  0.1073
  320TMC3    C2 4805   0.559   3.645  16.428 -0.2022  0.1856 -0.6594
  320TMC3    C3 4806   0.428   3.671  16.404 -0.5362 -0.5053 -0.5343
  320TMC3    C4 4807   0.491   3.479  16.588 -0.1639 -0.3381 -0.1775
  320TMC3    C5 4808   0.359   3.502  16.554  0.3264  0.2279 -0.1268
  320TMC3    C6 4809   0.327   3.601  16.471  0.4721  0.5581  0.6722
  320TMC3     C 4810   0.726   3.503  16.547  0.1293  0.1360  0.0774
  320TMC3     O 4811   0.738   3.444  16.654 -0.1727  0.1311 -0.8674
  320TMC3     H 4812   0.641   3.708  16.394  0.0480 -0.3677 -1.0801
  320TMC3    H1 4813   0.510   3.405  16.664  1.4100  1.2979  1.0225
  320TMC3    H2 4814   0.226   3.613  16.433  0.5415  1.4766  0.7932
  320TMC3    C7 4815   0.253   3.409  16.598  0.1304  0.6194 -0.1992
  320TMC3    C8 4816   0.385   3.795  16.341 -0.6072 -0.8223 -0.6517
  320TMC3    O1 4817   0.141   3.453  16.610 -0.2865  0.4568  0.1156
  320TMC3    O2 4818   0.266   3.837  16.352 -0.1653 -0.5720 -0.1837
  321TMC3    C1 4819   1.338   3.217  16.829  0.0634  0.1228 -0.5756
  321TMC3    C2 4820   1.235   3.161  16.878  0.4688 -0.6806  0.1915
  321TMC3    C3 4821   1.246   3.127  17.011 -0.1353 -1.0670 -0.3627
  321TMC3    C4 4822   1.459   3.238  16.891  0.3058 -0.0956  0.8446
  321TMC3    C5 4823   1.467   3.212  17.025  0.7001  0.1614  0.0848
  321TMC3    C6 4824   1.357   3.155  17.083 -0.1134 -0.4635  0.0340
  321TMC3     C 4825   1.327   3.289  16.705  0.3327  0.1926  0.5613
  321TMC3     O 4826   1.427   3.308  16.638 -0.2450  0.3091  0.0336
  321TMC3     H 4827   1.142   3.146  16.824  1.6194 -1.8927 -1.4322
  321TMC3    H1 4828   1.549   3.264  16.836  0.1703 -1.1530  0.1159
  321TMC3    H2 4829   1.369   3.139  17.189  4.5763 -2.1442 -0.7391
  321TMC3    C7 4830   1.589   3.150  17.073 -0.6797 -0.5521 -0.3609
  321TMC3    C8 4831   1.199   2.993  17.032  0.4379  0.1920  0.3446
  321TMC3    O1 4832   1.555   3.049  17.139  0.0188  0.2088 -0.3704
  321TMC3    O2 4833   1.094   2.963  16.982 -0.6464  0.0756  0.3688
  322MPD2     C 4834   4.319   3.824  13.583  0.4222  0.0569  0.5486
  322MPD2    C1 4835   4.288   3.847  13.720  0.8365 -0.0872  0.1305
  322MPD2    C2 4836   4.248   3.732  13.795 -0.2377 -0.2538 -0.1325
  322MPD2    C3 4837   4.238   3.609  13.734 -0.5569 -0.0558  0.6102
  322MPD2    C4 4838   4.262   3.592  13.604 -0.5113  0.6395 -0.6396
  322MPD2    C5 4839   4.291   3.700  13.521 -0.0591  0.5444 -0.8367
  322MPD2     H 4840   4.221   3.735  13.900 -3.1024  0.4126 -0.8970
  322MPD2    H1 4841   4.241   3.496  13.556 -1.5519  0.8433 -0.6023
  322MPD2    H2 4842   4.365   3.901  13.523  0.3420  0.3530  0.8678
  322MPD2    H3 4843   4.306   3.692  13.414 -0.9015  0.7685 -0.9675
  322MPD2     N 4844   4.223   3.496  13.808  0.7291 -0.6185  0.7543
  322MPD2    H5 4845   4.257   3.412  13.762 -4.4612 -1.5592 -1.2563
  322MPD2    N1 4846   4.322   3.975  13.775 -0.2437  0.1587 -1.0769
  322MPD2    H7 4847   4.359   4.047  13.713  0.7253 -0.2803 -1.0134
  323TMC3    C1 4848   4.372   4.124  13.959 -0.0101 -0.5123 -0.5759
  323TMC3    C2 4849   4.447   4.205  13.873  0.2170  0.5713  0.4690
  323TMC3    C3 4850   4.492   4.324  13.924  0.3352 -0.0215 -0.0261
  323TMC3    C4 4851   4.353   4.157  14.089 -0.8504 -0.5204 -0.0227
  323TMC3    C5 4852   4.393   4.278  14.131 -0.0193  0.0172  0.6248
  323TMC3    C6 4853   4.454   4.371  14.051 -0.1205 -0.3170 -0.7982
  323TMC3     C 4854   4.315   3.996  13.917  0.9002 -0.0690 -0.0431
  323TMC3     O 4855   4.282   3.928  14.016 -0.8187 -0.1191  0.5390
  323TMC3     H 4856   4.478   4.170  13.775 -0.2753  4.1716 -0.9686
  323TMC3    H1 4857   4.304   4.089  14.159 -1.1253 -0.8190 -0.5063
  323TMC3    H2 4858   4.510   4.456  14.088 -0.9335 -0.4451  0.7190
  323TMC3    C7 4859   4.433   4.268  14.273 -0.4739  0.3379 -0.2306
  323TMC3    C8 4860   4.598   4.380  13.839 -0.4454 -0.1505  0.3734
  323TMC3    O1 4861   4.451   4.158  14.312 -0.3336  0.2247  0.3193
  323TMC3    O2 4862   4.675   4.296  13.789  0.0071 -0.1663  0.2913
  324MPD2     C 4863   1.322   0.240  14.395  1.0427 -0.8244 -0.1230
  324MPD2    C1 4864   1.308   0.260  14.264 -0.4854 -0.1265 -0.2572
  324MPD2    C2 4865   1.183   0.238  14.209  0.2257 -0.8038  0.0035
  324MPD2    C3 4866   1.074   0.194  14.289 -0.0425 -0.2418  0.8180
  324MPD2    C4 4867   1.091   0.171  14.420 -0.3103  0.2256  0.6515
  324MPD2    C5 4868   1.208   0.211  14.472  0.1883 -0.6941 -0.1635
  324MPD2     H 4869   1.171   0.249  14.102  0.3759  1.0291  0.1714
  324MPD2    H1 4870   1.008   0.141  14.482  0.7759 -4.4551 -0.1160
  324MPD2    H2 4871   1.411   0.270  14.449 -1.8393  2.5075  2.7957
  324MPD2    H3 4872   1.227   0.202  14.578 -1.6422 -0.8912  0.1445
  324MPD2     N 4873   0.941   0.174  14.247  0.6748  0.1423  0.1198
  324MPD2    H5 4874   0.871   0.152  14.317 -0.7698 -0.1157 -1.4045
  324MPD2    N1 4875   1.410   0.294  14.177 -0.1936  0.3342  0.1875
  324MPD2    H7 4876   1.379   0.324  14.085  0.9330  0.8365 -0.0266
  325TMC3    C1 4877   0.782   0.115  14.104  0.6444  1.0768  0.3947
  325TMC3    C2 4878   0.697   0.176  14.013 -0.1203 -0.2822 -0.0282
  325TMC3    C3 4879   0.563   0.176  14.036  0.0434 -0.6047 -0.0922
  325TMC3    C4 4880   0.730   0.048  14.213  0.3778  0.6530 -0.3583
  325TMC3    C5 4881   0.596   0.063  14.234  0.3304  0.0985 -0.2565
  325TMC3    C6 4882   0.507   0.116  14.148  0.3822 -0.4106 -0.7930
  325TMC3     C 4883   0.914   0.162  14.116 -0.5001  0.0844  0.4447
  325TMC3     O 4884   0.974   0.201  14.013 -0.0732 -1.0473  0.0911
  325TMC3     H 4885   0.739   0.223  13.925  0.9709  0.6485  0.9972
  325TMC3    H1 4886   0.795   4.702  14.269 -0.4754 -0.1384 -0.3138
  325TMC3    H2 4887   0.401   0.101  14.165  0.1569 -1.1773 -2.8963
  325TMC3    C7 4888   0.564   0.082  14.375 -0.2070  0.2039  0.3104
  325TMC3    C8 4889   0.477   0.237  13.931  0.8508 -0.3420  0.8551
  325TMC3    O1 4890   0.636   0.019  14.446  0.3813  0.3197  0.0476
  325TMC3    O2 4891   0.539   0.267  13.827  0.5580 -0.2133 -0.2069
  326MPD2     C 4892   2.515   1.841  11.451  0.5240 -0.6967 -1.3940
  326MPD2    C1 4893   2.532   1.872  11.317 -0.8028 -0.6690  0.5260
  326MPD2    C2 4894   2.601   1.977  11.280 -0.0554  0.0153 -0.0227
  326MPD2    C3 4895   2.656   2.061  11.373  0.7228 -0.0942  0.3400
  326MPD2    C4 4896   2.638   2.033  11.507  1.1237  0.0233 -0.7720
  326MPD2    C5 4897   2.564   1.926  11.552 -0.2834  0.2822  0.3215
  326MPD2     H 4898   2.622   2.011  11.179 -1.9593  1.5586  0.1056
  326MPD2    H1 4899   2.675   2.100  11.584 -0.9922 -0.1612  0.4215
  326MPD2    H2 4900   2.474   1.748  11.488  0.9639 -0.5311 -0.4830
  326MPD2    H3 4901   2.563   1.893  11.655  0.0688  0.8262  0.5021
  326MPD2     N 4902   2.727   2.185  11.345  0.4600  0.2530 -0.4372
  326MPD2    H5 4903   2.769   2.239  11.420  1.9624 -0.1841 -0.9743
  326MPD2    N1 4904   2.470   1.797  11.218  0.0719 -0.5472 -0.3464
  326MPD2    H7 4905   2.489   1.841  11.129  1.0758 -1.3019 -0.4989
  327TMC3    C1 4906   2.333   1.649  11.102  0.4404 -0.2839  0.2522
  327TMC3    C2 4907   2.216   1.709  11.057 -0.1731  0.0879 -0.3592
  327TMC3    C3 4908   2.220   1.759  10.930 -0.2281 -0.0307  0.8141
  327TMC3    C4 4909   2.444   1.637  11.035 -0.5863  0.0683  0.3465
  327TMC3    C5 4910   2.442   1.680  10.906 -0.3076  0.4374 -0.0668
  327TMC3    C6 4911   2.336   1.744  10.853 -0.4686 -0.2086 -0.3792
  327TMC3     C 4912   2.375   1.699  11.234 -0.2985  0.4642  0.5567
  327TMC3     O 4913   2.310   1.669  11.330  0.3965 -0.4759 -0.1029
  327TMC3     H 4914   2.137   1.730  11.127 -0.5095  2.2887 -1.3987
  327TMC3    H1 4915   2.527   1.586  11.082  0.5467 -0.3611 -2.1278
  327TMC3    H2 4916   2.347   1.789  10.755  1.0371 -1.6956 -0.8942
  327TMC3    C7 4917   2.563   1.749  10.864 -0.0083 -0.3386 -0.9944
  327TMC3    C8 4918   2.113   1.825  10.868  0.2105  0.0439 -0.0738
  327TMC3    O1 4919   2.555   1.808  10.758 -0.4665  0.0664 -0.1178
  327TMC3    O2 4920   2.118   1.817  10.745 -0.0629  0.1458  0.3179
  328MPD2     C 4921   0.154   1.275  16.905 -0.2397  0.2434  0.9230
  328MPD2    C1 4922   0.076   1.270  17.021 -0.0963 -0.7231  0.1501
  328MPD2    C2 4923   0.045   1.384  17.085  0.6995 -0.1762 -0.1564
  328MPD2    C3 4924   0.096   1.503  17.040 -0.1477 -0.1793  0.1940
  328MPD2    C4 4925   0.174   1.505  16.927 -0.5781  0.5512 -0.1411
  328MPD2    C5 4926   0.208   1.392  16.863  0.1125  0.0678 -0.1767
  328MPD2     H 4927   4.689   1.384  17.163 -2.0461 -0.0571 -2.8223
  328MPD2    H1 4928   0.218   1.602  16.906  0.4376  0.3892  1.2299
  328MPD2    H2 4929   0.173   1.182  16.852  1.7156 -0.6533  3.2405
  328MPD2    H3 4930   0.277   1.387  16.779  1.0568  0.1783  0.5851
  328MPD2     N 4931   0.078   1.623  17.111  0.1473  0.0210  0.3484
  328MPD2    H5 4932   0.107   1.706  17.060 -1.0674  1.3526  1.7775
  328MPD2    N1 4933   0.032   1.142  17.061 -0.3792 -0.2550 -0.1367
  328MPD2    H7 4934   0.046   1.069  16.992 -0.6152 -2.5119  2.1928
  329TMC3    C1 4935   4.569   1.024  17.163  0.4797 -0.5048 -0.3816
  329TMC3    C2 4936   4.465   1.050  17.247 -0.8601  0.5645 -0.4607
  329TMC3    C3 4937   4.344   1.038  17.198  0.1741  0.2184 -0.1409
  329TMC3    C4 4938   4.556   0.965  17.038  0.4016  0.6268  0.2306
  329TMC3    C5 4939   4.425   0.940  16.998 -0.8773  0.7156 -0.0570
  329TMC3    C6 4940   4.321   0.981  17.069  0.4344 -0.7285 -0.4091
  329TMC3     C 4941   4.680   1.118  17.174 -0.0750  0.0851  0.5726
  329TMC3     O 4942   4.656   1.190  17.271  0.3211 -0.0767  0.8490
  329TMC3     H 4943   4.479   1.097  17.344 -0.2146 -3.9377  1.6377
  329TMC3    H1 4944   4.633   0.925  16.974  1.9137  2.6971  0.7412
  329TMC3    H2 4945   4.217   0.971  17.041 -0.4497  0.1060  2.6769
  329TMC3    C7 4946   4.414   0.841  16.885  0.1346 -0.4955  0.3271
  329TMC3    C8 4947   4.236   1.113  17.254 -0.2860  0.0857  0.3073
  329TMC3    O1 4948   4.512   0.769  16.863 -0.0871  0.6914 -0.1212
  329TMC3    O2 4949   4.131   1.064  17.220  0.1816  0.3811 -0.3915
  330TMC3    C1 4950   3.224   1.646   9.886 -0.3922  0.1365 -0.0598
  330TMC3    C2 4951   3.193   1.541   9.798 -0.0041 -0.1406  0.0863
  330TMC3    C3 4952   3.242   1.417   9.839  0.2162 -0.2912  0.2041
  330TMC3    C4 4953   3.301   1.631   9.998 -0.5701  0.5765  0.0105
  330TMC3    C5 4954   3.345   1.499  10.022 -0.2409 -0.3562  0.2235
  330TMC3    C6 4955   3.323   1.387   9.945  0.4455  0.2532  0.0303
  330TMC3     C 4956   3.139   1.764   9.900  0.9357  0.6969 -0.2349
  330TMC3     O 4957   3.144   1.830  10.003  0.1269 -0.4022  0.1502
  330TMC3     H 4958   3.124   1.555   9.715 -3.5600  0.9439  3.2289
  330TMC3    H1 4959   3.320   1.716  10.063  3.8538  1.5264 -2.5338
  330TMC3    H2 4960   3.349   1.288   9.981 -0.3861  0.4722  1.2330
  330TMC3    C7 4961   3.402   1.488  10.154  0.2587 -0.4595 -0.2410
  330TMC3    C8 4962   3.245   1.321   9.737  0.6807  0.3219  0.8680
  330TMC3    O1 4963   3.392   1.580  10.234  0.7711  0.4478  0.6811
  330TMC3    O2 4964   3.234   1.370   9.624 -0.1483 -0.0180 -0.0208
  331MPD2     C 4965   0.754   0.056  12.210 -0.2796 -0.4592 -0.1032
  331MPD2    C1 4966   0.886   0.087  12.226  0.8891 -0.2794  0.5173
  331MPD2    C2 4967   0.990   0.011  12.163  0.0701 -0.7297  0.7260
  331MPD2    C3 4968   0.952   4.641  12.066  0.2477 -0.1130  0.7632
  331MPD2    C4 4969   0.824   4.628  12.033  0.0378 -0.6163 -0.1224
  331MPD2    C5 4970   0.727   4.691  12.109 -0.7938 -0.2084  0.9218
  331MPD2     H 4971   1.095   0.036  12.168 -0.5673  2.2055 -0.9037
  331MPD2    H1 4972   0.789   4.560  11.956 -0.3023 -1.0642  0.4246
  331MPD2    H2 4973   0.675   0.119  12.248 -0.3146 -0.9853  0.6879
  331MPD2    H3 4974   0.623   4.688  12.077 -0.9538  1.4356  1.2634
  331MPD2     N 4975   1.064   4.586  12.002  0.1224  0.8049  0.8146
  331MPD2    H5 4976   1.155   4.585  12.047 -0.2815  0.9827  1.6340
  331MPD2    N1 4977   0.913   0.206  12.302 -0.3754  0.1783  0.4292
  331MPD2    H7 4978   0.832   0.254  12.341 -0.6638 -0.4373  0.5855
  332TMC3    C1 4979   1.188   4.507  11.841 -0.2817 -0.6701  0.0033
  332TMC3    C2 4980   1.237   4.596  11.750  0.0222  0.0399  0.6575
  332TMC3    C3 4981   1.364   4.638  11.764 -0.1178 -0.2304 -0.1843
  332TMC3    C4 4982   1.261   4.470  11.949 -0.1132  0.2539 -0.7393
  332TMC3    C5 4983   1.385   4.514  11.965  0.2464 -0.1855  0.2963
  332TMC3    C6 4984   1.438   4.591  11.866  0.0139  0.0343  0.6524
  332TMC3     C 4985   1.056   4.535  11.875  0.4219 -0.5058  0.0127
  332TMC3     O 4986   0.971   4.552  11.788  0.1494  0.9620  0.4820
  332TMC3     H 4987   1.178   4.610  11.660  2.4314 -1.9456 -1.2176
  332TMC3    H1 4988   1.214   4.404  12.021 -0.4357 -0.4438 -1.5793
  332TMC3    H2 4989   1.535   4.634  11.892 -0.5768  1.8704 -0.1918
  332TMC3    C7 4990   1.409   4.572  12.098  0.5474  0.7760 -0.5213
  332TMC3    C8 4991   1.419   0.034  11.693  0.8419  0.5410  0.1373
  332TMC3    O1 4992   1.308   4.588  12.163 -0.5641 -0.2076  0.1741
  332TMC3    O2 4993   1.530   0.068  11.735  0.1151  0.2855  0.5334
  333MPD2     C 4994   1.181   0.391  10.995  0.2570  0.3663  0.1964
  333MPD2    C1 4995   1.289   0.329  10.930 -0.1334 -0.7276  0.1948
  333MPD2    C2 4996   1.299   0.194  10.939 -0.0924  0.5266  1.0215
  333MPD2    C3 4997   1.218   0.123  11.028  0.4476 -0.1767 -0.0037
  333MPD2    C4 4998   1.118   0.185  11.105  0.2131 -0.6726 -0.0078
  333MPD2    C5 4999   1.097   0.317  11.078 -0.7701 -0.6413  0.1507
  333MPD2     H 5000   1.372   0.139  10.880  0.8623  1.3049  1.4634
  333MPD2    H1 5001   1.054   0.135  11.176 -0.1431 -0.9458 -0.5247
  333MPD2    H2 5002   1.166   0.497  10.977 -0.7553 -0.2744 -2.7362
  333MPD2    H3 5003   1.019   0.357  11.142 -1.2590  0.3700 -1.0800
  333MPD2     N 5004   1.240   4.702  11.022  0.8975 -0.0170  0.3530
  333MPD2    H5 5005   1.302   4.670  10.948 -1.0705 -0.0032 -1.2815
  333MPD2    N1 5006   1.381   0.409  10.864 -0.0948  0.2349 -0.6728
  333MPD2    H7 5007   1.364   0.509  10.867 -0.5105  0.1773 -1.1481
  334TMC3    C1 5008   1.558   0.470  10.708 -0.5535  0.4357  0.3729
  334TMC3    C2 5009   1.687   0.426  10.679 -0.4988  0.0754  0.9032
  334TMC3    C3 5010   1.757   0.520  10.606 -0.1391  0.2825  0.6787
  334TMC3    C4 5011   1.510   0.597  10.691  0.5020 -0.2042 -0.0467
  334TMC3    C5 5012   1.591   0.682  10.622 -0.0076 -0.5023 -0.3755
  334TMC3    C6 5013   1.716   0.644  10.571  0.3660  0.4650  0.0363
  334TMC3     C 5014   1.498   0.371  10.806 -0.2031 -0.3798  0.3083
  334TMC3     O 5015   1.557   0.268  10.824  0.0875 -0.1761 -0.1263
  334TMC3     H 5016   1.727   0.334  10.717 -2.2555 -0.2148  2.0645
  334TMC3    H1 5017   1.410   0.629  10.718 -0.0257 -1.6853 -0.2616
  334TMC3    H2 5018   1.771   0.717  10.513  1.8810 -0.6007  0.1058
  334TMC3    C7 5019   1.548   0.822  10.612 -0.4117 -0.0139  0.8556
  334TMC3    C8 5020   1.868   0.462  10.535  0.5350  0.1168  0.6365
  334TMC3    O1 5021   1.540   0.892  10.710  0.3201 -0.2808  0.0532
  334TMC3    O2 5022   1.865   0.339  10.522  0.7971  0.4388 -0.2314
  335TMC3    C1 5023   1.003   1.960   0.095  0.1003  0.3052  0.0130
  335TMC3    C2 5024   0.936   2.051   0.018  0.4802 -0.3979 -0.3002
  335TMC3    C3 5025   0.990   2.087  17.582 -0.0473 -0.5490 -0.2431
  335TMC3    C4 5026   1.124   1.898   0.054 -0.0220  0.2998  0.0544
  335TMC3    C5 5027   1.177   1.937  17.615  0.4999  0.0415 -0.2469
  335TMC3    C6 5028   1.109   2.030  17.540 -0.1713 -0.2444 -0.3274
  335TMC3     C 5029   0.946   1.916   0.222 -0.5445  0.0129  0.1143
  335TMC3     O 5030   0.985   1.807   0.256  0.5467  1.0515 -0.6679
  335TMC3     H 5031   0.839   2.079   0.054  1.2279  1.4456  0.2569
  335TMC3    H1 5032   1.161   1.824   0.123  0.9245  0.9433  0.2315
  335TMC3    H2 5033   1.137   2.043  17.436  2.0373 -1.5573  0.1169
  335TMC3    C7 5034   1.287   1.862  17.556 -0.3398 -0.0710  0.4243
  335TMC3    C8 5035   0.914   2.103  17.467  0.2001  0.3619  0.5471
  335TMC3    O1 5036   1.359   1.923  17.476 -0.2035 -0.8447 -0.2310
  335TMC3    O2 5037   0.960   2.166  17.374  0.2324 -0.6312 -0.5789
  336MPD2     C 5038   0.769   4.656  15.907  1.0068 -0.4627 -0.3197
  336MPD2    C1 5039   0.672   4.590  15.986  0.7622 -0.7049 -0.2281
  336MPD2    C2 5040   0.700   4.470  16.043 -0.2631 -0.3736 -0.1967
  336MPD2    C3 5041   0.825   4.411  16.024 -0.3862 -0.5831  0.0682
  336MPD2    C4 5042   0.912   4.470  15.936  0.7173 -0.0572 -0.1483
  336MPD2    C5 5043   0.887   4.596  15.886  0.6762 -0.3973 -1.2405
  336MPD2     H 5044   0.623   4.431  16.110 -0.4925  1.5906  0.6691
  336MPD2    H1 5045   1.006   4.422  15.911  1.5532  1.4987  0.0249
  336MPD2    H2 5046   0.750   0.031  15.857 -1.6990 -0.0874  1.4420
  336MPD2    H3 5047   0.956   4.644  15.817  1.9929 -1.2480 -0.5234
  336MPD2     N 5048   0.861   4.288  16.081  0.1141 -0.0409  0.4607
  336MPD2    H5 5049   0.941   4.238  16.044 -0.3412  1.0535 -1.9684
  336MPD2    N1 5050   0.555   4.660  16.022 -0.3179 -0.1665  0.9152
  336MPD2    H7 5051   0.480   4.599  16.054  0.7510 -1.7047  0.5074
  337TMC3    C1 5052   0.409   0.124  16.065 -0.0007  0.3264  0.4821
  337TMC3    C2 5053   0.292   0.048  16.045  0.1027  0.4214 -0.2288
  337TMC3    C3 5054   0.176   0.104  16.094 -0.4975 -0.5731  0.0019
  337TMC3    C4 5055   0.417   0.241  16.138  1.2666  0.4455 -0.3866
  337TMC3    C5 5056   0.294   0.288  16.170 -0.8864  0.0780  0.7350
  337TMC3    C6 5057   0.174   0.233  16.144  0.0299  0.5389 -0.2892
  337TMC3     C 5058   0.540   0.076  16.014  0.3571 -0.1908 -0.2215
  337TMC3     O 5059   0.630   0.160  16.009 -0.2967  0.1944 -0.0156
  337TMC3     H 5060   0.294   4.675  15.991 -1.3645 -2.5164  4.7147
  337TMC3    H1 5061   0.506   0.290  16.176  0.7985  0.2667  0.9262
  337TMC3    H2 5062   0.084   0.288  16.166 -0.0093  0.1905  0.4016
  337TMC3    C7 5063   0.286   0.378  16.277 -0.0468  0.0816  0.2734
  337TMC3    C8 5064   0.054   0.054  16.039 -0.3274  0.4525 -0.1545
  337TMC3    O1 5065   0.193   0.360  16.358 -0.9651 -0.3665 -0.2430
  337TMC3    O2 5066   0.057   4.704  15.941 -0.5797  0.1340  0.0324
  338MPD2     C 5067   1.180   3.368   0.589  0.1752  0.4253 -0.2073
  338MPD2    C1 5068   1.114   3.451   0.509  0.8290  0.6937  0.1714
  338MPD2    C2 5069   1.026   3.542   0.566  0.8162 -0.4758 -0.7198
  338MPD2    C3 5070   1.023   3.568   0.700  0.3435  0.5028  0.3133
  338MPD2    C4 5071   1.105   3.485   0.780  0.1377 -0.2555  0.5019
  338MPD2    C5 5072   1.181   3.388   0.724 -0.2289 -0.2704 -1.0550
  338MPD2     H 5073   0.959   3.594   0.499  0.0648  1.1102  1.2396
  338MPD2    H1 5074   1.105   3.491   0.888  0.0837  0.9732  0.4346
  338MPD2    H2 5075   1.249   3.292   0.552 -1.4171 -0.8660 -0.5114
  338MPD2    H3 5076   1.252   3.330   0.782 -0.1614  0.8612  0.0157
  338MPD2     N 5077   0.951   3.679   0.750  0.2834  0.4929 -0.1354
  338MPD2    H5 5078   0.889   3.725   0.683  2.5768  2.1663 -1.1164
  338MPD2    N1 5079   1.125   3.440   0.369 -0.6314 -0.0084  0.2337
  338MPD2    H7 5080   1.173   3.364   0.323  0.9533  0.9279  0.3461
  339TMC3    C1 5081   0.843   3.830   0.887  0.3238 -0.2161 -0.4158
  339TMC3    C2 5082   0.798   3.863   1.014 -0.1044  0.0482  0.3449
  339TMC3    C3 5083   0.708   3.964   1.026  0.1464 -0.1603  0.1959
  339TMC3    C4 5084   0.801   3.894   0.775  0.4814  0.2062  0.1071
  339TMC3    C5 5085   0.711   4.001   0.792 -0.1619 -0.4937 -0.2424
  339TMC3    C6 5086   0.677   4.045   0.918 -0.8572 -0.6265  0.3601
  339TMC3     C 5087   0.934   3.719   0.880  0.8702  0.9480 -0.3398
  339TMC3     O 5088   0.998   3.687   0.979 -0.1515 -0.2727 -0.5899
  339TMC3     H 5089   0.838   3.806   1.096 -1.1853 -0.2391  0.6741
  339TMC3    H1 5090   0.820   3.862   0.673 -0.5456  0.0671 -0.0381
  339TMC3    H2 5091   0.616   4.135   0.924 -1.4653 -0.8514 -2.1266
  339TMC3    C7 5092   0.638   4.055   0.674  0.3878  0.5415 -0.0595
  339TMC3    C8 5093   0.637   3.985   1.148  0.0982 -0.1329 -0.0668
  339TMC3    O1 5094   0.687   4.041   0.563  0.3205 -0.7828  0.5302
  339TMC3    O2 5095   0.599   4.101   1.164 -0.5774  0.0063 -0.1616
  340MPD2     C 5096   1.372   1.554   9.475  0.4011  0.8701 -0.5140
  340MPD2    C1 5097   1.324   1.456   9.556 -0.0987 -0.8951 -0.7376
  340MPD2    C2 5098   1.380   1.435   9.682  0.2935 -0.2822  0.3380
  340MPD2    C3 5099   1.488   1.515   9.724  0.2984  0.3635 -0.2944
  340MPD2    C4 5100   1.530   1.615   9.639 -0.0188  0.2102  0.4309
  340MPD2    C5 5101   1.464   1.639   9.520 -0.0352  0.3912 -0.0530
  340MPD2     H 5102   1.352   1.352   9.747  1.7553 -0.2038  1.0822
  340MPD2    H1 5103   1.610   1.683   9.665  0.9646 -1.2090  1.1348
  340MPD2    H2 5104   1.326   1.579   9.380  2.4235 -2.0372 -2.2287
  340MPD2    H3 5105   1.503   1.720   9.461 -0.4007  0.3709 -0.3202
  340MPD2     N 5106   1.558   1.495   9.846  0.4450 -0.0364  0.2825
  340MPD2    H5 5107   1.639   1.555   9.856 -0.6634  1.4893  0.1579
  340MPD2    N1 5108   1.230   1.365   9.503 -0.6681  0.4024 -0.2162
  340MPD2    H7 5109   1.209   1.374   9.404  2.1507 -1.7540 -1.0279
  341TMC3    C1 5110   1.127   1.154   9.464  0.0681  0.2902 -0.2647
  341TMC3    C2 5111   1.007   1.085   9.468  0.2928 -0.3256  1.0900
  341TMC3    C3 5112   0.991   0.992   9.366 -0.1421  0.2453  0.0244
  341TMC3    C4 5113   1.218   1.143   9.361 -0.2269 -0.1648 -0.1262
  341TMC3    C5 5114   1.203   1.039   9.271  0.5595 -0.6323  0.1282
  341TMC3    C6 5115   1.092   0.960   9.279  0.3830  0.3028 -0.2083
  341TMC3     C 5116   1.165   1.257   9.565  0.4501  0.9608  0.6237
  341TMC3     O 5117   1.168   1.236   9.686  0.8973 -0.4436 -0.6281
  341TMC3     H 5118   0.934   1.098   9.547  0.8293  2.1224  1.1755
  341TMC3    H1 5119   1.315   1.189   9.373 -0.9588  0.9570  1.4543
  341TMC3    H2 5120   1.078   0.882   9.206 -2.4276  0.8031 -0.2008
  341TMC3    C7 5121   1.328   0.981   9.224 -0.2899 -0.0398  0.4447
  341TMC3    C8 5122   0.859   0.924   9.355 -0.1342  0.1410 -0.6684
  341TMC3    O1 5123   1.421   1.061   9.229 -0.0790  0.2612  0.2938
  341TMC3    O2 5124   0.776   0.950   9.440 -0.4306  0.3131  0.1677
  342MPD2     C 5125   3.621   0.324  17.534  0.0246  0.3539 -0.3189
  342MPD2    C1 5126   3.739   0.283  17.587 -0.0484 -0.0728  0.1154
  342MPD2    C2 5127   3.804   0.368  17.675 -0.1788  0.3364 -0.3872
  342MPD2    C3 5128   3.742   0.485   0.035  0.3330  0.5439  0.3100
  342MPD2    C4 5129   3.616   0.517  17.674  0.7373 -0.0067 -0.0450
  342MPD2    C5 5130   3.554   0.437  17.586  0.5730 -0.6559  0.2542
  342MPD2     H 5131   3.897   0.332   0.036  0.2552  1.6619 -0.2193
  342MPD2    H1 5132   3.557   0.594   0.039 -0.0704  0.0305 -1.1032
  342MPD2    H2 5133   3.565   0.272  17.456 -1.3290  0.9763  0.2273
  342MPD2    H3 5134   3.450   0.452  17.557  0.2434 -1.3119  1.1234
  342MPD2     N 5135   3.816   0.568   0.126  0.1253  0.3448 -0.1938
  342MPD2    H5 5136   3.908   0.540   0.159 -0.9971 -0.1675  2.5109
  342MPD2    N1 5137   3.804   0.161  17.552  0.1356 -0.2839  0.1384
  342MPD2    H7 5138   3.899   0.149  17.585 -0.3214  0.3778  1.7132
  343TMC3    C1 5139   3.832   4.668  17.463 -0.2915  0.0584 -0.9835
  343TMC3    C2 5140   3.961   4.680  17.471 -0.1875 -0.1771  0.0465
  343TMC3    C3 5141   4.033   4.570  17.502  0.4758 -0.4356  0.3962
  343TMC3    C4 5142   3.767   4.550  17.500 -0.2110 -0.3243  0.4707
  343TMC3    C5 5143   3.841   4.438  17.530 -0.1286  0.0498 -0.5157
  343TMC3    C6 5144   3.980   4.440  17.521  0.4052  0.3626  0.0170
  343TMC3     C 5145   3.748   0.063  17.483 -0.3355 -0.6138 -0.4520
  343TMC3     O 5146   3.629   0.044  17.459 -0.4182 -0.7043 -0.0316
  343TMC3     H 5147   4.002   0.060  17.458  1.9583 -1.5778 -3.8887
  343TMC3    H1 5148   3.671   4.554  17.548 -0.0305 -0.4176  0.8382
  343TMC3    H2 5149   4.045   4.366  17.567  0.1775 -1.2809 -2.3082
  343TMC3    C7 5150   3.772   4.317  17.563  1.2541  0.1904 -0.7546
  343TMC3    C8 5151   4.174   4.584  17.464  0.6530 -0.5352 -0.2987
  343TMC3    O1 5152   3.667   4.283  17.513 -0.1223  0.0826  0.4685
  343TMC3    O2 5153   4.227   4.690  17.487  0.4260  0.2309  0.2155
  344MPD2     C 5154   0.243   3.968  10.545  0.3926  0.6546 -0.0999
  344MPD2    C1 5155   0.131   3.933  10.473 -0.3106 -0.8919 -0.4692
  344MPD2    C2 5156   0.123   3.976  10.342 -0.2302  0.1724  0.3314
  344MPD2    C3 5157   0.220   4.069  10.290 -0.5273  0.0903 -0.9336
  344MPD2    C4 5158   0.332   4.099  10.362  0.0214  0.0266 -0.4691
  344MPD2    C5 5159   0.345   4.043  10.489  0.4148 -0.3658  0.1273
  344MPD2     H 5160   0.037   3.945  10.284 -1.0436  1.3593  0.9070
  344MPD2    H1 5161   0.407   4.165  10.320  0.8690 -2.4251 -2.7866
  344MPD2    H2 5162   0.263   3.929  10.644 -1.5181  1.1078  0.4629
  344MPD2    H3 5163   0.435   4.062  10.546  0.3745  0.0671  0.0535
  344MPD2     N 5164   0.223   4.125  10.169 -0.4100  0.5202  0.2297
  344MPD2    H5 5165   0.309   4.176  10.149 -0.8787  0.9397 -0.7294
  344MPD2    N1 5166   0.014   3.868  10.528 -0.1391  0.1338 -0.4350
  344MPD2    H7 5167   4.646   3.872  10.477 -1.9790 -2.0268  2.6105
  345TMC3    C1 5168   0.134   4.230   9.970  0.0053 -0.4215 -0.6058
  345TMC3    C2 5169   0.252   4.215   9.909 -0.3038  0.2340 -0.2051
  345TMC3    C3 5170   0.278   4.314   9.816 -0.0793  0.4034  0.4905
  345TMC3    C4 5171   0.047   4.330   9.946  0.8554 -0.0726 -0.1372
  345TMC3    C5 5172   0.079   4.424   9.854  0.8336  0.1636  0.0333
  345TMC3    C6 5173   0.198   4.419   9.788  0.7591 -0.4096 -0.3444
  345TMC3     C 5174   0.118   4.144  10.086  0.0759  0.2670  0.6772
  345TMC3     O 5175   0.000   4.131  10.113 -0.3036  0.1971 -0.2189
  345TMC3     H 5176   0.328   4.145   9.942 -0.3466 -1.6682 -4.1578
  345TMC3    H1 5177   4.675   4.332  10.004  0.8639  4.8715 -0.2777
  345TMC3    H2 5178   0.226   4.502   9.724 -1.7634 -0.0913 -1.0170
  345TMC3    C7 5179   0.018   4.554   9.854  0.5370 -0.6213  0.2513
  345TMC3    C8 5180   0.409   4.322   9.773 -0.2952  0.2706  0.6382
  345TMC3    O1 5181   0.083   4.650   9.815 -0.0376 -0.5030  0.3278
  345TMC3    O2 5182   0.488   4.242   9.825 -0.1266 -0.3384 -0.0787
  346MPD2     C 5183   4.423   1.123  14.306  0.1247 -0.3650 -0.3783
  346MPD2    C1 5184   4.504   1.030  14.244 -0.3725  0.7015  0.2546
  346MPD2    C2 5185   4.624   0.995  14.302  0.0908  0.2991  0.4625
  346MPD2    C3 5186   4.662   1.068  14.408  0.4467  0.2554 -0.0346
  346MPD2    C4 5187   4.588   1.173  14.466 -0.6566 -0.1116  0.4135
  346MPD2    C5 5188   4.460   1.190  14.421  0.3089  0.6212  0.0156
  346MPD2     H 5189   4.685   0.923  14.250 -0.0269  0.5118  0.0308
  346MPD2    H1 5190   4.624   1.240  14.543  0.5801 -0.6493  0.3008
  346MPD2    H2 5191   4.335   1.157  14.252  0.2761 -1.0446 -1.0469
  346MPD2    H3 5192   4.401   1.278  14.445 -0.0480  0.4058 -0.0686
  346MPD2     N 5193   0.058   1.019  14.473 -0.6247  0.0572 -0.3107
  346MPD2    H5 5194   0.103   0.936  14.435 -0.9508 -0.3349  0.1457
  346MPD2    N1 5195   4.453   0.983  14.118  0.0366  0.2370 -0.3741
  346MPD2    H7 5196   4.367   1.026  14.086 -0.0740  1.9608  2.1609
  347TMC3    C1 5197   0.209   0.986  14.647  0.0340 -0.2458 -0.3372
  347TMC3    C2 5198   0.229   0.857  14.600 -0.2010 -0.4630  0.0139
  347TMC3    C3 5199   0.319   0.779  14.668  0.7876 -0.1299 -0.2403
  347TMC3    C4 5200   0.267   1.026  14.763  0.0657 -0.6643  0.5372
  347TMC3    C5 5201   0.349   0.940  14.834  0.2680  0.3844 -0.4516
  347TMC3    C6 5202   0.379   0.814  14.784  0.3531 -0.5306 -0.1106
  347TMC3     C 5203   0.120   1.079  14.583 -0.7551 -0.5613 -0.5853
  347TMC3     O 5204   0.096   1.183  14.640 -0.1477 -0.0428  0.0175
  347TMC3     H 5205   0.175   0.815  14.516 -2.9853  1.7179  0.7217
  347TMC3    H1 5206   0.269   1.130  14.793 -0.7902  0.1947 -2.3895
  347TMC3    H2 5207   0.455   0.760  14.838  1.4032  1.7639  0.7201
  347TMC3    C7 5208   0.424   0.977  14.954 -0.6475  0.2931  0.3421
  347TMC3    C8 5209   0.361   0.655  14.609 -0.4626 -0.3354 -0.0749
  347TMC3    O1 5210   0.509   0.908  15.006 -0.6110  0.1770 -0.1275
  347TMC3    O2 5211   0.312   0.628  14.501  0.3385 -0.3365  0.0537
  348MPD2     C 5212   3.273   0.915  12.111  0.3100 -0.4813  0.3085
  348MPD2    C1 5213   3.264   0.838  12.001  0.4277 -0.9984 -0.1239
  348MPD2    C2 5214   3.328   0.878  11.884 -0.3507  0.2630  0.1541
  348MPD2    C3 5215   3.410   0.981  11.882  0.6172 -0.0470  0.0977
  348MPD2    C4 5216   3.429   1.059  12.000  0.5265 -0.1162  0.2058
  348MPD2    C5 5217   3.354   1.023  12.114  0.1696 -0.3365 -0.3912
  348MPD2     H 5218   3.309   0.815  11.798  0.5547 -1.2521  1.0426
  348MPD2    H1 5219   3.492   1.147  12.006  2.7640 -1.9726  3.3221
  348MPD2    H2 5220   3.223   0.895  12.206  1.0892 -0.4814  0.7151
  348MPD2    H3 5221   3.371   1.075  12.208 -0.8440 -1.0429  0.1866
  348MPD2     N 5222   3.483   1.011  11.756  0.6258  0.1377  0.0088
  348MPD2    H5 5223   3.448   0.968  11.670 -2.1105 -1.9588  2.1785
  348MPD2    N1 5224   3.178   0.730  11.996  0.4727 -0.0365 -0.0248
  348MPD2    H7 5225   3.169   0.676  11.911  0.1476 -1.0913  0.6637
  349TMC3    C1 5226   3.015   0.569  12.043  0.0296  0.7174 -1.1625
  349TMC3    C2 5227   2.991   0.463  12.130 -0.8707  0.0175 -0.0394
  349TMC3    C3 5228   2.950   0.345  12.077  0.0980  0.5877  0.4946
  349TMC3    C4 5229   3.007   0.548  11.909 -0.1711  0.0946 -0.1396
  349TMC3    C5 5230   2.957   0.428  11.858 -0.3101  0.6379 -0.6240
  349TMC3    C6 5231   2.946   0.321  11.940 -0.6678 -0.0149 -0.4839
  349TMC3     C 5232   3.090   0.679  12.094  0.9630 -0.3364  0.1222
  349TMC3     O 5233   3.061   0.721  12.205  0.1181  0.2862 -0.0915
  349TMC3     H 5234   3.018   0.477  12.234 -0.6532  0.2300 -0.1263
  349TMC3    H1 5235   3.024   0.632  11.844  0.2569  0.0585 -0.0737
  349TMC3    H2 5236   2.922   0.224  11.898  1.0912 -1.5846  2.2091
  349TMC3    C7 5237   2.948   0.408  11.715 -0.1739  0.0706 -0.3842
  349TMC3    C8 5238   3.012   0.249  12.160 -0.6792  0.0004  0.5261
  349TMC3    O1 5239   2.955   0.294  11.674 -0.0184  1.0318 -0.9125
  349TMC3    O2 5240   3.105   0.279  12.237  0.1824  0.5227  0.6815
  350MPD2     C 5241   2.514   3.669   9.577  0.1483  0.5650  0.8601
  350MPD2    C1 5242   2.582   3.552   9.592  0.7498  1.1249  0.2392
  350MPD2    C2 5243   2.707   3.555   9.645  0.3212  0.4572 -0.5350
  350MPD2    C3 5244   2.760   3.675   9.690  0.4058  0.1584 -0.4899
  350MPD2    C4 5245   2.682   3.788   9.687  0.5509  0.5136  0.4971
  350MPD2    C5 5246   2.560   3.788   9.631  0.4102 -0.3466 -0.3236
  350MPD2     H 5247   2.759   3.460   9.656  2.9972  1.8322 -1.1036
  350MPD2    H1 5248   2.717   3.880   9.732  0.9470  0.6051  0.0007
  350MPD2    H2 5249   2.418   3.680   9.530  0.3858  1.8685  0.6619
  350MPD2    H3 5250   2.503   3.879   9.614 -2.4045 -2.0581 -0.0953
  350MPD2     N 5251   2.888   3.665   9.746 -0.7022 -0.4523 -0.0259
  350MPD2    H5 5252   2.943   3.584   9.716  1.1732 -0.0754  2.3671
  350MPD2    N1 5253   2.533   3.425   9.547 -0.0333 -0.3249 -0.2044
  350MPD2    H7 5254   2.603   3.352   9.561 -1.2833 -1.6471 -0.9007
  351TMC3    C1 5255   2.390   3.258   9.481  0.2588  0.2509  0.5648
  351TMC3    C2 5256   2.496   3.178   9.477  0.1227  0.2918  0.1452
  351TMC3    C3 5257   2.480   3.044   9.507  0.1196  0.2925  0.0168
  351TMC3    C4 5258   2.265   3.209   9.514  0.2881 -0.1207 -0.5361
  351TMC3    C5 5259   2.250   3.077   9.537  0.6404  0.2174  0.0325
  351TMC3    C6 5260   2.355   2.992   9.531  0.1377 -0.0721  0.0442
  351TMC3     C 5261   2.404   3.403   9.497  0.1339  0.6407 -0.2274
  351TMC3     O 5262   2.306   3.476   9.490  0.1560 -0.0093  0.1576
  351TMC3     H 5263   2.587   3.205   9.424 -0.5532 -1.6527 -2.0498
  351TMC3    H1 5264   2.177   3.271   9.530 -0.0530 -0.7054 -0.1476
  351TMC3    H2 5265   2.326   2.890   9.553 -1.0448  0.1783 -0.3613
  351TMC3    C7 5266   2.126   3.036   9.610 -0.5503 -0.0892 -0.6432
  351TMC3    C8 5267   2.597   2.963   9.522 -0.0966 -0.2752  0.0083
  351TMC3    O1 5268   2.027   3.108   9.592 -0.3498 -0.0265 -0.4794
  351TMC3    O2 5269   2.699   3.021   9.537  0.4079 -0.6019 -1.1663
  352MPD2     C 5270   0.570   1.072   1.037 -0.2103  0.1721  0.4341
  352MPD2    C1 5271   0.464   0.996   1.077 -0.5371  0.5504  0.0351
  352MPD2    C2 5272   0.478   0.888   1.159 -0.2588 -1.0914  0.2475
  352MPD2    C3 5273   0.606   0.839   1.179  1.0187 -0.5299 -0.0071
  352MPD2    C4 5274   0.712   0.903   1.118  0.7245 -0.0941 -0.9033
  352MPD2    C5 5275   0.693   1.024   1.057 -0.3181 -1.1683 -1.0529
  352MPD2     H 5276   0.388   0.852   1.208  0.2252 -1.6760  0.6989
  352MPD2    H1 5277   0.814   0.870   1.110 -0.0984 -2.6614 -0.5717
  352MPD2    H2 5278   0.558   1.147   0.959 -0.9402 -1.3284 -0.9023
  352MPD2    H3 5279   0.784   1.069   1.019 -0.7071 -0.6743 -1.3952
  352MPD2     N 5280   0.634   0.718   1.239  0.0615 -0.6261 -0.4187
  352MPD2    H5 5281   0.729   0.681   1.240  1.0254  1.8548  1.6170
  352MPD2    N1 5282   0.337   1.054   1.041  0.3056  0.0624  0.1845
  352MPD2    H7 5283   0.336   1.137   0.982 -1.4654  0.0215  0.1691
  353TMC3    C1 5284   0.595   0.488   1.312 -0.8332 -0.6415 -0.5141
  353TMC3    C2 5285   0.714   0.474   1.366  0.0076 -0.3216 -0.1704
  353TMC3    C3 5286   0.765   0.353   1.380 -0.2775  0.0197  0.2665
  353TMC3    C4 5287   0.521   0.381   1.266 -0.2348 -0.0608  1.0062
  353TMC3    C5 5288   0.575   0.256   1.287 -0.0981  0.5718 -0.0261
  353TMC3    C6 5289   0.698   0.241   1.347  0.7148  0.8869 -0.2695
  353TMC3     C 5290   0.540   0.623   1.278 -0.1820  0.7146  0.2346
  353TMC3     O 5291   0.421   0.632   1.256  0.2422  0.7587  0.2834
  353TMC3     H 5292   0.761   0.561   1.411 -0.5748  0.3970 -0.9368
  353TMC3    H1 5293   0.422   0.390   1.223 -0.3300 -2.3784  0.7121
  353TMC3    H2 5294   0.740   0.143   1.368 -0.0064  1.2317  2.7155
  353TMC3    C7 5295   0.536   0.145   1.197 -0.1353  0.7144 -0.1195
  353TMC3    C8 5296   0.905   0.342   1.412  0.1635 -0.1508 -0.6605
  353TMC3    O1 5297   0.617   0.060   1.161 -0.2309 -0.7149  0.3559
  353TMC3    O2 5298   0.957   0.438   1.469  0.5691  0.1836 -0.1730
  354TMC3    C1 5299   2.626   2.052  13.203  0.3564  0.4815 -0.1394
  354TMC3    C2 5300   2.512   2.072  13.128 -0.5166  0.1322 -0.1286
  354TMC3    C3 5301   2.520   2.096  12.996 -0.0938 -0.3191  0.0779
  354TMC3    C4 5302   2.752   2.068  13.151 -0.1816  0.0398  0.0499
  354TMC3    C5 5303   2.755   2.109  13.021  0.4610 -0.4644 -0.0227
  354TMC3    C6 5304   2.646   2.116  12.942 -0.3736  0.2161  0.4652
  354TMC3     C 5305   2.612   2.027  13.346  0.2680 -1.3511 -0.9368
  354TMC3     O 5306   2.512   2.072  13.396  0.2091 -0.5290 -0.4539
  354TMC3     H 5307   2.413   2.070  13.173  0.5302  1.1629  2.1907
  354TMC3    H1 5308   2.831   2.093  13.221  0.6321 -1.3338 -0.3848
  354TMC3    H2 5309   2.650   2.136  12.835 -3.1748  2.1939  0.7377
  354TMC3    C7 5310   2.885   2.142  12.970 -0.6278  0.3382 -0.0378
  354TMC3    C8 5311   2.414   2.162  12.918  0.2184 -0.3746  0.6046
  354TMC3    O1 5312   2.976   2.151  13.048  0.1313 -0.6751  0.1753
  354TMC3    O2 5313   2.450   2.251  12.837 -0.3443  0.0479  0.2144
  355MPD2     C 5314   2.998   3.466  11.518  0.6086  0.4732 -0.1401
  355MPD2    C1 5315   2.985   3.382  11.418 -0.8925  0.1823 -0.0129
  355MPD2    C2 5316   3.088   3.291  11.388 -0.2825 -0.5380 -0.7674
  355MPD2    C3 5317   3.199   3.297  11.472  0.5479  0.8704  0.2882
  355MPD2    C4 5318   3.202   3.376  11.587 -0.0899  0.3250 -0.5673
  355MPD2    C5 5319   3.095   3.460  11.611 -0.2673  0.3658 -0.4094
  355MPD2     H 5320   3.078   3.221  11.306  0.8810 -1.1733 -0.3588
  355MPD2    H1 5321   3.285   3.372  11.656 -1.5720  0.1456  1.2137
  355MPD2    H2 5322   2.921   3.537  11.549  0.8116  0.2277  0.9256
  355MPD2    H3 5323   3.092   3.523  11.699 -0.7156 -1.1466  0.6605
  355MPD2     N 5324   3.319   3.220  11.454 -0.0444  0.0385 -0.4132
  355MPD2    H5 5325   3.390   3.227  11.526  0.8090 -1.2554 -1.1114
  355MPD2    N1 5326   2.866   3.387  11.340  0.0908 -0.2370  0.9063
  355MPD2    H7 5327   2.808   3.469  11.354  2.3485  1.2413  1.5783
  356TMC3    C1 5328   3.496   3.125  11.336  0.5972 -0.9033 -0.3106
  356TMC3    C2 5329   3.567   3.115  11.213  0.2576  0.5161  0.2427
  356TMC3    C3 5330   3.667   3.020  11.217  0.5417  0.3994 -0.3319
  356TMC3    C4 5331   3.552   3.074  11.455 -0.8933 -0.1188  0.2876
  356TMC3    C5 5332   3.667   2.998  11.449 -0.1006  0.3876  0.4687
  356TMC3    C6 5333   3.717   2.960  11.332 -0.0105  0.5042  0.2867
  356TMC3     C 5334   3.362   3.179  11.337  1.1078  0.2679 -0.3258
  356TMC3     O 5335   3.306   3.205  11.228 -0.0487 -0.1151  0.4562
  356TMC3     H 5336   3.521   3.146  11.120 -0.1561 -1.6142 -0.2723
  356TMC3    H1 5337   3.491   3.080  11.544 -0.2600  0.0593  0.7107
  356TMC3    H2 5338   3.813   2.909  11.327 -1.0200 -1.2312 -1.1142
  356TMC3    C7 5339   3.730   2.954  11.575  0.5220 -0.6606 -0.1875
  356TMC3    C8 5340   3.783   3.056  11.133  0.0771  0.4280 -0.2015
  356TMC3    O1 5341   3.793   2.848  11.580  0.0873 -0.2156 -0.3198
  356TMC3    O2 5342   3.868   2.968  11.110  0.0771  0.0338 -0.3597
  357MPD2     C 5343   2.265   2.388   0.524 -0.0193  0.2647  0.5714
  357MPD2    C1 5344   2.338   2.389   0.641  0.2208  0.2552 -0.0406
  357MPD2    C2 5345   2.264   2.346   0.749 -0.4646 -0.3820 -0.1564
  357MPD2    C3 5346   2.138   2.299   0.750 -0.2673  0.2945 -0.3178
  357MPD2    C4 5347   2.068   2.314   0.637  0.1767 -0.1629  0.0849
  357MPD2    C5 5348   2.131   2.355   0.522 -0.4587  0.2021 -0.2656
  357MPD2     H 5349   2.320   2.340   0.841 -0.4771 -1.4520 -0.2197
  357MPD2    H1 5350   1.967   2.275   0.641 -0.4265  1.5839  2.0999
  357MPD2    H2 5351   2.308   2.412   0.428 -2.7841 -1.8859 -1.2073
  357MPD2    H3 5352   2.077   2.352   0.428 -2.9420  2.6387  1.0792
  357MPD2     N 5353   2.060   2.247   0.857  0.0771 -0.0688  0.1252
  357MPD2    H5 5354   1.960   2.243   0.837 -0.2968  1.1516  1.7751
  357MPD2    N1 5355   2.471   2.428   0.647 -0.0099 -0.2878 -0.3632
  357MPD2    H7 5356   2.513   2.438   0.555 -0.6429 -0.2263 -0.6471
  358TMC3    C1 5357   2.690   2.428   0.736 -0.4844  0.4190  0.7476
  358TMC3    C2 5358   2.728   2.355   0.622  0.1425  0.1245 -0.1471
  358TMC3    C3 5359   2.822   2.257   0.643 -0.7333 -0.4249  0.2538
  358TMC3    C4 5360   2.745   2.407   0.854 -0.1300 -0.9617 -0.7165
  358TMC3    C5 5361   2.839   2.317   0.865 -0.2614 -0.3918 -0.4427
  358TMC3    C6 5362   2.874   2.237   0.763  0.4543 -0.0367 -0.3142
  358TMC3     C 5363   2.545   2.451   0.757  0.8113 -1.1873 -0.2987
  358TMC3     O 5364   2.506   2.472   0.870 -0.1617  0.1118 -0.1993
  358TMC3     H 5365   2.686   2.365   0.522  1.1434  0.5713 -0.5256
  358TMC3    H1 5366   2.719   2.473   0.936  0.7293  1.1432 -2.1243
  358TMC3    H2 5367   2.965   2.180   0.773  0.9070  0.5963 -0.7793
  358TMC3    C7 5368   2.893   2.297   0.993  0.0399 -0.4264 -0.5847
  358TMC3    C8 5369   2.829   2.148   0.534 -0.3803 -0.6326  0.1493
  358TMC3    O1 5370   2.849   2.375   1.082  0.2981 -0.4365 -0.5642
  358TMC3    O2 5371   2.764   2.168   0.430 -0.1995  0.1071  0.2808
  359MPD2     C 5372   3.392   1.394  12.952  0.1712  0.1319 -0.0233
  359MPD2    C1 5373   3.308   1.426  12.848 -0.1793  0.4075 -0.1099
  359MPD2    C2 5374   3.202   1.345  12.826  0.3219 -0.5974  0.8088
  359MPD2    C3 5375   3.168   1.236  12.901  0.6400 -0.1518  0.3645
  359MPD2    C4 5376   3.246   1.206  13.016 -0.1215 -0.0399 -0.3457
  359MPD2    C5 5377   3.356   1.291  13.036  0.4774 -0.0571  0.7600
  359MPD2     H 5378   3.139   1.357  12.739  2.1124  0.1344 -0.3807
  359MPD2    H1 5379   3.224   1.129  13.090 -0.8628 -0.0497 -0.5853
  359MPD2    H2 5380   3.487   1.444  12.963  1.2389 -1.8124 -0.4100
  359MPD2    H3 5381   3.433   1.262  13.107 -0.1913 -1.8578  0.7644
  359MPD2     N 5382   3.057   1.153  12.878 -0.3674 -0.3302 -0.3927
  359MPD2    H5 5383   3.040   1.076  12.941  0.2666 -0.7946 -0.7893
  359MPD2    N1 5384   3.331   1.518  12.746 -0.5171 -0.4318  0.1300
  359MPD2    H7 5385   3.267   1.527  12.668 -0.3679  0.9686  0.1694
  360TMC3    C1 5386   3.463   1.671  12.606  0.0690  0.7688  0.2121
  360TMC3    C2 5387   3.543   1.783  12.615 -0.3550 -0.1392 -0.2042
  360TMC3    C3 5388   3.586   1.830  12.492  0.2250  0.0332 -0.2335
  360TMC3    C4 5389   3.403   1.617  12.494 -0.7396  0.5533  0.4528
  360TMC3    C5 5390   3.448   1.679  12.381  0.3868  0.0580 -0.2322
  360TMC3    C6 5391   3.538   1.775  12.373  0.0433 -0.5329  0.3035
  360TMC3     C 5392   3.442   1.605  12.735  0.3693  0.0896 -0.0030
  360TMC3     O 5393   3.529   1.630  12.816 -0.4514 -0.0768  0.1082
  360TMC3     H 5394   3.603   1.813  12.700 -1.6136  1.7890  0.0183
  360TMC3    H1 5395   3.337   1.530  12.492 -1.0141  0.7079  3.3834
  360TMC3    H2 5396   3.571   1.815  12.279 -1.8043  1.3373  0.4516
  360TMC3    C7 5397   3.367   1.662  12.257  1.0536  0.0215  0.0462
  360TMC3    C8 5398   3.706   1.910  12.481  0.2455  0.2072  0.2862
  360TMC3    O1 5399   3.356   1.763  12.185  0.5055 -0.2296 -0.4143
  360TMC3    O2 5400   3.741   1.978  12.575 -0.2727 -0.1322 -0.2840
  361MPD2     C 5401   4.559   0.222  16.853 -0.2229 -1.0889  0.4851
  361MPD2    C1 5402   4.610   0.338  16.902 -0.8008 -0.0666 -0.2905
  361MPD2    C2 5403   0.015   0.382  16.860  0.6025  0.4115 -0.2206
  361MPD2    C3 5404   0.091   0.299  16.770 -0.4843 -0.1315  0.1411
  361MPD2    C4 5405   0.030   0.195  16.714 -0.0624  0.0648 -0.1218
  361MPD2    C5 5406   4.626   0.149  16.756 -0.0397  0.3966 -0.3231
  361MPD2     H 5407   0.055   0.462  16.920 -1.1920  2.2760 -1.5288
  361MPD2    H1 5408   0.073   0.130  16.638 -2.3261 -0.1037 -1.2540
  361MPD2    H2 5409   4.467   0.176  16.887  0.3639 -1.9583  0.8882
  361MPD2    H3 5410   4.590   0.056  16.713 -1.9432 -0.4496  3.0497
  361MPD2     N 5411   0.225   0.332  16.729 -0.3904 -0.1659  0.1429
  361MPD2    H5 5412   0.273   0.259  16.678  0.8773  1.4861 -1.0169
  361MPD2    N1 5413   4.541   0.406  17.003  0.3144 -0.0781  0.2412
  361MPD2    H7 5414   4.581   0.481  17.060 -0.5079  1.8102 -1.6666
  362TMC3    C1 5415   4.337   0.505  17.096  0.1479  0.5833 -0.3654
  362TMC3    C2 5416   4.405   0.570  17.193 -0.3260  0.0537 -0.5900
  362TMC3    C3 5417   4.337   0.670  17.263 -0.5916 -0.0213  0.1881
  362TMC3    C4 5418   4.206   0.543  17.057  0.2235 -0.6742  0.5740
  362TMC3    C5 5419   4.147   0.650  17.116 -0.0303 -0.1748  0.4795
  362TMC3    C6 5420   4.208   0.711  17.220 -0.1695  0.7782 -0.7050
  362TMC3     C 5421   4.402   0.409  17.003 -0.7767  0.1193  0.1850
  362TMC3     O 5422   4.322   0.346  16.933 -0.3743  0.2694 -0.0577
  362TMC3     H 5423   4.504   0.541  17.223  0.2556  0.0040 -2.5522
  362TMC3    H1 5424   4.158   0.503  16.969 -0.4000 -0.2054  0.7056
  362TMC3    H2 5425   4.164   0.801  17.261 -0.3870  0.4051 -0.1202
  362TMC3    C7 5426   4.031   0.713  17.061 -0.2785  0.4126 -0.7171
  362TMC3    C8 5427   4.407   0.744  17.367  0.0337  0.2590  0.3881
  362TMC3    O1 5428   4.010   0.820  17.110 -0.0592  0.4531  0.1006
  362TMC3    O2 5429   4.528   0.734  17.368  0.3632 -0.2963  0.2556
  363TMC3    C1 5430   3.838   3.695   9.455  0.2960 -0.2743  0.3820
  363TMC3    C2 5431   3.931   3.605   9.502  0.9129 -0.1081  0.0869
  363TMC3    C3 5432   3.890   3.476   9.515 -0.5963 -0.1446  0.7021
  363TMC3    C4 5433   3.709   3.665   9.426  0.2380  0.4041  0.3209
  363TMC3    C5 5434   3.677   3.538   9.450  0.2490  0.0497 -0.4074
  363TMC3    C6 5435   3.758   3.439   9.500  0.3699 -0.2818 -1.0244
  363TMC3     C 5436   3.868   3.835   9.485 -0.4689  0.1316  0.3596
  363TMC3     O 5437   3.985   3.862   9.487  0.1986  0.4491 -0.5671
  363TMC3     H 5438   4.034   3.625   9.529  1.0293 -1.7050  0.7705
  363TMC3    H1 5439   3.643   3.737   9.380 -1.6461 -1.1027  0.6646
  363TMC3    H2 5440   3.734   3.337   9.526  0.4627 -0.2777 -0.9205
  363TMC3    C7 5441   3.545   3.493   9.408 -0.8150 -0.0493 -0.3833
  363TMC3    C8 5442   3.981   3.400   9.604  0.2136  0.1041 -0.1718
  363TMC3    O1 5443   3.502   3.399   9.475  0.3125  0.3041 -0.2012
  363TMC3    O2 5444   4.060   3.447   9.683  0.1829  0.2930  0.3140
  364MPD2     C 5445   1.701   2.111  10.818  0.5363  0.7320 -0.0755
  364MPD2    C1 5446   1.805   2.088  10.730 -0.1527  0.1827  0.2707
  364MPD2    C2 5447   1.907   2.003  10.775 -1.0244 -0.6326 -0.2784
  364MPD2    C3 5448   1.901   1.939  10.902  0.2986 -0.1654  0.6760
  364MPD2    C4 5449   1.802   1.974  10.985  0.5392 -0.3482  0.2118
  364MPD2    C5 5450   1.700   2.054  10.948 -0.0365 -0.0745  0.7646
  364MPD2     H 5451   1.997   2.003  10.716 -0.5765 -3.1583  0.3930
  364MPD2    H1 5452   1.803   1.943  11.089 -0.0779 -0.0462  0.3095
  364MPD2    H2 5453   1.609   2.157  10.785 -0.2376 -0.0498  1.0283
  364MPD2    H3 5454   1.628   2.085  11.022 -0.6828  1.6582 -0.5739
  364MPD2     N 5455   2.004   1.855  10.949 -0.0433  0.0454 -0.1309
  364MPD2    H5 5456   1.990   1.815  11.041 -1.0776  1.5280  0.3597
  364MPD2    N1 5457   1.806   2.157  10.596  0.4620  0.2926 -0.7415
  364MPD2    H7 5458   1.745   2.238  10.586 -0.9908 -0.6648  0.3835
  365TMC3    C1 5459   1.901   2.226  10.386 -0.1565  0.3378 -0.0176
  365TMC3    C2 5460   2.012   2.227  10.303  0.0245  0.1665 -0.0294
  365TMC3    C3 5461   2.029   2.334  10.218  0.5111  0.4336  0.3083
  365TMC3    C4 5462   1.810   2.329  10.383  0.2515  0.8692 -0.0115
  365TMC3    C5 5463   1.827   2.417  10.280  0.0907 -0.0133 -0.2154
  365TMC3    C6 5464   1.941   2.423  10.202 -0.4354  0.4815 -0.0518
  365TMC3     C 5465   1.895   2.130  10.496  0.7985 -0.5610 -0.3088
  365TMC3     O 5466   1.967   2.032  10.485  0.2629  0.2082  0.3606
  365TMC3     H 5467   2.083   2.146  10.293  2.2521  1.8682  1.8695
  365TMC3    H1 5468   1.716   2.335  10.436 -1.2760 -2.0586 -2.3832
  365TMC3    H2 5469   1.963   2.499  10.128  0.1410  0.4344  0.0699
  365TMC3    C7 5470   1.741   2.537  10.261  0.3455  0.1167 -0.0148
  365TMC3    C8 5471   2.162   2.353  10.158  0.8054 -0.1103  1.0489
  365TMC3    O1 5472   1.712   2.577  10.148  0.6805  0.6129 -0.0340
  365TMC3    O2 5473   2.156   2.403  10.044  0.0860 -0.2930  0.4954
  366MPD2     C 5474   0.518   3.470  15.488 -0.2946  0.2474 -0.5843
  366MPD2    C1 5475   0.546   3.528  15.367 -0.6350  0.1563  0.7775
  366MPD2    C2 5476   0.654   3.494  15.293 -0.5073  0.3054 -0.0343
  366MPD2    C3 5477   0.755   3.418  15.355  0.2249 -0.3414  0.1083
  366MPD2    C4 5478   0.730   3.362  15.480 -0.7442 -0.2444  0.6161
  366MPD2    C5 5479   0.610   3.387  15.548  0.2907 -0.1358 -0.4202
  366MPD2     H 5480   0.670   3.544  15.198 -0.9456 -2.0205 -1.3512
  366MPD2    H1 5481   0.801   3.292  15.523 -1.6350 -1.7631 -0.3896
  366MPD2    H2 5482   0.431   3.501  15.545 -0.1938  3.2088 -2.0452
  366MPD2    H3 5483   0.599   3.348  15.648  1.8404 -1.9141 -0.9377
  366MPD2     N 5484   0.889   3.436  15.316  0.4518 -0.1836 -0.0725
  366MPD2    H5 5485   0.911   3.482  15.228 -2.0306 -4.1325 -2.7515
  366MPD2    N1 5486   0.465   3.632  15.321 -0.1531 -0.4041 -0.3219
  366MPD2    H7 5487   0.503   3.688  15.246  1.1251  1.4855  1.7104
  367TMC3    C1 5488   0.359   3.841  15.349 -0.4148  0.2744 -0.2885
  367TMC3    C2 5489   0.486   3.902  15.324 -0.1961  0.5629  0.9610
  367TMC3    C3 5490   0.516   4.026  15.357 -0.6332 -0.4816 -0.2679
  367TMC3    C4 5491   0.257   3.914  15.397 -0.6145 -0.8658  0.3517
  367TMC3    C5 5492   0.285   4.048  15.406  0.7576 -0.6983 -0.3403
  367TMC3    C6 5493   0.414   4.105  15.401  0.2509 -0.4900 -0.5420
  367TMC3     C 5494   0.366   3.699  15.393 -0.2821 -0.2362 -0.4113
  367TMC3     O 5495   0.285   3.659  15.475 -0.1986  0.0555 -0.6628
  367TMC3     H 5496   0.568   3.837  15.295 -0.4387 -0.2114  2.0020
  367TMC3    H1 5497   0.160   3.873  15.422 -0.9115 -0.1196  0.3972
  367TMC3    H2 5498   0.435   4.202  15.445  0.7849 -1.1704  0.7119
  367TMC3    C7 5499   0.172   4.141  15.386 -0.4617 -0.6520  0.2459
  367TMC3    C8 5500   0.657   4.046  15.398  0.6071 -0.2572 -0.1859
  367TMC3    O1 5501   0.060   4.086  15.379  1.1098  0.0553  0.5647
  367TMC3    O2 5502   0.719   3.949  15.436  0.3931 -0.1818 -0.4007
  368MPD2     C 5503   1.145   0.853  13.007 -0.9126  0.1398 -0.0717
  368MPD2    C1 5504   1.172   0.937  12.903  0.0925  0.5013  0.7344
  368MPD2    C2 5505   1.298   0.953  12.854 -0.0748 -0.3996 -0.4765
  368MPD2    C3 5506   1.402   0.876  12.901  0.6953  0.2164  0.0596
  368MPD2    C4 5507   1.369   0.790  12.995  0.7208  0.2729  0.0125
  368MPD2    C5 5508   1.244   0.772  13.046  0.0928 -0.8950  0.0488
  368MPD2     H 5509   1.315   1.023  12.773 -0.4041  2.8794  2.3223
  368MPD2    H1 5510   1.444   0.721  13.031 -0.9173 -1.3495  0.3238
  368MPD2    H2 5511   1.043   0.839  13.040 -0.8417 -0.0584  0.0655
  368MPD2    H3 5512   1.225   0.700  13.124 -1.5897 -0.1330  0.3375
  368MPD2     N 5513   1.537   0.882  12.852 -0.2144  0.6824  0.1887
  368MPD2    H5 5514   1.599   0.808  12.882 -1.5575 -0.7150 -0.4741
  368MPD2    N1 5515   1.061   1.001  12.850 -1.1956 -0.1863  0.4230
  368MPD2    H7 5516   0.973   0.990  12.899 -0.3205  0.4384  2.1162
  369TMC3    C1 5517   0.918   1.139  12.712  0.0704  0.1587 -0.3743
  369TMC3    C2 5518   0.915   1.230  12.615 -0.2107  0.8425  0.2451
  369TMC3    C3 5519   0.804   1.232  12.524  0.5552 -0.1255 -0.5346
  369TMC3    C4 5520   0.810   1.054  12.737  0.4558 -0.2697 -0.7780
  369TMC3    C5 5521   0.705   1.054  12.645 -0.0987 -0.3738 -0.0084
  369TMC3    C6 5522   0.705   1.138  12.533  0.2430  0.0722 -0.5814
  369TMC3     C 5523   1.055   1.086  12.741  0.3722 -0.6770 -0.4337
  369TMC3     O 5524   1.140   1.124  12.661 -0.6527  0.1355 -0.3021
  369TMC3     H 5525   0.996   1.301  12.623  0.0860  0.6093 -0.6697
  369TMC3    H1 5526   0.824   0.960  12.790  2.3407  1.8643  2.5190
  369TMC3    H2 5527   0.624   1.136  12.460  3.4675  1.4831 -4.1672
  369TMC3    C7 5528   0.603   0.958  12.664 -0.8161  0.4414 -0.1335
  369TMC3    C8 5529   0.820   1.293  12.393  0.6273 -0.1372  0.2296
  369TMC3    O1 5530   0.623   0.878  12.754  0.1289 -0.0254  0.4451
  369TMC3    O2 5531   0.724   1.347  12.343 -0.3316  0.1113 -0.1250
  370TMC3    C1 5532   1.081   1.740  16.204  0.3789 -0.8234 -0.2876
  370TMC3    C2 5533   1.050   1.675  16.322 -0.3009  0.0863  0.8548
  370TMC3    C3 5534   1.016   1.541  16.312 -0.1500  0.5597  0.0988
  370TMC3    C4 5535   1.095   1.673  16.086 -0.2815 -0.6635  0.2112
  370TMC3    C5 5536   1.072   1.537  16.089  0.2489  0.3021 -0.5443
  370TMC3    C6 5537   1.022   1.470  16.196  0.0147 -0.0003 -0.3402
  370TMC3     C 5538   1.137   1.882  16.215  0.4942  0.1968  0.4906
  370TMC3     O 5539   1.159   1.913  16.331  0.3251  0.3780  0.3739
  370TMC3     H 5540   1.062   1.728  16.415  0.4625 -0.5518  1.1159
  370TMC3    H1 5541   1.130   1.721  15.995  0.7899  1.2636  1.6572
  370TMC3    H2 5542   0.978   1.371  16.186  0.8323 -0.1078 -2.7777
  370TMC3    C7 5543   1.105   1.464  15.968  0.4023 -0.3986 -0.3209
  370TMC3    C8 5544   0.978   1.463  16.434  0.2899 -0.2722  0.2320
  370TMC3    O1 5545   1.102   1.531  15.865 -0.1934  0.1751 -0.0730
  370TMC3    O2 5546   0.982   1.338  16.420 -0.1488 -0.0604 -0.2753
  371TMC3    C1 5547   2.475   4.604  15.539 -0.0347 -0.2473  0.1246
  371TMC3    C2 5548   2.400   4.638  15.648 -0.3959 -0.2379 -0.3517
  371TMC3    C3 5549   2.320   0.030  15.654 -0.1617 -0.2530  0.4955
  371TMC3    C4 5550   2.462   4.682  15.429 -0.7026 -0.1426  0.1919
  371TMC3    C5 5551   2.371   0.063  15.429  0.1220  0.3892  0.2666
  371TMC3    C6 5552   2.303   0.100  15.539 -0.5104  0.2656  0.1033
  371TMC3     C 5553   2.540   4.473  15.521 -0.7184  0.1173 -0.1612
  371TMC3     O 5554   2.589   4.443  15.411  0.1003  0.5020 -0.0642
  371TMC3     H 5555   2.417   4.588  15.743 -0.3773  0.8842  0.2285
  371TMC3    H1 5556   2.525   4.655  15.345 -2.8736  1.2033 -1.8833
  371TMC3    H2 5557   2.264   0.201  15.544  0.6793  0.7560 -0.4265
  371TMC3    C7 5558   2.370   0.144  15.305  0.0229 -0.0579 -0.2216
  371TMC3    C8 5559   2.319   0.104  15.778 -0.1858 -0.3743 -0.3873
  371TMC3    O1 5560   2.336   0.261  15.311  0.4226  0.6781  0.0293
  371TMC3    O2 5561   2.392   0.063  15.863  0.1559  0.6793 -0.4784
  372MPD2     C 5562   2.262   1.019  13.322 -0.4893 -0.2831  0.3558
  372MPD2    C1 5563   2.328   0.918  13.385  0.4851 -0.0988  0.0065
  372MPD2    C2 5564   2.264   0.816  13.439 -0.0718 -0.2886 -0.1054
  372MPD2    C3 5565   2.129   0.797  13.418 -0.6835  0.4080  0.6376
  372MPD2    C4 5566   2.055   0.892  13.350 -0.5053 -0.1078  0.5765
  372MPD2    C5 5567   2.126   0.998  13.297  0.5137  0.1788  0.2614
  372MPD2     H 5568   2.319   0.741  13.495  1.1826  1.3304  0.8256
  372MPD2    H1 5569   1.955   0.883  13.310  1.1966 -1.0196 -3.4203
  372MPD2    H2 5570   2.314   1.097  13.268  3.1306 -1.6120  1.9040
  372MPD2    H3 5571   2.069   1.055  13.224  0.7342  0.2838  0.1718
  372MPD2     N 5572   2.065   0.684  13.473 -0.3365  0.1374  0.0151
  372MPD2    H5 5573   2.131   0.611  13.498 -0.9831 -0.4182  0.1125
  372MPD2    N1 5574   2.462   0.920  13.405 -0.4736 -0.0455  0.4253
  372MPD2    H7 5575   2.494   0.849  13.472 -1.9578 -1.9659 -0.8998
  373TMC3    C1 5576   1.892   0.549  13.545 -0.2725  0.0627  0.6276
  373TMC3    C2 5577   1.762   0.522  13.587 -0.1266 -0.3231  0.2069
  373TMC3    C3 5578   1.711   0.395  13.580  0.1487 -0.1042 -0.4360
  373TMC3    C4 5579   1.971   0.438  13.532 -0.0720 -0.0621  0.0662
  373TMC3    C5 5580   1.918   0.312  13.538 -0.0138 -0.0740 -0.3210
  373TMC3    C6 5581   1.788   0.288  13.552 -0.1145  0.0106  0.1681
  373TMC3     C 5582   1.929   0.676  13.499  0.0768  0.5019 -0.4919
  373TMC3     O 5583   1.843   0.759  13.481 -0.4842 -0.0875  0.0143
  373TMC3     H 5584   1.687   0.600  13.585 -0.4387 -0.6926 -2.2022
  373TMC3    H1 5585   2.076   0.453  13.508 -0.0028 -0.1426  0.3181
  373TMC3    H2 5586   1.745   0.190  13.535 -1.7716  1.0501 -1.5524
  373TMC3    C7 5587   2.000   0.197  13.546 -0.3105 -0.3840  0.9180
  373TMC3    C8 5588   1.568   0.384  13.624  0.1790 -0.5943  0.4007
  373TMC3    O1 5589   1.945   0.087  13.534 -0.8513 -0.0784 -0.2333
  373TMC3    O2 5590   1.496   0.467  13.567  0.9287  0.3781 -1.1158
  374TMC3    C1 5591   2.844   0.940   9.552  0.0754  0.1782  0.0730
  374TMC3    C2 5592   2.846   1.052   9.638 -0.2503 -0.3033  0.0970
  374TMC3    C3 5593   2.906   1.158   9.588  0.5859 -0.5233 -0.3262
  374TMC3    C4 5594   2.883   0.936   9.421  0.1428  0.1576  1.0139
  374TMC3    C5 5595   2.929   1.056   9.371 -0.4849 -0.2211  0.0314
  374TMC3    C6 5596   2.937   1.170   9.445 -0.5912 -0.6989 -0.4449
  374TMC3     C 5597   2.769   0.822   9.584 -1.1672  0.8991 -0.7257
  374TMC3     O 5598   2.748   0.735   9.497  0.2576  0.0200  0.3157
  374TMC3     H 5599   2.791   1.044   9.732  0.3166  1.5214  0.5718
  374TMC3    H1 5600   2.877   0.851   9.355  0.5007 -0.0916  1.3082
  374TMC3    H2 5601   2.985   1.263   9.417 -2.9980  0.4586 -0.7030
  374TMC3    C7 5602   2.971   1.047   9.235  0.5727 -0.2431 -0.3383
  374TMC3    C8 5603   2.917   1.285   9.660 -0.2149 -0.4749 -0.7738
  374TMC3    O1 5604   2.942   0.949   9.165 -0.9336 -0.6939  0.1675
  374TMC3    O2 5605   2.910   1.389   9.602  0.2679  0.2512 -0.4767
  375MPD2     C 5606   2.377   1.254  17.044 -0.0453  0.0041 -0.0191
  375MPD2    C1 5607   2.326   1.328  16.942  0.1937  0.6703  0.2183
  375MPD2    C2 5608   2.356   1.288  16.811 -0.0204 -0.0633 -0.0604
  375MPD2    C3 5609   2.441   1.181  16.789  0.3439 -0.4738 -1.1766
  375MPD2    C4 5610   2.484   1.109  16.896 -0.1951 -0.1007  0.8498
  375MPD2    C5 5611   2.455   1.147  17.025 -0.3876  0.4011  0.8026
  375MPD2     H 5612   2.321   1.351  16.730 -3.0499 -0.1839  1.1525
  375MPD2    H1 5613   2.540   1.019  16.870 -0.2363 -0.0446  0.5667
  375MPD2    H2 5614   2.375   1.284  17.148 -0.0187 -0.3981  0.0971
  375MPD2    H3 5615   2.497   1.085  17.104 -0.9783 -1.8941 -0.6844
  375MPD2     N 5616   2.512   1.150  16.668 -0.3368 -0.6386 -0.5167
  375MPD2    H5 5617   2.598   1.101  16.688  0.4280  1.1559  0.5790
  375MPD2    N1 5618   2.239   1.434  16.965 -0.6399  0.0468  0.0451
  375MPD2    H7 5619   2.191   1.467  16.882  0.7925  0.3715 -0.6495
  376TMC3    C1 5620   2.584   1.198  16.432  1.2143  0.2863  0.0507
  376TMC3    C2 5621   2.712   1.169  16.469 -0.0199  0.1635  0.4658
  376TMC3    C3 5622   2.804   1.141  16.372 -0.1245 -0.5405 -0.2637
  376TMC3    C4 5623   2.541   1.215  16.300  0.4594 -0.0548  0.0096
  376TMC3    C5 5624   2.637   1.190  16.202  0.0134 -0.5177 -0.6570
  376TMC3    C6 5625   2.764   1.139  16.235  0.5333 -0.3704 -1.1299
  376TMC3     C 5626   2.479   1.204  16.539  0.2003 -0.4181  0.6126
  376TMC3     O 5627   2.388   1.266  16.493 -0.1524 -0.5829  0.0152
  376TMC3     H 5628   2.735   1.180  16.575 -0.4812  1.5804  0.4214
  376TMC3    H1 5629   2.439   1.243  16.273  0.6522  1.3544  0.7580
  376TMC3    H2 5630   2.834   1.099  16.162  2.1123 -0.1815  0.2968
  376TMC3    C7 5631   2.596   1.156  16.064  0.3036  0.4514  0.0735
  376TMC3    C8 5632   2.950   1.150  16.398  0.3929 -0.0255 -0.4941
  376TMC3    O1 5633   2.638   1.054  16.015 -0.3600  0.3781  0.0777
  376TMC3    O2 5634   3.018   1.147  16.297  0.8593 -0.0935 -0.4819
  377MPD2     C 5635   0.355   1.109  12.085  0.7180 -0.5611 -0.0340
  377MPD2    C1 5636   0.410   1.014  12.165  0.0046 -0.7339  0.1965
  377MPD2    C2 5637   0.325   0.939  12.255 -0.4937 -0.6693 -0.0333
  377MPD2    C3 5638   0.193   0.966  12.251 -0.2588  0.0479  0.3933
  377MPD2    C4 5639   0.139   1.066  12.170 -0.0812  1.2085  0.0298
  377MPD2    C5 5640   0.219   1.141  12.091 -0.3016 -0.2190 -0.4982
  377MPD2     H 5641   0.367   0.866  12.324 -0.1414 -0.0832  0.3753
  377MPD2    H1 5642   0.032   1.081  12.174 -0.1476  0.7230  0.0663
  377MPD2    H2 5643   0.424   1.156  12.017  0.6210  0.0185  0.2701
  377MPD2    H3 5644   0.177   1.211  12.019 -0.6168 -0.2797 -0.3713
  377MPD2     N 5645   0.099   0.895  12.326  0.3279 -0.8947 -0.2856
  377MPD2    H5 5646   0.002   0.925  12.320  0.5004 -0.1654  0.5033
  377MPD2    N1 5647   0.552   1.003  12.148 -0.2830  0.2273  0.4870
  377MPD2    H7 5648   0.602   1.064  12.083  2.4391 -0.6560  1.7671
  378TMC3    C1 5649   0.926   0.995  12.017  0.3277 -0.2186  0.0967
  378TMC3    C2 5650   0.795   0.953  12.047  0.8005  0.2564  0.2279
  378TMC3    C3 5651   0.770   0.922  12.175 -0.0249 -0.8001  0.3891
  378TMC3    C4 5652   1.027   1.009  12.106 -0.0238 -0.2839  0.0216
  378TMC3    C5 5653   0.988   0.975  12.239 -0.1283  0.6716  0.2219
  378TMC3    C6 5654   0.863   0.929  12.274  0.0899 -0.4601 -0.0606
  378TMC3     C 5655   0.936   1.054  11.888  0.6519 -0.6200 -0.5672
  378TMC3     O 5656   0.842   1.121  11.846  0.1868  0.4876 -0.4964
  378TMC3     H 5657   0.724   0.928  11.969  0.6080 -2.0264  1.1238
  378TMC3    H1 5658   1.122   1.059  12.088 -0.4275  0.4837 -0.0045
  378TMC3    H2 5659   0.843   0.903  12.377 -2.7522  2.6024  0.1356
  378TMC3    C7 5660   1.089   0.936  12.332  0.4985  0.0181  0.5068
  378TMC3    C8 5661   0.630   0.917  12.219  0.1941  0.2864 -0.0262
  378TMC3    O1 5662   1.040   0.875  12.426 -0.7213  0.3886 -0.1474
  378TMC3    O2 5663   0.606   0.857  12.324 -0.0460  0.4344  0.3802
  379MPD2     C 5664   1.448   4.136  16.252 -0.5791  0.5273  0.1883
  379MPD2    C1 5665   1.542   4.077  16.172  0.6563  0.3407 -0.6204
  379MPD2    C2 5666   1.637   3.992  16.226 -0.6553 -0.7163 -0.3122
  379MPD2    C3 5667   1.641   3.983  16.369 -0.5122  0.2918 -0.2611
  379MPD2    C4 5668   1.545   4.035  16.450 -0.1869  0.3704 -0.0354
  379MPD2    C5 5669   1.442   4.107  16.392 -0.6262 -0.1349  0.4000
  379MPD2     H 5670   1.713   3.949  16.161 -2.1382 -1.7798 -1.3502
  379MPD2    H1 5671   1.528   4.005  16.552 -1.3398  0.2391 -0.2663
  379MPD2    H2 5672   1.367   4.188  16.202  1.3561  0.7441 -2.7402
  379MPD2    H3 5673   1.357   4.137  16.451 -0.5432  0.7520  0.0751
  379MPD2     N 5674   1.722   3.894  16.435  0.9167 -0.1878  0.3416
  379MPD2    H5 5675   1.717   3.900  16.536 -2.2110  1.8336  0.0575
  379MPD2    N1 5676   1.525   4.100  16.032 -0.0638 -0.9939  0.0601
  379MPD2    H7 5677   1.446   4.160  16.010  0.8125 -0.6599 -2.1492
  380TMC3    C1 5678   1.549   4.083  15.797  0.3770  0.7716 -0.1845
  380TMC3    C2 5679   1.621   4.055  15.686 -0.4876 -0.3392  0.2514
  380TMC3    C3 5680   1.559   4.050  15.564  0.6235 -0.7110 -0.3786
  380TMC3    C4 5681   1.416   4.099  15.785  0.2482 -0.2166 -0.4926
  380TMC3    C5 5682   1.354   4.087  15.659  0.0473  0.5460 -0.2578
  380TMC3    C6 5683   1.423   4.063  15.542 -0.3871 -0.0938  0.6681
  380TMC3     C 5684   1.599   4.049  15.927 -0.1043 -0.9881 -0.1672
  380TMC3     O 5685   1.715   4.003  15.933  0.0744  0.1288 -0.3319
  380TMC3     H 5686   1.726   4.027  15.686  0.5049  3.3584  1.4855
  380TMC3    H1 5687   1.352   4.121  15.870  0.9960  0.4545 -0.1030
  380TMC3    H2 5688   1.388   4.093  15.444  1.1833 -0.9632 -0.1623
  380TMC3    C7 5689   1.250   4.190  15.649  0.5368 -0.2022 -0.1936
  380TMC3    C8 5690   1.635   4.077  15.450 -0.2661 -0.0352 -0.6190
  380TMC3    O1 5691   1.253   4.282  15.730 -0.5389  1.1247 -0.2659
  380TMC3    O2 5692   1.604   4.043  15.338  0.4819 -0.1932  0.0115
  381TMC3    C1 5693   1.053   0.757  16.337  0.1534  0.0098 -0.4321
  381TMC3    C2 5694   1.107   0.863  16.275 -0.2870 -0.1453 -0.0851
  381TMC3    C3 5695   1.131   0.975  16.349  0.5444 -0.5616  0.8993
  381TMC3    C4 5696   1.008   0.758  16.469  0.1921 -0.5064 -0.3242
  381TMC3    C5 5697   1.009   0.880  16.528 -0.8188  0.6180  0.6182
  381TMC3    C6 5698   1.065   0.989  16.476  0.5670 -0.1045 -0.3102
  381TMC3     C 5699   1.037   0.629  16.270 -0.5680 -0.4601  0.0611
  381TMC3     O 5700   0.974   0.540  16.328 -0.2374  0.2091  0.5382
  381TMC3     H 5701   1.144   0.874  16.174 -2.6237  2.1142 -0.7021
  381TMC3    H1 5702   0.945   0.682  16.513 -0.0379 -0.2209 -0.1572
  381TMC3    H2 5703   1.071   1.076  16.539  1.5922  1.2224 -2.2156
  381TMC3    C7 5704   0.998   0.884  16.665 -1.3317  0.5167 -0.4379
  381TMC3    C8 5705   1.243   1.057  16.316  0.4563 -0.1889 -0.2580
  381TMC3    O1 5706   1.028   0.784  16.728  0.6100  0.1136 -0.0388
  381TMC3    O2 5707   1.316   1.011  16.229 -0.3716 -0.0359  0.8429
  382MPD2     C 5708   0.331   2.958  17.315  0.4135  0.5219  0.5697
  382MPD2    C1 5709   0.352   2.967  17.452 -0.8356 -0.5799 -0.0671
  382MPD2    C2 5710   0.310   2.869  17.541 -0.1958  0.0317 -0.0344
  382MPD2    C3 5711   0.258   2.748  17.488  0.0467  0.0202 -0.2181
  382MPD2    C4 5712   0.248   2.738  17.350 -0.4092 -0.7393  0.6559
  382MPD2    C5 5713   0.279   2.841  17.264  0.0962 -0.1774 -0.0694
  382MPD2     H 5714   0.331   2.876  17.647 -0.7626 -0.7095  0.1307
  382MPD2    H1 5715   0.206   2.645  17.314  4.1889 -2.3485 -0.5271
  382MPD2    H2 5716   0.362   3.031  17.241  2.7598 -0.2233  0.7988
  382MPD2    H3 5717   0.262   2.819  17.159 -0.8943  3.1427 -0.6178
  382MPD2     N 5718   0.208   2.643  17.565  0.2844 -0.1920 -0.0779
  382MPD2    H5 5719   0.174   2.564  17.511 -0.0034  2.2076 -3.3582
  382MPD2    N1 5720   0.424   3.077  17.509  0.3422 -0.9633  0.6010
  382MPD2    H7 5721   0.434   3.081  17.610  0.6038 -1.5292  0.6007
  383TMC3    C1 5722   0.100   2.545   0.067 -0.3409  0.6868  0.1456
  383TMC3    C2 5723   4.712   2.499  17.677 -0.1253 -0.7937  0.2671
  383TMC3    C3 5724   4.624   2.425   0.066 -0.0378 -0.4058  0.0472
  383TMC3    C4 5725   0.112   2.521   0.202  0.2675 -0.1954 -0.1075
  383TMC3    C5 5726   0.017   2.441   0.267 -0.6214  0.0053 -0.4220
  383TMC3    C6 5727   4.629   2.397   0.200 -0.7535  0.7264 -1.1414
  383TMC3     C 5728   0.188   2.646   0.016  0.2640  0.2133  0.3851
  383TMC3     O 5729   0.249   2.715   0.096 -0.0604  0.2485  0.4538
  383TMC3     H 5730   4.690   2.529  17.575  0.2977 -0.5851  0.2337
  383TMC3    H1 5731   0.202   2.548   0.256 -0.1972 -1.7911  1.4584
  383TMC3    H2 5732   4.539   2.357   0.245 -0.1919 -0.2578 -0.9040
  383TMC3    C7 5733   0.021   2.430   0.415  0.9679  0.0455  0.2496
  383TMC3    C8 5734   4.504   2.393  17.676  0.1535  0.5221 -0.0265
  383TMC3    O1 5735   0.069   2.525   0.479 -0.5648 -0.1136 -0.4829
  383TMC3    O2 5736   4.459   2.476  17.600 -0.2491 -0.0053 -0.2683
  384MPD2     C 5737   2.254   3.872  11.900  0.2771  0.1400 -0.1743
  384MPD2    C1 5738   2.256   3.793  12.010 -0.3778  0.6046  0.0907
  384MPD2    C2 5739   2.261   3.654  11.995 -0.1633  0.0538 -0.2915
  384MPD2    C3 5740   2.245   3.598  11.864  0.3387  0.3998 -0.0914
  384MPD2    C4 5741   2.229   3.686  11.757  0.8688  0.8048  0.2692
  384MPD2    C5 5742   2.248   3.818  11.776 -0.5626  0.7755  0.7192
  384MPD2     H 5743   2.263   3.592  12.084 -2.0382 -1.4203 -1.2866
  384MPD2    H1 5744   2.224   3.653  11.654 -0.5092  0.3183  0.4895
  384MPD2    H2 5745   2.266   3.979  11.904 -1.5673  0.3849 -0.8919
  384MPD2    H3 5746   2.248   3.888  11.693  0.2568 -3.1069 -2.5222
  384MPD2     N 5747   2.222   3.458  11.859 -0.0086 -0.5637 -0.1451
  384MPD2    H5 5748   2.248   3.407  11.943 -0.4494  1.7401  1.4155
  384MPD2    N1 5749   2.249   3.846  12.141  0.6799  0.8541 -0.0936
  384MPD2    H7 5750   2.250   3.794  12.228  0.5112 -0.0049 -0.6073
  385TMC3    C1 5751   2.198   3.247  11.788 -0.4510  0.0679 -0.6092
  385TMC3    C2 5752   2.070   3.197  11.760 -0.6722 -0.3397 -0.3317
  385TMC3    C3 5753   2.018   3.119  11.862 -0.2854  0.4521 -0.5641
  385TMC3    C4 5754   2.270   3.224  11.901  0.3350 -0.3255  0.2734
  385TMC3    C5 5755   2.211   3.155  12.002  0.6876 -0.4781  0.0585
  385TMC3    C6 5756   2.089   3.095  11.978 -0.4968  0.3967  0.2536
  385TMC3     C 5757   2.200   3.384  11.747 -0.4160  0.3330 -0.0490
  385TMC3     O 5758   2.163   3.414  11.633  0.3917  0.5148  0.5482
  385TMC3     H 5759   2.007   3.241  11.684 -1.3168  0.5371  0.7177
  385TMC3    H1 5760   2.370   3.260  11.916  0.2291  0.4383 -0.8035
  385TMC3    H2 5761   2.039   3.055  12.066  1.1899 -1.4905  0.3734
  385TMC3    C7 5762   2.232   3.228  12.125  0.7044 -0.1751  0.2686
  385TMC3    C8 5763   1.875   3.096  11.870  0.1529  0.0998  0.4923
  385TMC3    O1 5764   2.283   3.336  12.106  0.4863 -0.2104 -0.1069
  385TMC3    O2 5765   1.836   3.050  11.974  0.2919 -0.0811  0.1163
  386TMC3    C1 5766   1.796   1.366  11.581 -0.1287  0.5506  0.6563
  386TMC3    C2 5767   1.858   1.302  11.474 -1.0532 -0.0506 -0.3034
  386TMC3    C3 5768   1.776   1.279  11.371  0.3639  0.4518  0.2244
  386TMC3    C4 5769   1.666   1.411  11.582 -0.7855 -0.4285 -0.5792
  386TMC3    C5 5770   1.589   1.378  11.472 -1.0276 -0.3543 -0.3283
  386TMC3    C6 5771   1.643   1.317  11.362 -0.5730 -0.3474  0.7291
  386TMC3     C 5772   1.852   1.365  11.713 -0.8757 -0.5977  0.0136
  386TMC3     O 5773   1.775   1.345  11.809  0.2925 -0.1308  0.2110
  386TMC3     H 5774   1.953   1.251  11.482 -0.8738  0.5567  1.3325
  386TMC3    H1 5775   1.637   1.480  11.660  0.1249 -0.3059 -0.3471
  386TMC3    H2 5776   1.584   1.309  11.271  0.3726  1.7555 -0.0858
  386TMC3    C7 5777   1.461   1.440  11.468 -0.3498  0.0811  0.2970
  386TMC3    C8 5778   1.831   1.265  11.232 -0.1687  0.1378 -0.0675
  386TMC3    O1 5779   1.403   1.446  11.576  0.0018  0.3542 -0.2986
  386TMC3    O2 5780   1.757   1.226  11.140  0.2987 -0.5573  0.5016
  387MPD2     C 5781   4.677   1.196   9.498  0.6095 -0.3864  0.2966
  387MPD2    C1 5782   0.026   1.175   9.614  0.3075 -0.3844 -0.3936
  387MPD2    C2 5783   4.702   1.092   9.712  0.3442  0.8489  0.0630
  387MPD2    C3 5784   4.580   1.027   9.686 -0.2454 -0.3744  0.8330
  387MPD2    C4 5785   4.504   1.051   9.567 -0.1930  0.4405 -0.1821
  387MPD2    C5 5786   4.564   1.129   9.467 -0.4105 -0.3921  0.2415
  387MPD2     H 5787   0.034   1.065   9.804 -0.6640  0.8126  0.6217
  387MPD2    H1 5788   4.409   1.008   9.537  0.8588 -2.5337  0.7670
  387MPD2    H2 5789   4.708   1.265   9.421  2.1576 -2.0170 -0.5335
  387MPD2    H3 5790   4.507   1.139   9.375  0.2598 -2.7539 -0.4218
  387MPD2     N 5791   4.536   0.939   9.780  0.1775  0.7700 -0.5600
  387MPD2    H5 5792   4.599   0.929   9.860 -1.1242  2.0194  0.6047
  387MPD2    N1 5793   0.131   1.258   9.651  0.3756  0.2725 -0.6376
  387MPD2    H7 5794   0.173   1.240   9.742 -0.3027  0.5738 -0.2654
  388TMC3    C1 5795   0.298   1.406   9.658  0.0093 -0.1360  0.4037
  388TMC3    C2 5796   0.298   1.543   9.681  0.9439 -0.0031  0.0876
  388TMC3    C3 5797   0.339   1.588   9.802  0.4750  0.9666 -0.6393
  388TMC3    C4 5798   0.342   1.322   9.755 -0.1846  0.1429 -0.0592
  388TMC3    C5 5799   0.383   1.374   9.870  0.0718  0.0338  0.1471
  388TMC3    C6 5800   0.401   1.508   9.891  0.4171 -0.3896  0.5304
  388TMC3     C 5801   0.190   1.364   9.581  0.4142  0.0992  0.1069
  388TMC3     O 5802   0.152   1.434   9.487  0.1050  0.1897 -0.2148
  388TMC3     H 5803   0.262   1.614   9.608  0.1308 -0.6703 -0.1608
  388TMC3    H1 5804   0.342   1.214   9.748 -0.5191  0.3527 -3.4239
  388TMC3    H2 5805   0.435   1.538   9.990  0.6219  0.2146  0.2753
  388TMC3    C7 5806   0.413   1.284   9.978  0.3033 -0.4861  0.6916
  388TMC3    C8 5807   0.324   1.732   9.844 -0.7860 -0.0632 -0.4713
  388TMC3    O1 5808   0.531   1.258   9.992  0.4545  0.2411 -0.2134
  388TMC3    O2 5809   0.327   1.750   9.964  0.1280 -0.6368 -0.0635
  389MPD2     C 5810   3.728   4.714  11.106 -0.0188 -0.0063 -0.0288
  389MPD2    C1 5811   3.648   4.664  11.005 -0.6715  0.1356  0.4514
  389MPD2    C2 5812   3.527   4.608  11.047 -0.2773  0.1323 -0.7018
  389MPD2    C3 5813   3.493   4.599  11.180  0.1347 -0.5362 -0.4097
  389MPD2    C4 5814   3.567   4.659  11.276  0.3608 -0.8351  0.1661
  389MPD2    C5 5815   3.689   4.715  11.235  0.3342  0.2820  0.4797
  389MPD2     H 5816   3.468   4.562  10.968  1.1844 -2.0744 -0.5226
  389MPD2    H1 5817   3.534   4.660  11.379 -0.4633 -1.9271 -0.0970
  389MPD2    H2 5818   3.826   0.038  11.087  0.9153 -2.6699 -1.3293
  389MPD2    H3 5819   3.759   0.034  11.307 -0.1283 -1.5576  1.9243
  389MPD2     N 5820   3.360   4.557  11.229 -0.7012  0.3564 -0.1494
  389MPD2    H5 5821   3.347   4.579  11.327  1.2435  0.3539  0.1141
  389MPD2    N1 5822   3.685   4.665  10.869 -0.0756  0.6681 -0.0648
  389MPD2    H7 5823   3.773   4.708  10.843  0.6987 -0.1232  1.3175
  390TMC3    C1 5824   3.129   4.481  11.204 -0.0393  1.1091 -0.9357
  390TMC3    C2 5825   3.048   4.394  11.124 -0.4349  0.1875  0.4008
  390TMC3    C3 5826   2.949   4.320  11.187 -0.4192 -0.3419 -0.0047
  390TMC3    C4 5827   3.097   4.509  11.330  0.0904 -0.1803  0.0287
  390TMC3    C5 5828   2.994   4.440  11.387 -0.9384 -0.5109 -1.1996
  390TMC3    C6 5829   2.924   4.343  11.322  0.6527 -0.7308 -0.4543
  390TMC3     C 5830   3.258   4.520  11.145 -0.4454 -0.9406 -0.1788
  390TMC3     O 5831   3.262   4.485  11.031  0.0445  0.2559 -0.5244
  390TMC3     H 5832   3.065   4.384  11.018 -2.6066 -2.2669  0.2657
  390TMC3    H1 5833   3.148   4.581  11.393  3.0594 -2.4859  0.2047
  390TMC3    H2 5834   2.851   4.285  11.378 -0.8493  2.0991  0.5149
  390TMC3    C7 5835   2.945   4.488  11.516 -0.9183 -0.4281  0.1298
  390TMC3    C8 5836   2.899   4.205  11.123  0.3267  0.4092  0.4208
  390TMC3    O1 5837   2.968   4.606  11.541 -0.3488 -0.0786 -1.0241
  390TMC3    O2 5838   2.849   4.116  11.190  0.6238 -0.2245  0.1635
  391MPD2     C 5839   3.252   0.915  11.194  0.0695 -0.0206 -0.4303
  391MPD2    C1 5840   3.346   1.017  11.178 -0.4901  1.1652  0.0799
  391MPD2    C2 5841   3.338   1.099  11.061 -0.5502 -0.4973  0.2256
  391MPD2    C3 5842   3.252   1.072  10.956 -0.0567  0.6440  0.0970
  391MPD2    C4 5843   3.162   0.970  10.977 -0.5424 -0.1538  0.0076
  391MPD2    C5 5844   3.168   0.890  11.097  0.7557 -0.3035 -0.7846
  391MPD2     H 5845   3.401   1.186  11.048  0.6004 -1.3694 -0.0547
  391MPD2    H1 5846   3.083   0.940  10.908 -1.4174 -0.8569  1.3073
  391MPD2    H2 5847   3.245   0.848  11.279  2.8186 -0.9468 -0.9659
  391MPD2    H3 5848   3.090   0.814  11.104 -1.8576  2.3553 -1.0375
  391MPD2     N 5849   3.250   1.151  10.839 -0.0953  0.3810 -0.1416
  391MPD2    H5 5850   3.330   1.213  10.827 -0.1630  0.0697 -2.1004
  391MPD2    N1 5851   3.447   1.025  11.274 -0.1491 -0.5577  0.5478
  391MPD2    H7 5852   3.445   0.958  11.350  2.2652  0.1552  1.2558
  392TMC3    C1 5853   3.189   1.237  10.635  0.4129  0.7179  0.0302
  392TMC3    C2 5854   3.123   1.225  10.517 -0.3024 -0.1176 -0.4025
  392TMC3    C3 5855   3.129   1.330  10.430 -0.8198 -0.2898 -0.5396
  392TMC3    C4 5856   3.252   1.355  10.668 -0.4564 -0.4434  0.2033
  392TMC3    C5 5857   3.239   1.468  10.587  0.4421  0.1995 -0.4042
  392TMC3    C6 5858   3.192   1.444  10.462  0.2469  0.6727 -0.0825
  392TMC3     C 5859   3.158   1.142  10.739  0.3269  0.0673 -0.1385
  392TMC3     O 5860   3.051   1.086  10.736 -0.2440  0.7071 -0.8300
  392TMC3     H 5861   3.082   1.133  10.478  1.2115 -0.4580 -1.1949
  392TMC3    H1 5862   3.318   1.362  10.754  2.2813 -2.4401 -1.7116
  392TMC3    H2 5863   3.200   1.521  10.386  1.2313  0.4603 -0.1922
  392TMC3    C7 5864   3.307   1.586  10.624 -0.6218  0.3046  0.0332
  392TMC3    C8 5865   3.046   1.314  10.313  0.1549  0.5011  0.1829
  392TMC3    O1 5866   3.369   1.594  10.729 -0.4558 -0.1706 -0.2674
  392TMC3    O2 5867   3.035   1.203  10.271 -0.4058  0.1614 -0.2275
  393TMC3    C1 5868   2.100   3.650   9.821 -0.1575  0.1854 -0.2278
  393TMC3    C2 5869   1.968   3.621   9.845 -0.4335  0.7970 -0.6156
  393TMC3    C3 5870   1.944   3.490   9.872 -0.1858  0.2472  0.2015
  393TMC3    C4 5871   2.201   3.550   9.821 -0.4658  0.2166 -0.2186
  393TMC3    C5 5872   2.159   3.419   9.843  0.4688  0.6902 -0.2400
  393TMC3    C6 5873   2.022   3.387   9.858  0.4112 -0.6799  0.0867
  393TMC3     C 5874   2.132   3.790   9.822  0.0525  0.2100  0.1241
  393TMC3     O 5875   2.041   3.865   9.784  0.0178  0.2821 -0.4673
  393TMC3     H 5876   1.896   3.701   9.854 -0.1559  0.8622  1.1209
  393TMC3    H1 5877   2.296   3.578   9.776  0.7091 -0.1985  2.0211
  393TMC3    H2 5878   1.987   3.285   9.868 -0.5216 -0.2961  0.6814
  393TMC3    C7 5879   2.251   3.317   9.851  0.2803 -0.1640 -0.2485
  393TMC3    C8 5880   1.820   3.459   9.935 -0.0336 -0.1235  0.5690
  393TMC3    O1 5881   2.205   3.203   9.860  0.7195  0.2551 -0.3155
  393TMC3    O2 5882   1.766   3.355   9.911 -0.3167 -0.3573 -0.3198
  394TMC3    C1 5883   3.673   4.637  10.630 -0.2116  0.2098 -0.6927
  394TMC3    C2 5884   3.576   4.609  10.534 -0.1342  0.6681  0.0200
  394TMC3    C3 5885   3.617   4.548  10.418 -0.4979 -0.7670  0.0845
  394TMC3    C4 5886   3.804   4.602  10.606  0.1185  0.0407  0.5282
  394TMC3    C5 5887   3.834   4.546  10.484 -0.3008  0.0197 -0.1053
  394TMC3    C6 5888   3.741   4.510  10.389 -0.0401 -0.6334 -0.8233
  394TMC3     C 5889   3.617   4.614  10.762  0.9544 -0.0276  0.8540
  394TMC3     O 5890   3.510   4.558  10.752 -0.6971 -0.5944 -0.2173
  394TMC3     H 5891   3.471   4.635  10.539 -0.1790  0.1321  1.9087
  394TMC3    H1 5892   3.881   4.623  10.680  0.3094 -1.3946  0.7338
  394TMC3    H2 5893   3.763   4.452  10.300 -1.2701 -1.8121 -0.3700
  394TMC3    C7 5894   3.976   4.546  10.444 -0.0095  0.0276  0.5014
  394TMC3    C8 5895   3.511   4.475  10.348 -0.0743 -0.3796  0.2474
  394TMC3    O1 5896   4.061   4.618  10.496  0.0251  0.0792 -0.5947
  394TMC3    O2 5897   3.421   4.551  10.302 -0.2122 -0.4582 -0.2530
  395TMC3    C1 5898   3.709   1.192  14.971  0.8431  0.1917 -0.6243
  395TMC3    C2 5899   3.625   1.199  14.864  0.2433  0.2796  0.6700
  395TMC3    C3 5900   3.652   1.290  14.765  0.1311  0.0860  0.5944
  395TMC3    C4 5901   3.815   1.264  14.981  0.0578 -0.3358 -0.2704
  395TMC3    C5 5902   3.844   1.351  14.877 -0.1372 -0.4778  0.3558
  395TMC3    C6 5903   3.769   1.366  14.774  0.2373  0.2738  0.6723
  395TMC3     C 5904   3.658   1.153  15.099 -1.1203  1.3620 -0.2308
  395TMC3     O 5905   3.536   1.146  15.110  0.0558  0.4215  0.4281
  395TMC3     H 5906   3.530   1.147  14.868  0.2874  0.0777 -0.8125
  395TMC3    H1 5907   3.865   1.276  15.076 -3.4825  0.4262  1.5033
  395TMC3    H2 5908   3.785   1.451  14.709 -1.3156  0.3431  0.3625
  395TMC3    C7 5909   3.944   1.451  14.906 -0.1174  0.0076  0.2871
  395TMC3    C8 5910   3.540   1.348  14.690 -0.0250 -0.3977 -0.2579
  395TMC3    O1 5911   3.961   1.481  15.025  0.4404 -0.2982  0.3244
  395TMC3    O2 5912   3.545   1.456  14.637 -0.3598  0.1813 -0.0853
  396MPD2     C 5913   3.071   2.601  17.468 -0.1382 -0.4018 -0.2894
  396MPD2    C1 5914   3.135   2.607  17.349 -0.5866 -0.5383 -0.3187
  396MPD2    C2 5915   3.112   2.727  17.271 -0.1824 -0.3993 -0.3680
  396MPD2    C3 5916   3.041   2.833  17.314 -0.7688  0.6203 -0.2761
  396MPD2    C4 5917   2.970   2.820  17.434 -0.0953  0.5218 -0.1752
  396MPD2    C5 5918   2.989   2.704  17.511  0.0916  0.7846 -0.0499
  396MPD2     H 5919   3.179   2.751  17.189  0.0468 -2.1471 -0.6976
  396MPD2    H1 5920   2.898   2.894  17.467 -0.7942 -0.1922 -0.1229
  396MPD2    H2 5921   3.067   2.513  17.531  0.1722 -0.0758  0.1815
  396MPD2    H3 5922   2.943   2.691  17.608 -2.1549  0.2067 -1.2091
  396MPD2     N 5923   3.033   2.958  17.237 -0.3386  0.7263 -0.4274
  396MPD2    H5 5924   3.079   2.955  17.147 -2.0823 -1.9760 -1.2143
  396MPD2    N1 5925   3.217   2.507  17.308  0.2590 -0.1290  0.3706
  396MPD2    H7 5926   3.236   2.435  17.377  0.1100 -0.2724  0.2625
  397TMC3    C1 5927   3.354   2.380  17.170  0.6003  0.0586  0.4525
  397TMC3    C2 5928   3.411   2.371  17.046 -0.5085 -0.2061  0.5465
  397TMC3    C3 5929   3.447   2.255  16.987 -0.4939 -0.5977 -0.5224
  397TMC3    C4 5930   3.307   2.268  17.230  0.5893  0.4780  0.3192
  397TMC3    C5 5931   3.337   2.151  17.172 -0.1447 -0.0698 -0.3184
  397TMC3    C6 5932   3.406   2.143  17.049 -0.4825 -0.3581  0.5063
  397TMC3     C 5933   3.259   2.490  17.180  0.2932  0.3164 -0.1529
  397TMC3     O 5934   3.231   2.559  17.084  0.1439  0.4182 -0.5506
  397TMC3     H 5935   3.435   2.468  17.005  2.4122 -0.5519  1.3794
  397TMC3    H1 5936   3.227   2.271  17.304  0.2120 -0.4069 -0.0586
  397TMC3    H2 5937   3.431   2.046  17.007 -3.2592 -0.6421 -0.4965
  397TMC3    C7 5938   3.287   2.016  17.217 -0.6621  0.6315 -0.2597
  397TMC3    C8 5939   3.456   2.260  16.846 -0.3984  0.3104 -0.0187
  397TMC3    O1 5940   3.285   1.927  17.139 -0.2251  0.5599 -0.6524
  397TMC3    O2 5941   3.486   2.366  16.795 -0.6745  0.3391 -0.6819
  398MPD2     C 5942   1.276   3.302  17.447 -0.5428  0.3724 -0.7238
  398MPD2    C1 5943   1.319   3.207  17.545 -0.3754 -0.1457 -0.2272
  398MPD2    C2 5944   1.380   3.239  17.659 -0.3815 -0.1049  0.7234
  398MPD2    C3 5945   1.413   3.373  17.673 -0.3272  0.1659 -0.1743
  398MPD2    C4 5946   1.383   3.471  17.577  0.1438 -0.6159  0.5742
  398MPD2    C5 5947   1.308   3.437  17.471 -0.1191  0.2886 -0.4472
  398MPD2     H 5948   1.424   3.161   0.037  0.0259 -0.7608 -0.4257
  398MPD2    H1 5949   1.408   3.576  17.577 -3.1529  0.1816  0.5216
  398MPD2    H2 5950   1.239   3.279  17.347 -0.5573  2.0761 -1.1107
  398MPD2    H3 5951   1.290   3.510  17.392 -0.9163 -0.8802 -1.3388
  398MPD2     N 5952   1.483   3.400   0.106  0.0389 -0.1151 -0.1918
  398MPD2    H5 5953   1.501   3.326   0.174  2.4420  0.7497  0.1211
  398MPD2    N1 5954   1.306   3.068  17.519  0.0549 -0.1576  0.4593
  398MPD2    H7 5955   1.365   3.011  17.579 -0.5599 -0.5487  0.6981
  399TMC3    C1 5956   1.221   2.874  17.422  0.3413  0.0297 -0.2327
  399TMC3    C2 5957   1.338   2.810  17.455  0.0888  0.1687 -0.0030
  399TMC3    C3 5958   1.323   2.678  17.473  0.4806  0.0952  0.2841
  399TMC3    C4 5959   1.098   2.823  17.429  0.4494 -0.6907 -0.0549
  399TMC3    C5 5960   1.091   2.689  17.460 -0.0286 -0.4440 -0.6842
  399TMC3    C6 5961   1.202   2.615  17.490 -0.1224  0.5743  0.3661
  399TMC3     C 5962   1.221   3.020  17.423 -0.1857  0.1468  0.2502
  399TMC3     O 5963   1.143   3.079  17.348 -0.0388  0.1594 -0.1165
  399TMC3     H 5964   1.432   2.863  17.445  1.1948 -1.7141  0.4750
  399TMC3    H1 5965   1.017   2.889  17.402  2.5979  0.3163 -3.9724
  399TMC3    H2 5966   1.195   2.509  17.515 -0.0064  0.0751 -1.7828
  399TMC3    C7 5967   0.968   2.613  17.454  0.4361 -1.3249  0.3227
  399TMC3    C8 5968   1.451   2.607  17.459  0.0152  0.3195 -0.6726
  399TMC3    O1 5969   0.962   2.515  17.530 -0.4847  0.3911  0.4406
  399TMC3    O2 5970   1.546   2.681  17.488 -0.4327 -0.1543  0.2271
  400TMC3    C1 5971   4.677   1.785  17.227 -0.8141  0.4511 -0.2412
  400TMC3    C2 5972   4.543   1.799  17.234  0.5120  0.1155  0.2610
  400TMC3    C3 5973   4.493   1.914  17.180  0.1806 -0.0161  0.4056
  400TMC3    C4 5974   0.037   1.883  17.176 -0.4560  0.0622  0.1809
  400TMC3    C5 5975   4.705   2.001  17.124  0.0765  0.4810  0.0946
  400TMC3    C6 5976   4.573   2.017  17.126  0.2775 -0.0968 -0.1202
  400TMC3     C 5977   0.001   1.644  17.229  0.7373 -0.4626  0.7000
  400TMC3     O 5978   4.656   1.570  17.300  0.2753 -0.1330 -0.1431
  400TMC3     H 5979   4.483   1.721  17.280 -1.5855  1.7448  0.3207
  400TMC3    H1 5980   0.145   1.883  17.181 -0.4622  5.1007  1.1362
  400TMC3    H2 5981   4.517   2.096  17.077  0.0524  0.3659  0.8717
  400TMC3    C7 5982   0.065   2.115  17.080  0.7744  0.0102  1.1295
  400TMC3    C8 5983   4.356   1.920  17.156 -0.7364  0.6420 -0.1492
  400TMC3    O1 5984   0.181   2.094  17.043 -0.5781 -0.2376 -0.5565
  400TMC3    O2 5985   4.297   2.016  17.204 -0.0328 -0.3136 -0.6809
  401MPD2     C 5986   3.264   1.171   0.950 -0.5502  0.8810 -0.4235
  401MPD2    C1 5987   3.325   1.127   1.064 -0.3834  0.0849  0.2160
  401MPD2    C2 5988   3.335   0.994   1.102 -0.1648  1.0332 -0.1801
  401MPD2    C3 5989   3.303   0.900   1.001  0.1203 -0.1909  0.6390
  401MPD2    C4 5990   3.242   0.946   0.885 -0.7066  0.2097  0.0933
  401MPD2    C5 5991   3.226   1.081   0.854 -0.4734 -0.0137 -0.0332
  401MPD2     H 5992   3.376   0.960   1.196 -0.0248 -1.5599 -1.1629
  401MPD2    H1 5993   3.197   0.884   0.807 -0.4940  0.7816 -0.4832
  401MPD2    H2 5994   3.261   1.274   0.917 -0.4194  1.3889  1.1693
  401MPD2    H3 5995   3.186   1.114   0.759 -3.2916  1.9456  1.8241
  401MPD2     N 5996   3.340   0.769   1.020  0.2858  0.5977  0.0751
  401MPD2    H5 5997   3.382   0.736   1.107 -0.4484 -2.0037 -0.5516
  401MPD2    N1 5998   3.368   1.213   1.166  0.0679 -0.3967  0.1016
  401MPD2    H7 5999   3.388   1.171   1.256  2.5382 -2.3004 -1.3256
  402TMC3    C1 6000   3.406   0.548   0.956  0.2717 -0.3298 -0.4116
  402TMC3    C2 6001   3.345   0.484   1.059  0.2006 -0.0904 -0.2711
  402TMC3    C3 6002   3.340   0.349   1.051  0.0470  0.8593 -0.4090
  402TMC3    C4 6003   3.462   0.479   0.853  0.0184 -0.6189 -0.5211
  402TMC3    C5 6004   3.457   0.340   0.848  0.3888 -0.4320 -0.3659
  402TMC3    C6 6005   3.393   0.273   0.947  0.6478 -0.8242  0.1395
  402TMC3     C 6006   3.356   0.680   0.920  0.0705  0.3633  0.3558
  402TMC3     O 6007   3.353   0.693   0.801 -0.2968 -0.1887 -0.5942
  402TMC3     H 6008   3.300   0.540   1.141 -0.5324 -1.3963  0.2041
  402TMC3    H1 6009   3.505   0.524   0.765  0.9050  1.3215  0.9121
  402TMC3    H2 6010   3.394   0.165   0.957  1.3836 -0.9596 -1.5523
  402TMC3    C7 6011   3.561   0.277   0.773  0.1772 -0.0979 -0.5643
  402TMC3    C8 6012   3.337   0.282   1.181 -0.3290 -0.4288 -0.0977
  402TMC3    O1 6013   3.607   0.338   0.679  0.1896 -0.7727 -0.3059
  402TMC3    O2 6014   3.420   0.189   1.191  0.2843  0.0351  0.1716
  403MPD2     C 6015   1.532   4.012  13.300  0.1197 -0.2832  0.3467
  403MPD2    C1 6016   1.596   3.903  13.353 -0.5304  0.0618 -0.1734
  403MPD2    C2 6017   1.716   3.923  13.417 -0.0848  0.0201 -0.6662
  403MPD2    C3 6018   1.769   4.052  13.429 -0.1949 -0.2996 -0.1442
  403MPD2    C4 6019   1.697   4.165  13.387 -0.2165 -0.4352 -0.2491
  403MPD2    C5 6020   1.576   4.143  13.322  0.8580 -0.1215  0.1735
  403MPD2     H 6021   1.781   3.841  13.447 -0.2655  0.4412  0.8944
  403MPD2    H1 6022   1.723   4.268  13.406  0.8467 -0.7837  0.1702
  403MPD2    H2 6023   1.450   3.993  13.232 -0.8225  2.2786  0.7850
  403MPD2    H3 6024   1.523   4.230  13.284 -1.4528 -2.0716 -1.0179
  403MPD2     N 6025   1.896   4.061  13.480 -0.4470 -0.0530 -0.1843
  403MPD2    H5 6026   1.932   3.976  13.523 -1.5339 -0.7723 -0.6799
  403MPD2    N1 6027   1.547   3.773  13.331  0.3306 -0.1843  0.4044
  403MPD2    H7 6028   1.473   3.753  13.264 -0.3791 -1.0217  1.4328
  404TMC3    C1 6029   1.491   3.553  13.361 -0.7285 -0.1597 -0.6865
  404TMC3    C2 6030   1.491   3.448  13.453 -0.3052  0.4953 -0.1103
  404TMC3    C3 6031   1.431   3.332  13.414  0.4384 -0.0905 -0.6629
  404TMC3    C4 6032   1.429   3.548  13.241 -0.0094 -0.0994 -0.5235
  404TMC3    C5 6033   1.382   3.427  13.200 -0.5830  0.6696  0.5793
  404TMC3    C6 6034   1.381   3.316  13.293  0.6008  0.3201  0.4433
  404TMC3     C 6035   1.586   3.658  13.390  0.3035 -0.4899 -0.5244
  404TMC3     O 6036   1.671   3.633  13.470  0.3263  0.2724 -0.0298
  404TMC3     H 6037   1.547   3.459  13.545  1.9747  0.8582 -1.5418
  404TMC3    H1 6038   1.440   3.618  13.160 -2.8324  0.9935  0.0285
  404TMC3    H2 6039   1.332   3.222  13.269  2.9508 -0.8124  0.1557
  404TMC3    C7 6040   1.279   3.432  13.102  0.8630 -0.0853 -0.6040
  404TMC3    C8 6041   1.442   3.218  13.505  0.1948 -0.3977 -0.3439
  404TMC3    O1 6042   1.174   3.374  13.133  0.2954  0.4259  0.0515
  404TMC3    O2 6043   1.461   3.106  13.458 -0.4777 -0.5516 -0.6508
  405MPD2     C 6044   1.820   4.175  14.601  0.4079  0.1827  0.1073
  405MPD2    C1 6045   1.704   4.109  14.599 -0.1954 -0.2672  0.3642
  405MPD2    C2 6046   1.624   4.131  14.484  0.1671 -0.1379  0.4910
  405MPD2    C3 6047   1.663   4.208  14.377  0.5452  0.1531  0.4374
  405MPD2    C4 6048   1.787   4.267  14.376  0.4404  0.3808 -0.8287
  405MPD2    C5 6049   1.860   4.249  14.494  0.5844  0.5402 -0.2139
  405MPD2     H 6050   1.529   4.078  14.484  0.4841 -0.7085  0.0935
  405MPD2    H1 6051   1.820   4.329  14.293  2.0791  0.0396 -0.4230
  405MPD2    H2 6052   1.888   4.166  14.684 -0.4220  0.0615  0.7722
  405MPD2    H3 6053   1.960   4.289  14.481  0.7914  0.2150  0.4068
  405MPD2     N 6054   1.586   4.201  14.266 -0.0851 -0.4294  0.0139
  405MPD2    H5 6055   1.489   4.170  14.264 -0.1814 -0.2726  3.3241
  405MPD2    N1 6056   1.681   4.017  14.704  0.7629  0.7146 -0.4577
  405MPD2    H7 6057   1.723   4.022  14.797 -1.8339 -1.5863  0.8327
  406TMC3    C1 6058   1.297   4.293  14.002  0.4126  0.4169 -0.6831
  406TMC3    C2 6059   1.252   4.167  13.989 -0.1795  0.1020  0.3050
  406TMC3    C3 6060   1.336   4.064  14.017  0.0791 -0.1739  0.4074
  406TMC3    C4 6061   1.429   4.325  14.027  0.9389  0.5537 -0.3506
  406TMC3    C5 6062   1.508   4.222  14.050  0.0402  0.5383 -0.2358
  406TMC3    C6 6063   1.467   4.092  14.056 -0.1033 -0.5073  0.1226
  406TMC3     C 6064   1.208   4.409  13.978  0.0580  0.1192  0.6249
  406TMC3     O 6065   1.258   4.522  13.959 -0.1486 -0.2449 -0.0316
  406TMC3     H 6066   1.149   4.138  13.972 -0.5681  1.2324  0.7375
  406TMC3    H1 6067   1.462   4.424  14.057 -2.0136  1.1845  0.7519
  406TMC3    H2 6068   1.540   4.024  14.099 -0.6959  0.4232  2.6425
  406TMC3    C7 6069   1.608   4.263  14.142  0.4240  0.8265 -0.1075
  406TMC3    C8 6070   1.272   3.941  14.045 -0.0507  0.1299 -0.0313
  406TMC3    O1 6071   1.701   4.327  14.096  0.2643 -0.1484 -0.0804
  406TMC3    O2 6072   1.162   3.918  13.988 -0.1381  0.0828  0.0979
  407MPD2     C 6073   3.967   1.054   9.430 -0.7959 -0.2078  0.7672
  407MPD2    C1 6074   4.078   1.006   9.499 -0.1776  0.4313 -0.1027
  407MPD2    C2 6075   4.129   1.088   9.605 -0.0856 -0.0154 -0.5803
  407MPD2    C3 6076   4.064   1.211   9.638 -0.6070 -0.0736  0.3033
  407MPD2    C4 6077   3.957   1.255   9.561  0.1068 -0.3402 -0.5921
  407MPD2    C5 6078   3.912   1.174   9.457  0.1519 -0.4335 -0.4027
  407MPD2     H 6079   4.225   1.048   9.636 -0.9100 -1.0890  0.5709
  407MPD2    H1 6080   3.906   1.348   9.584 -2.2626 -1.8890  0.3418
  407MPD2    H2 6081   3.935   0.996   9.345 -1.8662 -1.0191  1.7320
  407MPD2    H3 6082   3.845   1.215   9.383  0.1826  0.2161 -0.0746
  407MPD2     N 6083   4.104   1.284   9.748 -0.0802 -0.6886 -0.2297
  407MPD2    H5 6084   4.043   1.361   9.775 -1.4694 -0.5793 -3.6592
  407MPD2    N1 6085   4.147   0.883   9.472 -0.3849  0.0864  0.3069
  407MPD2    H7 6086   4.220   0.860   9.539 -1.7580  0.3449  1.9141
  408TMC3    C1 6087   4.192   0.656   9.390  0.8172 -0.7324 -0.6869
  408TMC3    C2 6088   4.318   0.655   9.444  0.6201 -0.2173 -0.6138
  408TMC3    C3 6089   4.373   0.534   9.477 -0.0828  0.3932 -0.0582
  408TMC3    C4 6090   4.131   0.536   9.355 -1.0295 -0.1682  0.5376
  408TMC3    C5 6091   4.184   0.420   9.405 -0.1516  0.2268 -0.2914
  408TMC3    C6 6092   4.303   0.415   9.469  0.2701  0.0041  0.3221
  408TMC3     C 6093   4.113   0.784   9.384 -0.8300 -0.6126 -0.8953
  408TMC3     O 6094   4.032   0.797   9.292 -0.5648 -0.2149 -0.2574
  408TMC3     H 6095   4.368   0.749   9.463  0.4317 -0.5090  1.3178
  408TMC3    H1 6096   4.036   0.539   9.303 -0.6417 -0.9345 -0.2205
  408TMC3    H2 6097   4.349   0.326   9.510  1.6915  0.7668  0.4068
  408TMC3    C7 6098   4.125   0.290   9.347 -0.5332  0.1988  0.6902
  408TMC3    C8 6099   4.504   0.539   9.543  0.0913 -0.1618  0.7129
  408TMC3    O1 6100   4.075   0.290   9.235 -0.2141  0.0530 -0.1214
  408TMC3    O2 6101   4.530   0.447   9.622 -0.1167  0.3188 -0.0672
  409MPD2     C 6102   3.627   1.488  17.437 -0.4560  0.0880  0.6803
  409MPD2    C1 6103   3.654   1.574  17.544 -0.7219 -0.1989 -0.3092
  409MPD2    C2 6104   3.654   1.715  17.521 -0.2250  0.9626 -0.3181
  409MPD2    C3 6105   3.640   1.766  17.394  0.1717  0.3244 -0.1872
  409MPD2    C4 6106   3.627   1.675  17.294 -0.5208  0.4198  0.1625
  409MPD2    C5 6107   3.613   1.538  17.313  0.2941 -0.5086  0.9149
  409MPD2     H 6108   3.672   1.781  17.605 -1.3953 -1.7323  2.0661
  409MPD2    H1 6109   3.627   1.711  17.191 -0.5363  2.7542  0.9873
  409MPD2    H2 6110   3.624   1.381  17.453 -0.4128 -0.3582 -2.2405
  409MPD2    H3 6111   3.604   1.466  17.231  4.2057  0.2951 -0.2431
  409MPD2     N 6112   3.647   1.904  17.360 -0.5160 -0.8222  0.8480
  409MPD2    H5 6113   3.653   1.922  17.260  0.2836  0.5108  1.1541
  409MPD2    N1 6114   3.703   1.529  17.675  0.0196 -0.3917  0.7058
  409MPD2    H7 6115   3.717   1.606   0.057  2.8084  1.1357 -1.6915
  410TMC3    C1 6116   3.682   2.123  17.370 -0.8643  0.1262 -0.1852
  410TMC3    C2 6117   3.819   2.127  17.365  0.4983 -1.0969  0.0001
  410TMC3    C3 6118   3.877   2.253  17.372  0.1757 -0.0075  0.0371
  410TMC3    C4 6119   3.604   2.238  17.387 -0.2854  0.3204 -0.3636
  410TMC3    C5 6120   3.663   2.360  17.381 -0.1164 -0.6226 -0.0846
  410TMC3    C6 6121   3.799   2.369  17.377  0.0225  0.4661 -0.1613
  410TMC3     C 6122   3.640   2.011  17.448  0.3918 -0.4768  0.9324
  410TMC3     O 6123   3.596   2.029  17.562  0.3950  0.1142 -0.2346
  410TMC3     H 6124   3.871   2.033  17.353 -0.8946 -2.1456  2.2296
  410TMC3    H1 6125   3.498   2.223  17.402 -0.1837  2.6231  2.7051
  410TMC3    H2 6126   3.846   2.465  17.396 -1.0772  0.8848  0.4354
  410TMC3    C7 6127   3.584   2.474  17.411  0.0082  0.0469 -0.4672
  410TMC3    C8 6128   4.020   2.261  17.407 -0.3550 -0.4938 -0.2093
  410TMC3    O1 6129   3.502   2.467  17.501 -0.0551 -0.3986  0.1347
  410TMC3    O2 6130   4.067   2.369  17.427  0.4258  0.0538  0.2478
  411MPD2     C 6131   4.183   2.921  15.016  0.9803  0.2837  0.3261
  411MPD2    C1 6132   4.073   2.873  14.953 -0.2556  0.1769 -0.0073
  411MPD2    C2 6133   4.089   2.756  14.890 -0.3155 -0.3025  0.1026
  411MPD2    C3 6134   4.206   2.678  14.885 -0.0510 -0.2250  0.0051
  411MPD2    C4 6135   4.309   2.723  14.960  0.1841 -0.0523  0.1988
  411MPD2    C5 6136   4.300   2.846  15.026 -0.5092 -0.0813  0.6710
  411MPD2     H 6137   4.004   2.715  14.835 -0.3354  1.0428 -0.8701
  411MPD2    H1 6138   4.407   2.676  14.961 -0.1049 -0.7239 -2.6008
  411MPD2    H2 6139   4.186   3.018  15.064 -2.9491 -0.0244  1.1622
  411MPD2    H3 6140   4.393   2.884  15.069  1.1800  0.1997 -3.2212
  411MPD2     N 6141   4.220   2.566  14.809  0.1045  0.3950  0.4434
  411MPD2    H5 6142   4.308   2.514  14.809 -0.7564 -1.0671  0.5816
  411MPD2    N1 6143   3.954   2.941  14.940  0.4358 -0.3311 -0.3505
  411MPD2    H7 6144   3.877   2.900  14.887 -1.0687  1.5089  0.3919
  412TMC3    C1 6145   4.170   2.387  14.679  0.1762 -0.1856 -0.1228
  412TMC3    C2 6146   4.083   2.278  14.677  0.2368 -0.4765 -0.3662
  412TMC3    C3 6147   4.138   2.154  14.635 -0.1070  0.3111  0.1406
  412TMC3    C4 6148   4.300   2.386  14.626 -1.2256 -0.8832  0.0980
  412TMC3    C5 6149   4.342   2.261  14.587 -0.8554 -0.0617 -0.0394
  412TMC3    C6 6150   4.272   2.147  14.596  0.0586  0.1910  0.4694
  412TMC3     C 6151   4.122   2.503  14.736 -0.9055 -0.2259  0.5248
  412TMC3     O 6152   4.002   2.517  14.722  0.2036 -0.4971  0.5277
  412TMC3     H 6153   3.984   2.268  14.722  1.0594  0.1314  1.5486
  412TMC3    H1 6154   4.358   2.477  14.617 -2.1625 -0.3423 -0.5659
  412TMC3    H2 6155   4.324   2.055  14.577 -2.3691 -0.8038 -1.2748
  412TMC3    C7 6156   4.438   2.267  14.480  0.4988 -0.0764  0.3652
  412TMC3    C8 6157   4.064   2.096  14.525 -0.1214  0.5139  0.7626
  412TMC3    O1 6158   4.526   2.346  14.490  0.0829 -0.0640 -0.9624
  412TMC3    O2 6159   4.117   2.025  14.435 -0.2325 -0.2524  0.1096
  413MPD2     C 6160   0.607   0.511  15.623 -0.1342 -0.1751 -0.2249
  413MPD2    C1 6161   0.553   0.462  15.507 -0.3479  0.3771 -0.5523
  413MPD2    C2 6162   0.627   0.435  15.400  0.4031  0.1226 -0.5512
  413MPD2    C3 6163   0.766   0.449  15.407 -0.7405 -0.3568 -0.5746
  413MPD2    C4 6164   0.820   0.496  15.524 -0.2007  0.6546 -0.2552
  413MPD2    C5 6165   0.743   0.524  15.628 -0.2113 -0.6874  0.3278
  413MPD2     H 6166   0.590   0.382  15.313 -1.7965 -0.7307  0.9274
  413MPD2    H1 6167   0.927   0.507  15.539 -0.0181  1.2026 -1.9258
  413MPD2    H2 6168   0.546   0.529  15.710 -0.9177  0.1560 -0.8438
  413MPD2    H3 6169   0.785   0.564  15.720 -2.1951  0.8333  0.5723
  413MPD2     N 6170   0.845   0.431  15.291  0.2908  0.2316 -0.3623
  413MPD2    H5 6171   0.797   0.410  15.203  0.4018 -1.8646  0.0582
  413MPD2    N1 6172   0.407   0.444  15.508 -0.1165 -0.3134 -0.0286
  413MPD2    H7 6173   0.362   0.477  15.592  0.1396  0.9651 -0.3816
  414TMC3    C1 6174   1.022   0.430  15.155 -0.5282 -1.2734  0.1618
  414TMC3    C2 6175   1.128   0.358  15.110  0.0222 -0.1667 -0.2325
  414TMC3    C3 6176   1.142   0.339  14.974 -0.1512 -0.8797 -0.0838
  414TMC3    C4 6177   0.948   0.496  15.062 -0.4714 -0.7306  0.0298
  414TMC3    C5 6178   0.969   0.474  14.927  0.4128 -1.0077  0.8451
  414TMC3    C6 6179   1.059   0.388  14.882  0.1582 -0.2912 -0.5244
  414TMC3     C 6180   0.979   0.429  15.295  0.5374 -0.9295  0.0758
  414TMC3     O 6181   1.061   0.391  15.374  0.2080  0.3553  0.0824
  414TMC3     H 6182   1.175   0.291  15.182  1.3282  2.0828  0.9822
  414TMC3    H1 6183   0.863   0.556  15.091 -1.6054 -2.3072 -0.0383
  414TMC3    H2 6184   1.069   0.368  14.776  1.4849 -0.1287 -0.4327
  414TMC3    C7 6185   0.863   0.517  14.836 -0.2145  0.3805  0.4427
  414TMC3    C8 6186   1.276   0.307  14.929  0.8929 -0.1459 -0.6241
  414TMC3    O1 6187   0.752   0.495  14.876  0.1076 -0.2880  0.4450
  414TMC3    O2 6188   1.299   0.258  14.819  0.0099  0.8240 -0.5676
  415TMC3    C1 6189   1.143   2.947   9.996  0.0549  0.3636  0.7945
  415TMC3    C2 6190   1.213   3.064   9.966 -0.6263 -0.8226  0.4042
  415TMC3    C3 6191   1.289   3.071   9.848  0.1135  0.3001  0.9220
  415TMC3    C4 6192   1.137   2.852   9.894  0.3386  0.6042 -0.2271
  415TMC3    C5 6193   1.218   2.867   9.782 -0.3850  0.0724  0.6367
  415TMC3    C6 6194   1.298   2.966   9.756 -0.2126  0.0550 -0.9096
  415TMC3     C 6195   1.142   2.888  10.126 -0.2920 -0.6330  0.2151
  415TMC3     O 6196   1.092   2.778  10.136 -0.1058  0.2281  0.6899
  415TMC3     H 6197   1.209   3.146  10.036  4.9849  1.0143 -1.4107
  415TMC3    H1 6198   1.079   2.761   9.904  1.0794  0.0996 -0.5186
  415TMC3    H2 6199   1.360   2.965   9.667  1.7074  1.1783  0.4070
  415TMC3    C7 6200   1.194   2.778   9.671 -0.9769 -0.0146  0.0358
  415TMC3    C8 6201   1.366   3.193   9.823 -0.2273  0.5651  0.0313
  415TMC3    O1 6202   1.217   2.813   9.556  0.1673  0.0598  0.2429
  415TMC3    O2 6203   1.345   3.294   9.888 -0.3862  0.4323  0.4249
  416MPD2     C 6204   3.143   2.601  11.931  0.4506 -0.7283  0.1528
  416MPD2    C1 6205   3.058   2.585  11.824 -0.0623  0.6036 -0.1550
  416MPD2    C2 6206   3.064   2.467  11.749  0.1614  0.6267 -0.3375
  416MPD2    C3 6207   3.141   2.363  11.777 -0.0388  1.0120  0.2553
  416MPD2    C4 6208   3.229   2.387  11.883  0.1783  0.4901 -0.2406
  416MPD2    C5 6209   3.230   2.501  11.959  0.2325 -0.4429 -0.4900
  416MPD2     H 6210   2.986   2.448  11.676 -1.7733  2.0941  1.3581
  416MPD2    H1 6211   3.296   2.311  11.924 -0.7260 -0.4799 -0.5663
  416MPD2    H2 6212   3.145   2.691  11.991  2.1000  0.5719 -1.8615
  416MPD2    H3 6213   3.301   2.522  12.038 -1.5876  1.1570  0.7126
  416MPD2     N 6214   3.123   2.227  11.742  0.0595  0.1951  0.0007
  416MPD2    H5 6215   3.182   2.160  11.791  2.3524  2.6018  0.5438
  416MPD2    N1 6216   2.967   2.685  11.794 -0.2191 -0.8081  0.2006
  416MPD2    H7 6217   2.961   2.770  11.850  0.1557 -0.1728 -0.7346
  417TMC3    C1 6218   2.792   2.793  11.691  0.4988 -1.0525  0.0349
  417TMC3    C2 6219   2.742   2.825  11.811 -0.0010  0.2949  0.7819
  417TMC3    C3 6220   2.656   2.923  11.821 -0.1954 -0.4214  0.8037
  417TMC3    C4 6221   2.743   2.841  11.572 -0.8264 -0.2884 -0.1672
  417TMC3    C5 6222   2.637   2.928  11.589  0.1378  0.2547  0.0437
  417TMC3    C6 6223   2.609   2.987  11.709 -0.2700 -0.7704 -0.3029
  417TMC3     C 6224   2.888   2.688  11.682 -0.4364 -1.1783 -0.3531
  417TMC3     O 6225   2.900   2.626  11.580  0.4360  0.7594 -0.3424
  417TMC3     H 6226   2.752   2.765  11.901  0.1067 -0.5141  0.2394
  417TMC3    H1 6227   2.771   2.800  11.475 -0.4378  0.1799 -0.2522
  417TMC3    H2 6228   2.527   3.057  11.713 -0.4230 -1.0599  1.5943
  417TMC3    C7 6229   2.583   2.982  11.468 -0.4674  0.1233  0.0952
  417TMC3    C8 6230   2.574   2.950  11.938  1.2482 -0.6361  0.3444
  417TMC3    O1 6231   2.545   3.098  11.458 -0.3772  0.1607  0.5294
  417TMC3    O2 6232   2.461   2.999  11.923  0.1514  0.2397  0.3999
  418TMC3    C1 6233   1.846   3.356   0.251 -0.2106 -0.7543 -0.3465
  418TMC3    C2 6234   1.776   3.465   0.204  0.8861  0.0347  0.5450
  418TMC3    C3 6235   1.644   3.482   0.233  0.5424 -0.2696 -0.2707
  418TMC3    C4 6236   1.788   3.268   0.343  0.1978  0.2484 -0.2279
  418TMC3    C5 6237   1.658   3.295   0.382  0.0375  0.5372  0.1755
  418TMC3    C6 6238   1.582   3.394   0.324  0.3843  0.4109  0.0597
  418TMC3     C 6239   1.969   3.313   0.183  0.1495  0.0695 -0.9063
  418TMC3     O 6240   2.053   3.400   0.157  0.5464  0.1425 -0.3019
  418TMC3     H 6241   1.824   3.520   0.124  0.4448 -1.5874 -0.8342
  418TMC3    H1 6242   1.833   3.178   0.381 -1.4970  0.4642  2.3642
  418TMC3    H2 6243   1.483   3.415   0.363 -0.1774 -0.7849 -0.7160
  418TMC3    C7 6244   1.576   3.184   0.426 -0.4019 -0.6462 -0.2244
  418TMC3    C8 6245   1.558   3.513   0.130 -0.1960 -0.2682 -0.1948
  418TMC3    O1 6246   1.463   3.177   0.387 -0.1776  0.2769 -0.3565
  418TMC3    O2 6247   1.594   3.607   0.056 -0.2449 -0.3131  0.2417
  419MPD2     C 6248   0.123   1.901  12.584  0.0780  0.1514 -0.4681
  419MPD2    C1 6249   0.099   2.036  12.594 -0.6536  0.1925 -0.0500
  419MPD2    C2 6250   0.097   2.090  12.724  0.0702  0.2053 -0.1168
  419MPD2    C3 6251   0.128   2.014  12.836  0.0165 -0.1057 -0.3422
  419MPD2    C4 6252   0.146   1.879  12.822  0.4826 -0.4152 -0.7118
  419MPD2    C5 6253   0.143   1.826  12.701 -0.6427 -0.9746  0.2239
  419MPD2     H 6254   0.072   2.195  12.730  1.0100  0.4828 -1.1505
  419MPD2    H1 6255   0.175   1.814  12.904 -2.0660  1.0973  1.3909
  419MPD2    H2 6256   0.123   1.848  12.489  1.7880 -0.0284 -0.3572
  419MPD2    H3 6257   0.162   1.720  12.688  0.3869 -0.9266  1.4291
  419MPD2     N 6258   0.138   2.077  12.961  0.1073 -0.2448 -0.5899
  419MPD2    H5 6259   0.115   2.175  12.947  1.2937  0.3393  1.5343
  419MPD2    N1 6260   0.078   2.111  12.474  0.0130 -0.0240  0.3454
  419MPD2    H7 6261   0.042   2.204  12.489  2.0652  0.9965 -0.9836
  420TMC3    C1 6262   0.184   2.146  13.168 -0.2355 -0.3486 -0.2204
  420TMC3    C2 6263   0.147   2.276  13.138  0.6196  1.0746  0.1855
  420TMC3    C3 6264   0.163   2.364  13.236 -0.8177 -0.7014 -0.3938
  420TMC3    C4 6265   0.266   2.115  13.273 -0.4018 -0.4181 -0.1115
  420TMC3    C5 6266   0.284   2.208  13.369 -0.4947  0.2459 -0.4883
  420TMC3    C6 6267   0.220   2.326  13.359 -0.1161 -0.0875 -1.1532
  420TMC3     C 6268   0.167   2.032  13.082  0.3009  0.1854  0.3513
  420TMC3     O 6269   0.190   1.916  13.114  0.0359 -0.1128 -0.2391
  420TMC3     H 6270   0.095   2.305  13.048 -0.5531  2.1386  1.2036
  420TMC3    H1 6271   0.287   2.011  13.294 -0.0001  0.2708  3.0148
  420TMC3    H2 6272   0.219   2.384  13.451  0.4622  0.9780 -1.8128
  420TMC3    C7 6273   0.348   2.162  13.489  0.3545  0.5766 -0.2907
  420TMC3    C8 6274   0.144   2.501  13.213 -0.1308  0.3327 -0.4980
  420TMC3    O1 6275   0.358   2.039  13.505  0.6524 -0.4812 -0.2946
  420TMC3    O2 6276   0.060   2.538  13.137  0.3322 -0.1601 -0.0360
  421TMC3    C1 6277   2.100   4.149  13.543 -0.9152  0.0774  0.3319
  421TMC3    C2 6278   2.162   4.252  13.612 -0.0939  0.4161  0.0039
  421TMC3    C3 6279   2.293   4.223  13.653  0.0077  0.3793  0.3678
  421TMC3    C4 6280   2.172   4.038  13.501 -0.1122  1.0139 -0.5963
  421TMC3    C5 6281   2.297   4.013  13.547  0.4889 -0.1961 -0.0733
  421TMC3    C6 6282   2.361   4.107  13.620  0.2059 -0.0824  0.3327
  421TMC3     C 6283   1.974   4.175  13.489  1.4258 -0.0074  0.3061
  421TMC3     O 6284   1.956   4.292  13.459  0.3869 -0.6133  0.4639
  421TMC3     H 6285   2.110   4.341  13.643  2.0261  0.7995  2.4244
  421TMC3    H1 6286   2.129   3.972  13.426 -0.7160  0.8554 -0.1132
  421TMC3    H2 6287   2.456   4.086  13.667  0.8962  2.2224 -0.0441
  421TMC3    C7 6288   2.361   3.880  13.541 -0.0432 -0.0442  0.3946
  421TMC3    C8 6289   2.353   4.316  13.750 -0.2997  1.1496 -0.4039
  421TMC3    O1 6290   2.467   3.870  13.603  0.4862 -0.8253 -0.5683
  421TMC3    O2 6291   2.280   4.389  13.816 -0.0262  0.8453  0.2736
  422TMC3    C1 6292   4.131   0.528  12.026  0.8627  0.3054 -0.1654
  422TMC3    C2 6293   4.127   0.659  12.078  0.3281 -0.3640  0.6467
  422TMC3    C3 6294   4.027   0.690  12.156 -0.8607  0.4071  0.4405
  422TMC3    C4 6295   4.038   0.428  12.049 -0.8266  0.2138  0.5866
  422TMC3    C5 6296   3.938   0.470  12.135  0.7071  0.9352 -0.2095
  422TMC3    C6 6297   3.930   0.598  12.188 -0.0031 -0.3791  0.2036
  422TMC3     C 6298   4.269   0.490  11.984 -0.1363 -0.0818 -0.4810
  422TMC3     O 6299   4.344   0.587  11.964  0.0765 -0.7140  0.1063
  422TMC3     H 6300   4.210   0.727  12.062 -0.7790 -0.2047 -4.4145
  422TMC3    H1 6301   4.040   0.325  12.017  0.4425  1.0209 -1.9531
  422TMC3    H2 6302   3.861   0.628  12.266 -1.4017 -1.5290 -0.5816
  422TMC3    C7 6303   3.842   0.368  12.163 -0.4293 -0.6842 -0.3495
  422TMC3    C8 6304   4.026   0.819  12.221  0.3546  0.7370 -0.4552
  422TMC3    O1 6305   3.849   0.262  12.104  0.7921 -0.1275 -0.2649
  422TMC3    O2 6306   4.132   0.873  12.245 -0.1002  0.0956 -0.4312
  423MPD2     C 6307   0.174   1.481   0.513  0.8832  0.3047 -0.5146
  423MPD2    C1 6308   0.215   1.351   0.514 -0.7204  0.3776 -0.0501
  423MPD2    C2 6309   0.303   1.305   0.417 -0.4022  0.4320 -0.2791
  423MPD2    C3 6310   0.341   1.387   0.310 -0.4796 -0.3253  0.2846
  423MPD2    C4 6311   0.294   1.520   0.310 -0.1569  0.8503  0.1299
  423MPD2    C5 6312   0.218   1.566   0.417  0.0556  0.4259 -0.2084
  423MPD2     H 6313   0.340   1.203   0.420  0.1536  0.6464  0.2997
  423MPD2    H1 6314   0.335   1.586   0.234 -0.3527 -0.7711 -1.3922
  423MPD2    H2 6315   0.111   1.525   0.590  0.9901 -1.3553  0.5194
  423MPD2    H3 6316   0.185   1.668   0.430 -0.8550  0.4307 -2.5586
  423MPD2     N 6317   0.419   1.338   0.206 -0.3253 -0.7403  0.1467
  423MPD2    H5 6318   0.458   1.413   0.149 -0.0753 -1.9326 -1.2453
  423MPD2    N1 6319   0.174   1.257   0.613 -0.0861 -0.3641  0.1498
  423MPD2    H7 6320   0.225   1.169   0.618  0.4072 -0.0574  0.5248
  424TMC3    C1 6321   0.038   1.153   0.784 -0.5534 -0.0667  0.2756
  424TMC3    C2 6322   0.139   1.127   0.874  0.3552  0.5554  1.1568
  424TMC3    C3 6323   0.108   1.071   0.994  0.2163  0.6541  0.2165
  424TMC3    C4 6324   4.627   1.135   0.815  0.4113  0.4884  1.4173
  424TMC3    C5 6325   4.604   1.082   0.939 -0.0330  0.1566 -0.3166
  424TMC3    C6 6326   4.698   1.043   1.029  0.3576 -0.4090 -0.3028
  424TMC3     C 6327   0.059   1.263   0.696 -0.2867 -0.2592  0.6649
  424TMC3     O 6328   4.694   1.353   0.702  0.1401  0.2722  0.2647
  424TMC3     H 6329   0.241   1.144   0.842 -0.0370  2.5004  0.8863
  424TMC3    H1 6330   4.545   1.148   0.746  0.7236  0.2190  0.9945
  424TMC3    H2 6331   4.687   0.996   1.126  3.6549  0.0470  0.3009
  424TMC3    C7 6332   4.463   1.061   0.966 -0.3369  0.5594  0.3017
  424TMC3    C8 6333   0.216   1.008   1.077  0.5924  0.2902  0.0144
  424TMC3    O1 6334   4.390   1.022   0.874 -0.1005 -0.2140  0.5724
  424TMC3    O2 6335   0.186   0.928   1.163 -0.4989  0.3663 -1.1185
  425MPD2     C 6336   4.620   0.548  17.674 -0.0997 -0.4912 -0.0164
  425MPD2    C1 6337   4.512   0.465   0.027  0.0593  0.0935 -0.3737
  425MPD2    C2 6338   4.399   0.519   0.082  0.5539 -0.4899 -0.2595
  425MPD2    C3 6339   4.391   0.656   0.105 -0.0502  0.5699 -0.4943
  425MPD2    C4 6340   4.504   0.740   0.093  0.0365 -0.6886  0.5327
  425MPD2    C5 6341   4.614   0.680   0.032  0.2317 -0.2869  0.1075
  425MPD2     H 6342   4.311   0.457   0.095 -1.0975  1.9639  0.4067
  425MPD2    H1 6343   4.517   0.843   0.124  0.4343 -0.5558 -0.0879
  425MPD2    H2 6344   4.706   0.522  17.613  0.1003  0.0740  0.0291
  425MPD2    H3 6345   4.691   0.750  17.682 -2.1032  2.0363 -0.4511
  425MPD2     N 6346   4.271   0.694   0.163 -0.0201 -1.0262 -0.1856
  425MPD2    H5 6347   4.195   0.627   0.171 -0.4103 -0.7914 -1.9771
  425MPD2    N1 6348   4.525   0.327  17.676 -0.1737 -0.8026  0.0584
  425MPD2    H7 6349   4.605   0.298  17.620  0.2369 -0.7780  0.6322
  426TMC3    C1 6350   4.466   0.103  17.662  0.6672 -0.4889 -0.5964
  426TMC3    C2 6351   4.577   0.095  17.583  0.0801  0.5912 -0.3508
  426TMC3    C3 6352   4.656   4.701  17.598 -0.5348  0.2473  0.3776
  426TMC3    C4 6353   4.427   0.003   0.067  0.3187  0.5798  0.8684
  426TMC3    C5 6354   4.510   4.623   0.082 -0.0906  0.6846  0.5514
  426TMC3    C6 6355   4.620   4.605  17.681 -0.0954 -0.4441  0.2707
  426TMC3     C 6356   4.428   0.235   0.019  0.2769  0.2767 -0.1734
  426TMC3     O 6357   4.317   0.244   0.071 -0.2766 -0.6707  0.1616
  426TMC3     H 6358   4.599   0.168  17.506 -3.5660  1.5913 -0.4425
  426TMC3    H1 6359   4.327   4.715   0.110  0.3088 -0.5183  0.6454
  426TMC3    H2 6360   4.677   4.512   0.000  0.7265  0.0462 -0.2067
  426TMC3    C7 6361   4.477   4.513   0.178  0.3957  0.5691  0.0586
  426TMC3    C8 6362   0.033   4.671  17.488  0.4618  0.5444  0.0795
  426TMC3    O1 6363   4.539   4.405   0.169  0.5904  0.2206 -0.2336
  426TMC3    O2 6364   0.071   4.555  17.493 -0.3923 -0.0503 -0.4738
  427MPD2     C 6365   2.904   2.473  15.114 -0.3354  0.0355 -0.2597
  427MPD2    C1 6366   2.893   2.494  15.247  0.7539 -0.1014  0.1141
  427MPD2    C2 6367   2.771   2.522  15.297  0.1623 -0.3183  0.3480
  427MPD2    C3 6368   2.666   2.551  15.210 -0.3196  0.4795  0.3655
  427MPD2    C4 6369   2.679   2.530  15.075 -0.2924 -0.6642 -0.1078
  427MPD2    C5 6370   2.799   2.486  15.030 -0.7206 -0.7397  0.8010
  427MPD2     H 6371   2.762   2.527  15.405  1.1233 -1.8555  0.5017
  427MPD2    H1 6372   2.608   2.559  14.999 -1.6241 -0.3369  1.2764
  427MPD2    H2 6373   3.000   2.455  15.067 -0.6806 -1.7770 -0.2697
  427MPD2    H3 6374   2.810   2.480  14.922  1.6989  1.9133  0.9053
  427MPD2     N 6375   2.536   2.597  15.254 -0.4393 -0.0366 -0.4718
  427MPD2    H5 6376   2.468   2.610  15.180 -0.1526  1.6960 -0.4148
  427MPD2    N1 6377   3.005   2.473  15.334  0.4314 -0.2246 -0.4301
  427MPD2    H7 6378   2.982   2.476  15.433  0.7163  1.4733 -0.4141
  428TMC3    C1 6379   3.229   2.415  15.397  0.7747  0.0261  0.4412
  428TMC3    C2 6380   3.223   2.289  15.446 -0.6358 -0.1439 -1.0287
  428TMC3    C3 6381   3.329   2.219  15.490 -0.1429  0.1891 -0.1728
  428TMC3    C4 6382   3.355   2.467  15.365 -0.8688  0.0527  0.2689
  428TMC3    C5 6383   3.463   2.393  15.414 -0.6365  0.5360  0.0410
  428TMC3    C6 6384   3.446   2.282  15.486 -0.2538  0.5232 -0.7317
  428TMC3     C 6385   3.132   2.443  15.295 -0.4370 -0.1556 -0.7409
  428TMC3     O 6386   3.180   2.453  15.187 -0.3824  0.1078  0.7125
  428TMC3     H 6387   3.128   2.237  15.459 -0.7125  0.3838  0.5042
  428TMC3    H1 6388   3.367   2.548  15.294 -0.7575  0.1483  0.3971
  428TMC3    H2 6389   3.531   2.235  15.535 -0.3908  0.9381 -0.0992
  428TMC3    C7 6390   3.587   2.461  15.448 -0.7633  0.1294  0.5452
  428TMC3    C8 6391   3.299   2.110  15.581 -0.6863  0.1593 -0.3488
  428TMC3    O1 6392   3.635   2.444  15.559 -0.1503 -0.3183 -0.6517
  428TMC3    O2 6393   3.241   2.010  15.541 -0.5835  0.8095  0.5483
  429MPD2     C 6394   4.528   2.716   0.384 -1.0420  0.5590  1.0502
  429MPD2    C1 6395   4.451   2.675   0.277 -0.7708 -0.5001 -0.1496
  429MPD2    C2 6396   4.471   2.732   0.148 -0.0617 -0.7240 -0.3448
  429MPD2    C3 6397   4.568   2.830   0.132 -0.7762 -0.1464 -0.0580
  429MPD2    C4 6398   4.654   2.860   0.235 -0.1206 -0.0753 -0.4213
  429MPD2    C5 6399   4.633   2.803   0.356 -0.7067 -0.0294 -0.6501
  429MPD2     H 6400   4.417   2.710   0.056  1.3828  0.7871 -1.5392
  429MPD2    H1 6401   0.023   2.921   0.222 -0.7987  0.9578 -0.2529
  429MPD2    H2 6402   4.526   2.679   0.486  0.8936 -1.5047  0.3522
  429MPD2    H3 6403   4.699   2.824   0.440 -0.5961  2.3607 -1.3532
  429MPD2     N 6404   4.581   2.888   0.005  0.2260 -0.0835  0.2850
  429MPD2    H5 6405   4.539   2.835  17.611 -1.0174 -0.4549  1.2289
  429MPD2    N1 6406   4.341   2.588   0.302 -0.4237 -0.4678 -0.1435
  429MPD2    H7 6407   4.263   2.579   0.237 -2.3396  0.8523  1.9604
  430TMC3    C1 6408   4.653   3.010  17.510  0.2429  0.5305 -0.5318
  430TMC3    C2 6409   4.570   3.101  17.450  0.4097 -0.2432  0.5092
  430TMC3    C3 6410   4.527   3.072  17.326 -0.4912 -0.1360  0.3603
  430TMC3    C4 6411   4.670   2.886  17.448 -0.0826 -0.1290  0.4056
  430TMC3    C5 6412   4.619   2.860  17.324  0.0472  0.3560  0.5081
  430TMC3    C6 6413   4.546   2.954  17.265  0.1738  0.5074 -0.1435
  430TMC3     C 6414   4.647   3.005  17.654 -0.4895  0.2947 -0.5091
  430TMC3     O 6415   4.681   3.102   0.039 -0.1721  0.5815 -0.1833
  430TMC3     H 6416   4.553   3.193  17.505  0.7095 -0.6693  1.3185
  430TMC3    H1 6417   0.010   2.812  17.500  1.7737 -0.0161 -1.5399
  430TMC3    H2 6418   4.501   2.931  17.169  1.0805 -2.1440  0.0680
  430TMC3    C7 6419   4.621   2.720  17.277  0.1507  0.7898 -1.2098
  430TMC3    C8 6420   4.431   3.156  17.262 -0.8612 -0.1301  0.6102
  430TMC3    O1 6421   4.589   2.638  17.360  0.1596 -0.1312  0.5205
  430TMC3    O2 6422   4.348   3.093  17.197 -0.2146 -0.1401  0.2261
  431MPD2     C 6423   0.328   2.798  12.775  0.7651  0.1936  0.6372
  431MPD2    C1 6424   0.385   2.824  12.645  0.0324  0.8736 -0.3577
  431MPD2    C2 6425   0.351   2.737  12.540 -0.5153  1.1442 -0.0332
  431MPD2    C3 6426   0.256   2.636  12.558 -0.5077 -0.0143 -0.2274
  431MPD2    C4 6427   0.189   2.635  12.678  0.2690 -1.0905  0.2904
  431MPD2    C5 6428   0.221   2.711  12.781 -0.9812 -0.2985 -0.0373
  431MPD2     H 6429   0.401   2.750  12.445 -0.4804  0.4229 -0.1162
  431MPD2    H1 6430   0.107   2.565  12.687  0.8347 -1.6355  1.2212
  431MPD2    H2 6431   0.339   2.858  12.865 -1.1710  4.2555 -1.7854
  431MPD2    H3 6432   0.174   2.696  12.877  0.5752 -0.7957  0.6429
  431MPD2     N 6433   0.214   2.548  12.453  0.0401 -0.0488  0.2410
  431MPD2    H5 6434   0.133   2.488  12.466  0.0512 -0.3020 -0.8594
  431MPD2    N1 6435   0.464   2.941  12.626 -1.1368 -0.6927 -0.7436
  431MPD2    H7 6436   0.487   2.963  12.530 -0.8840 -1.5690 -0.8855
  432TMC3    C1 6437   0.227   2.409  12.253  0.1318  1.2079 -0.0869
  432TMC3    C2 6438   0.251   2.400  12.119  0.1498  0.6604  0.5864
  432TMC3    C3 6439   0.193   2.289  12.053 -0.2663  0.0795 -0.7220
  432TMC3    C4 6440   0.182   2.302  12.332 -0.1474 -0.0173 -0.1758
  432TMC3    C5 6441   0.137   2.194  12.269 -0.8229  0.3509 -0.3060
  432TMC3    C6 6442   0.140   2.186  12.132  0.8986  0.1801 -0.0186
  432TMC3     C 6443   0.272   2.533  12.327  0.5333 -0.0329 -0.6696
  432TMC3     O 6444   0.357   2.607  12.276 -0.4240 -0.1131 -0.0106
  432TMC3     H 6445   0.274   2.488  12.061 -2.2154 -0.7154 -2.5294
  432TMC3    H1 6446   0.192   2.311  12.440 -0.4412  1.3039 -0.2580
  432TMC3    H2 6447   0.091   2.097  12.095  0.8550  0.5868 -0.9425
  432TMC3    C7 6448   0.107   2.071  12.348  0.1575 -0.5464 -0.0055
  432TMC3    C8 6449   0.232   2.252  11.918 -0.0266 -0.5190  0.7235
  432TMC3    O1 6450   0.125   1.959  12.298 -0.2246  0.7052 -0.0310
  432TMC3    O2 6451   0.181   2.151  11.872 -0.1724  0.2077 -0.1940
  433MPD2     C 6452   4.053   1.840  10.981  0.0385 -0.8076  0.4873
  433MPD2    C1 6453   4.056   1.708  11.019 -0.1871 -0.2108 -0.7816
  433MPD2    C2 6454   4.063   1.683  11.159 -0.2243 -0.5871 -0.3122
  433MPD2    C3 6455   4.079   1.777  11.257  0.5571 -0.4021 -0.0838
  433MPD2    C4 6456   4.087   1.903  11.211 -0.1434  0.6227  0.0320
  433MPD2    C5 6457   4.080   1.930  11.077  0.3262  0.0244  0.1964
  433MPD2     H 6458   4.059   1.582  11.198 -0.0165 -0.4390  0.0879
  433MPD2    H1 6459   4.106   1.979  11.286 -0.0531  1.2134 -0.5873
  433MPD2    H2 6460   4.062   1.876  10.880  0.9435 -0.7477  0.5866
  433MPD2    H3 6461   4.099   2.029  11.038 -0.3345 -0.0402 -0.2913
  433MPD2     N 6462   4.102   1.736  11.391 -0.8504 -0.3586 -0.5502
  433MPD2    H5 6463   4.093   1.636  11.410 -0.9645 -0.0312  1.1342
  433MPD2    N1 6464   4.046   1.601  10.931  0.2443 -0.2664  0.2000
  433MPD2    H7 6465   4.019   1.513  10.973  4.2103 -1.3266  0.4813
  434TMC3    C1 6466   4.097   1.476  10.732 -0.3338  0.6405  0.3805
  434TMC3    C2 6467   4.145   1.370  10.809  0.0339  0.1616  0.2149
  434TMC3    C3 6468   4.206   1.270  10.746 -0.1485 -0.6462  0.9629
  434TMC3    C4 6469   4.119   1.480  10.599 -0.1679  0.5726 -0.1150
  434TMC3    C5 6470   4.187   1.377  10.534  0.2015  0.0017 -0.5653
  434TMC3    C6 6471   4.239   1.275  10.611 -0.3604 -0.2010 -0.5901
  434TMC3     C 6472   4.083   1.606  10.796  0.8973  0.0221  0.3018
  434TMC3     O 6473   4.132   1.707  10.742  0.0266  0.6647 -0.0705
  434TMC3     H 6474   4.131   1.370  10.916  0.9522  0.6882  0.3257
  434TMC3    H1 6475   4.094   1.569  10.542 -0.7402  0.1048 -0.5915
  434TMC3    H2 6476   4.289   1.193  10.560 -1.0413 -0.6654 -0.5031
  434TMC3    C7 6477   4.173   1.351  10.391 -0.1536 -0.3123 -0.7054
  434TMC3    C8 6478   4.288   1.192  10.837 -0.0910 -0.3794  0.2952
  434TMC3    O1 6479   4.252   1.273  10.340  0.4984 -0.0133 -0.0694
  434TMC3    O2 6480   4.266   1.197  10.957 -0.4457 -0.2493 -0.5732
  435MPD2     C 6481   1.135   1.492  15.390  0.4506 -0.6943 -0.0990
  435MPD2    C1 6482   1.138   1.568  15.501  0.5635 -0.1647  0.2747
  435MPD2    C2 6483   1.247   1.551  15.582  0.8044  0.2833  0.0515
  435MPD2    C3 6484   1.356   1.481  15.539 -0.7044  0.2386  0.1577
  435MPD2    C4 6485   1.357   1.424  15.418 -0.1257 -0.4783 -0.7536
  435MPD2    C5 6486   1.242   1.427  15.346  0.5120  1.1503 -0.1127
  435MPD2     H 6487   1.252   1.591  15.682 -0.6809  0.3001  0.1237
  435MPD2    H1 6488   1.432   1.364  15.368  2.0786 -0.8156  2.9657
  435MPD2    H2 6489   1.047   1.491  15.326  1.0270  1.2228 -0.9498
  435MPD2    H3 6490   1.231   1.374  15.252 -0.2902 -0.8307  1.1022
  435MPD2     N 6491   1.462   1.467  15.634  0.0366 -0.3147 -0.0977
  435MPD2    H5 6492   1.454   1.500  15.730 -0.8442 -0.9408  0.0401
  435MPD2    N1 6493   1.018   1.629  15.547 -0.0900  0.3308 -0.0434
  435MPD2    H7 6494   1.015   1.639  15.648 -0.3435  0.9172 -0.1120
  436TMC3    C1 6495   0.745   1.808  15.755 -0.2794  0.5363 -0.6500
  436TMC3    C2 6496   0.842   1.783  15.664  0.0360 -0.4356 -0.5055
  436TMC3    C3 6497   0.805   1.702  15.559 -0.1970  0.1654  0.6601
  436TMC3    C4 6498   0.620   1.760  15.754  0.4065  0.6397 -0.1347
  436TMC3    C5 6499   0.592   1.675  15.648  0.3205 -0.2280 -0.0486
  436TMC3    C6 6500   0.679   1.657  15.541  0.6982 -0.4682  0.4150
  436TMC3     C 6501   0.789   1.876  15.875  0.6783  0.0691 -0.7092
  436TMC3     O 6502   0.902   1.847  15.906  0.3953  0.2112 -0.3596
  436TMC3     H 6503   0.940   1.827  15.670 -1.0781  1.7499  1.3061
  436TMC3    H1 6504   0.545   1.784  15.829  0.3425 -0.5020  0.1691
  436TMC3    H2 6505   0.651   1.587  15.463  2.2482 -0.6780  0.0578
  436TMC3    C7 6506   0.455   1.633  15.619  0.3743 -0.1582  1.2418
  436TMC3    C8 6507   0.910   1.662  15.476  0.3004  0.2378  0.2680
  436TMC3    O1 6508   0.424   1.600  15.505 -0.1316  0.1742  0.4629
  436TMC3    O2 6509   0.882   1.637  15.358  0.2543 -0.1966  0.0377
  437TMC3    C1 6510   0.169   3.830  12.388 -0.2843  0.2809 -0.1319
  437TMC3    C2 6511   0.059   3.823  12.306 -0.3366 -0.0846 -0.2940
  437TMC3    C3 6512   0.076   3.868  12.176  0.8411  0.0694 -0.1703
  437TMC3    C4 6513   0.292   3.868  12.345  0.4821 -0.2658 -0.6070
  437TMC3    C5 6514   0.302   3.916  12.213  0.2529 -0.0636 -0.4072
  437TMC3    C6 6515   0.193   3.921  12.129  0.3340 -0.8952  0.2597
  437TMC3     C 6516   0.170   3.768  12.522 -0.0302 -0.6634  0.4160
  437TMC3     O 6517   0.277   3.734  12.573  0.1200  0.3275 -0.2732
  437TMC3     H 6518   4.697   3.760  12.336 -1.6534  2.3221  1.1513
  437TMC3    H1 6519   0.378   3.869  12.411  1.1332 -0.0560 -1.4467
  437TMC3    H2 6520   0.198   3.964  12.029  0.0953  0.6725  0.9232
  437TMC3    C7 6521   0.396   4.023  12.188  0.8963  0.3647 -0.4275
  437TMC3    C8 6522   4.681   3.909  12.100 -0.2769  0.1964 -0.4668
  437TMC3    O1 6523   0.375   4.103  12.100 -0.0678 -0.3487  0.2009
  437TMC3    O2 6524   4.696   3.968  11.991 -0.0255 -0.1507  0.4648
  438MPD2     C 6525   2.153   4.295  16.847 -0.3904  0.7376 -1.1339
  438MPD2    C1 6526   2.239   4.222  16.925 -0.3750 -0.3466  0.3976
  438MPD2    C2 6527   2.186   4.170  17.043 -0.0265  0.3620  0.3746
  438MPD2    C3 6528   2.052   4.173  17.069  0.9171  0.1698  0.7311
  438MPD2    C4 6529   1.966   4.245  16.979 -0.2077 -0.3452 -0.5721
  438MPD2    C5 6530   2.025   4.308  16.874 -0.6123  0.2788  0.0082
  438MPD2     H 6531   2.249   4.123  17.118 -0.5287  1.2691  1.3733
  438MPD2    H1 6532   1.858   4.239  16.986 -0.2184  0.2101 -0.3013
  438MPD2    H2 6533   2.184   4.336  16.751 -0.2949  0.5660 -1.1771
  438MPD2    H3 6534   1.960   4.357  16.802 -0.2252  0.3788 -0.2759
  438MPD2     N 6535   1.992   4.089  17.167  0.4257 -0.6686  0.4345
  438MPD2    H5 6536   1.890   4.090  17.163  0.4900 -1.9118 -1.3537
  438MPD2    N1 6537   2.380   4.201  16.902 -0.2234  0.5358 -0.0967
  438MPD2    H7 6538   2.425   4.137  16.968 -0.4388  1.2003  0.6964
  439TMC3    C1 6539   2.583   4.184  16.773  0.3510 -0.4626 -0.9000
  439TMC3    C2 6540   2.629   4.162  16.650 -0.6526 -0.5909  0.1803
  439TMC3    C3 6541   2.752   4.102  16.645 -0.4823  0.0049 -0.1225
  439TMC3    C4 6542   2.642   4.141  16.884 -0.1040  0.0418 -1.1361
  439TMC3    C5 6543   2.761   4.076  16.872 -0.4612  0.8850 -0.5433
  439TMC3    C6 6544   2.816   4.050  16.750  0.5715 -0.5131 -0.3681
  439TMC3     C 6545   2.445   4.227  16.783 -0.1554 -0.0227  0.6749
  439TMC3     O 6546   2.397   4.266  16.678 -0.0457 -0.5412 -0.4831
  439TMC3     H 6547   2.575   4.190  16.560 -0.7474  1.0099  0.7328
  439TMC3    H1 6548   2.612   4.176  16.983  5.0399  0.2705  0.3510
  439TMC3    H2 6549   2.913   4.003  16.738  1.3844  1.1619 -0.3618
  439TMC3    C7 6550   2.809   3.995  16.979 -0.3106 -0.6728 -0.3194
  439TMC3    C8 6551   2.797   4.038  16.524 -0.5577  0.1759  0.2379
  439TMC3    O1 6552   2.929   3.979  17.000  0.5914  0.8305 -0.2952
  439TMC3    O2 6553   2.910   3.988  16.524  0.1753 -0.5206  0.2411
  440MPD2     C 6554   1.150   4.515  14.323 -0.1102 -0.5790  0.0081
  440MPD2    C1 6555   1.143   4.480  14.457 -0.1910 -0.5650  0.0507
  440MPD2    C2 6556   1.255   4.492  14.530  0.3085 -0.0484 -0.8766
  440MPD2    C3 6557   1.379   4.541  14.481  0.4837 -0.8316  0.4729
  440MPD2    C4 6558   1.388   4.580  14.353 -0.1296  0.8480  0.0831
  440MPD2    C5 6559   1.270   4.566  14.279 -0.0220 -0.5601 -0.4052
  440MPD2     H 6560   1.241   4.459  14.632 -1.7827 -0.5690 -1.3470
  440MPD2    H1 6561   1.480   4.609  14.303  0.1019  1.1958  0.7160
  440MPD2    H2 6562   1.070   4.514  14.250  0.3522 -1.4837 -0.4807
  440MPD2    H3 6563   1.276   4.599  14.176  0.2495  2.0286  0.4491
  440MPD2     N 6564   1.503   4.548  14.547 -0.3063  0.2778 -0.1619
  440MPD2    H5 6565   1.585   4.586  14.500 -0.5450 -0.6276 -1.3039
  440MPD2    N1 6566   1.028   4.435  14.526 -0.0120  0.2216 -0.3309
  440MPD2    H7 6567   1.031   4.436  14.627  1.2547 -1.5822 -0.3495
  441TMC3    C1 6568   1.663   4.502  14.728  0.5979  0.3395  1.0720
  441TMC3    C2 6569   1.744   4.603  14.712 -0.5882  0.1822 -0.3001
  441TMC3    C3 6570   1.857   4.611  14.788 -0.4078 -0.3633 -0.5049
  441TMC3    C4 6571   1.686   4.401  14.809  0.0281 -0.4065 -0.1221
  441TMC3    C5 6572   1.805   4.401  14.864 -0.0334  0.2226 -0.2491
  441TMC3    C6 6573   1.889   4.501  14.858 -0.3537 -0.0503  0.1378
  441TMC3     C 6574   1.525   4.506  14.675 -0.4414  0.8150  0.2457
  441TMC3     O 6575   1.443   4.455  14.751 -0.0399  0.3869  0.1217
  441TMC3     H 6576   1.700   4.681  14.650 -1.5863  0.2328  0.4842
  441TMC3    H1 6577   1.617   4.318  14.822 -0.9824  0.2559 -1.2314
  441TMC3    H2 6578   1.989   4.497  14.900 -0.2680  2.8367  0.2632
  441TMC3    C7 6579   1.788   4.341  14.991  0.3500 -0.0419  0.2787
  441TMC3    C8 6580   1.855   0.007  14.875 -0.6245 -0.3313  0.5299
  441TMC3    O1 6581   1.715   4.250  15.013 -0.2124 -0.6994  0.2329
  441TMC3    O2 6582   1.932   4.716  14.973  0.4450  0.1051 -0.0850
  442MPD2     C 6583   4.106   0.523  17.490 -0.1102 -0.6863 -0.1849
  442MPD2    C1 6584   3.995   0.484  17.411 -0.1923 -0.5086  0.4066
  442MPD2    C2 6585   3.994   0.368  17.338  0.3218 -0.4495  0.8650
  442MPD2    C3 6586   4.108   0.288  17.333 -0.3294  0.2453 -0.0248
  442MPD2    C4 6587   4.225   0.341  17.396 -0.4988  0.3909 -0.4346
  442MPD2    C5 6588   4.219   0.452  17.476  0.3983  0.5273 -0.6383
  442MPD2     H 6589   3.905   0.345  17.281 -0.0745  3.2901 -0.0364
  442MPD2    H1 6590   4.324   0.297  17.391 -0.2721  0.8157  0.2911
  442MPD2    H2 6591   4.106   0.617  17.544  0.2283 -0.4468 -0.6136
  442MPD2    H3 6592   4.315   0.474  17.520 -0.8146  1.2453  1.6787
  442MPD2     N 6593   4.108   0.166  17.254 -0.3824  0.3310 -0.3927
  442MPD2    H5 6594   4.014   0.145  17.221 -0.3862  2.4008 -1.6582
  442MPD2    N1 6595   3.878   0.558  17.399  0.5558 -0.6751  0.2409
  442MPD2    H7 6596   3.815   0.522  17.328  0.9362 -4.0055  1.6289
  443TMC3    C1 6597   3.729   0.738  17.402  0.1255  0.1712 -0.8156
  443TMC3    C2 6598   3.699   0.718  17.266 -0.0339  0.0587  0.0252
  443TMC3    C3 6599   3.589   0.778  17.216  0.6413 -0.1972 -0.1689
  443TMC3    C4 6600   3.642   0.797  17.482 -0.2455  0.2200  0.8743
  443TMC3    C5 6601   3.525   0.838  17.427  0.3355  0.1729  0.3837
  443TMC3    C6 6602   3.510   0.853  17.289  0.0820  0.2069  0.2111
  443TMC3     C 6603   3.849   0.686  17.452 -0.1520 -0.0133  0.5910
  443TMC3     O 6604   3.906   0.744  17.544 -0.2282 -0.6305 -0.3889
  443TMC3     H 6605   3.766   0.664  17.200 -1.3454 -0.0902 -1.1768
  443TMC3    H1 6606   3.657   0.796  17.590  0.9985  2.4832  0.7143
  443TMC3    H2 6607   3.415   0.891  17.253 -0.5870 -2.5691 -0.9964
  443TMC3    C7 6608   3.413   0.765  17.482 -0.2050 -0.0937  0.2184
  443TMC3    C8 6609   3.529   0.717  17.098 -0.4425 -0.4393  0.9827
  443TMC3    O1 6610   3.348   0.695  17.406 -0.3334 -0.7515  0.1477
  443TMC3    O2 6611   3.555   0.599  17.086 -0.3104 -0.2181  0.7797
  444MPD2     C 6612   4.425   4.565  17.321  0.0332 -0.4284 -0.4395
  444MPD2    C1 6613   4.331   4.467  17.315 -0.2531  0.1340 -0.4764
  444MPD2    C2 6614   4.338   4.358  17.223 -0.3447 -0.1899  0.8678
  444MPD2    C3 6615   4.439   4.350  17.141  0.6440  0.2476 -0.3936
  444MPD2    C4 6616   4.535   4.452  17.145 -0.5061  0.7855  0.2704
  444MPD2    C5 6617   4.519   4.561  17.228 -0.6420  0.1727  0.3167
  444MPD2     H 6618   4.268   4.276  17.217  1.7244 -1.8891 -0.2150
  444MPD2    H1 6619   4.624   4.452  17.083 -0.6687 -1.1566  0.0350
  444MPD2    H2 6620   4.424   4.644  17.394  1.0618  0.6617 -1.5886
  444MPD2    H3 6621   4.589   4.644  17.227 -0.0397 -0.3144  1.8876
  444MPD2     N 6622   4.455   4.242  17.044  0.7774 -0.5389 -0.6978
  444MPD2    H5 6623   4.376   4.184  17.018  0.7146  0.0129 -1.7322
  444MPD2    N1 6624   4.210   4.473  17.389  0.3825  0.2688 -0.1532
  444MPD2    H7 6625   4.138   4.410  17.355  0.1309  1.2045 -1.3271
  445TMC3    C1 6626   4.588   4.102  16.909 -0.6700  0.2024 -0.4192
  445TMC3    C2 6627   4.487   4.059  16.828  0.3008 -0.3935 -0.0691
  445TMC3    C3 6628   4.511   3.970  16.719 -0.0828  0.1017  0.3951
  445TMC3    C4 6629   4.715   4.053  16.884 -0.0555 -0.1237 -0.1084
  445TMC3    C5 6630   0.016   3.959  16.783 -0.2990  0.1596  0.3031
  445TMC3    C6 6631   4.637   3.926  16.694 -0.3541  0.5840  0.0436
  445TMC3     C 6632   4.579   4.210  17.006  0.0217  0.5492  1.1584
  445TMC3     O 6633   4.686   4.250  17.055  0.6381  0.0602  0.1030
  445TMC3     H 6634   4.386   4.094  16.846 -0.4821 -3.5933  1.7137
  445TMC3    H1 6635   0.074   4.076  16.954  0.5933  0.6185 -1.0768
  445TMC3    H2 6636   4.664   3.851  16.620 -1.0671  0.9285 -0.5619
  445TMC3    C7 6637   0.152   3.910  16.753  0.1236  0.1425 -0.3732
  445TMC3    C8 6638   4.396   3.920  16.647  0.2251  0.4335  0.4256
  445TMC3    O1 6639   0.166   3.853  16.644 -0.5094  0.0122 -0.5913
  445TMC3    O2 6640   4.281   3.943  16.680  0.2172 -0.0149  1.0309
  446MPD2     C 6641   3.976   1.006  11.370 -0.9553 -0.1944 -0.5410
  446MPD2    C1 6642   3.987   1.021  11.238 -0.2540  0.6052 -0.2166
  446MPD2    C2 6643   4.078   1.105  11.188 -0.0007 -0.7906  0.1498
  446MPD2    C3 6644   4.174   1.165  11.270 -0.8252  0.4068 -0.3339
  446MPD2    C4 6645   4.162   1.154  11.401 -0.1599  0.1056  0.4132
  446MPD2    C5 6646   4.061   1.070  11.453  0.3678  0.1487 -0.0053
  446MPD2     H 6647   4.084   1.117  11.081 -0.1948  2.9096  0.5397
  446MPD2    H1 6648   4.230   1.205  11.468 -1.8564  1.6505  0.9588
  446MPD2    H2 6649   3.908   0.940  11.423 -0.5936  0.2296  0.4509
  446MPD2    H3 6650   4.054   1.041  11.557 -0.7718  0.4798  0.0095
  446MPD2     N 6651   4.279   1.232  11.215  0.4149 -0.0214  0.3478
  446MPD2    H5 6652   4.270   1.230  11.114 -1.1599  1.7906  0.4542
  446MPD2    N1 6653   3.901   0.944  11.148  0.1473 -0.2279 -0.2085
  446MPD2    H7 6654   3.913   0.961  11.049 -0.1347 -2.5758 -0.6388
  447TMC3    C1 6655   4.506   1.321  11.191 -0.6208 -0.1375  0.8699
  447TMC3    C2 6656   4.483   1.387  11.071 -0.3781  0.0592  0.0953
  447TMC3    C3 6657   4.580   1.419  10.984  0.4872 -0.0486 -0.5259
  447TMC3    C4 6658   4.634   1.275  11.222  0.0594 -0.1283 -0.4388
  447TMC3    C5 6659   0.007   1.306  11.133  0.2092  0.1595 -0.3726
  447TMC3    C6 6660   4.710   1.382  11.019 -0.1765 -0.4795  0.4403
  447TMC3     C 6661   4.398   1.273  11.276 -0.4036 -0.0219  0.3655
  447TMC3     O 6662   4.434   1.235  11.386 -0.0921  0.0109  0.4222
  447TMC3     H 6663   4.381   1.422  11.059  0.2238  1.4976 -0.8416
  447TMC3    H1 6664   4.650   1.215  11.311  0.4565 -0.1393 -0.5166
  447TMC3    H2 6665   0.077   1.407  10.958 -0.5158 -1.6668 -0.5378
  447TMC3    C7 6666   0.138   1.233  11.138  0.3320  0.2716 -0.0301
  447TMC3    C8 6667   4.554   1.443  10.849 -0.0646  0.2695 -0.8368
  447TMC3    O1 6668   0.194   1.207  11.032 -0.3263  0.7255  0.2049
  447TMC3    O2 6669   4.442   1.480  10.817 -0.2967  0.2385  0.1232
  448TMC3    C1 6670   2.033   1.124  16.901 -0.4955 -0.2813  0.5170
  448TMC3    C2 6671   2.068   1.021  16.819  0.2632 -0.1734  0.7986
  448TMC3    C3 6672   2.145   0.926  16.878  0.0942 -0.1777 -0.0190
  448TMC3    C4 6673   2.067   1.147  17.025 -0.4230 -0.0360 -0.0832
  448TMC3    C5 6674   2.148   1.050  17.077 -0.0346  0.1026 -0.2037
  448TMC3    C6 6675   2.178   0.936  17.009  0.5284 -0.2262 -0.1367
  448TMC3     C 6676   1.996   1.246  16.829  0.2105 -0.0931  0.6097
  448TMC3     O 6677   1.952   1.341  16.890 -0.0136  0.5151 -0.3691
  448TMC3     H 6678   2.018   1.018  16.723  1.3487 -0.5713  0.2416
  448TMC3    H1 6679   2.027   1.230  17.081  0.6118 -1.8046  3.3025
  448TMC3    H2 6680   2.226   0.852  17.058 -1.0266 -0.3097  1.2571
  448TMC3    C7 6681   2.161   1.059  17.220 -0.9593 -0.2503 -0.2918
  448TMC3    C8 6682   2.148   0.787  16.830 -0.1777 -0.2847 -1.1903
  448TMC3    O1 6683   2.109   1.155  17.275  0.1268  0.2153  0.2528
  448TMC3    O2 6684   2.141   0.697  16.912 -0.3534 -0.3181 -0.1308
  449MPD2     C 6685   4.005   4.370  13.897 -0.1427 -0.0045  0.6012
  449MPD2    C1 6686   3.902   4.335  13.813  0.6049 -0.3159 -0.2098
  449MPD2    C2 6687   3.839   4.212  13.824 -0.7779 -0.1095  0.5564
  449MPD2    C3 6688   3.888   4.122  13.918  0.0495 -0.3098  0.2427
  449MPD2    C4 6689   3.992   4.150  14.002 -0.2163  0.1584  0.0413
  449MPD2    C5 6690   4.044   4.277  13.993  0.3765 -0.1277 -0.1349
  449MPD2     H 6691   3.751   4.191  13.765  1.3883 -2.7312 -1.7226
  449MPD2    H1 6692   4.031   4.066  14.057 -0.4671  0.8493  1.2655
  449MPD2    H2 6693   4.062   4.461  13.893 -0.2576  0.0242 -0.4482
  449MPD2    H3 6694   4.119   4.299  14.069 -1.3685  0.7331  1.3474
  449MPD2     N 6695   3.812   4.003  13.928  0.9128 -0.3450 -0.2071
  449MPD2    H5 6696   3.731   4.002  13.866 -0.8070  2.7417  1.9486
  449MPD2    N1 6697   3.843   4.421  13.727 -0.5231  0.6912 -0.5421
  449MPD2    H7 6698   3.754   4.391  13.687 -1.5174  3.5601 -0.4959
  450TMC3    C1 6699   3.819   4.571  13.568 -0.0959 -1.0797 -0.2001
  450TMC3    C2 6700   3.886   4.579  13.449  0.2084 -0.0519 -0.7461
  450TMC3    C3 6701   3.811   4.533  13.345 -0.5752 -0.0854 -0.3261
  450TMC3    C4 6702   3.687   4.531  13.576  0.0199 -0.4092 -0.4186
  450TMC3    C5 6703   3.620   4.484  13.459  0.5313 -0.3088  0.0415
  450TMC3    C6 6704   3.684   4.495  13.339  0.1364 -0.7023 -0.1414
  450TMC3     C 6705   3.897   4.536  13.680  0.6203 -0.2328 -0.5854
  450TMC3     O 6706   4.015   4.571  13.688 -0.3946  0.8954 -0.0269
  450TMC3     H 6707   3.994   4.591  13.438  0.3674 -0.8016  0.0205
  450TMC3    H1 6708   3.630   4.535  13.669  0.3942  0.5415 -0.2232
  450TMC3    H2 6709   3.632   4.456  13.252 -1.4368  0.8585  0.0858
  450TMC3    C7 6710   3.548   4.358  13.486 -0.3213  0.5101 -0.0974
  450TMC3    C8 6711   3.880   4.510  13.224 -0.6979 -0.4454  0.5263
  450TMC3    O1 6712   3.556   4.325  13.603  0.8987  0.3378 -0.0382
  450TMC3    O2 6713   3.811   4.512  13.122 -0.0119 -0.0352 -0.2814
  451MPD2     C 6714   4.377   2.419   1.617  0.3223 -0.4399 -0.5898
  451MPD2    C1 6715   4.463   2.478   1.525 -0.3138  0.6457 -0.0169
  451MPD2    C2 6716   4.553   2.396   1.449  0.8623  0.3347  0.5035
  451MPD2    C3 6717   4.549   2.256   1.462  0.1571  0.3747  0.2178
  451MPD2    C4 6718   4.461   2.207   1.559  0.3173  0.1303 -0.1699
  451MPD2    C5 6719   4.381   2.287   1.632 -0.0079  0.4839  0.3507
  451MPD2     H 6720   4.630   2.451   1.396  2.1213 -0.2686  1.7188
  451MPD2    H1 6721   4.454   2.099   1.571 -0.5777  0.0881 -1.0463
  451MPD2    H2 6722   4.304   2.473   1.676  0.1359 -2.7181  1.3126
  451MPD2    H3 6723   4.318   2.247   1.711 -1.0304  0.4781 -0.4722
  451MPD2     N 6724   4.628   2.169   1.388  0.1734  0.1432 -0.2576
  451MPD2    H5 6725   4.635   2.071   1.412  0.5619  0.3766  0.5754
  451MPD2    N1 6726   4.466   2.616   1.518  0.8810 -0.7233  0.1980
  451MPD2    H7 6727   4.398   2.666   1.574  0.6510 -1.9302  0.9959
  452TMC3    C1 6728   0.083   2.112   1.236 -0.1545  0.5610  0.7182
  452TMC3    C2 6729   0.135   2.016   1.322 -0.5723 -0.4176  0.7361
  452TMC3    C3 6730   0.220   1.930   1.267 -0.1667 -0.1603 -0.2439
  452TMC3    C4 6731   0.104   2.114   1.104 -0.0758  0.8669 -0.0782
  452TMC3    C5 6732   0.195   2.029   1.050  0.5211  0.5598  0.6268
  452TMC3    C6 6733   0.256   1.935   1.133  0.1629  0.2804  0.1910
  452TMC3     C 6734   4.709   2.215   1.286 -0.2845  0.5530  0.3593
  452TMC3     O 6735   0.002   2.323   1.225 -0.1577 -0.1431 -0.2019
  452TMC3     H 6736   0.123   2.033   1.428  0.1963  1.4644  0.5254
  452TMC3    H1 6737   0.064   2.192   1.040  0.2198  1.6292  0.6715
  452TMC3    H2 6738   0.310   1.855   1.084  2.2906  1.2623  0.9379
  452TMC3    C7 6739   0.273   2.074   0.930  0.3844 -0.6420 -0.0616
  452TMC3    C8 6740   0.308   1.868   1.364  0.2814 -0.2944 -0.0605
  452TMC3    O1 6741   0.311   1.980   0.861 -0.0881  0.1088  0.2582
  452TMC3    O2 6742   0.255   1.802   1.453  0.0910  0.6185 -0.4481
  453TMC3    C1 6743   1.848   0.185  11.411 -0.6520 -0.6905 -0.0475
  453TMC3    C2 6744   1.754   0.081  11.435  0.1493  0.2974 -0.3897
  453TMC3    C3 6745   1.687   0.036  11.328  0.2422 -0.9095 -0.2905
  453TMC3    C4 6746   1.907   0.207  11.287  0.1729  0.6694  0.2063
  453TMC3    C5 6747   1.839   0.153  11.184  0.3279  0.0314  0.0531
  453TMC3    C6 6748   1.727   0.067  11.199 -0.1417 -0.8530 -0.4897
  453TMC3     C 6749   1.927   0.236  11.518 -0.4083 -0.1791  0.0511
  453TMC3     O 6750   2.034   0.289  11.491  0.2409  0.5218  0.0178
  453TMC3     H 6751   1.725   0.058  11.536 -1.3599  0.5547 -0.7692
  453TMC3    H1 6752   1.980   0.285  11.273  2.2264 -1.0755  1.1664
  453TMC3    H2 6753   1.687   0.012  11.115  0.2121 -1.8209 -0.0218
  453TMC3    C7 6754   1.893   0.160  11.053  0.0404 -0.6565 -0.1199
  453TMC3    C8 6755   1.587   4.653  11.339 -0.1093  0.1697 -0.1523
  453TMC3    O1 6756   1.855   0.068  10.979  0.3167  0.4705 -0.6298
  453TMC3    O2 6757   1.512   4.636  11.241 -0.0901  0.2681 -0.5254
  454MPD2     C 6758   0.514   0.037  16.794 -0.0979 -0.1309  0.5454
  454MPD2    C1 6759   0.526   4.655  16.699  0.2470  0.8330  0.3217
  454MPD2    C2 6760   0.561   4.526  16.738 -0.4645  0.1136  1.0197
  454MPD2    C3 6761   0.603   4.508  16.870  0.1142 -0.1246  0.4388
  454MPD2    C4 6762   0.601   4.620  16.955  0.6045 -0.1929 -0.0813
  454MPD2    C5 6763   0.562   0.021  16.918  0.3989  0.3996  0.7978
  454MPD2     H 6764   0.534   4.452  16.664 -0.5689 -0.4585  1.6333
  454MPD2    H1 6765   0.626   4.609  17.060  0.6082 -2.1785 -0.2894
  454MPD2    H2 6766   0.488   0.141  16.777  3.4637  0.6039 -0.5025
  454MPD2    H3 6767   0.561   0.107  16.984 -1.7684 -0.2240  1.5754
  454MPD2     N 6768   0.616   4.386  16.937 -0.4997 -0.2306  0.3145
  454MPD2    H5 6769   0.598   4.389  17.037  0.9449 -0.3847  0.5824
  454MPD2    N1 6770   0.472   4.663  16.566  0.2474  0.3275  0.8963
  454MPD2    H7 6771   0.480   4.582  16.506 -1.8806 -1.3481  2.8994
  455TMC3    C1 6772   0.468   4.232  16.847 -0.0825 -0.1972  0.1662
  455TMC3    C2 6773   0.392   4.258  16.960 -0.3195 -0.1897  0.6625
  455TMC3    C3 6774   0.270   4.310  16.942  0.6116 -0.1497  0.0268
  455TMC3    C4 6775   0.410   4.244  16.717 -0.7147 -0.3161 -0.8092
  455TMC3    C5 6776   0.280   4.285  16.709 -0.0532  0.0165  0.0865
  455TMC3    C6 6777   0.210   4.325  16.821 -0.5382  0.0109  0.3036
  455TMC3     C 6778   0.608   4.273  16.854  0.5826  0.8159 -0.6360
  455TMC3     O 6779   0.660   4.264  16.745 -0.3768  0.8076  0.1953
  455TMC3     H 6780   0.444   4.266  17.055 -0.1049 -0.0521  0.5335
  455TMC3    H1 6781   0.465   4.210  16.630  0.3467 -0.4246 -0.0982
  455TMC3    H2 6782   0.112   4.370  16.813  0.6046  2.2176 -1.1472
  455TMC3    C7 6783   0.206   4.245  16.591  0.2684  0.0995  0.0095
  455TMC3    C8 6784   0.232   4.403  17.052  0.5360 -0.0606  0.2256
  455TMC3    O1 6785   0.277   4.205  16.501 -0.3212 -0.0307  0.0631
  455TMC3    O2 6786   0.271   4.366  17.163  0.3358  0.1363 -0.4531
  456MPD2     C 6787   2.772   4.393  16.241 -0.3834  0.7464 -0.1763
  456MPD2    C1 6788   2.842   4.404  16.358 -0.8222 -0.5597  0.3376
  456MPD2    C2 6789   2.772   4.453  16.470  0.3192  0.4760 -0.3763
  456MPD2    C3 6790   2.645   4.490  16.463  0.7070 -0.2476 -0.4352
  456MPD2    C4 6791   2.575   4.480  16.348  0.4698  0.1664 -0.6846
  456MPD2    C5 6792   2.641   4.429  16.244  0.1873 -0.1879  0.2239
  456MPD2     H 6793   2.826   4.459  16.564 -0.7511 -2.7454  0.4594
  456MPD2    H1 6794   2.470   4.502  16.330  0.6819  1.5548 -0.2480
  456MPD2    H2 6795   2.817   4.349  16.152  2.9268  0.9782  1.3923
  456MPD2    H3 6796   2.601   4.411  16.145  0.9992 -0.8674  0.0263
  456MPD2     N 6797   2.589   4.544  16.586  0.1073  0.5230  0.0794
  456MPD2    H5 6798   2.645   4.548  16.670  1.6038 -0.1441 -0.8959
  456MPD2    N1 6799   2.978   4.366  16.360  0.3082  0.1765 -0.2233
  456MPD2    H7 6800   3.012   4.318  16.277 -1.1487  1.2217 -1.4232
  457TMC3    C1 6801   2.440   4.683  16.706 -0.1065 -0.0318 -0.2368
  457TMC3    C2 6802   2.355   0.071  16.690  0.3297 -0.3275 -0.5054
  457TMC3    C3 6803   2.331   0.139  16.803 -0.0799 -0.9929 -0.4390
  457TMC3    C4 6804   2.492   4.641  16.819  0.2295 -0.8117 -0.3263
  457TMC3    C5 6805   2.475   4.715  16.930  0.1878 -0.3749 -0.4518
  457TMC3    C6 6806   2.391   0.102  16.921  0.4309  0.3244 -0.8937
  457TMC3     C 6807   2.459   4.598  16.592  0.4573  0.1562 -0.7729
  457TMC3     O 6808   2.370   4.600  16.509 -0.2644  0.2501 -0.4274
  457TMC3     H 6809   2.325   0.098  16.589 -0.9958 -1.5673 -0.4537
  457TMC3    H1 6810   2.544   4.546  16.820 -0.2613 -1.0748  0.0920
  457TMC3    H2 6811   2.373   0.166  17.008 -0.3710  1.2684 -1.7419
  457TMC3    C7 6812   2.573   4.697  17.042 -0.2080  0.0279 -0.1255
  457TMC3    C8 6813   2.246   0.262  16.790  0.3793  0.1451 -0.0791
  457TMC3    O1 6814   2.613   4.580  17.056  0.2436 -0.4310  0.4849
  457TMC3    O2 6815   2.250   0.341  16.883 -0.0470  0.4592 -0.1513
  458MPD2     C 6816   0.848   4.235  12.359  0.2810 -0.1583  0.2700
  458MPD2    C1 6817   0.815   4.119  12.426  0.0971  0.2921  0.2719
  458MPD2    C2 6818   0.709   4.048  12.384  0.6385  0.4014 -0.8004
  458MPD2    C3 6819   0.623   4.098  12.287  0.5479  0.7016 -1.1334
  458MPD2    C4 6820   0.646   4.219  12.235  0.6400  0.1154 -0.6314
  458MPD2    C5 6821   0.763   4.294  12.264 -0.1909  0.0386  0.4934
  458MPD2     H 6822   0.688   3.952  12.430  0.3034  0.2229 -1.3323
  458MPD2    H1 6823   0.568   4.271  12.180  1.1503  1.9044  0.3110
  458MPD2    H2 6824   0.944   4.284  12.375  0.3967 -0.7830  1.5127
  458MPD2    H3 6825   0.786   4.387  12.213  1.8059 -1.4333 -1.2833
  458MPD2     N 6826   0.508   4.014  12.267  0.0262  0.1652  0.1715
  458MPD2    H5 6827   0.502   3.931  12.324  0.6991 -1.0718 -1.5917
  458MPD2    N1 6828   0.904   4.082  12.528 -0.4155  0.4984 -0.0483
  458MPD2    H7 6829   0.981   4.147  12.541  0.2471  0.1447 -2.2382
  459TMC3    C1 6830   0.998   3.961  12.693  0.4771  0.1946  0.2513
  459TMC3    C2 6831   1.118   4.003  12.655  0.9410 -0.1708 -0.4247
  459TMC3    C3 6832   1.213   4.002  12.758  0.9275  1.6528  0.2954
  459TMC3    C4 6833   0.975   3.909  12.817  0.1244  0.0771  0.6943
  459TMC3    C5 6834   1.079   3.899  12.909  0.2589  0.2417  0.2899
  459TMC3    C6 6835   1.202   3.949  12.881 -0.7613 -0.5933  0.3781
  459TMC3     C 6836   0.886   3.973  12.609  0.0216 -0.0694  0.2750
  459TMC3     O 6837   0.786   3.907  12.643 -0.0455 -0.0219 -0.0131
  459TMC3     H 6838   1.133   4.062  12.565 -1.8932  2.6806  0.9583
  459TMC3    H1 6839   0.879   3.868  12.848  0.2727  0.7087  2.0027
  459TMC3    H2 6840   1.277   3.959  12.959 -0.0798 -0.8177 -0.2512
  459TMC3    C7 6841   1.052   3.830  13.034 -0.0820  1.2514  0.1109
  459TMC3    C8 6842   1.349   4.030  12.720 -0.8380  0.4345 -0.1939
  459TMC3    O1 6843   0.957   3.756  13.030  0.0269 -0.6651 -0.4784
  459TMC3    O2 6844   1.439   3.958  12.764 -0.5938  0.6179 -0.5660
  460MPD2     C 6845   0.075   1.338  10.593  1.1602  0.2488  0.6195
  460MPD2    C1 6846   4.673   1.388  10.635 -0.3350 -0.1964  0.0708
  460MPD2    C2 6847   4.575   1.420  10.538 -0.0414 -0.1410 -0.0439
  460MPD2    C3 6848   4.606   1.386  10.403 -0.7679  0.6410  0.8974
  460MPD2    C4 6849   0.012   1.346  10.362  0.1137  0.1683  0.0723
  460MPD2    C5 6850   0.108   1.330  10.461 -1.0632  0.0516 -0.3690
  460MPD2     H 6851   4.476   1.455  10.564 -0.2113  0.2971 -1.2485
  460MPD2    H1 6852   0.051   1.344  10.261 -0.7061  2.5784 -0.2819
  460MPD2    H2 6853   0.145   1.320  10.674  2.3633 -4.4496 -1.4493
  460MPD2    H3 6854   0.211   1.313  10.431 -1.1627 -1.9451  0.4283
  460MPD2     N 6855   4.504   1.411  10.307 -0.9768  0.1383  0.1924
  460MPD2    H5 6856   4.415   1.450  10.337 -0.8825  0.9811 -0.6113
  460MPD2    N1 6857   4.660   1.412  10.769 -0.8774  0.0056 -0.4800
  460MPD2    H7 6858   0.025   1.398  10.824 -1.7654 -2.3812  0.2617
  461TMC3    C1 6859   4.393   1.403  10.101  0.7412 -0.4910  0.6157
  461TMC3    C2 6860   4.349   1.311  10.008 -1.0582  0.1741  0.8228
  461TMC3    C3 6861   4.247   1.342   9.925  0.0861  0.4999 -0.4828
  461TMC3    C4 6862   4.331   1.526  10.119  0.0242  0.6250 -0.0510
  461TMC3    C5 6863   4.240   1.562  10.026 -0.3868  0.3731  0.4339
  461TMC3    C6 6864   4.197   1.470   9.931 -0.1859 -0.2012  0.5224
  461TMC3     C 6865   4.510   1.363  10.179 -0.4382  0.0315 -0.2302
  461TMC3     O 6866   4.591   1.293  10.114 -0.0193  0.0040 -0.1518
  461TMC3     H 6867   4.404   1.218  10.000  0.5764  1.1345  1.0083
  461TMC3    H1 6868   4.374   1.604  10.182  0.8672 -0.7845  1.1168
  461TMC3    H2 6869   4.109   1.500   9.876 -0.8499 -1.6670  0.7946
  461TMC3    C7 6870   4.201   1.698  10.012 -0.5217 -0.4828  0.4261
  461TMC3    C8 6871   4.222   1.256   9.809  0.1281  0.3370 -0.0942
  461TMC3    O1 6872   4.153   1.731   9.905  0.0484 -0.0654  0.3673
  461TMC3    O2 6873   4.323   1.199   9.767 -0.6176  0.2223  0.0092
  462TMC3    C1 6874   4.244   1.947   0.213 -0.0679  0.1173 -0.1438
  462TMC3    C2 6875   4.159   1.866   0.139 -0.0611  0.3345 -0.0589
  462TMC3    C3 6876   4.196   1.737   0.129 -0.0517  0.6934  0.1381
  462TMC3    C4 6877   4.359   1.896   0.272  0.5267 -0.2658 -0.8677
  462TMC3    C5 6878   4.396   1.765   0.255  0.3911  1.0506  0.6566
  462TMC3    C6 6879   4.314   1.683   0.176 -0.1072  0.5978  0.0058
  462TMC3     C 6880   4.225   2.088   0.202 -0.2313  0.3629 -0.2371
  462TMC3     O 6881   4.321   2.155   0.243 -0.6458  0.1148 -0.2466
  462TMC3     H 6882   4.085   1.904   0.069 -0.3007  0.7877  0.4464
  462TMC3    H1 6883   4.418   1.955   0.341 -0.9536  1.4130 -1.0165
  462TMC3    H2 6884   4.319   1.575   0.189  2.1445  0.6863 -0.0262
  462TMC3    C7 6885   4.472   1.707   0.365  0.2805 -0.4653 -1.3563
  462TMC3    C8 6886   4.116   1.660   0.036  1.0079  0.5159 -0.3690
  462TMC3    O1 6887   4.431   1.599   0.409 -0.1401 -0.9737  0.3561
  462TMC3    O2 6888   4.008   1.708   0.007  0.6488  0.1014 -0.6168
  463MPD2     C 6889   0.464   0.827   1.667 -0.1490 -0.0957  0.3062
  463MPD2    C1 6890   0.392   0.951   1.673  0.2925 -0.0390 -0.6980
  463MPD2    C2 6891   0.426   1.061   1.594  0.3523 -0.1668 -0.0525
  463MPD2    C3 6892   0.536   1.046   1.512  0.6421  0.0186  1.2139
  463MPD2    C4 6893   0.612   0.927   1.511  0.6039  0.0997  0.1636
  463MPD2    C5 6894   0.578   0.822   1.588 -0.2516  0.5523  0.5037
  463MPD2     H 6895   0.366   1.151   1.596  2.1372  1.0237  0.0123
  463MPD2    H1 6896   0.701   0.918   1.450  0.9740  1.9041  0.4361
  463MPD2    H2 6897   0.443   0.735   1.721 -2.0945 -1.0907 -2.1703
  463MPD2    H3 6898   0.643   0.736   1.597 -0.4554  0.2048 -1.3702
  463MPD2     N 6899   0.585   1.145   1.429 -0.1834 -0.6994 -0.1778
  463MPD2    H5 6900   0.679   1.122   1.397  0.1160  1.0611 -0.5746
  463MPD2    N1 6901   0.292   0.980   1.768 -0.6406  0.5993 -0.1745
  463MPD2    H7 6902   0.236   1.064   1.756 -4.3313 -1.6899  1.3475
  464TMC3    C1 6903   0.140   0.927   1.936  0.2310  0.4396 -0.1730
  464TMC3    C2 6904   0.032   0.950   1.855  0.5451  0.3997 -0.2234
  464TMC3    C3 6905   4.625   0.932   1.896 -0.3029  0.7559  0.3699
  464TMC3    C4 6906   0.127   0.898   2.066  0.5536  0.2091  0.4812
  464TMC3    C5 6907   4.716   0.883   2.106  0.1328  0.3921 -0.9000
  464TMC3    C6 6908   4.610   0.907   2.026 -0.4395  0.0690  0.2130
  464TMC3     C 6909   0.266   0.899   1.876  0.2331 -0.4107  0.3433
  464TMC3     O 6910   0.332   0.807   1.921 -0.0006  0.2946  0.3281
  464TMC3     H 6911   0.045   0.958   1.747  0.6522  0.9426 -0.1701
  464TMC3    H1 6912   0.215   0.870   2.123  0.1214 -0.4466  0.8342
  464TMC3    H2 6913   4.512   0.897   2.071  0.3431 -4.0213  0.9212
  464TMC3    C7 6914   4.704   0.763   2.189  0.1098 -0.2542 -0.3580
  464TMC3    C8 6915   4.518   0.957   1.800 -0.3880  0.0395  0.0392
  464TMC3    O1 6916   0.027   0.771   2.301  0.4220  0.6966 -0.3032
  464TMC3    O2 6917   4.547   0.959   1.682 -0.2362 -0.2814  0.0170
  465MPD2     C 6918   2.014   4.159  16.257 -0.4418  0.4776  0.7107
  465MPD2    C1 6919   1.956   4.171  16.385  0.7677  0.1127  0.6462
  465MPD2    C2 6920   1.852   4.257  16.401  0.0477 -0.2654 -0.1157
  465MPD2    C3 6921   1.796   4.320  16.286 -0.0484  0.5120 -0.2552
  465MPD2    C4 6922   1.848   4.299  16.158 -0.1031 -0.7914  0.0004
  465MPD2    C5 6923   1.958   4.218  16.147  0.0888  0.1309 -0.1242
  465MPD2     H 6924   1.804   4.262  16.498  0.4064  0.7418  0.0107
  465MPD2    H1 6925   1.803   4.344  16.070  0.0973 -0.0455  0.2819
  465MPD2    H2 6926   2.100   4.096  16.238 -0.8419  0.3819 -0.7896
  465MPD2    H3 6927   2.002   4.206  16.049 -0.6843 -1.5928 -0.2617
  465MPD2     N 6928   1.689   4.405  16.315 -0.4542 -0.2091  0.1054
  465MPD2    H5 6929   1.663   4.418  16.412 -1.2057 -0.2314 -0.0923
  465MPD2    N1 6930   2.002   4.088  16.492  0.5109 -0.3839 -0.3085
  465MPD2    H7 6931   2.077   4.025  16.465  2.0288  0.6265  1.5093
  466TMC3    C1 6932   1.395   4.618  16.475  0.1729 -0.1963  0.4550
  466TMC3    C2 6933   1.387   0.026  16.436 -0.5140 -0.0564  0.3977
  466TMC3    C3 6934   1.444   0.066  16.315 -0.2096  0.4633  0.3631
  466TMC3    C4 6935   1.467   4.522  16.410  0.6035 -0.7494  0.4496
  466TMC3    C5 6936   1.521   4.564  16.289 -0.1659  0.2991  0.2170
  466TMC3    C6 6937   1.503   4.691  16.234  0.0585  0.7178 -0.0094
  466TMC3     C 6938   1.306   4.585  16.584  0.0405 -0.0594 -0.2760
  466TMC3     O 6939   1.211   4.659  16.608 -0.2670 -0.0952 -0.1816
  466TMC3     H 6940   1.348   0.100  16.505  0.4027 -0.1573  1.0193
  466TMC3    H1 6941   1.459   4.416  16.431  3.2037 -1.0299  0.0330
  466TMC3    H2 6942   1.543   0.004  16.139 -1.0337 -1.6163 -1.2739
  466TMC3    C7 6943   1.612   4.477  16.221 -0.1493  0.1896  0.5535
  466TMC3    C8 6944   1.444   0.205  16.267  0.4542 -1.0850 -0.2874
  466TMC3    O1 6945   1.597   4.458  16.101 -0.7200 -1.6031  0.4082
  466TMC3    O2 6946   1.457   0.225  16.144  0.2113 -0.6780  0.1806
  467TMC3    C1 6947   2.869   2.962  13.951  0.9783  0.0937 -0.0717
  467TMC3    C2 6948   2.828   2.910  13.827  0.5187  0.0280  0.3129
  467TMC3    C3 6949   2.692   2.916  13.808  1.1139  0.7237  0.3044
  467TMC3    C4 6950   2.788   3.027  14.039 -0.8398  0.0920 -0.4672
  467TMC3    C5 6951   2.654   3.027  14.008  0.3278 -0.2101  0.2923
  467TMC3    C6 6952   2.609   2.981  13.892 -0.7729 -0.0039 -0.0576
  467TMC3     C 6953   3.010   2.944  13.981 -0.4770  0.3664  0.4008
  467TMC3     O 6954   3.072   3.040  14.022 -0.5374  0.0809  0.1602
  467TMC3     H 6955   2.892   2.865  13.752 -0.9875 -1.3999 -0.1325
  467TMC3    H1 6956   2.827   3.073  14.129 -1.8304 -1.4225  0.7419
  467TMC3    H2 6957   2.511   3.015  13.861 -1.8630  0.3743  3.8065
  467TMC3    C7 6958   2.569   3.106  14.092  0.0812 -0.1549  0.8515
  467TMC3    C8 6959   2.651   2.885  13.673  0.1477 -0.4040  0.7050
  467TMC3    O1 6960   2.619   3.198  14.152  0.2693 -0.6016 -0.3300
  467TMC3    O2 6961   2.735   2.907  13.587  0.1687 -0.0703  0.3417
  468MPD2     C 6962   1.395   1.219  10.332  0.0666  0.1312  0.0870
  468MPD2    C1 6963   1.480   1.211  10.443 -0.0546  0.0134 -0.4588
  468MPD2    C2 6964   1.499   1.087  10.501  0.9095 -0.1610  0.5657
  468MPD2    C3 6965   1.451   0.976  10.441  0.0409 -0.0636 -0.6287
  468MPD2    C4 6966   1.378   0.983  10.329 -0.7988  0.5017  0.7699
  468MPD2    C5 6967   1.345   1.105  10.279 -0.0844 -0.6715 -0.5459
  468MPD2     H 6968   1.560   1.086  10.590  0.8443 -2.9445  0.5649
  468MPD2    H1 6969   1.326   0.896  10.288  1.8610 -1.1094  0.8465
  468MPD2    H2 6970   1.372   1.316  10.290  0.2427 -0.6931 -1.9330
  468MPD2    H3 6971   1.269   1.104  10.202  0.4282 -0.7062 -1.0518
  468MPD2     N 6972   1.491   0.848  10.490 -0.3406 -0.2606 -0.3370
  468MPD2    H5 6973   1.477   0.768  10.429  2.2080  0.0611 -1.3078
  468MPD2    N1 6974   1.552   1.327  10.500 -0.4609  0.7207  0.3291
  468MPD2    H7 6975   1.615   1.318  10.579  0.1709  0.7909 -0.1754
  469TMC3    C1 6976   1.613   1.552  10.525  0.1691 -0.1292 -0.0433
  469TMC3    C2 6977   1.737   1.526  10.577 -0.4638 -0.5281  0.1410
  469TMC3    C3 6978   1.776   1.607  10.679 -0.3670 -0.1604  0.1787
  469TMC3    C4 6979   1.536   1.656  10.553 -0.6754  0.0427 -0.2474
  469TMC3    C5 6980   1.576   1.734  10.662 -0.5059 -0.3924 -0.4663
  469TMC3    C6 6981   1.696   1.714  10.717  0.5002  0.3466 -0.1621
  469TMC3     C 6982   1.548   1.455  10.442  0.7340 -0.3055 -0.3130
  469TMC3     O 6983   1.482   1.501  10.348  0.9696  0.0967 -0.0932
  469TMC3     H 6984   1.784   1.430  10.559 -0.4477 -0.5481  0.2916
  469TMC3    H1 6985   1.441   1.677  10.504  0.2095  1.3216 -1.4198
  469TMC3    H2 6986   1.724   1.785  10.794  0.2735  0.3491 -0.0816
  469TMC3    C7 6987   1.470   1.794  10.741  0.2504  0.2824 -0.0145
  469TMC3    C8 6988   1.848   1.555  10.797  0.3629 -0.4163  0.4297
  469TMC3    O1 6989   1.361   1.820  10.688  0.0128  0.4664  0.3049
  469TMC3    O2 6990   1.791   1.586  10.905  0.2869 -0.0462  0.1799
  470TMC3    C1 6991   3.722   1.851   0.653  0.0074  0.4800  0.7748
  470TMC3    C2 6992   3.697   1.984   0.643 -0.5259 -0.0991  0.0930
  470TMC3    C3 6993   3.731   2.076   0.741 -0.0628 -0.0046 -0.4880
  470TMC3    C4 6994   3.811   1.811   0.751  0.7001  0.5666 -0.1001
  470TMC3    C5 6995   3.859   1.905   0.834  1.2007  0.1005  0.3929
  470TMC3    C6 6996   3.806   2.034   0.844  0.4055 -0.0448 -0.2632
  470TMC3     C 6997   3.655   1.756   0.566 -0.1390 -0.7250 -0.5771
  470TMC3     O 6998   3.646   1.788   0.450 -0.0392  0.0679 -0.2462
  470TMC3     H 6999   3.624   2.021   0.573  0.4966  1.2889 -0.2553
  470TMC3    H1 7000   3.853   1.712   0.763  1.7180  0.8766 -1.1057
  470TMC3    H2 7001   3.866   2.108   0.897  0.2251 -0.0282 -0.0803
  470TMC3    C7 7002   3.958   1.868   0.934  0.5049  1.5820  0.6201
  470TMC3    C8 7003   3.675   2.213   0.741  0.4689  0.2278 -0.1401
  470TMC3    O1 7004   4.023   1.766   0.919 -0.4877 -0.4635 -0.2767
  470TMC3    O2 7005   3.713   2.284   0.834  0.0346  0.1421  0.5484
  471MPD2     C 7006   4.123   3.567  17.199  0.1035 -0.6238  0.2583
  471MPD2    C1 7007   4.098   3.433  17.181  0.3905  0.6326  0.0941
  471MPD2    C2 7008   4.190   3.337  17.220  0.2299  0.1793 -0.5047
  471MPD2    C3 7009   4.302   3.373  17.287 -0.9926  0.3889 -0.2414
  471MPD2    C4 7010   4.324   3.510  17.314  0.0309 -0.5203  0.0404
  471MPD2    C5 7011   4.234   3.603  17.275  0.1196  0.4255 -0.8696
  471MPD2     H 7012   4.172   3.231  17.203  0.5551  0.0265  0.1025
  471MPD2    H1 7013   4.411   3.544  17.368 -0.1900  1.1928 -0.6648
  471MPD2    H2 7014   4.055   3.641  17.159 -0.2702 -0.4782  1.1764
  471MPD2    H3 7015   4.269   3.705  17.285 -0.3879  0.4294  0.8242
  471MPD2     N 7016   4.413   3.286  17.310  0.7808 -0.0484 -0.2769
  471MPD2    H5 7017   4.492   3.314  17.367  2.5233  0.8883 -3.1178
  471MPD2    N1 7018   3.985   3.380  17.122  0.6562 -0.3453  0.3759
  471MPD2    H7 7019   3.966   3.281  17.116  0.2344 -0.3025  0.8882
  472TMC3    C1 7020   3.782   3.356  16.993 -0.6335  0.1920 -0.3999
  472TMC3    C2 7021   3.754   3.372  16.861  0.3697  0.0401  0.0791
  472TMC3    C3 7022   3.711   3.263  16.791 -0.7726  0.9778 -0.8706
  472TMC3    C4 7023   3.753   3.241  17.054 -0.1547 -0.2038  0.1422
  472TMC3    C5 7024   3.713   3.134  16.982 -0.2850  0.0807  0.5946
  472TMC3    C6 7025   3.685   3.138  16.848  0.0844  0.6375  0.3173
  472TMC3     C 7026   3.887   3.448  17.048  0.8771  0.1046  0.2504
  472TMC3     O 7027   3.887   3.561  17.005 -0.2516  0.2657 -0.5816
  472TMC3     H 7028   3.766   3.468  16.811  1.5675 -0.7821 -1.1908
  472TMC3    H1 7029   3.782   3.236  17.159  1.6370 -0.6356 -0.3621
  472TMC3    H2 7030   3.646   3.054  16.792  0.4766  0.1859  0.7224
  472TMC3    C7 7031   3.672   3.019  17.053  0.2700 -0.7836  0.1204
  472TMC3    C8 7032   3.662   3.298  16.659 -0.4360 -0.0759  0.4120
  472TMC3    O1 7033   3.664   2.914  16.991  0.7152  0.4624 -0.7454
  472TMC3    O2 7034   3.655   3.415  16.618 -0.0208  0.3625  0.1832
  473MPD2     C 7035   3.806   0.536  14.066  0.6594 -1.0254  0.3439
  473MPD2    C1 7036   3.917   0.599  14.018  0.6209 -0.2429 -0.0079
  473MPD2    C2 7037   4.002   0.666  14.100 -0.8166  0.1287  0.7965
  473MPD2    C3 7038   3.983   0.662  14.238 -0.2092 -0.1940 -0.3607
  473MPD2    C4 7039   3.862   0.609  14.286 -0.4322 -0.4137  0.0407
  473MPD2    C5 7040   3.776   0.550  14.199  0.6378  0.5571 -0.6236
  473MPD2     H 7041   4.086   0.720  14.058 -1.3541  2.0006  2.1428
  473MPD2    H1 7042   3.839   0.611  14.392 -2.5664  1.1427 -0.4610
  473MPD2    H2 7043   3.721   0.507  14.004  1.3214  0.3057 -1.1718
  473MPD2    H3 7044   3.688   0.496  14.233  0.8167  0.3305 -0.5180
  473MPD2     N 7045   4.064   0.739  14.320 -0.3536  0.3092  0.5781
  473MPD2    H5 7046   4.035   0.753  14.417  0.7213 -0.3029  0.9867
  473MPD2    N1 7047   3.939   0.602  13.878 -0.5613  0.4083  0.2125
  473MPD2    H7 7048   4.004   0.673  13.845 -2.0228  2.9888  2.8593
  474TMC3    C1 7049   4.275   0.815  14.398  0.2995 -0.5302 -0.3979
  474TMC3    C2 7050   4.215   0.888  14.497 -0.1616 -0.5738  0.0530
  474TMC3    C3 7051   4.289   0.917  14.605  0.3500 -0.1149  1.0311
  474TMC3    C4 7052   4.404   0.769  14.409 -0.3135 -0.4168 -0.1002
  474TMC3    C5 7053   4.471   0.793  14.523  0.2983 -0.5405 -0.0510
  474TMC3    C6 7054   4.421   0.876  14.622 -0.6939 -0.4152 -0.5882
  474TMC3     C 7055   4.199   0.753  14.294  0.0451 -0.3623 -0.1153
  474TMC3     O 7056   4.264   0.707  14.201  1.1507  0.4632 -0.4500
  474TMC3     H 7057   4.108   0.909  14.500 -0.1384 -0.2861 -1.1141
  474TMC3    H1 7058   4.459   0.718  14.330  0.3744 -1.2631  0.9323
  474TMC3    H2 7059   4.487   0.911  14.700 -3.1344  0.3197  1.1260
  474TMC3    C7 7060   4.595   0.717  14.554  0.2555  0.9497  0.4919
  474TMC3    C8 7061   4.234   1.014  14.694 -0.3067 -0.5349 -0.2983
  474TMC3    O1 7062   4.632   0.628  14.480 -0.1164 -0.2452  0.2931
  474TMC3    O2 7063   4.113   1.016  14.721  0.2239  0.0447  0.0060
  475MPD2     C 7064   2.728   3.144   9.854 -0.0668  0.3437 -0.3240
  475MPD2    C1 7065   2.731   3.271   9.902 -0.0772 -0.2914  0.1412
  475MPD2    C2 7066   2.614   3.339   9.905 -0.1068 -0.0991  0.2403
  475MPD2    C3 7067   2.496   3.283   9.875  0.6287  0.0915 -0.0774
  475MPD2    C4 7068   2.490   3.151   9.840  0.0569  0.2449 -0.4570
  475MPD2    C5 7069   2.611   3.075   9.831  0.2832  0.4568  0.5335
  475MPD2     H 7070   2.618   3.437   9.951  0.9582  0.0427 -0.1706
  475MPD2    H1 7071   2.402   3.093   9.813  1.3218 -1.4370 -0.9034
  475MPD2    H2 7072   2.818   3.085   9.837 -0.1705  0.2762 -0.6449
  475MPD2    H3 7073   2.608   2.973   9.793 -0.4818  0.3746  0.8192
  475MPD2     N 7074   2.377   3.361   9.867 -0.2892  0.4205 -0.1065
  475MPD2    H5 7075   2.383   3.459   9.892 -1.6713  0.3899  0.3278
  475MPD2    N1 7076   2.856   3.330   9.926 -0.0014 -0.0644  0.2093
  475MPD2    H7 7077   2.941   3.289   9.889  0.4080  0.4941  0.5287
  476TMC3    C1 7078   2.997   3.466  10.035 -0.7118 -0.3611 -0.1311
  476TMC3    C2 7079   3.016   3.537   9.916  0.1952 -0.5610 -0.1954
  476TMC3    C3 7080   3.039   3.672   9.921  0.2391 -0.0991  0.0064
  476TMC3    C4 7081   3.011   3.538  10.154  0.7923  0.3008  1.2804
  476TMC3    C5 7082   3.040   3.670  10.149  0.3867 -0.2961 -0.3098
  476TMC3    C6 7083   3.066   3.736  10.037  1.0035 -0.3698  0.8827
  476TMC3     C 7084   2.869   3.405  10.039 -0.4085 -0.2854 -0.1593
  476TMC3     O 7085   2.784   3.440  10.119  0.0646 -0.4770 -0.1405
  476TMC3     H 7086   3.034   3.477   9.828 -0.1555 -1.1001  0.1047
  476TMC3    H1 7087   2.987   3.497  10.251  0.9246 -1.4418  0.5881
  476TMC3    H2 7088   3.099   3.840  10.029  1.8500 -0.7662 -0.7613
  476TMC3    C7 7089   3.087   3.725  10.281  0.0939 -0.0258 -0.5143
  476TMC3    C8 7090   2.946   3.756   9.835 -0.3686  0.4494 -0.2691
  476TMC3    O1 7091   3.098   3.652  10.376  0.2640 -0.0366 -0.2024
  476TMC3    O2 7092   2.899   3.856   9.886 -0.0930  0.2267  0.1366
  477MPD2     C 7093   0.496   0.558  11.537  0.6718  0.1120 -0.0902
  477MPD2    C1 7094   0.370   0.508  11.563 -0.1147  0.4693  0.4143
  477MPD2    C2 7095   0.357   0.370  11.601 -0.0874 -0.2809 -1.1214
  477MPD2    C3 7096   0.473   0.301  11.632 -0.6662 -0.8536 -0.3844
  477MPD2    C4 7097   0.593   0.352  11.609  0.5918  0.0508  0.0514
  477MPD2    C5 7098   0.607   0.476  11.552  0.7080  0.3333 -0.2059
  477MPD2     H 7099   0.263   0.321  11.621  0.4258  0.0885  2.1050
  477MPD2    H1 7100   0.683   0.301  11.642  0.7878 -0.2637 -0.9562
  477MPD2    H2 7101   0.509   0.653  11.486  1.4327  0.3947  0.6277
  477MPD2    H3 7102   0.704   0.505  11.514 -0.2754  0.4762 -2.5967
  477MPD2     N 7103   0.447   0.170  11.666  0.3778  0.5302  0.2961
  477MPD2    H5 7104   0.359   0.143  11.707  0.3758 -1.0510 -0.7678
  477MPD2    N1 7105   0.261   0.585  11.524 -0.4318 -0.4253  0.1214
  477MPD2    H7 7106   0.276   0.674  11.479 -0.7972 -0.8072 -0.7559
  478TMC3    C1 7107   0.034   0.651  11.498  0.4581  0.0796 -0.8888
  478TMC3    C2 7108   4.654   0.687  11.579  0.6717 -0.0504 -0.0876
  478TMC3    C3 7109   4.570   0.780  11.538  0.4362  0.0324  0.6478
  478TMC3    C4 7110   0.061   0.708  11.378  0.0181 -0.0029  0.0511
  478TMC3    C5 7111   4.696   0.801  11.335  0.1132  0.3928 -0.1074
  478TMC3    C6 7112   4.582   0.842  11.412 -0.5388 -0.0475 -0.0029
  478TMC3     C 7113   0.133   0.544  11.542 -0.3747  0.4312 -0.9563
  478TMC3     O 7114   0.088   0.456  11.615  0.3770 -0.1417  0.1583
  478TMC3     H 7115   4.627   0.626  11.665  2.2027  0.1155  0.5099
  478TMC3    H1 7116   0.137   0.673  11.308  0.0769  0.8577 -0.3165
  478TMC3    H2 7117   4.524   0.926  11.375  0.9107  0.8106 -0.3365
  478TMC3    C7 7118   0.008   0.864  11.205 -0.2642 -0.2989 -0.1536
  478TMC3    C8 7119   4.443   0.793  11.616  0.3651 -0.2761 -0.3903
  478TMC3    O1 7120   0.123   0.861  11.173 -0.0920  0.1059 -0.0412
  478TMC3    O2 7121   4.390   0.687  11.653 -0.3417 -0.4149  0.2319
  479MPD2     C 7122   3.719   2.751  15.278  0.0895 -0.0681  0.3324
  479MPD2    C1 7123   3.723   2.639  15.362 -0.3152  0.3504 -0.0105
  479MPD2    C2 7124   3.833   2.625  15.443  0.1029 -0.1294  0.2280
  479MPD2    C3 7125   3.919   2.733  15.457 -0.7608  0.3935  0.5235
  479MPD2    C4 7126   3.921   2.834  15.363 -0.4624 -1.0463  0.2114
  479MPD2    C5 7127   3.819   2.845  15.275  0.3017  0.3792 -0.6704
  479MPD2     H 7128   3.841   2.540  15.511 -2.3915 -0.0694  0.6010
  479MPD2    H1 7129   3.999   2.908  15.357 -0.5189 -0.9584  0.6007
  479MPD2    H2 7130   3.635   2.767  15.212  0.0784 -1.4407  0.0149
  479MPD2    H3 7131   3.823   2.931  15.209 -1.5951  0.0954 -1.1346
  479MPD2     N 7132   4.023   2.731  15.548 -0.1733 -0.2051  0.1898
  479MPD2    H5 7133   4.103   2.789  15.525  2.0150 -2.4809  2.0519
  479MPD2    N1 7134   3.614   2.552  15.349 -0.4586 -0.0127 -0.4944
  479MPD2    H7 7135   3.550   2.553  15.270  0.8935  1.7066 -1.5878
  480TMC3    C1 7136   3.787   2.513  15.924 -0.0121 -0.5371  0.0226
  480TMC3    C2 7137   3.681   2.600  15.911 -0.1079 -0.1721 -0.6337
  480TMC3    C3 7138   3.685   2.704  15.814  0.1742  0.7857  0.3588
  480TMC3    C4 7139   3.896   2.530  15.841  0.3307 -1.0781  0.0883
  480TMC3    C5 7140   3.894   2.627  15.741 -0.9082  0.4687 -0.5207
  480TMC3    C6 7141   3.795   2.726  15.732  0.3768  0.1244 -0.2442
  480TMC3     C 7142   3.771   2.405  16.016 -0.1521  0.5205 -0.7283
  480TMC3     O 7143   3.820   2.295  15.983  0.0185  0.3333  0.0014
  480TMC3     H 7144   3.590   2.589  15.970 -0.7868  2.0082 -1.2620
  480TMC3    H1 7145   3.982   2.464  15.852  0.1950 -0.8466  2.6782
  480TMC3    H2 7146   3.796   2.809  15.663  0.7563  0.3706  0.0620
  480TMC3    C7 7147   4.020   2.659  15.670  0.2895 -0.0148  0.1792
  480TMC3    C8 7148   3.557   2.728  15.759 -0.1784  0.1775  0.0286
  480TMC3    O1 7149   4.120   2.611  15.723  0.2604 -0.2850 -0.2909
  480TMC3    O2 7150   3.449   2.685  15.791 -0.0043  0.2952  0.4929
  481MPD2     C 7151   0.795   1.262  13.946 -0.2388 -0.7107  0.4614
  481MPD2    C1 7152   0.786   1.324  14.072 -0.1433 -0.3344  0.7115
  481MPD2    C2 7153   0.842   1.268  14.180  0.5846  0.2584 -0.3333
  481MPD2    C3 7154   0.925   1.155  14.165 -0.6149  0.2326  0.5471
  481MPD2    C4 7155   0.950   1.106  14.035 -0.2195 -0.2588 -0.7746
  481MPD2    C5 7156   0.874   1.157  13.930 -0.0847 -0.4363  1.0001
  481MPD2     H 7157   0.824   1.303  14.281 -1.1673  0.9621 -0.8868
  481MPD2    H1 7158   1.007   1.018  14.008  0.9096  0.9237 -2.2653
  481MPD2    H2 7159   0.734   1.288  13.861 -0.9673 -1.0528  0.8717
  481MPD2    H3 7160   0.889   1.113  13.832 -2.6161  0.2177  0.3291
  481MPD2     N 7161   0.986   1.103  14.275 -0.1829  0.3053 -0.3218
  481MPD2    H5 7162   1.067   1.042  14.266  0.5948  1.2105  0.7000
  481MPD2    N1 7163   0.689   1.426  14.083 -0.0479  0.4342 -0.0615
  481MPD2    H7 7164   0.617   1.446  14.014  0.5730 -4.1259 -2.0008
  482TMC3    C1 7165   0.550   1.580  14.169  0.5579 -0.8997 -0.2652
  482TMC3    C2 7166   0.440   1.517  14.126 -0.3743 -0.5061  0.0552
  482TMC3    C3 7167   0.346   1.597  14.067 -0.4646  0.0186  0.1297
  482TMC3    C4 7168   0.573   1.714  14.169 -0.1086  0.3932  0.4835
  482TMC3    C5 7169   0.474   1.794  14.123 -0.6894  0.1774 -0.2742
  482TMC3    C6 7170   0.360   1.735  14.066 -0.4140 -0.4623  0.4408
  482TMC3     C 7171   0.661   1.498  14.196  0.4579 -0.1362  0.3823
  482TMC3     O 7172   0.733   1.534  14.290 -0.1751 -0.1704 -0.2794
  482TMC3     H 7173   0.428   1.411  14.109 -0.0062 -0.7065  1.0814
  482TMC3    H1 7174   0.661   1.753  14.219 -0.0368  1.0920 -0.1904
  482TMC3    H2 7175   0.290   1.799  14.013 -1.2543 -1.1821  0.6904
  482TMC3    C7 7176   0.480   1.938  14.101  0.1959 -0.6933  0.2007
  482TMC3    C8 7177   0.226   1.533  14.015  0.9619 -0.2861 -0.9796
  482TMC3    O1 7178   0.562   1.999  14.165 -0.3165  0.6495  0.5078
  482TMC3    O2 7179   0.236   1.412  14.023 -0.1717  0.5189 -0.1392
  483TMC3    C1 7180   3.384   1.421   1.268 -0.2161 -0.3133 -0.6324
  483TMC3    C2 7181   3.492   1.496   1.279  0.1249 -0.2681  0.7739
  483TMC3    C3 7182   3.553   1.502   1.405  0.1533 -0.2363  0.5951
  483TMC3    C4 7183   3.330   1.356   1.378  0.5029 -0.2495  0.3303
  483TMC3    C5 7184   3.390   1.353   1.496 -0.7019 -0.1916  1.0349
  483TMC3    C6 7185   3.507   1.427   1.510  0.2683  0.3229 -0.4028
  483TMC3     C 7186   3.381   1.347   1.143  0.8919 -0.6566 -0.9040
  483TMC3     O 7187   3.418   1.403   1.036  0.1880 -0.2377  0.4227
  483TMC3     H 7188   3.513   1.559   1.193  2.3992 -0.3498  1.2785
  483TMC3    H1 7189   3.247   1.288   1.360  0.8783 -0.8559  0.8930
  483TMC3    H2 7190   3.559   1.421   1.605  0.1790  0.6476 -0.3301
  483TMC3    C7 7191   3.364   1.233   1.573 -0.8098 -0.2602  0.1428
  483TMC3    C8 7192   3.697   1.522   1.393 -0.1624 -0.5000  0.4109
  483TMC3    O1 7193   3.322   1.138   1.505  0.0420 -0.0120 -0.1436
  483TMC3    O2 7194   3.746   1.503   1.284 -0.4255 -0.5987  0.2729
  484MPD2     C 7195   1.437   4.280  12.468  0.1119 -0.3592 -0.8363
  484MPD2    C1 7196   1.451   4.170  12.544 -0.5833 -0.7290 -0.0573
  484MPD2    C2 7197   1.563   4.099  12.533 -0.1171 -0.5234  0.0875
  484MPD2    C3 7198   1.670   4.152  12.453 -0.6068  0.6342 -0.4536
  484MPD2    C4 7199   1.655   4.275  12.392  0.1494  0.2366  1.0897
  484MPD2    C5 7200   1.532   4.334  12.386  0.1317 -0.1248  0.5055
  484MPD2     H 7201   1.565   4.007  12.589  1.4781 -0.6135 -0.1317
  484MPD2    H1 7202   1.732   4.302  12.320 -0.3776  1.5777  1.0213
  484MPD2    H2 7203   1.339   4.327  12.466  1.9179  3.4081  0.2023
  484MPD2    H3 7204   1.506   4.417  12.321 -2.3569 -1.1966  0.1214
  484MPD2     N 7205   1.794   4.086  12.423  0.6482  0.5554 -0.5320
  484MPD2    H5 7206   1.871   4.136  12.379 -0.3401  0.9409 -1.8100
  484MPD2    N1 7207   1.343   4.132  12.620 -0.1956  0.9365  0.2714
  484MPD2    H7 7208   1.261   4.190  12.611 -1.4124 -1.0451 -1.2800
  485TMC3    C1 7209   1.969   3.935  12.433  0.1594 -0.9238 -0.0806
  485TMC3    C2 7210   2.030   3.822  12.491 -0.1057  0.6307  0.5763
  485TMC3    C3 7211   2.165   3.808  12.478  0.4040  0.1611 -0.1911
  485TMC3    C4 7212   2.024   3.998  12.333  0.5138  0.4642  0.2869
  485TMC3    C5 7213   2.154   3.970  12.307  0.3270  0.0276 -0.1508
  485TMC3    C6 7214   2.227   3.895  12.393 -0.1910 -0.0610  0.4316
  485TMC3     C 7215   1.833   3.962  12.472 -0.6722 -0.2155 -0.2600
  485TMC3     O 7216   1.770   3.877  12.535 -0.4321 -0.1382  0.2646
  485TMC3     H 7217   1.970   3.760  12.557  2.1583 -0.0635  1.9587
  485TMC3    H1 7218   1.964   4.047  12.258 -0.2170 -0.3105  0.3645
  485TMC3    H2 7219   2.333   3.888  12.373 -0.4610 -0.4808 -0.8531
  485TMC3    C7 7220   2.193   3.969  12.168  0.3296 -0.8626  0.7706
  485TMC3    C8 7221   2.206   3.672  12.448 -0.2807  0.6346 -0.3098
  485TMC3    O1 7222   2.137   4.045  12.091  0.1088  0.3590  0.5027
  485TMC3    O2 7223   2.267   3.660  12.345 -0.0142  0.0355 -0.1059
  486MPD2     C 7224   3.515   3.016  13.398 -0.8658 -0.4893 -0.3283
  486MPD2    C1 7225   3.488   3.014  13.262  0.8182  1.0023  0.3447
  486MPD2    C2 7226   3.411   3.114  13.204  0.7353  0.0686  0.0087
  486MPD2    C3 7227   3.348   3.206  13.281  0.4508 -0.7573  0.1158
  486MPD2    C4 7228   3.383   3.214  13.417 -0.0497 -0.8276  0.0759
  486MPD2    C5 7229   3.454   3.115  13.471 -0.3232 -0.5548  0.3465
  486MPD2     H 7230   3.394   3.116  13.097 -0.2435 -0.9572  0.1442
  486MPD2    H1 7231   3.344   3.296  13.477 -0.6607 -1.8091  1.0206
  486MPD2    H2 7232   3.579   2.942  13.445 -2.0328 -2.3943 -1.7455
  486MPD2    H3 7233   3.480   3.116  13.576  1.2338  2.1970 -0.0798
  486MPD2     N 7234   3.259   3.289  13.211  0.0792 -0.2172  0.1812
  486MPD2    H5 7235   3.260   3.274  13.111 -0.1512 -0.8627  0.2788
  486MPD2    N1 7236   3.540   2.906  13.182 -0.0838  0.2847  0.6522
  486MPD2    H7 7237   3.597   2.841  13.236  0.5948 -0.4933 -0.9884
  487TMC3    C1 7238   3.549   2.752  13.009  0.2702 -0.3793  0.1828
  487TMC3    C2 7239   3.476   2.721  12.896 -0.4657 -0.0388  0.0889
  487TMC3    C3 7240   3.425   2.587  12.891  0.3392 -0.2084  0.2379
  487TMC3    C4 7241   3.580   2.662  13.106  0.0317 -0.2023 -0.0750
  487TMC3    C5 7242   3.547   2.532  13.088 -0.6772  0.0879  0.2677
  487TMC3    C6 7243   3.459   2.494  12.990  0.7299 -0.4967 -0.7489
  487TMC3     C 7244   3.521   2.887  13.050  0.6460  0.3949  0.5409
  487TMC3     O 7245   3.460   2.959  12.967  0.1577  0.1534  1.0496
  487TMC3     H 7246   3.444   2.783  12.813  3.2190  0.5747 -0.8700
  487TMC3    H1 7247   3.640   2.695  13.190 -2.3701  0.1271  1.4892
  487TMC3    H2 7248   3.453   2.389  12.964 -0.8086 -0.6022 -0.0057
  487TMC3    C7 7249   3.599   2.434  13.178 -0.7885  0.2456  0.1620
  487TMC3    C8 7250   3.359   2.543  12.781  0.1713  0.4925  0.1426
  487TMC3    O1 7251   3.636   2.477  13.285 -0.6261  0.3172 -0.4215
  487TMC3    O2 7252   3.353   2.609  12.683  0.0711 -0.4660  0.2796
  488MPD2     C 7253   3.329   4.432  16.928 -0.0995 -0.2269 -0.1157
  488MPD2    C1 7254   3.372   4.561  16.953 -0.2558  0.0304  0.0481
  488MPD2    C2 7255   3.368   4.608  17.087  0.3755  0.4242  0.2998
  488MPD2    C3 7256   3.341   4.520  17.191 -0.8676  0.0979 -0.4129
  488MPD2    C4 7257   3.327   4.388  17.162 -0.7319  0.1972 -0.0325
  488MPD2    C5 7258   3.316   4.345  17.030 -0.2641  0.4004  0.5734
  488MPD2     H 7259   3.389   4.712  17.108 -0.7982  0.6705  0.2539
  488MPD2    H1 7260   3.309   4.320  17.245 -1.2735  2.0502  1.3727
  488MPD2    H2 7261   3.314   4.406  16.824 -0.8317 -1.4217  0.2916
  488MPD2    H3 7262   3.298   4.239  17.015 -0.6023  0.4654  0.5289
  488MPD2     N 7263   3.330   4.554  17.330  0.0217 -0.8499  0.9180
  488MPD2    H5 7264   3.332   4.481  17.400  2.9631  0.7047  2.4774
  488MPD2    N1 7265   3.406   4.657  16.854  0.1967 -0.2252 -0.1522
  488MPD2    H7 7266   3.425   0.032  16.882  1.6790 -0.1341 -1.4915
  489TMC3    C1 7267   3.270   4.693  17.517  0.4704  0.0550  0.2400
  489TMC3    C2 7268   3.185   0.079  17.536  0.4304  0.4797 -0.5245
  489TMC3    C3 7269   3.207   0.159  17.640  0.7895 -0.1187  0.1631
  489TMC3    C4 7270   3.363   4.659  17.610  0.7788  0.5047 -0.4153
  489TMC3    C5 7271   3.386   0.035   0.025  0.6713  0.5583 -0.3610
  489TMC3    C6 7272   3.304   0.131   0.049 -0.1674 -0.0864  0.5025
  489TMC3     C 7273   3.307   4.684  17.378  0.1746 -0.1271  0.2486
  489TMC3     O 7274   3.292   0.064  17.309  0.2255  0.0535  0.2926
  489TMC3     H 7275   3.118   0.110  17.457 -1.6809 -1.5388  0.4549
  489TMC3    H1 7276   3.447   4.600  17.575  0.4411 -0.3242  0.1594
  489TMC3    H2 7277   3.322   0.197   0.134  0.5423 -0.8076  0.9126
  489TMC3    C7 7278   3.507   0.030   0.103  0.2276 -0.0576 -0.2026
  489TMC3    C8 7279   3.173   0.297  17.620  1.0154 -0.1543 -0.2556
  489TMC3    O1 7280   3.549   0.134   0.150  0.2219 -0.1214  0.2972
  489TMC3    O2 7281   3.182   0.338  17.504 -0.0852  0.6023  0.0881
  490MPD2     C 7282   4.282   4.097  17.526 -0.0115 -0.4437 -0.3313
  490MPD2    C1 7283   4.265   4.005  17.629  0.2260 -0.1968 -0.1042
  490MPD2    C2 7284   4.363   3.996   0.039  0.2705  0.1838  0.4219
  490MPD2    C3 7285   4.480   4.065   0.040  0.3931 -0.5926  0.5200
  490MPD2    C4 7286   4.504   4.158  17.624  0.2663  0.3375 -0.3210
  490MPD2    C5 7287   4.398   4.172  17.528 -0.1304 -0.8461 -0.3212
  490MPD2     H 7288   4.351   3.914   0.108  1.7543  0.6993  1.3023
  490MPD2    H1 7289   4.597   4.213  17.633 -0.3283  1.1030  1.1670
  490MPD2    H2 7290   4.211   4.111  17.445  0.0066  0.3468 -0.2127
  490MPD2    H3 7291   4.415   4.243  17.448  0.7742 -0.1358  0.5042
  490MPD2     N 7292   4.571   4.051   0.144 -0.2187  0.3218 -0.1881
  490MPD2    H5 7293   4.663   4.092   0.138 -1.4771  3.1620  0.1932
  490MPD2    N1 7294   4.153   3.913  17.644  0.1103  0.0555  0.5713
  490MPD2    H7 7295   4.165   3.857   0.045  1.1221 -2.0307 -0.9717
  491TMC3    C1 7296   3.941   3.819  17.631 -0.7995  0.5367  0.8120
  491TMC3    C2 7297   3.944   3.786   0.078  0.0508 -0.7741  0.0041
  491TMC3    C3 7298   3.830   3.728   0.135  0.1142 -0.4356  0.2788
  491TMC3    C4 7299   3.822   3.816  17.561 -0.3500 -0.1593  0.0501
  491TMC3    C5 7300   3.714   3.759  17.632  0.3637 -0.4252 -0.6859
  491TMC3    C6 7301   3.715   3.706   0.075  0.4343  0.3481 -0.5672
  491TMC3     C 7302   4.034   3.920  17.581  0.9160  0.0418 -0.2769
  491TMC3     O 7303   3.988   3.991  17.492 -0.3436 -0.6282 -0.6056
  491TMC3     H 7304   4.035   3.788   0.137  0.0856 -0.8906 -0.0471
  491TMC3    H1 7305   3.823   3.833  17.454 -1.6504 -1.4394 -0.1628
  491TMC3    H2 7306   3.628   3.673   0.130 -0.1730  0.0853 -1.6661
  491TMC3    C7 7307   3.588   3.733  17.556  0.0411  0.2805  0.3148
  491TMC3    C8 7308   3.832   3.702   0.279  0.5875  0.2053  0.3093
  491TMC3    O1 7309   3.517   3.640  17.593 -0.1397 -0.7898  0.1354
  491TMC3    O2 7310   3.725   3.689   0.335  0.7494 -0.2423  0.2901
  492MPD2     C 7311   4.489   4.016  11.264 -0.4528  0.2278  0.3826
  492MPD2    C1 7312   4.445   3.889  11.224  0.7291  0.1442 -0.7396
  492MPD2    C2 7313   4.389   3.803  11.320  1.3156 -0.0979 -0.0534
  492MPD2    C3 7314   4.348   3.861  11.435 -0.5899 -0.4675  0.2452
  492MPD2    C4 7315   4.386   3.986  11.465 -0.8737  0.1383  0.8398
  492MPD2    C5 7316   4.471   4.057  11.387 -0.0628 -0.0717  0.7362
  492MPD2     H 7317   4.366   3.700  11.298 -0.4718  0.3009 -0.0628
  492MPD2    H1 7318   4.364   4.029  11.562 -2.1437  0.1307  0.5546
  492MPD2    H2 7319   4.536   4.080  11.190  0.2318  0.9324  1.4297
  492MPD2    H3 7320   4.506   4.154  11.420 -1.0079 -1.2351  5.0685
  492MPD2     N 7321   4.265   3.792  11.532  0.4790  0.2411  0.6412
  492MPD2    H5 7322   4.260   3.829  11.626 -3.8059  1.9253 -0.2666
  492MPD2    N1 7323   4.476   3.839  11.096 -0.3056  0.0924  0.1005
  492MPD2    H7 7324   4.533   3.894  11.032 -1.4492  1.5127  0.3243
  493TMC3    C1 7325   4.452   3.731  10.881  0.3513 -1.1033 -0.0357
  493TMC3    C2 7326   4.571   3.793  10.833 -0.2130 -0.5399 -0.1684
  493TMC3    C3 7327   4.591   3.804  10.698  0.1211 -0.2281 -0.8967
  493TMC3    C4 7328   4.363   3.683  10.789 -0.5098  1.0750 -0.2778
  493TMC3    C5 7329   4.394   3.709  10.659 -0.1808 -0.3217  0.5951
  493TMC3    C6 7330   4.500   3.768  10.609  0.8865 -0.1397  0.3881
  493TMC3     C 7331   4.404   3.751  11.018  0.0347 -0.0889  0.1794
  493TMC3     O 7332   4.290   3.705  11.043  0.0624  0.5225  0.1813
  493TMC3     H 7333   4.647   3.833  10.899 -1.0228 -1.9209  1.5945
  493TMC3    H1 7334   4.265   3.646  10.814 -0.0905 -0.1140 -0.3613
  493TMC3    H2 7335   4.509   3.784  10.502 -1.3195  2.3649  0.5956
  493TMC3    C7 7336   4.304   3.643  10.561 -0.0092  0.4103  0.3973
  493TMC3    C8 7337   0.008   3.822  10.652 -0.5578 -0.2401 -0.4087
  493TMC3    O1 7338   4.284   3.696  10.450 -0.3571  0.0797 -0.6059
  493TMC3    O2 7339   0.098   3.804  10.735 -0.5510  0.7860  0.4447
  494TMC3    C1 7340   4.709   0.802   0.485  0.6048 -0.0162  0.3617
  494TMC3    C2 7341   0.067   0.697   0.474 -0.3780  0.4065  0.1053
  494TMC3    C3 7342   0.172   0.711   0.384  0.2378 -0.7084  0.4552
  494TMC3    C4 7343   0.009   0.928   0.429  0.3742  1.0229 -0.0800
  494TMC3    C5 7344   0.115   0.936   0.345 -0.2265 -0.2843 -0.0448
  494TMC3    C6 7345   0.197   0.832   0.317  0.0905  0.1935 -1.3236
  494TMC3     C 7346   4.636   0.797   0.610  0.1556 -0.2446 -0.4266
  494TMC3     O 7347   4.527   0.847   0.609  0.0874  0.8128 -0.0468
  494TMC3     H 7348   0.049   0.602   0.523 -3.2939  1.0660  0.3535
  494TMC3    H1 7349   4.659   1.010   0.444 -0.2739  0.3944  0.4077
  494TMC3    H2 7350   0.289   0.856   0.264  2.2432 -2.0972  1.3499
  494TMC3    C7 7351   0.113   1.020   0.232 -0.4529  0.3000  0.5957
  494TMC3    C8 7352   0.266   0.603   0.376 -0.9477 -0.4494  0.0001
  494TMC3    O1 7353   0.160   0.973   0.130 -0.0271  0.0701  0.5293
  494TMC3    O2 7354   0.265   0.519   0.464  0.0930 -0.6654  0.5227
  495TMC3    C1 7355   3.784   3.112  14.962 -0.3785 -0.6404  0.3545
  495TMC3    C2 7356   3.717   3.058  14.860  1.0908 -0.7089 -0.4854
  495TMC3    C3 7357   3.579   3.042  14.869  0.0887  0.0418  0.7815
  495TMC3    C4 7358   3.726   3.153  15.075 -0.8241  0.3162  0.7050
  495TMC3    C5 7359   3.593   3.117  15.086  0.5664 -0.6403 -0.8597
  495TMC3    C6 7360   3.519   3.078  14.989 -0.1346  0.6486 -0.2633
  495TMC3     C 7361   3.923   3.063  15.001 -0.1103  0.2404  0.5001
  495TMC3     O 7362   3.992   3.130  15.075 -0.3844 -0.3459  0.2677
  495TMC3     H 7363   3.765   3.032  14.766  0.6168 -0.5153 -0.7823
  495TMC3    H1 7364   3.785   3.185  15.161  1.5936  0.0566 -0.8434
  495TMC3    H2 7365   3.415   3.054  15.003  0.0629  1.6003  2.8920
  495TMC3    C7 7366   3.542   3.100  15.213 -0.2250 -0.0204  0.5821
  495TMC3    C8 7367   3.497   2.982  14.763 -0.0262  0.0013 -0.1418
  495TMC3    O1 7368   3.608   3.152  15.303 -0.2614 -0.2061  0.3975
  495TMC3    O2 7369   3.378   3.001  14.782  0.7680  0.4739 -0.3198
  496MPD2     C 7370   1.586   2.970  15.739  0.4103 -0.3157 -0.3462
  496MPD2    C1 7371   1.458   2.973  15.711 -0.3482 -0.0975 -0.0366
  496MPD2    C2 7372   1.378   3.043  15.804  0.1324  0.9965  0.7711
  496MPD2    C3 7373   1.435   3.083  15.929 -0.0012 -0.7083  1.0527
  496MPD2    C4 7374   1.573   3.075  15.948 -0.2767  0.7284  0.4236
  496MPD2    C5 7375   1.648   3.018  15.849 -0.0012 -0.2771  0.4260
  496MPD2     H 7376   1.274   3.055  15.779 -0.0157 -1.0073  0.4400
  496MPD2    H1 7377   1.620   3.085  16.045 -0.4783  1.6621  0.4204
  496MPD2    H2 7378   1.648   2.910  15.675 -0.1496 -1.1032 -0.1441
  496MPD2    H3 7379   1.750   2.991  15.875 -0.3795 -0.9190  1.2153
  496MPD2     N 7380   1.358   3.137  16.036 -0.3279 -0.1233  0.2445
  496MPD2    H5 7381   1.409   3.162  16.120  1.4612 -0.3256 -0.7980
  496MPD2    N1 7382   1.410   2.906  15.594  0.3237 -0.2866 -0.4702
  496MPD2    H7 7383   1.477   2.882  15.522 -0.1740 -0.1579 -0.9712
  497TMC3    C1 7384   1.159   3.193  16.157 -0.3268 -0.3141 -0.8951
  497TMC3    C2 7385   1.031   3.230  16.144  0.5262 -0.0638 -0.1364
  497TMC3    C3 7386   0.939   3.209  16.250 -0.3364 -0.3236  0.4316
  497TMC3    C4 7387   1.206   3.152  16.278  0.5423 -0.3145  0.0455
  497TMC3    C5 7388   1.117   3.149  16.386  0.1226 -0.5746  0.3342
  497TMC3    C6 7389   0.981   3.155  16.368 -0.0002  0.4627  0.2634
  497TMC3     C 7390   1.222   3.156  16.030 -0.6964 -0.2019  0.0618
  497TMC3     O 7391   1.148   3.155  15.935  0.2292  0.0888 -0.1360
  497TMC3     H 7392   0.996   3.272  16.050  1.2969 -0.5205 -0.6275
  497TMC3    H1 7393   1.310   3.121  16.279  1.1646  1.8355  0.9167
  497TMC3    H2 7394   0.914   3.136  16.451 -0.2455 -1.5686 -0.4036
  497TMC3    C7 7395   1.150   3.078  16.500  1.1388 -0.0585  0.1514
  497TMC3    C8 7396   0.798   3.230  16.239 -0.4936 -0.6805 -0.5276
  497TMC3    O1 7397   1.062   3.047  16.576 -0.4708  0.3421 -0.6392
  497TMC3    O2 7398   0.731   3.174  16.321 -0.1013 -0.4719  0.1777
  498MPD2     C 7399   1.709   3.441   9.531 -0.0858 -0.0272  0.5989
  498MPD2    C1 7400   1.728   3.307   9.512  1.1460  0.4996  0.0245
  498MPD2    C2 7401   1.655   3.222   9.589  0.5789 -0.6748 -0.1020
  498MPD2    C3 7402   1.547   3.266   9.672 -0.5382 -0.0309 -0.0317
  498MPD2    C4 7403   1.524   3.402   9.685  0.5045  0.2838 -1.6274
  498MPD2    C5 7404   1.608   3.488   9.619  0.2829 -0.0797 -0.3479
  498MPD2     H 7405   1.686   3.118   9.594 -0.9733 -1.0756  1.1880
  498MPD2    H1 7406   1.437   3.442   9.736  1.5192 -0.3998  0.6484
  498MPD2    H2 7407   1.771   3.511   9.476 -1.6658  0.0630 -1.1056
  498MPD2    H3 7408   1.598   3.595   9.635 -0.3052 -0.2179  0.2194
  498MPD2     N 7409   1.471   3.169   9.732 -0.3346  0.2868 -0.4015
  498MPD2    H5 7410   1.479   3.071   9.707  1.6776  0.5376 -0.7202
  498MPD2    N1 7411   1.826   3.249   9.422 -0.1071 -0.1090 -0.3261
  498MPD2    H7 7412   1.832   3.149   9.434 -0.3482 -0.2708 -1.5291
  499TMC3    C1 7413   1.981   3.236   9.252  0.1333 -0.2602  0.0282
  499TMC3    C2 7414   1.932   3.120   9.194  0.8188 -0.0060 -0.4420
  499TMC3    C3 7415   2.024   3.042   9.134  0.0143 -0.3348 -0.0807
  499TMC3    C4 7416   2.105   3.287   9.234 -0.1080 -0.2882 -0.0933
  499TMC3    C5 7417   2.187   3.215   9.150 -0.5009 -0.1676 -0.4508
  499TMC3    C6 7418   2.155   3.088   9.114 -0.3240  0.4936  0.5211
  499TMC3     C 7419   1.896   3.320   9.331 -0.1083  0.8350  0.4235
  499TMC3     O 7420   1.915   3.435   9.323  0.3702 -0.1744  0.1044
  499TMC3     H 7421   1.826   3.104   9.211  1.1501  0.1945  1.7555
  499TMC3    H1 7422   2.140   3.385   9.265  0.9037  0.3728 -3.3284
  499TMC3    H2 7423   2.231   3.023   9.072  0.2643  1.7533 -0.3641
  499TMC3    C7 7424   2.322   3.262   9.123  0.2182  0.1636 -0.1966
  499TMC3    C8 7425   1.984   2.912   9.087  0.5824 -0.2600  0.6427
  499TMC3    O1 7426   2.360   3.338   9.209  0.2272 -0.3197  0.1323
  499TMC3    O2 7427   2.041   2.861   8.993  0.3972  0.0672 -0.2355
  500MPD2     C 7428   3.751   0.635   9.439 -0.3487  0.4238 -1.0951
  500MPD2    C1 7429   3.810   0.556   9.534 -0.4478 -0.0700 -0.8731
  500MPD2    C2 7430   3.797   0.420   9.513 -0.1299 -0.2738 -0.2726
  500MPD2    C3 7431   3.715   0.362   9.418  0.4216  0.2181  0.1929
  500MPD2    C4 7432   3.650   0.445   9.338  0.3322  0.5559 -0.0707
  500MPD2    C5 7433   3.676   0.579   9.342  0.1539  0.3263 -0.0863
  500MPD2     H 7434   3.841   0.352   9.584 -0.0594  0.3159  0.2535
  500MPD2    H1 7435   3.581   0.402   9.265  2.1236 -2.5497  0.0738
  500MPD2    H2 7436   3.760   0.743   9.439 -0.1686  0.4042 -2.8412
  500MPD2    H3 7437   3.607   0.634   9.279 -2.7424 -2.4205  0.6712
  500MPD2     N 7438   3.689   0.224   9.405 -0.2249 -0.3717 -0.1767
  500MPD2    H5 7439   3.624   0.207   9.329  0.7899 -0.1688 -1.0874
  500MPD2    N1 7440   3.888   0.591   9.647 -0.8080 -0.5527  0.1052
  500MPD2    H7 7441   3.939   0.516   9.691 -1.6503 -1.1723  0.0418
  501TMC3    C1 7442   3.963   0.736   9.813  0.6079 -0.2321 -0.4267
  501TMC3    C2 7443   4.011   0.864   9.839  0.6370 -0.7790 -0.5104
  501TMC3    C3 7444   4.095   0.884   9.945 -0.8409  0.1676 -0.1771
  501TMC3    C4 7445   4.008   0.630   9.889 -0.9152  0.8388 -0.0023
  501TMC3    C5 7446   4.090   0.654  10.000  0.3765 -0.1369  0.5770
  501TMC3    C6 7447   4.136   0.781  10.019  0.0469  0.2433  0.2385
  501TMC3     C 7448   3.879   0.721   9.692 -0.3590  0.2012  0.2539
  501TMC3     O 7449   3.821   0.819   9.647  0.0501  0.0584 -0.2681
  501TMC3     H 7450   3.993   0.951   9.778 -1.4176  0.1407  1.4199
  501TMC3    H1 7451   3.975   0.528   9.872 -0.0679  0.0673  2.8428
  501TMC3    H2 7452   4.210   0.803  10.094  0.4582  0.6723 -0.2928
  501TMC3    C7 7453   4.107   0.561  10.112  0.1988 -0.1718 -0.4461
  501TMC3    C8 7454   4.104   1.014  10.006 -0.4571 -0.0046 -0.1647
  501TMC3    O1 7455   4.187   0.585  10.200  0.3243  0.4294  0.4191
  501TMC3    O2 7456   4.197   1.039  10.077  0.1008  0.2713  0.3743
  502TMC3    C1 7457   2.749   3.174  15.127  1.0222  0.2259  0.2516
  502TMC3    C2 7458   2.764   3.223  14.998  0.1620 -0.7951  0.0833
  502TMC3    C3 7459   2.715   3.353  14.985 -0.0716 -0.0488 -0.2843
  502TMC3    C4 7460   2.662   3.231  15.216  1.2406  0.3908  0.6663
  502TMC3    C5 7461   2.593   3.346  15.182  0.1031 -0.7613  0.3516
  502TMC3    C6 7462   2.624   3.411  15.068 -0.7790  0.0804 -0.1100
  502TMC3     C 7463   2.879   3.185  15.180  0.3087  0.1283 -0.3103
  502TMC3     O 7464   2.969   3.169  15.101  0.4049  0.0442 -0.1019
  502TMC3     H 7465   2.826   3.174  14.924 -0.3345 -1.4838  0.1226
  502TMC3    H1 7466   2.642   3.183  15.311 -0.9324  0.6869  0.3618
  502TMC3    H2 7467   2.587   3.511  15.052 -1.1558 -0.0059  0.2017
  502TMC3    C7 7468   2.546   3.420  15.291  0.2481  0.2867  0.0604
  502TMC3    C8 7469   2.810   3.458  14.937  1.0634  0.0651 -0.0196
  502TMC3    O1 7470   2.605   3.399  15.396 -0.2420  0.6020 -0.8257
  502TMC3    O2 7471   2.781   3.578  14.941 -0.2829  0.2485 -0.7111
  503MPD2     C 7472   0.755   0.019  16.389  0.4723  0.2512  0.8598
  503MPD2    C1 7473   0.768   0.041  16.523  0.3488 -0.1224  0.4179
  503MPD2    C2 7474   0.834   4.671  16.599  0.1970 -0.1732  0.2976
  503MPD2    C3 7475   0.870   4.550  16.558  0.2920 -0.0263  0.1709
  503MPD2    C4 7476   0.861   4.524  16.423  0.2441 -0.1136  0.5520
  503MPD2    C5 7477   0.799   4.614  16.341 -0.1509  0.2441 -0.9241
  503MPD2     H 7478   0.849   4.696  16.704  1.2018 -0.7894  0.3030
  503MPD2    H1 7479   0.878   4.425  16.382 -1.2819 -0.5275  0.9244
  503MPD2    H2 7480   0.712   0.089  16.318  0.0183 -0.0156  0.8717
  503MPD2    H3 7481   0.793   4.583  16.237 -0.7487  0.5310 -0.9769
  503MPD2     N 7482   0.911   4.448  16.648  0.9098  0.1265 -0.7556
  503MPD2    H5 7483   0.896   4.465  16.747  0.0550  0.6970 -0.9831
  503MPD2    N1 7484   0.738   0.164  16.592 -0.1265 -0.3617  0.1795
  503MPD2    H7 7485   0.770   0.173  16.688  0.5168  1.9650 -0.2578
  504TMC3    C1 7486   1.004   4.234  16.709  0.3091  0.0813  0.2654
  504TMC3    C2 7487   0.953   4.240  16.834 -0.3455  0.8864 -0.6332
  504TMC3    C3 7488   0.969   4.135  16.922 -0.0176 -0.7081  0.1100
  504TMC3    C4 7489   1.085   4.127  16.678  0.0931 -0.2302 -0.3387
  504TMC3    C5 7490   1.102   4.025  16.767  0.1410  0.0419  0.7768
  504TMC3    C6 7491   1.039   4.024  16.888 -0.9347 -0.5891 -0.0975
  504TMC3     C 7492   0.990   4.337  16.609  0.1616 -0.3457  0.4058
  504TMC3     O 7493   1.036   4.304  16.502 -0.4465 -0.4638 -0.4690
  504TMC3     H 7494   0.892   4.324  16.866 -2.5684 -1.3101  0.9406
  504TMC3    H1 7495   1.132   4.112  16.582 -2.2067 -1.3376 -1.2798
  504TMC3    H2 7496   1.049   3.946  16.963  1.0468 -0.1260  0.1042
  504TMC3    C7 7497   1.198   3.923  16.746  0.8416 -0.2086 -0.4319
  504TMC3    C8 7498   0.904   4.153  17.056 -0.2285  0.5082  0.6708
  504TMC3    O1 7499   1.298   3.961  16.685  0.0604  0.1037  0.4927
  504TMC3    O2 7500   0.859   4.262  17.091  0.0552 -0.1480 -0.0269
  505MPD2     C 7501   0.881   1.681  10.289 -0.6304 -0.3576 -0.1815
  505MPD2    C1 7502   0.920   1.795  10.226  0.5562  0.2711  0.5018
  505MPD2    C2 7503   0.908   1.915  10.296  0.1830  0.3108 -0.4795
  505MPD2    C3 7504   0.883   1.911  10.433  0.8503 -0.5355 -0.4765
  505MPD2    C4 7505   0.854   1.792  10.496 -0.0576  1.3632  0.1449
  505MPD2    C5 7506   0.849   1.680  10.423  0.4129  0.1942  0.4346
  505MPD2     H 7507   0.939   2.011  10.258 -1.3638  0.9252 -0.1645
  505MPD2    H1 7508   0.840   1.791  10.604  1.3754 -0.4067  0.3034
  505MPD2    H2 7509   0.876   1.587  10.235 -2.3997  0.1025 -0.8261
  505MPD2    H3 7510   0.817   1.586  10.468  1.0901 -0.3461 -0.2000
  505MPD2     N 7511   0.879   2.031  10.514 -0.4895  0.6876  0.4918
  505MPD2    H5 7512   0.850   2.020  10.610  2.8923 -1.5951  1.2501
  505MPD2    N1 7513   0.970   1.780  10.097  0.1949  1.0004 -0.1946
  505MPD2    H7 7514   0.978   1.684  10.067 -0.4633  0.9362 -0.1662
  506TMC3    C1 7515   1.087   1.843   9.900 -0.1473  0.1000 -0.2273
  506TMC3    C2 7516   1.093   1.920   9.783  0.1159 -0.1145 -0.3943
  506TMC3    C3 7517   1.221   1.931   9.728 -0.3875 -0.1992 -0.0773
  506TMC3    C4 7518   1.201   1.787   9.955  0.3009  0.4578  0.4570
  506TMC3    C5 7519   1.321   1.811   9.897  0.3302  0.6300  0.1489
  506TMC3    C6 7520   1.337   1.884   9.785  0.2575 -0.4046 -0.5012
  506TMC3     C 7521   0.998   1.885  10.009 -0.0807 -0.4306  0.1686
  506TMC3     O 7522   0.971   2.000  10.017 -0.2866  0.4017  0.8319
  506TMC3     H 7523   1.002   1.967   9.747  0.3038 -0.0277 -0.7549
  506TMC3    H1 7524   1.193   1.723  10.042  0.9575 -1.2694 -0.7397
  506TMC3    H2 7525   1.433   1.895   9.736  1.1037  0.5755  1.3636
  506TMC3    C7 7526   1.420   1.854   9.996 -0.1330 -0.2137 -0.9052
  506TMC3    C8 7527   1.247   2.040   9.632 -0.0473  0.8267  0.0538
  506TMC3    O1 7528   1.536   1.839   9.974  1.0159 -0.9369  0.6377
  506TMC3    O2 7529   1.319   2.013   9.537 -0.3315 -0.1444  0.4297
  507TMC3    C1 7530   1.355   3.971  14.941  0.0057  0.1041 -0.9805
  507TMC3    C2 7531   1.273   3.864  14.905  0.3229  0.4650 -0.3313
  507TMC3    C3 7532   1.329   3.763  14.830  0.0422 -0.2965 -0.0386
  507TMC3    C4 7533   1.487   3.964  14.903  0.2870 -0.5535 -1.0800
  507TMC3    C5 7534   1.541   3.868  14.821 -0.0999  0.6840  0.3785
  507TMC3    C6 7535   1.459   3.763  14.790  0.4782 -0.0441  0.7434
  507TMC3     C 7536   1.320   4.064  15.049 -0.2228  0.4568  0.3978
  507TMC3     O 7537   1.233   4.033  15.128 -0.0844  0.3269  0.5647
  507TMC3     H 7538   1.169   3.875  14.932  0.5053 -1.5579  1.2420
  507TMC3    H1 7539   1.561   4.037  14.935 -1.2483 -0.0324  1.2370
  507TMC3    H2 7540   1.504   3.682  14.734 -1.0550  0.4036 -1.1455
  507TMC3    C7 7541   1.587   3.918  14.692  0.1079 -0.4490 -0.2166
  507TMC3    C8 7542   1.246   3.712  14.723  0.3829  0.0517 -0.0875
  507TMC3    O1 7543   1.567   3.871  14.584  0.3809  0.3508  0.5607
  507TMC3    O2 7544   1.131   3.687  14.748  0.6358  0.7185 -0.1918
  508MPD2     C 7545   2.479   1.155  15.789  0.4685  0.6287 -0.4541
  508MPD2    C1 7546   2.487   1.266  15.866  0.2595 -0.6882 -0.0779
  508MPD2    C2 7547   2.458   1.389  15.810  0.3055 -0.2780 -0.5713
  508MPD2    C3 7548   2.421   1.406  15.677  0.0306 -0.4342  0.2086
  508MPD2    C4 7549   2.420   1.289  15.599  0.4603 -0.1655 -0.6471
  508MPD2    C5 7550   2.441   1.165  15.656 -0.8927  0.2837 -0.1688
  508MPD2     H 7551   2.467   1.475  15.876 -0.3653  0.8026 -1.8978
  508MPD2    H1 7552   2.399   1.282  15.493  0.9022  0.7757 -0.8024
  508MPD2    H2 7553   2.490   1.055  15.830 -1.7001  0.9164  0.8386
  508MPD2    H3 7554   2.445   1.078  15.592 -0.0098 -1.4448  2.2506
  508MPD2     N 7555   2.406   1.536  15.624  0.6096 -0.5597  0.2221
  508MPD2    H5 7556   2.424   1.616  15.683  0.0960 -0.7819  0.6808
  508MPD2    N1 7557   2.529   1.261  16.004  0.3522 -0.5195 -0.0376
  508MPD2    H7 7558   2.515   1.345  16.058 -0.2499 -0.8141  0.2655
  509TMC3    C1 7559   2.309   1.901  15.372 -0.8261  0.7351 -0.1474
  509TMC3    C2 7560   2.415   1.965  15.433  0.0614  0.3425  0.1741
  509TMC3    C3 7561   2.515   1.894  15.494 -0.3998  0.3956 -0.0237
  509TMC3    C4 7562   2.302   1.767  15.377 -0.4259 -0.2070 -0.1598
  509TMC3    C5 7563   2.396   1.696  15.450  0.9310 -0.0243 -0.2737
  509TMC3    C6 7564   2.503   1.757  15.508  0.4441  0.0551 -0.7708
  509TMC3     C 7565   2.187   1.973  15.327  0.4744  0.4609  0.0889
  509TMC3     O 7566   2.119   1.931  15.233  0.6843  0.1190  0.3330
  509TMC3     H 7567   2.422   2.073  15.426 -0.0375  0.1520 -2.8232
  509TMC3    H1 7568   2.219   1.707  15.341  0.4185 -1.3180 -0.2600
  509TMC3    H2 7569   2.588   1.711  15.556 -1.3401  0.1596  2.4516
  509TMC3    C7 7570   2.354   1.561  15.499 -0.2206 -0.2134 -0.2195
  509TMC3    C8 7571   2.629   1.949  15.560  0.1484 -0.0342  1.0466
  509TMC3    O1 7572   2.282   1.495  15.428  0.0865 -0.1222 -0.1573
  509TMC3    O2 7573   2.717   1.869  15.589 -0.1408  0.3987 -0.2334
  510MPD2     C 7574   0.791   3.418  14.795 -0.8327  0.3080 -0.5116
  510MPD2    C1 7575   0.788   3.282  14.823  0.0430 -0.0187  0.1994
  510MPD2    C2 7576   0.856   3.193  14.742 -0.3078 -0.3909 -0.0005
  510MPD2    C3 7577   0.940   3.237  14.647  0.1862 -0.1770 -0.2916
  510MPD2    C4 7578   0.945   3.372  14.619 -0.6499  0.2511 -0.4053
  510MPD2    C5 7579   0.856   3.461  14.681  0.1328  0.0483 -0.2654
  510MPD2     H 7580   0.845   3.086  14.755 -2.8460 -0.1595 -0.2518
  510MPD2    H1 7581   1.005   3.416  14.541  1.3417  1.3457  1.7599
  510MPD2    H2 7582   0.731   3.492  14.847  0.4061 -1.1840  3.0046
  510MPD2    H3 7583   0.848   3.565  14.654 -0.2621  0.1751  0.3368
  510MPD2     N 7584   1.017   3.144  14.573 -0.5079 -0.2759 -0.0481
  510MPD2    H5 7585   1.000   3.044  14.583 -0.6691 -0.2219  0.1990
  510MPD2    N1 7586   0.700   3.253  14.935  0.0861 -0.4133 -0.4911
  510MPD2    H7 7587   0.624   3.320  14.944  0.7408  0.2356  0.1688
  511TMC3    C1 7588   0.608   3.111  15.101  0.1095  0.1906 -0.3106
  511TMC3    C2 7589   0.504   3.193  15.138 -0.7230 -0.0555  0.3541
  511TMC3    C3 7590   0.400   3.137  15.210  0.6032  0.3035 -0.2560
  511TMC3    C4 7591   0.618   2.980  15.147 -0.0523 -0.6593  0.1533
  511TMC3    C5 7592   0.502   2.930  15.208 -0.7448 -0.2813  0.9034
  511TMC3    C6 7593   0.391   3.003  15.235 -0.9441 -0.1978 -0.1828
  511TMC3     C 7594   0.727   3.150  15.019 -0.6838  0.6689 -0.1925
  511TMC3     O 7595   0.830   3.078  15.021 -0.4904 -0.0394 -0.6259
  511TMC3     H 7596   0.512   3.299  15.118 -1.5534 -0.3223 -1.4150
  511TMC3    H1 7597   0.689   2.912  15.101  0.0300 -0.4086 -0.0882
  511TMC3    H2 7598   0.295   2.964  15.266 -1.1021 -1.1690 -1.9055
  511TMC3    C7 7599   0.512   2.788  15.225  0.0386 -0.3199 -0.2355
  511TMC3    C8 7600   0.325   3.222  15.300 -0.2860  0.2319 -0.0548
  511TMC3    O1 7601   0.597   2.727  15.165  0.0269 -0.3260 -0.3386
  511TMC3    O2 7602   0.304   3.336  15.269 -0.3281 -0.7896 -0.5066
  512TMC3    C1 7603   3.954   2.449  13.488 -0.0594  0.3362 -0.5117
  512TMC3    C2 7604   4.059   2.390  13.558  0.6027 -0.2114  0.7282
  512TMC3    C3 7605   4.165   2.338  13.485  0.5590  0.2018  0.1597
  512TMC3    C4 7606   3.947   2.435  13.348 -0.2043 -0.1726  0.0315
  512TMC3    C5 7607   4.045   2.365  13.286 -0.4039 -0.2490  0.2575
  512TMC3    C6 7608   4.155   2.323  13.348 -0.5432  0.4804  0.4001
  512TMC3     C 7609   3.877   2.563  13.552 -0.0795 -0.0261  0.2952
  512TMC3     O 7610   3.934   2.612  13.652 -0.1692  0.1161  0.1489
  512TMC3     H 7611   4.067   2.412  13.664  1.0120 -1.5941  0.9730
  512TMC3    H1 7612   3.870   2.491  13.296  1.2687  0.3987 -1.5041
  512TMC3    H2 7613   4.241   2.304  13.284 -0.4401  0.8342  0.4325
  512TMC3    C7 7614   4.040   2.358  13.140  0.2707 -0.0759  0.3613
  512TMC3    C8 7615   4.297   2.336  13.538 -0.1219  0.2714 -0.2029
  512TMC3    O1 7616   3.973   2.443  13.078  0.3231 -0.0147  0.1284
  512TMC3    O2 7617   4.321   2.273  13.640  0.0115 -0.0857 -0.9231
  513MPD2     C 7618   0.802   2.864  13.093 -0.2762  0.2458 -0.0039
  513MPD2    C1 7619   0.771   2.737  13.058 -0.2256  0.5883  0.6612
  513MPD2    C2 7620   0.826   2.628  13.125 -0.1768 -0.3374 -0.6423
  513MPD2    C3 7621   0.904   2.646  13.234  0.0058  0.1114  0.1403
  513MPD2    C4 7622   0.920   2.774  13.281  0.0035  0.5263 -0.1680
  513MPD2    C5 7623   0.875   2.883  13.208  0.0271  0.2262  0.7144
  513MPD2     H 7624   0.809   2.527  13.091 -0.6056 -0.8550  1.1363
  513MPD2    H1 7625   0.978   2.795  13.370 -1.7825 -1.7515  1.5316
  513MPD2    H2 7626   0.754   2.951  13.048 -1.5122 -0.2149  0.4203
  513MPD2    H3 7627   0.879   2.983  13.251  1.3077  0.2510  0.5168
  513MPD2     N 7628   0.949   2.529  13.299  0.3416  0.2787 -0.9265
  513MPD2    H5 7629   0.921   2.440  13.259 -4.5706  2.1212 -1.5805
  513MPD2    N1 7630   0.697   2.732  12.936  0.6951  0.1793 -0.1802
  513MPD2    H7 7631   0.672   2.818  12.888 -2.4607 -1.3061 -1.2074
  514TMC3    C1 7632   0.640   2.628  12.729 -0.0094  1.0139 -0.7131
  514TMC3    C2 7633   0.712   2.714  12.646  0.2692  0.6754 -0.1803
  514TMC3    C3 7634   0.730   2.688  12.512 -0.2622  0.2617  0.2747
  514TMC3    C4 7635   0.606   2.507  12.674  0.1201  0.1114 -0.5439
  514TMC3    C5 7636   0.640   2.473  12.545  0.1225 -0.0666 -0.0526
  514TMC3    C6 7637   0.694   2.562  12.463 -0.2396  0.6513 -0.4896
  514TMC3     C 7638   0.672   2.614  12.869 -0.6705 -0.4867 -0.4596
  514TMC3     O 7639   0.676   2.498  12.915 -0.6382 -0.0343 -0.3326
  514TMC3     H 7640   0.762   2.802  12.684  0.1241  0.4554  0.5242
  514TMC3    H1 7641   0.553   2.444  12.745  0.1385 -0.0318 -0.6583
  514TMC3    H2 7642   0.704   2.531  12.359  0.4874  1.4260 -0.6443
  514TMC3    C7 7643   0.704   2.342  12.542  0.3554 -0.4119 -0.3376
  514TMC3    C8 7644   0.767   2.797  12.421  0.5689  0.0650 -0.6411
  514TMC3    O1 7645   0.712   2.291  12.428  0.1148  0.0137 -0.7055
  514TMC3    O2 7646   0.751   2.911  12.461  0.2657  0.2422  0.1037
  515MPD2     C 7647   3.571   0.080  15.145  0.3099  0.2522 -0.8079
  515MPD2    C1 7648   3.658   4.701  15.096  0.5394  0.3438 -0.6297
  515MPD2    C2 7649   3.785   4.685  15.147  0.6541  0.1933  0.4449
  515MPD2    C3 7650   3.828   0.044  15.256 -0.6830 -0.6815 -0.1811
  515MPD2    C4 7651   3.742   0.138  15.305  0.2464  0.4349 -0.1133
  515MPD2    C5 7652   3.617   0.154  15.249 -0.0884  0.4254  0.6233
  515MPD2     H 7653   3.844   4.601  15.112 -1.3571 -1.0279 -0.0385
  515MPD2    H1 7654   3.775   0.206  15.383 -0.2592  0.0954  0.3928
  515MPD2    H2 7655   3.473   0.105  15.106 -0.2703 -1.3759 -0.3719
  515MPD2    H3 7656   3.553   0.227  15.297 -0.2577 -0.2721  1.4499
  515MPD2     N 7657   3.951   0.023  15.326 -0.3870 -0.0154 -0.5350
  515MPD2    H5 7658   3.957   0.065  15.418 -0.1181  0.6043 -0.8385
  515MPD2    N1 7659   3.619   4.611  14.994 -0.2693  0.1745 -0.4430
  515MPD2    H7 7660   3.688   4.544  14.963  0.1596  0.3849  0.0679
  516TMC3    C1 7661   3.512   4.518  14.818 -0.5570  0.8857 -0.5453
  516TMC3    C2 7662   3.460   4.542  14.698 -0.3858  0.3901  0.1537
  516TMC3    C3 7663   3.466   4.446  14.603 -1.0206 -0.7302  0.3718
  516TMC3    C4 7664   3.576   4.400  14.848 -0.3038  0.4200  0.1062
  516TMC3    C5 7665   3.570   4.302  14.750  0.3818 -0.0263 -0.0698
  516TMC3    C6 7666   3.513   4.319  14.628  0.5618  0.2457 -0.0021
  516TMC3     C 7667   3.507   4.620  14.921  0.1209 -0.6562  0.2062
  516TMC3     O 7668   3.418   4.708  14.916 -0.1547 -0.1989  0.0823
  516TMC3     H 7669   3.399   4.631  14.698  2.0700  2.0978 -1.6029
  516TMC3    H1 7670   3.613   4.391  14.950  0.9147 -3.1536 -0.6499
  516TMC3    H2 7671   3.511   4.242  14.551 -0.2412  0.6617 -0.3920
  516TMC3    C7 7672   3.617   4.170  14.795 -0.3826 -0.0068 -0.4586
  516TMC3    C8 7673   3.408   4.457  14.473  0.5225  0.2428  0.0240
  516TMC3    O1 7674   3.682   4.155  14.899  0.4668 -0.1063 -0.5399
  516TMC3    O2 7675   3.382   4.350  14.416  0.2281 -0.2762  0.7163
  517MPD2     C 7676   3.869   1.316   0.590  0.4616 -0.1247  0.3490
  517MPD2    C1 7677   3.992   1.244   0.586  0.6034 -0.7421  0.2442
  517MPD2    C2 7678   4.097   1.279   0.673  0.5555 -0.6624  0.3826
  517MPD2    C3 7679   4.075   1.376   0.775  0.1690  0.4879 -0.3936
  517MPD2    C4 7680   3.951   1.434   0.786  0.4627 -0.3262  0.0551
  517MPD2    C5 7681   3.859   1.407   0.689  0.5057 -0.6016 -0.2164
  517MPD2     H 7682   4.197   1.238   0.668  0.9308  0.3916 -0.6790
  517MPD2    H1 7683   3.929   1.513   0.856 -0.8845 -2.6662  2.2586
  517MPD2    H2 7684   3.782   1.304   0.527 -0.2844  0.2261  1.3263
  517MPD2    H3 7685   3.766   1.463   0.688  0.5446 -0.5215  2.1480
  517MPD2     N 7686   4.175   1.414   0.872 -0.1382  0.4705  0.3102
  517MPD2    H5 7687   4.145   1.462   0.956 -0.9384  1.4844 -0.5594
  517MPD2    N1 7688   4.011   1.122   0.515 -0.4394  0.1345  0.1005
  517MPD2    H7 7689   4.093   1.066   0.538 -1.2951 -0.7367  1.0816
  518TMC3    C1 7690   3.948   0.945   0.379  0.4113 -0.5740 -0.2773
  518TMC3    C2 7691   3.848   0.864   0.335 -0.1377 -0.1097 -0.8179
  518TMC3    C3 7692   3.883   0.773   0.236 -0.2689 -0.2905 -0.3054
  518TMC3    C4 7693   4.078   0.945   0.333 -0.0022 -0.5761 -1.0762
  518TMC3    C5 7694   4.108   0.838   0.248 -0.1476  0.0718  0.1556
  518TMC3    C6 7695   4.011   0.752   0.195  0.4950 -0.3831  0.4154
  518TMC3     C 7696   3.907   1.068   0.440 -0.0119  0.6692 -0.1274
  518TMC3     O 7697   3.787   1.095   0.433  0.2276  0.2787 -0.3739
  518TMC3     H 7698   3.742   0.885   0.348 -0.0433 -0.5540  0.7214
  518TMC3    H1 7699   4.153   1.021   0.349 -0.1740 -0.8117  0.8918
  518TMC3    H2 7700   4.033   0.683   0.115 -3.1574 -0.4546 -0.5076
  518TMC3    C7 7701   4.250   0.821   0.215  1.3415  0.0788 -0.1451
  518TMC3    C8 7702   3.775   0.693   0.173  0.4495  0.7960 -0.5097
  518TMC3    O1 7703   4.332   0.911   0.244  0.0661 -0.2432 -0.4490
  518TMC3    O2 7704   3.670   0.749   0.157  0.3138 -0.6269 -0.4348
  519MPD2     C 7705   0.696   4.048  13.400  0.4768  0.4253  0.3878
  519MPD2    C1 7706   0.593   3.974  13.457 -0.4789 -0.3177  0.7085
  519MPD2    C2 7707   0.617   3.850  13.514  0.2709  0.1898  1.0526
  519MPD2    C3 7708   0.749   3.806  13.536 -0.4758  0.2691 -0.1169
  519MPD2    C4 7709   0.852   3.883  13.483 -0.6222 -0.2470  0.4052
  519MPD2    C5 7710   0.823   4.000  13.415  0.4711  0.7427  1.1936
  519MPD2     H 7711   0.534   3.785  13.542  0.8720 -0.6549  0.8830
  519MPD2    H1 7712   0.955   3.853  13.497 -0.4575 -0.6167 -1.6031
  519MPD2    H2 7713   0.685   4.145  13.353  0.5117  0.5322  0.6038
  519MPD2    H3 7714   0.902   4.054  13.365  1.5547 -2.4781 -0.5495
  519MPD2     N 7715   0.794   3.678  13.590 -0.0480  0.6752 -0.2226
  519MPD2    H5 7716   0.889   3.662  13.622 -0.3216  0.4425  0.4750
  519MPD2    N1 7717   0.455   4.011  13.452  0.3564  0.3391  0.6879
  519MPD2    H7 7718   0.402   3.952  13.515  0.5958  0.7152  1.2411
  520TMC3    C1 7719   0.761   3.466  13.715  0.1026 -0.2668  0.6673
  520TMC3    C2 7720   0.677   3.363  13.728  0.0435  0.1527 -0.0080
  520TMC3    C3 7721   0.712   3.271  13.823  0.3814  0.0428 -0.9543
  520TMC3    C4 7722   0.876   3.471  13.787  0.0277  0.3115  0.1029
  520TMC3    C5 7723   0.895   3.398  13.898 -0.1071  0.0586 -0.2328
  520TMC3    C6 7724   0.824   3.282  13.903 -0.0952 -0.0405  0.4105
  520TMC3     C 7725   0.705   3.580  13.643 -0.1790  0.3454 -0.2012
  520TMC3     O 7726   0.584   3.578  13.624  0.4648  0.5126 -0.1068
  520TMC3     H 7727   0.593   3.352  13.660 -1.5298  2.9022  1.5324
  520TMC3    H1 7728   0.945   3.552  13.770 -2.2117  2.0937 -0.5979
  520TMC3    H2 7729   0.848   3.209  13.979 -0.4691 -0.4633  0.1211
  520TMC3    C7 7730   0.998   3.404  14.001  0.4372  0.0129  0.2249
  520TMC3    C8 7731   0.596   3.199  13.866  0.0048 -0.2598 -0.4971
  520TMC3    O1 7732   0.979   3.358  14.112  0.0843  0.7566 -0.1157
  520TMC3    O2 7733   0.622   3.093  13.919 -0.4799  0.0792  0.2965
  521MPD2     C 7734   1.365   1.512  17.605  0.4933 -0.0363  0.1459
  521MPD2    C1 7735   1.385   1.636  17.561  0.3407  0.2342 -0.7353
  521MPD2    C2 7736   1.496   1.665  17.483  0.2734 -0.1285  0.9507
  521MPD2    C3 7737   1.574   1.565  17.434 -0.7333 -0.5597 -0.2940
  521MPD2    C4 7738   1.545   1.435  17.476  0.6300  0.3096 -0.2698
  521MPD2    C5 7739   1.446   1.413  17.568 -0.1405 -0.2385 -0.7332
  521MPD2     H 7740   1.516   1.764  17.442  0.4816 -0.5977 -0.0687
  521MPD2    H1 7741   1.588   1.352  17.421  2.4532  1.5472 -0.7288
  521MPD2    H2 7742   1.279   1.479  17.662  0.8843  1.3050  1.5016
  521MPD2    H3 7743   1.427   1.314  17.608 -1.9229  0.3651 -0.0808
  521MPD2     N 7744   1.673   1.596  17.337  0.5565  0.1651 -0.1704
  521MPD2    H5 7745   1.668   1.687  17.291  0.7534  1.2449  1.9224
  521MPD2    N1 7746   1.289   1.737  17.606 -0.3109 -0.4233 -0.1413
  521MPD2    H7 7747   1.210   1.706  17.661  0.2005 -0.1333  0.7520
  522TMC3    C1 7748   1.870   1.560  17.207  0.1677  0.0669  0.4902
  522TMC3    C2 7749   1.994   1.505  17.201  0.1748  0.0659 -0.5049
  522TMC3    C3 7750   2.083   1.543  17.103  0.1176  0.2680 -0.2293
  522TMC3    C4 7751   1.841   1.670  17.129  0.2160 -0.2892  1.1489
  522TMC3    C5 7752   1.944   1.707  17.048 -0.1317 -0.2174  0.2478
  522TMC3    C6 7753   2.060   1.649  17.023 -0.2683 -0.4942  0.0088
  522TMC3     C 7754   1.764   1.508  17.296  0.5294  0.2130 -0.0635
  522TMC3     O 7755   1.785   1.399  17.343 -0.0629  0.4168  0.2365
  522TMC3     H 7756   2.017   1.413  17.253  2.1385 -0.1487 -1.7697
  522TMC3    H1 7757   1.750   1.729  17.134 -0.1014 -0.6703 -0.1356
  522TMC3    H2 7758   2.134   1.693  16.957 -0.7638 -1.8314 -1.4332
  522TMC3    C7 7759   1.941   1.839  16.985 -0.1292 -0.7997 -0.0961
  522TMC3    C8 7760   2.205   1.475  17.093  0.0963  0.2582 -0.5028
  522TMC3    O1 7761   2.046   1.877  16.945  0.5149 -0.6891 -1.0253
  522TMC3    O2 7762   2.268   1.464  17.199 -0.0338  0.0584 -0.0694
  523MPD2     C 7763   4.282   1.962  10.246  0.3547  0.1169 -0.0734
  523MPD2    C1 7764   4.227   1.909  10.128  0.1151  0.6144  0.2044
  523MPD2    C2 7765   4.189   1.997  10.026 -0.2500 -0.3522 -0.0900
  523MPD2    C3 7766   4.206   2.132  10.038  0.3257 -0.4538  0.0346
  523MPD2    C4 7767   4.260   2.178  10.158 -0.5617 -0.2436 -0.0251
  523MPD2    C5 7768   4.296   2.098  10.260 -0.0811  0.2114 -0.2985
  523MPD2     H 7769   4.150   1.954   9.934  1.2336  0.3403 -1.0632
  523MPD2    H1 7770   4.271   2.285  10.171 -0.1945 -0.0410 -1.9566
  523MPD2    H2 7771   4.310   1.898  10.328  2.7682  0.0074 -0.9776
  523MPD2    H3 7772   4.337   2.150  10.346 -0.5957  0.9044 -0.4713
  523MPD2     N 7773   4.163   2.229   9.944  0.4498 -0.2053  0.1016
  523MPD2    H5 7774   4.192   2.325   9.960 -2.2800  0.7945 -1.1032
  523MPD2    N1 7775   4.226   1.767  10.123 -0.4199 -0.1410 -0.2953
  523MPD2    H7 7776   4.260   1.718  10.205  0.5942 -2.0478 -1.8244
  524TMC3    C1 7777   4.049   2.332   9.759 -0.1863 -0.1762  0.3650
  524TMC3    C2 7778   4.004   2.317   9.632 -0.3289 -0.2557  0.4249
  524TMC3    C3 7779   3.943   2.424   9.576  1.4789 -0.0871  0.8074
  524TMC3    C4 7780   4.058   2.450   9.823 -0.5199  0.1059 -0.3210
  524TMC3    C5 7781   4.004   2.558   9.754 -0.5651 -0.2517 -0.9775
  524TMC3    C6 7782   3.948   2.551   9.631  0.3307  0.5376 -0.2368
  524TMC3     C 7783   4.086   2.209   9.833  0.1272 -0.2413 -0.0718
  524TMC3     O 7784   4.065   2.098   9.777  0.0366 -0.6390 -0.1307
  524TMC3     H 7785   3.982   2.220   9.590  0.9699  1.2453 -3.8126
  524TMC3    H1 7786   4.105   2.466   9.919 -2.9397  1.0626  0.7180
  524TMC3    H2 7787   3.917   2.641   9.580  1.1113 -0.0951 -1.8506
  524TMC3    C7 7788   4.067   2.686   9.795 -0.1543 -0.2147  0.1330
  524TMC3    C8 7789   3.856   2.393   9.462 -0.1724  0.5580 -0.1444
  524TMC3    O1 7790   4.169   2.670   9.861  0.0328 -0.7089  0.1277
  524TMC3    O2 7791   3.822   2.279   9.439 -0.3050  0.6821 -0.1238
  525MPD2     C 7792   1.904   3.462  14.612  0.2913  0.0856 -0.7003
  525MPD2    C1 7793   2.032   3.461  14.665 -0.3736  0.0692 -0.2625
  525MPD2    C2 7794   2.134   3.510  14.578 -0.7985 -0.5303 -0.6694
  525MPD2    C3 7795   2.108   3.554  14.452  0.6335  0.2013  0.0107
  525MPD2    C4 7796   1.983   3.545  14.398  0.2259  0.6158 -0.2757
  525MPD2    C5 7797   1.883   3.509  14.482 -0.0662 -0.0243 -0.0211
  525MPD2     H 7798   2.235   3.501  14.616 -0.5738 -1.0455 -1.3838
  525MPD2    H1 7799   1.954   3.570  14.297 -3.2232 -0.9506  0.3456
  525MPD2    H2 7800   1.816   3.435  14.669  0.2270  0.8225 -0.4465
  525MPD2    H3 7801   1.782   3.515  14.444  0.2267  0.4152 -0.7290
  525MPD2     N 7802   2.205   3.606  14.359 -0.3159 -0.1283 -0.8579
  525MPD2    H5 7803   2.175   3.624  14.264  0.5743 -1.2788 -1.3563
  525MPD2    N1 7804   2.064   3.419  14.793  0.0139  0.7013 -0.3588
  525MPD2    H7 7805   2.160   3.394  14.813  0.0185 -0.8324 -2.2754
  526TMC3    C1 7806   2.050   3.350  15.018 -0.5607 -0.3499  0.5866
  526TMC3    C2 7807   2.006   3.408  15.131  0.0690 -0.3000 -0.1344
  526TMC3    C3 7808   2.076   3.380  15.246  0.1623 -0.3166 -0.0478
  526TMC3    C4 7809   2.135   3.251  15.021  0.3253 -0.4195 -0.4548
  526TMC3    C5 7810   2.206   3.232  15.135  0.2463  0.2730  0.1694
  526TMC3    C6 7811   2.186   3.298  15.253 -0.3460 -0.6640 -0.0656
  526TMC3     C 7812   1.977   3.387  14.897 -0.8148 -0.1305 -0.9379
  526TMC3     O 7813   1.855   3.398  14.912 -0.0357 -0.2870  0.2081
  526TMC3     H 7814   1.922   3.476  15.124  0.8810  0.4692 -2.2709
  526TMC3    H1 7815   2.149   3.197  14.928  0.2398  2.0817 -1.9348
  526TMC3    H2 7816   2.259   3.297  15.333 -1.5613 -1.2606  1.0404
  526TMC3    C7 7817   2.308   3.126  15.136 -0.3239  0.3043 -0.2230
  526TMC3    C8 7818   2.033   3.421  15.376 -0.2238 -0.2845  0.6038
  526TMC3    O1 7819   2.341   3.082  15.250  0.5278 -0.4165  0.5391
  526TMC3    O2 7820   2.069   3.350  15.470  0.4094  0.3637 -0.0930
  527MPD2     C 7821   4.074   1.193   1.270 -0.5586  0.4200 -0.3329
  527MPD2    C1 7822   4.189   1.194   1.345  0.4729 -0.4670 -0.6334
  527MPD2    C2 7823   4.303   1.146   1.285  0.6144 -0.4897  0.1067
  527MPD2    C3 7824   4.310   1.101   1.157  0.1305 -0.1350 -0.3407
  527MPD2    C4 7825   4.194   1.096   1.083 -0.0587 -0.5063  0.0776
  527MPD2    C5 7826   4.080   1.149   1.140 -0.5005  0.7141  0.1568
  527MPD2     H 7827   4.387   1.133   1.353  0.6700  1.4934  0.4248
  527MPD2    H1 7828   4.187   1.054   0.983  1.3071  1.4965 -0.8541
  527MPD2    H2 7829   3.980   1.233   1.308  0.0094  2.0982 -0.6873
  527MPD2    H3 7830   3.987   1.155   1.084  0.4005  2.6607 -1.1403
  527MPD2     N 7831   4.436   1.083   1.102 -0.4390 -0.2844 -0.1841
  527MPD2    H5 7832   4.516   1.115   1.155  0.9053 -1.4587 -1.4987
  527MPD2    N1 7833   4.194   1.246   1.477  0.2450  0.2899  0.0730
  527MPD2    H7 7834   4.285   1.251   1.521 -0.4832  0.0773  1.5742
  528TMC3    C1 7835   4.133   1.324   1.692  0.2106 -0.2750  0.4566
  528TMC3    C2 7836   4.266   1.305   1.730  0.1903 -0.8885 -0.0822
  528TMC3    C3 7837   4.287   1.332   1.856 -0.4919 -0.6068 -0.0959
  528TMC3    C4 7838   4.031   1.372   1.775  0.3601  0.3762 -0.3464
  528TMC3    C5 7839   4.071   1.399   1.905 -0.0349  0.3328 -0.0892
  528TMC3    C6 7840   4.194   1.369   1.948  0.1695 -1.1532 -0.0703
  528TMC3     C 7841   4.088   1.274   1.559  0.5195  0.4901 -0.4994
  528TMC3     O 7842   3.970   1.264   1.535  0.2557  0.6892 -0.0226
  528TMC3     H 7843   4.347   1.280   1.663  0.8076 -0.2010  0.4079
  528TMC3    H1 7844   3.930   1.393   1.742 -0.0181 -0.3779  0.3222
  528TMC3    H2 7845   4.222   1.396   2.049  0.0312 -3.1077  0.4782
  528TMC3    C7 7846   3.988   1.494   1.982 -0.1930  0.4516 -0.5070
  528TMC3    C8 7847   4.426   1.344   1.895  0.1909 -0.1324 -0.7646
  528TMC3    O1 7848   4.048   1.563   2.065  0.5205  0.3412  0.3930
  528TMC3    O2 7849   4.512   1.362   1.803  0.1544  0.4075 -0.2007
  529MPD2     C 7850   3.008   0.558   0.708 -0.2325 -0.3589 -0.4247
  529MPD2    C1 7851   2.960   0.435   0.677  0.1450 -0.5196 -0.5393
  529MPD2    C2 7852   2.924   0.409   0.545 -0.0943 -0.0052 -0.4817
  529MPD2    C3 7853   2.932   0.509   0.444 -0.6470  0.6172  0.2792
  529MPD2    C4 7854   2.975   0.637   0.481 -0.4154 -0.1298  0.0592
  529MPD2    C5 7855   3.020   0.656   0.613 -0.4490  0.1339 -0.5424
  529MPD2     H 7856   2.888   0.312   0.513 -1.9437  0.3515  0.4926
  529MPD2    H1 7857   2.956   0.715   0.409 -0.4617 -1.0372 -0.9199
  529MPD2    H2 7858   3.039   0.579   0.809  0.4786 -0.7233 -0.5722
  529MPD2    H3 7859   3.045   0.756   0.648 -1.7725  0.4377 -0.4789
  529MPD2     N 7860   2.873   0.498   0.314 -0.1565 -0.0384 -0.2573
  529MPD2    H5 7861   2.866   0.585   0.263  1.9160  0.1398 -0.2720
  529MPD2    N1 7862   2.946   0.322   0.764 -0.0169 -0.0997  0.2007
  529MPD2    H7 7863   2.894   0.240   0.737  0.0901 -0.0415 -0.1816
  530TMC3    C1 7864   2.984   0.190   0.957 -0.0905 -0.3424 -0.0512
  530TMC3    C2 7865   3.002   0.176   1.089  0.1881  0.5115 -0.2897
  530TMC3    C3 7866   2.986   0.051   1.137  0.2982  0.2322 -0.3146
  530TMC3    C4 7867   2.954   0.082   0.879 -0.2848 -0.8435  0.8463
  530TMC3    C5 7868   2.938   4.679   0.934  0.1570 -0.3755  0.2516
  530TMC3    C6 7869   2.938   4.665   1.066 -0.2374 -0.2655 -0.5554
  530TMC3     C 7870   2.980   0.327   0.899  0.2179  0.7043 -0.0166
  530TMC3     O 7871   3.018   0.424   0.965 -0.3222 -0.1023  0.2603
  530TMC3     H 7872   3.020   0.268   1.143 -2.1710  0.8679 -0.1140
  530TMC3    H1 7873   2.970   0.088   0.772 -0.6904 -0.4390  0.8101
  530TMC3    H2 7874   2.910   4.568   1.107 -1.5142  0.5808  0.5804
  530TMC3    C7 7875   2.887   4.582   0.838 -0.3045 -0.1038 -0.5242
  530TMC3    C8 7876   2.962   0.058   1.281  0.0105 -0.4020 -0.8734
  530TMC3    O1 7877   2.884   4.605   0.718 -0.5050  0.5105  0.4039
  530TMC3    O2 7878   2.920   0.163   1.330 -0.6593 -0.0356 -0.2101
  531MPD2     C 7879   1.048   2.055  12.784 -0.3229 -0.0709 -1.1489
  531MPD2    C1 7880   0.986   2.136  12.882  0.0621 -0.2992 -0.4726
  531MPD2    C2 7881   0.874   2.208  12.842  0.2565  0.2586 -0.2417
  531MPD2    C3 7882   0.839   2.211  12.707  0.2545  1.0385 -0.0522
  531MPD2    C4 7883   0.909   2.134  12.611 -0.8595 -0.0210 -0.2633
  531MPD2    C5 7884   1.016   2.052  12.651  0.5329  0.2557 -0.1510
  531MPD2     H 7885   0.828   2.275  12.914 -1.0035 -0.3085 -0.5057
  531MPD2    H1 7886   0.887   2.138  12.505  0.6526  0.9115 -0.5350
  531MPD2    H2 7887   1.123   1.980  12.806 -1.2180 -0.3496  1.0303
  531MPD2    H3 7888   1.068   1.983  12.586 -0.0569  0.4279 -0.8023
  531MPD2     N 7889   0.741   2.309  12.668 -0.3047 -0.3259  0.2203
  531MPD2    H5 7890   0.707   2.359  12.749 -2.0011  1.3160 -1.4873
  531MPD2    N1 7891   1.031   2.126  13.016 -0.5596 -0.7905 -0.1790
  531MPD2    H7 7892   1.111   2.068  13.037  0.7947  2.4252  3.4354
  532TMC3    C1 7893   1.046   2.194  13.252 -0.1963  0.4064 -0.6597
  532TMC3    C2 7894   0.993   2.287  13.342 -0.0902 -0.7569  0.0897
  532TMC3    C3 7895   1.071   2.378  13.413 -0.6108  0.5585  0.0013
  532TMC3    C4 7896   1.179   2.178  13.252 -0.4913  0.4006 -0.3085
  532TMC3    C5 7897   1.256   2.252  13.348  0.0301  0.0835  0.3471
  532TMC3    C6 7898   1.204   2.364  13.408 -0.4096 -0.3108 -0.3217
  532TMC3     C 7899   0.980   2.198  13.124 -0.4712 -0.2415  0.3280
  532TMC3     O 7900   0.889   2.281  13.127 -0.7182 -0.1896 -0.3586
  532TMC3     H 7901   0.886   2.301  13.349 -0.1532 -2.1129  1.8079
  532TMC3    H1 7902   1.227   2.107  13.185  1.0586 -1.7949  3.1592
  532TMC3    H2 7903   1.267   2.430  13.467 -1.6973  0.5163  0.1323
  532TMC3    C7 7904   1.401   2.228  13.364  0.4962 -0.3667  0.2746
  532TMC3    C8 7905   1.021   2.513  13.413  0.2304  0.3690 -0.5829
  532TMC3    O1 7906   1.454   2.308  13.435  0.3413  0.2785 -0.2464
  532TMC3    O2 7907   1.072   2.595  13.494  0.1337 -0.5938 -0.6619
  533TMC3    C1 7908   2.398   3.749  14.313 -0.8223 -0.0956  0.0618
  533TMC3    C2 7909   2.531   3.778  14.334  0.2218  0.1452 -0.5951
  533TMC3    C3 7910   2.571   3.912  14.328  0.3193 -0.0302 -0.5385
  533TMC3    C4 7911   2.316   3.853  14.274 -1.4909 -0.0066 -0.3338
  533TMC3    C5 7912   2.354   3.986  14.273 -1.0431  0.5703 -0.1565
  533TMC3    C6 7913   2.482   4.012  14.313 -0.5777 -0.8226  0.7887
  533TMC3     C 7914   2.327   3.658  14.399 -0.3710 -0.4662 -0.1055
  533TMC3     O 7915   2.383   3.634  14.503 -0.6107  0.2814 -0.1175
  533TMC3     H 7916   2.575   3.691  14.380  1.3395  1.7494  1.3950
  533TMC3    H1 7917   2.215   3.829  14.243 -1.5261 -0.0968 -0.1491
  533TMC3    H2 7918   2.513   4.116  14.310  0.2936 -1.1200 -0.7350
  533TMC3    C7 7919   2.253   4.061  14.347  0.7296  0.2449  0.2725
  533TMC3    C8 7920   2.696   3.946  14.390 -0.1222  0.3744 -0.2526
  533TMC3    O1 7921   2.158   4.002  14.400 -0.1978 -0.3097  0.1919
  533TMC3    O2 7922   2.730   3.897  14.496  0.7767 -0.0227 -0.1051
  534MPD2     C 7923   4.603   0.506   2.320  0.3468  0.0471  0.5940
  534MPD2    C1 7924   4.594   0.540   2.184 -0.5901  0.1699 -0.2812
  534MPD2    C2 7925   4.551   0.435   2.102  0.5082 -0.3405  0.2917
  534MPD2    C3 7926   4.536   0.307   2.140  0.2043  0.1275 -0.5231
  534MPD2    C4 7927   4.545   0.274   2.272 -1.3499 -0.2227  0.2846
  534MPD2    C5 7928   4.578   0.377   2.361 -0.8964 -0.4546 -0.2214
  534MPD2     H 7929   4.532   0.463   1.999  1.4080 -0.9510 -0.0420
  534MPD2    H1 7930   4.523   0.176   2.311  0.8770 -2.0613 -3.1100
  534MPD2    H2 7931   4.625   0.583   2.393  0.0469  1.2829 -0.6145
  534MPD2    H3 7932   4.582   0.359   2.467 -2.5986  0.1676 -0.0474
  534MPD2     N 7933   4.507   0.202   2.041 -0.7846 -0.5532 -0.5300
  534MPD2    H5 7934   4.495   0.109   2.078  2.3408 -1.0906 -0.8500
  534MPD2    N1 7935   4.627   0.663   2.126  0.0527  0.4465 -0.4418
  534MPD2    H7 7936   4.610   0.676   2.027 -0.2336  0.7517 -0.3497
  535TMC3    C1 7937   4.442   0.096   1.844  0.1784  0.3925  0.3592
  535TMC3    C2 7938   4.363   0.011   1.915  0.1283 -0.1826  0.4731
  535TMC3    C3 7939   4.283   4.643   1.853  0.3932 -0.3389 -0.2792
  535TMC3    C4 7940   4.440   0.087   1.706  0.0148  0.1677  0.3137
  535TMC3    C5 7941   4.365   4.714   1.647  0.3813  0.8743 -0.5502
  535TMC3    C6 7942   4.284   4.629   1.717 -0.5366  0.5301 -0.0700
  535TMC3     C 7943   4.518   0.205   1.905  0.3238  0.4810  0.1952
  535TMC3     O 7944   4.566   0.298   1.834 -0.1579 -0.7526  0.1813
  535TMC3     H 7945   4.357   0.022   2.023  1.2427  3.6097  0.1656
  535TMC3    H1 7946   4.502   0.154   1.647 -0.8676  1.3046  0.6588
  535TMC3    H2 7947   4.238   4.552   1.655  0.5437  0.4599 -0.7713
  535TMC3    C7 7948   4.341   0.019   1.507 -0.3284  0.5288  0.5221
  535TMC3    C8 7949   4.174   4.579   1.913  0.3157 -0.2160  0.2711
  535TMC3    O1 7950   4.352   4.649   1.428  0.2249 -0.3728 -0.1583
  535TMC3    O2 7951   4.123   4.488   1.846 -0.2205  0.2556  0.1402
  536MPD2     C 7952   3.213   2.981  16.663  0.4771 -0.2628  0.5002
  536MPD2    C1 7953   3.195   3.112  16.693  0.2678  0.6979  1.0267
  536MPD2    C2 7954   3.181   3.206  16.592  0.4892 -0.0782 -0.7978
  536MPD2    C3 7955   3.186   3.161  16.460  0.3148  0.3236  0.2361
  536MPD2    C4 7956   3.206   3.023  16.433 -0.1426 -0.1259  0.4598
  536MPD2    C5 7957   3.219   2.938  16.532  0.2714 -0.9796  0.1483
  536MPD2     H 7958   3.174   3.313  16.609 -0.1708 -0.0699 -1.1130
  536MPD2    H1 7959   3.195   2.981  16.333 -2.5406  0.8854  0.2995
  536MPD2    H2 7960   3.210   2.906  16.741 -2.3067 -1.0604 -0.3694
  536MPD2    H3 7961   3.237   2.833  16.510  0.5816 -0.8039 -0.4209
  536MPD2     N 7962   3.153   3.258  16.358 -0.0649 -0.0441  0.5474
  536MPD2    H5 7963   3.165   3.354  16.388 -0.0971 -0.1721  0.9733
  536MPD2    N1 7964   3.200   3.147  16.832 -0.2474  0.9450  0.2556
  536MPD2    H7 7965   3.192   3.070  16.898 -0.8918 -1.1856 -2.2856
  537TMC3    C1 7966   3.138   3.276  17.019 -0.4692 -0.1076  0.6346
  537TMC3    C2 7967   3.159   3.401  17.074  0.3891  0.8642  1.2364
  537TMC3    C3 7968   3.112   3.410  17.201  0.1456 -0.6578  0.5921
  537TMC3    C4 7969   3.080   3.170  17.076  0.2778  1.2476 -0.2779
  537TMC3    C5 7970   3.037   3.187  17.197  0.2231  0.1111 -0.2582
  537TMC3    C6 7971   3.056   3.306  17.271 -0.0218 -0.1606 -0.3767
  537TMC3     C 7972   3.184   3.275  16.878 -0.4088  0.0069  0.6668
  537TMC3     O 7973   3.192   3.380  16.815 -0.5161 -0.1705 -0.1344
  537TMC3     H 7974   3.229   3.469  17.027  1.1646 -0.6829  0.1292
  537TMC3    H1 7975   3.036   3.095  17.011  0.4317 -0.2811  1.4056
  537TMC3    H2 7976   3.017   3.320  17.371 -0.6906 -1.5129 -0.4471
  537TMC3    C7 7977   2.991   3.080  17.274 -0.0462  0.5459  0.1215
  537TMC3    C8 7978   3.162   3.520  17.279  0.0986 -0.1749 -0.2959
  537TMC3    O1 7979   2.924   3.104  17.372  0.0761 -0.4247  0.0830
  537TMC3    O2 7980   3.174   3.490  17.396 -1.1115  0.7615 -0.1589
  538TMC3    C1 7981   4.654   1.922  10.954 -0.5703 -0.0185  0.1815
  538TMC3    C2 7982   4.680   1.861  10.834  0.0465  0.2203  0.3698
  538TMC3    C3 7983   4.594   1.901  10.734 -0.4557 -0.1367  0.3952
  538TMC3    C4 7984   4.554   2.020  10.967  0.9452 -0.0418  0.5239
  538TMC3    C5 7985   4.487   2.064  10.855  0.6811  0.1731 -0.2334
  538TMC3    C6 7986   4.499   2.002  10.738  0.0246 -0.3335  0.0975
  538TMC3     C 7987   4.716   1.867  11.073 -0.3607 -0.7208 -0.3119
  538TMC3     O 7988   4.694   1.930  11.181 -0.4709  0.3737 -0.5338
  538TMC3     H 7989   0.017   1.771  10.816 -1.7084 -0.4328 -1.9489
  538TMC3    H1 7990   4.562   2.077  11.059  0.6279  0.5117  0.2029
  538TMC3    H2 7991   4.434   2.037  10.659 -2.2614  0.1764  2.2271
  538TMC3    C7 7992   4.400   2.177  10.881 -0.1423 -0.6541  0.6168
  538TMC3    C8 7993   4.609   1.838  10.608  0.9018 -0.2901 -0.3012
  538TMC3    O1 7994   4.365   2.184  10.999  0.5925 -0.0600  0.1120
  538TMC3    O2 7995   4.499   1.825  10.551 -0.0243  0.1866 -0.0790
  539MPD2     C 7996   4.215   0.908  11.761 -0.6437  0.0348 -0.3330
  539MPD2    C1 7997   4.320   0.978  11.709 -0.2978 -0.1743  0.2995
  539MPD2    C2 7998   4.326   1.118  11.727 -0.0768  0.2058 -0.0795
  539MPD2    C3 7999   4.220   1.182  11.798  0.2121 -0.7163  0.1605
  539MPD2    C4 8000   4.116   1.109  11.843  0.1515 -0.2056  0.6686
  539MPD2    C5 8001   4.115   0.974  11.829 -0.1273  0.5370 -0.4015
  539MPD2     H 8002   4.404   1.179  11.683  0.0567  0.3298  0.3276
  539MPD2    H1 8003   4.026   1.150  11.887 -0.1484  0.0498 -0.1771
  539MPD2    H2 8004   4.210   0.800  11.749  2.2796  0.2020 -3.3354
  539MPD2    H3 8005   4.031   0.916  11.865  1.2760 -1.7305 -0.7532
  539MPD2     N 8006   4.208   1.322  11.801  0.3503  0.0712 -0.2305
  539MPD2    H5 8007   4.130   1.359  11.855  1.9613 -0.4839  2.4727
  539MPD2    N1 8008   4.423   0.927  11.634  0.1937  0.0571  0.5352
  539MPD2    H7 8009   4.490   0.991  11.594  0.8642 -0.9790 -0.0035
  540TMC3    C1 8010   4.195   1.535  11.722 -0.6305 -0.1719 -0.4305
  540TMC3    C2 8011   4.210   1.610  11.611 -1.4426  0.3042 -0.7385
  540TMC3    C3 8012   4.151   1.738  11.618 -0.3674  0.1630  0.5137
  540TMC3    C4 8013   4.169   1.600  11.843 -0.2517 -0.0225 -0.4190
  540TMC3    C5 8014   4.133   1.736  11.851  0.1233 -0.3359  0.1040
  540TMC3    C6 8015   4.120   1.803  11.734  1.1623 -0.3783 -0.2235
  540TMC3     C 8016   4.279   1.415  11.726 -0.4927  0.0144 -0.6638
  540TMC3     O 8017   4.372   1.402  11.651  0.7217  0.1001  0.6160
  540TMC3     H 8018   4.232   1.553  11.522  1.5882  1.0724 -0.4810
  540TMC3    H1 8019   4.180   1.544  11.935  1.4840 -1.4042 -1.4724
  540TMC3    H2 8020   4.066   1.897  11.728 -0.4726 -1.2347  1.1143
  540TMC3    C7 8021   4.069   1.771  11.973 -0.2501 -0.0238  0.1578
  540TMC3    C8 8022   4.127   1.818  11.498 -0.3835  0.4321  0.0110
  540TMC3    O1 8023   4.028   1.680  12.046  0.4718 -0.2905  0.0922
  540TMC3    O2 8024   4.127   1.939  11.522  0.6069  0.2374  0.0729
  541MPD2     C 8025   2.059   2.070  12.918  0.0038 -0.2686  0.1412
  541MPD2    C1 8026   2.170   2.131  12.872 -0.5423  0.1891 -0.4786
  541MPD2    C2 8027   2.146   2.233  12.781 -0.1336  0.1270 -0.6384
  541MPD2    C3 8028   2.029   2.252  12.712  0.0365 -1.0317  1.2385
  541MPD2    C4 8029   1.930   2.180  12.752  0.1914 -0.2995 -0.2164
  541MPD2    C5 8030   1.940   2.096  12.861  1.0715  0.1457 -0.0454
  541MPD2     H 8031   2.234   2.288  12.752 -1.3111  2.3581 -0.0306
  541MPD2    H1 8032   1.831   2.202  12.712 -0.6196 -1.0168  1.3731
  541MPD2    H2 8033   2.069   2.015  13.011 -0.2515  0.7938  0.8042
  541MPD2    H3 8034   1.855   2.037  12.895  2.5021 -1.5717  0.5286
  541MPD2     N 8035   2.007   2.339  12.609  0.4190  0.2329  0.3672
  541MPD2    H5 8036   1.920   2.339  12.557  1.5289  1.6880 -1.5109
  541MPD2    N1 8037   2.287   2.104  12.940  0.1893 -0.0067  0.3376
  541MPD2    H7 8038   2.276   2.035  13.014  0.7807  0.0666  0.4957
  542TMC3    C1 8039   2.051   2.515  12.463  0.3052  0.0532 -0.0080
  542TMC3    C2 8040   2.114   2.633  12.444  0.1082 -0.3065  0.6736
  542TMC3    C3 8041   2.080   2.705  12.333  0.7206  0.1981 -0.6058
  542TMC3    C4 8042   1.956   2.464  12.374 -0.6295  0.0512 -0.4594
  542TMC3    C5 8043   1.924   2.545  12.267 -0.0642 -0.2574  0.1170
  542TMC3    C6 8044   1.992   2.665  12.245  0.4249 -0.7641 -0.2495
  542TMC3     C 8045   2.098   2.434  12.572 -0.4889 -0.3745 -0.3212
  542TMC3     O 8046   2.211   2.452  12.612  0.2619  0.4876 -0.3756
  542TMC3     H 8047   2.171   2.671  12.528 -0.5055  0.0465  0.9291
  542TMC3    H1 8048   1.917   2.364  12.381 -0.1309 -0.1016  0.0627
  542TMC3    H2 8049   1.977   2.718  12.151 -0.1308 -0.3732  0.0628
  542TMC3    C7 8050   1.845   2.498  12.153  0.0057  0.2215  0.0149
  542TMC3    C8 8051   2.168   2.814  12.295 -0.2427  0.4514  0.1655
  542TMC3    O1 8052   1.863   2.560  12.051 -0.6395 -0.3458 -0.2275
  542TMC3    O2 8053   2.146   2.880  12.193 -0.7734  0.1494 -0.2194
  543TMC3    C1 8054   1.946   3.925  17.335 -0.1400 -0.4266  0.2384
  543TMC3    C2 8055   1.999   3.803  17.372 -0.6402 -0.5632  0.8038
  543TMC3    C3 8056   1.919   3.727  17.449 -0.5207  0.1242 -0.0903
  543TMC3    C4 8057   1.824   3.974  17.376  0.1779  0.4748  0.1407
  543TMC3    C5 8058   1.751   3.894  17.459 -0.3358  0.4134 -0.3275
  543TMC3    C6 8059   1.798   3.771  17.493  0.4116  0.5413  0.4732
  543TMC3     C 8060   2.044   4.001  17.253 -0.0296  0.2539 -0.3685
  543TMC3     O 8061   2.160   3.988  17.278 -0.6966  0.8327 -0.5619
  543TMC3     H 8062   2.083   3.759  17.320 -1.9969  0.3441 -2.1510
  543TMC3    H1 8063   1.805   4.080  17.363  1.1630  0.5320 -0.8220
  543TMC3    H2 8064   1.738   3.708  17.556  0.2967  0.5901  0.4118
  543TMC3    C7 8065   1.608   3.925  17.467  0.4397  0.7001  0.0030
  543TMC3    C8 8066   1.954   3.583  17.462  0.7302 -0.4841  0.9319
  543TMC3    O1 8067   1.561   3.997  17.379  0.7451  0.5187  0.4921
  543TMC3    O2 8068   2.066   3.550  17.432  0.5340 -0.6990 -0.2659
  544MPD2     C 8069   1.806   3.091  17.479 -0.6368  0.0933  0.2016
  544MPD2    C1 8070   1.932   3.143  17.452  0.4902 -0.4367 -0.0966
  544MPD2    C2 8071   1.951   3.284  17.447 -0.3902 -0.1898  0.1432
  544MPD2    C3 8072   1.842   3.365  17.489 -0.1624 -0.1923 -0.1921
  544MPD2    C4 8073   1.725   3.305  17.524 -0.4584 -0.7973  0.4453
  544MPD2    C5 8074   1.705   3.169  17.519  0.7310  0.4289  0.3101
  544MPD2     H 8075   2.049   3.324  17.424 -0.3505 -0.0719  0.5222
  544MPD2    H1 8076   1.639   3.365  17.551  1.0801  1.4372  0.3914
  544MPD2    H2 8077   1.795   2.985  17.462  2.5486 -0.2272  0.1979
  544MPD2    H3 8078   1.607   3.131  17.546  0.6845  0.1211 -0.2838
  544MPD2     N 8079   1.847   3.505  17.486  0.6798  0.1003  0.3364
  544MPD2    H5 8080   1.760   3.556  17.502  0.3849 -0.3466  0.1630
  544MPD2    N1 8081   2.027   3.046  17.426 -0.1746 -1.1205  0.4033
  544MPD2    H7 8082   2.007   2.949  17.449  0.3546 -1.5999 -1.1777
  545TMC3    C1 8083   2.222   2.949  17.330 -1.0331  0.3142  0.2873
  545TMC3    C2 8084   2.287   2.944  17.204  0.0923  0.1274 -0.8585
  545TMC3    C3 8085   2.316   2.816  17.158 -0.1984 -0.3833  1.1093
  545TMC3    C4 8086   2.199   2.838  17.404 -0.0288 -0.2223 -0.3595
  545TMC3    C5 8087   2.247   2.719  17.356 -0.1492 -0.1255 -0.5322
  545TMC3    C6 8088   2.291   2.701  17.234 -0.4473  0.4608 -0.0887
  545TMC3     C 8089   2.140   3.069  17.355 -0.1837  0.6417 -0.2797
  545TMC3     O 8090   2.167   3.170  17.288 -0.2044 -0.5787 -0.1855
  545TMC3     H 8091   2.300   3.037  17.150  2.5725  0.5737  0.5025
  545TMC3    H1 8092   2.173   2.842  17.509 -2.3815  2.8186 -1.0625
  545TMC3    H2 8093   2.306   2.605  17.186 -1.9810 -0.0609  0.4822
  545TMC3    C7 8094   2.197   2.597  17.427 -0.2578  0.0008  0.4674
  545TMC3    C8 8095   2.369   2.789  17.030 -0.3466  0.1076  0.1907
  545TMC3    O1 8096   2.090   2.597  17.489 -0.3120 -0.2995  0.9391
  545TMC3    O2 8097   2.408   2.678  17.007  0.3678  0.3486  0.3566
  546MPD2     C 8098   3.645   3.999   0.265  0.1369 -0.3114  0.5196
  546MPD2    C1 8099   3.581   4.029   0.147 -0.6226 -0.5022  0.2301
  546MPD2    C2 8100   3.641   4.115   0.051 -0.9985 -0.1055 -0.0152
  546MPD2    C3 8101   3.770   4.157   0.068  0.0018  0.4960  0.2542
  546MPD2    C4 8102   3.837   4.105   0.179  0.6591  0.3681 -0.1415
  546MPD2    C5 8103   3.779   4.039   0.280  0.6147  0.2529  0.3317
  546MPD2     H 8104   3.583   4.124  17.643  1.3485  1.2066 -1.4028
  546MPD2    H1 8105   3.943   4.118   0.200  0.3029  2.2868  0.4783
  546MPD2    H2 8106   3.587   3.945   0.340 -1.4568 -2.2674 -2.1230
  546MPD2    H3 8107   3.831   4.000   0.367 -0.5457  3.4542  2.4605
  546MPD2     N 8108   3.837   4.252  17.666 -0.2378 -0.3425  0.0693
  546MPD2    H5 8109   3.926   4.290   0.014 -1.8269  1.4932  2.3989
  546MPD2    N1 8110   3.451   3.967   0.130 -0.0794 -0.0773  0.0030
  546MPD2    H7 8111   3.421   3.896   0.196 -0.0636 -0.4961 -0.4318
  547TMC3    C1 8112   3.243   3.910   0.029 -0.1330 -0.3940 -0.6781
  547TMC3    C2 8113   3.154   3.930  17.609  0.3294 -0.1294 -0.2569
  547TMC3    C3 8114   3.072   3.827  17.565 -0.0815 -0.9202  0.8998
  547TMC3    C4 8115   3.257   3.785   0.074 -0.4816 -0.0335  0.4708
  547TMC3    C5 8116   3.187   3.677   0.015 -0.1182 -0.0876  1.0007
  547TMC3    C6 8117   3.087   3.696  17.604 -0.0441  0.8651 -0.2221
  547TMC3     C 8118   3.355   4.000   0.036 -0.2100  1.1523  0.2091
  547TMC3     O 8119   3.351   4.096  17.647 -0.4441 -0.0733  0.0360
  547TMC3     H 8120   3.135   4.027  17.564 -0.7368 -1.0318 -1.7759
  547TMC3    H1 8121   3.346   3.757   0.128  0.2694  1.3739 -0.0215
  547TMC3    H2 8122   3.025   3.611  17.578 -0.4299  0.5198  1.7851
  547TMC3    C7 8123   3.186   3.558   0.090  0.0459 -1.2462  0.3263
  547TMC3    C8 8124   2.991   3.852  17.442  0.1441  0.0294  0.3012
  547TMC3    O1 8125   3.224   3.558   0.208  0.0196 -0.0147  0.2770
  547TMC3    O2 8126   2.996   3.963  17.392 -0.5362 -0.4973 -0.3542
  548MPD2     C 8127   3.052   4.160  11.992  0.1745  0.2150  0.0925
  548MPD2    C1 8128   3.057   4.128  12.125 -0.3453  0.3011 -1.1261
  548MPD2    C2 8129   3.166   4.053  12.169  0.2734  0.0413  0.4703
  548MPD2    C3 8130   3.250   4.005  12.079  0.3018 -0.1209 -0.5810
  548MPD2    C4 8131   3.238   4.043  11.945  0.7053  1.1914  0.3016
  548MPD2    C5 8132   3.136   4.121  11.900  0.0331 -0.3719 -0.4393
  548MPD2     H 8133   3.189   4.026  12.272 -0.0153  1.3661  0.8735
  548MPD2    H1 8134   3.312   4.013  11.872 -0.8081 -1.8415  0.0301
  548MPD2    H2 8135   2.970   4.218  11.951  2.0197  0.9537 -2.5016
  548MPD2    H3 8136   3.126   4.128  11.792 -2.9726  1.3643 -0.0318
  548MPD2     N 8137   3.348   3.908  12.124  0.1075 -1.2685  0.0065
  548MPD2    H5 8138   3.349   3.901  12.225 -4.2328  0.3236  0.1643
  548MPD2    N1 8139   2.960   4.183  12.215  0.3297 -0.7303 -0.1677
  548MPD2    H7 8140   2.879   4.223  12.170 -0.4185 -1.4527  0.5285
  549TMC3    C1 8141   2.890   4.269  12.426  0.0457  0.2374 -0.0782
  549TMC3    C2 8142   2.854   4.390  12.389  0.4019  0.0003  0.1578
  549TMC3    C3 8143   2.794   4.473  12.478 -0.6323  0.1690 -0.3418
  549TMC3    C4 8144   2.888   4.244  12.561  0.0561 -0.0254 -0.3122
  549TMC3    C5 8145   2.828   4.329  12.652 -0.0710 -0.1026  0.7334
  549TMC3    C6 8146   2.775   4.447  12.611  0.4339 -0.2248  0.5463
  549TMC3     C 8147   2.977   4.186  12.348 -0.7019  0.2717  1.0607
  549TMC3     O 8148   3.060   4.133  12.418  0.5558 -0.0076 -0.1912
  549TMC3     H 8149   2.848   4.413  12.283 -1.9430  1.8515  0.7110
  549TMC3    H1 8150   2.916   4.141  12.582  0.4778  0.0622 -0.4642
  549TMC3    H2 8151   2.721   4.514  12.677  0.7794  0.2685  0.3233
  549TMC3    C7 8152   2.819   4.301  12.796  0.0720  0.5164  0.2705
  549TMC3    C8 8153   2.773   4.611  12.428  0.2154 -0.9890 -0.4530
  549TMC3    O1 8154   2.778   4.391  12.870 -0.4744  0.4659  0.4189
  549TMC3    O2 8155   2.726   4.633  12.322 -0.7692  0.7131  0.0293
  550TMC3    C1 8156   1.115   2.143  12.212  0.2119  0.6925 -0.3604
  550TMC3    C2 8157   1.127   2.233  12.320  0.1670  0.4136 -0.8145
  550TMC3    C3 8158   1.223   2.338  12.315 -0.0901 -0.1815 -0.0310
  550TMC3    C4 8159   1.208   2.152  12.116 -0.2386  0.6618  0.2436
  550TMC3    C5 8160   1.300   2.253  12.112  0.1102 -0.2797 -0.1310
  550TMC3    C6 8161   1.306   2.350  12.209 -0.2874  0.5750  0.2548
  550TMC3     C 8162   0.975   2.129  12.164  0.5647 -0.2030 -0.4385
  550TMC3     O 8163   0.890   2.127  12.251  0.1690 -0.0465  0.0455
  550TMC3     H 8164   1.036   2.268  12.367  0.8015 -0.6012  1.1528
  550TMC3    H1 8165   1.198   2.076  12.039  0.8584 -1.5154  2.2339
  550TMC3    H2 8166   1.371   2.436  12.201  1.6890 -0.9484 -0.1967
  550TMC3    C7 8167   1.324   2.279  11.972  0.5866 -0.4851 -0.3192
  550TMC3    C8 8168   1.208   2.453  12.397 -0.0517 -0.3158 -1.0643
  550TMC3    O1 8169   1.245   2.234  11.889 -0.2620 -0.4401 -0.2506
  550TMC3    O2 8170   1.268   2.552  12.361  0.5708 -0.4322 -0.1412
  551TMC3    C1 8171   4.248   0.118  13.293 -0.0434 -0.0275  0.2955
  551TMC3    C2 8172   4.364   0.097  13.225 -0.4606  0.1879  0.4128
  551TMC3    C3 8173   4.477   0.089  13.302 -0.2535  0.6833 -0.4367
  551TMC3    C4 8174   4.237   0.124  13.435  0.0825 -0.3101 -0.1136
  551TMC3    C5 8175   4.353   0.097  13.501  0.5931 -0.0585  0.3959
  551TMC3    C6 8176   4.472   0.078  13.438 -0.5288  0.3036 -0.2417
  551TMC3     C 8177   4.124   0.110  13.221  0.2770 -0.1299 -0.3432
  551TMC3     O 8178   4.034   0.065  13.288 -0.3619 -0.5199 -0.0493
  551TMC3     H 8179   4.367   0.093  13.117 -0.3665 -0.2922  0.4322
  551TMC3    H1 8180   4.149   0.148  13.493  0.8224 -0.1890  0.9453
  551TMC3    H2 8181   4.565   0.058  13.489 -0.1635 -0.1222 -1.0740
  551TMC3    C7 8182   4.353   0.166  13.629 -0.3804  0.2428  0.4548
  551TMC3    C8 8183   4.604   0.099  13.244  0.7960 -0.1723 -0.0894
  551TMC3    O1 8184   4.389   0.107  13.731  0.2531 -0.7647  0.4075
  551TMC3    O2 8185   4.699   0.064  13.315  0.1249 -0.0157 -0.1043
  552MPD2     C 8186   1.274   2.312  13.848 -1.2227  0.4727 -0.3019
  552MPD2    C1 8187   1.327   2.190  13.881  0.4255  0.4600  0.0673
  552MPD2    C2 8188   1.435   2.187  13.959  0.6251 -0.2774  0.5448
  552MPD2    C3 8189   1.503   2.300  14.010 -0.4258 -0.1215 -0.1887
  552MPD2    C4 8190   1.449   2.423  13.975 -0.7427 -0.5483  0.1561
  552MPD2    C5 8191   1.334   2.423  13.899  0.0669 -0.0857  0.2103
  552MPD2     H 8192   1.481   2.092  13.983 -0.6015 -0.3614  2.6187
  552MPD2    H1 8193   1.487   2.510  14.027  0.6863 -0.3185 -1.2976
  552MPD2    H2 8194   1.191   2.311  13.778 -0.8486 -1.1951 -0.7192
  552MPD2    H3 8195   1.282   2.515  13.877 -1.4551 -1.2760 -1.0796
  552MPD2     N 8196   1.619   2.282  14.086  0.1655  0.2876 -0.6340
  552MPD2    H5 8197   1.624   2.194  14.136  1.0652  0.1000 -1.0354
  552MPD2    N1 8198   1.295   2.065  13.819  0.0770 -0.4594  0.1755
  552MPD2    H7 8199   1.335   1.979  13.855  1.5007 -0.1618 -0.6775
  553TMC3    C1 8200   1.205   1.907  13.654 -0.4465 -0.5441 -0.2541
  553TMC3    C2 8201   1.196   1.886  13.520 -0.5453 -0.8146  0.5060
  553TMC3    C3 8202   1.198   1.757  13.476  0.1460  0.3220  0.1327
  553TMC3    C4 8203   1.235   1.806  13.743 -0.4284  0.3753  0.4369
  553TMC3    C5 8204   1.239   1.681  13.696 -0.9548  0.4092  0.2900
  553TMC3    C6 8205   1.227   1.657  13.566 -0.0422  0.3156  0.2946
  553TMC3     C 8206   1.230   2.047  13.696 -0.5459 -0.1309  0.2786
  553TMC3     O 8207   1.202   2.133  13.611  0.1653 -0.0331 -0.7417
  553TMC3     H 8208   1.178   1.972  13.456 -2.9380 -1.2468  0.6031
  553TMC3    H1 8209   1.241   1.813  13.851 -2.0528 -1.1031  0.6286
  553TMC3    H2 8210   1.244   1.556  13.532  0.6178  0.2810  0.7279
  553TMC3    C7 8211   1.315   1.589  13.763  0.2408 -0.9341 -0.3273
  553TMC3    C8 8212   1.241   1.728  13.334  0.4848 -0.3705  0.2582
  553TMC3    O1 8213   1.300   1.468  13.739 -0.8767  0.2529  0.4784
  553TMC3    O2 8214   1.294   1.822  13.278 -0.2540 -0.0714  0.8321
  554TMC3    C1 8215   3.637   1.150  11.621 -0.5621  0.8752  0.1816
  554TMC3    C2 8216   3.577   1.107  11.506  0.8320  0.0224  0.4765
  554TMC3    C3 8217   3.627   1.139  11.386 -0.0331  0.2106  0.1655
  554TMC3    C4 8218   3.744   1.230  11.615  0.5020  0.3767 -0.1609
  554TMC3    C5 8219   3.796   1.267  11.491  0.0861 -0.2371  0.4723
  554TMC3    C6 8220   3.735   1.224  11.376  0.6374  0.3987  0.4789
  554TMC3     C 8221   3.594   1.097  11.751 -0.6497 -0.4774  0.2110
  554TMC3     O 8222   3.667   1.128  11.843  0.3459 -0.0433 -0.0775
  554TMC3     H 8223   3.484   1.055  11.521  2.0766 -1.8326  1.7084
  554TMC3    H1 8224   3.794   1.256  11.707 -0.8573 -1.3206  1.0400
  554TMC3    H2 8225   3.784   1.238  11.280  0.6453  0.8146  0.5441
  554TMC3    C7 8226   3.863   1.393  11.479  0.5349  0.8967  0.9897
  554TMC3    C8 8227   3.558   1.109  11.262  0.1614 -0.5847 -0.6756
  554TMC3    O1 8228   3.933   1.412  11.381  0.3527  0.4449  0.0389
  554TMC3    O2 8229   3.599   1.165  11.157 -0.2160  0.3276  0.2758
  555TMC3    C1 8230   2.478   0.810  14.695 -0.4991  0.1990 -0.6723
  555TMC3    C2 8231   2.550   0.906  14.759  0.7187 -0.1222  0.9036
  555TMC3    C3 8232   2.582   0.880  14.890  0.1296 -0.6440 -0.5097
  555TMC3    C4 8233   2.466   0.682  14.740  0.2172 -0.3297 -0.0217
  555TMC3    C5 8234   2.519   0.657  14.862  0.3163  0.1313  0.1053
  555TMC3    C6 8235   2.571   0.756  14.945 -0.6089 -0.0051 -0.1033
  555TMC3     C 8236   2.456   0.830  14.554 -0.0786 -0.0867 -0.1413
  555TMC3     O 8237   2.526   0.923  14.515  0.2387  0.2301  0.1923
  555TMC3     H 8238   2.544   1.009  14.726 -1.4805 -0.2946  0.8213
  555TMC3    H1 8239   2.430   0.600  14.680  0.0547 -0.1523 -0.1650
  555TMC3    H2 8240   2.598   0.738  15.048 -0.6100  3.2965  0.4658
  555TMC3    C7 8241   2.476   0.540  14.933 -0.1564  0.1276  0.3649
  555TMC3    C8 8242   2.669   0.982  14.955 -0.0856  0.0829 -0.7347
  555TMC3    O1 8243   2.446   0.557  15.052 -0.5104  0.4688  0.2303
  555TMC3    O2 8244   2.659   1.094  14.905 -0.2512  0.0466 -0.5210
  556MPD2     C 8245   0.530   2.626  10.564 -0.2490  0.3742 -0.0585
  556MPD2    C1 8246   0.558   2.524  10.650  0.2880 -0.5967  0.1808
  556MPD2    C2 8247   0.587   2.397  10.596 -0.3795 -0.1997  0.0658
  556MPD2    C3 8248   0.577   2.365  10.463 -0.1928 -0.0032 -0.1558
  556MPD2    C4 8249   0.558   2.472  10.378  0.6231  0.0286 -0.1800
  556MPD2    C5 8250   0.524   2.597  10.431  0.5450  0.1790  0.1198
  556MPD2     H 8251   0.609   2.317  10.666  2.7621 -0.1405 -0.8444
  556MPD2    H1 8252   0.534   2.464  10.273 -0.2255 -2.7508  0.2322
  556MPD2    H2 8253   0.503   2.723  10.605 -0.1327  0.5585 -0.4255
  556MPD2    H3 8254   0.476   2.667  10.364  0.9644  0.8796  0.5599
  556MPD2     N 8255   0.590   2.231  10.408  0.4467 -0.1949  0.1480
  556MPD2    H5 8256   0.597   2.158  10.479 -1.6890  0.7067  1.2768
  556MPD2    N1 8257   0.572   2.547  10.790  0.2377 -0.1105 -0.3274
  556MPD2    H7 8258   0.566   2.463  10.847 -2.9352 -1.6794 -2.9718
  557TMC3    C1 8259   0.634   2.059  10.245 -0.4648  0.6986 -0.5900
  557TMC3    C2 8260   0.665   2.032  10.118  0.2142 -0.4578  0.1544
  557TMC3    C3 8261   0.638   1.903  10.066 -0.9005  0.6861 -0.0524
  557TMC3    C4 8262   0.562   1.969  10.320 -0.0228  0.3528 -0.2308
  557TMC3    C5 8263   0.546   1.837  10.269  0.7539 -0.5644 -0.3787
  557TMC3    C6 8264   0.589   1.801  10.144 -0.0600 -0.0888  0.4762
  557TMC3     C 8265   0.603   2.198  10.276  0.4274  0.2152  0.1977
  557TMC3     O 8266   0.600   2.268  10.174 -0.0281 -0.0078  0.1422
  557TMC3     H 8267   0.715   2.103  10.052  0.3101 -0.2510  0.4522
  557TMC3    H1 8268   0.522   1.986  10.420 -0.0478  0.1933 -0.2137
  557TMC3    H2 8269   0.563   1.701  10.110 -2.5308  0.6951  0.0193
  557TMC3    C7 8270   0.458   1.751  10.336  0.3349  0.2698 -0.1416
  557TMC3    C8 8271   0.649   1.895   9.926  1.3602  0.9225  0.6445
  557TMC3    O1 8272   0.476   1.723  10.453 -0.3089 -0.5775 -0.1457
  557TMC3    O2 8273   0.643   2.005   9.875 -0.2857 -0.5325 -0.0606
  558TMC3    C1 8274   3.636   0.011   9.492 -0.2811 -0.2855  0.3758
  558TMC3    C2 8275   3.549   4.700   9.597  0.2804  1.1506 -0.1853
  558TMC3    C3 8276   3.459   4.605   9.570 -1.2858 -0.0488 -0.8129
  558TMC3    C4 8277   3.624   4.680   9.361 -0.5520 -0.4043 -0.3029
  558TMC3    C5 8278   3.529   4.587   9.339 -0.7108  0.1082 -0.0698
  558TMC3    C6 8279   3.460   4.541   9.451 -0.1901  0.1973 -0.9808
  558TMC3     C 8280   3.707   0.139   9.513  0.0940  0.2020 -0.4874
  558TMC3     O 8281   3.731   0.168   9.633 -0.0519  0.4839  0.2927
  558TMC3     H 8282   3.538   0.036   9.689  2.3715 -0.2128  0.8732
  558TMC3    H1 8283   3.678   0.002   9.277  0.0413  2.1676  1.3607
  558TMC3    H2 8284   3.377   4.476   9.427 -1.8393  2.4630 -1.5279
  558TMC3    C7 8285   3.522   4.520   9.205 -0.3522  0.8488 -0.0586
  558TMC3    C8 8286   3.327   4.616   9.636 -0.6083 -0.5566  1.0692
  558TMC3    O1 8287   3.585   4.567   9.116 -0.0658 -0.0126  0.1944
  558TMC3    O2 8288   3.229   4.613   9.563 -0.3555  0.3130  0.2742
  559MPD2     C 8289   3.282   0.894  10.414  0.1232 -0.3839 -0.9109
  559MPD2    C1 8290   3.237   0.837  10.529  0.5677 -0.1706 -0.4984
  559MPD2    C2 8291   3.326   0.827  10.629 -0.0297  0.1289  0.3243
  559MPD2    C3 8292   3.449   0.890  10.627  0.7475  0.1002  0.7613
  559MPD2    C4 8293   3.494   0.958  10.520 -0.3211 -0.3888 -1.0132
  559MPD2    C5 8294   3.412   0.946  10.413 -0.0868  0.0227 -0.0780
  559MPD2     H 8295   3.292   0.775  10.718  2.0739 -2.3846 -0.3354
  559MPD2    H1 8296   3.594   0.997  10.507 -0.3409  0.6883  1.8943
  559MPD2    H2 8297   3.230   0.907  10.320  0.0459  2.2830 -0.5013
  559MPD2    H3 8298   3.445   0.987  10.318 -1.1125  0.0605 -0.4217
  559MPD2     N 8299   3.538   0.851  10.723 -0.4199 -0.0901 -0.4075
  559MPD2    H5 8300   3.506   0.785  10.793  0.0025 -0.1300 -0.2557
  559MPD2    N1 8301   3.104   0.790  10.554 -0.7801 -0.2195 -0.1537
  559MPD2    H7 8302   3.078   0.771  10.650  2.9650 -0.5227  0.8027
  560TMC3    C1 8303   3.720   0.817  10.846 -0.3408  0.2244 -0.0802
  560TMC3    C2 8304   3.704   0.683  10.822  0.1278 -0.2177  0.4517
  560TMC3    C3 8305   3.703   0.601  10.933  1.0720 -0.1500 -0.6442
  560TMC3    C4 8306   3.735   0.870  10.966 -0.3967 -0.6100 -0.3163
  560TMC3    C5 8307   3.752   0.779  11.072 -0.4797 -0.5199  0.3828
  560TMC3    C6 8308   3.722   0.645  11.062 -0.1519  0.4826 -0.5100
  560TMC3     C 8309   3.661   0.903  10.739 -0.4019  0.4469 -0.4200
  560TMC3     O 8310   3.691   1.021  10.732  0.3074 -0.2873  0.2419
  560TMC3     H 8311   3.689   0.647  10.721  2.5607  0.0678 -0.0007
  560TMC3    H1 8312   3.730   0.978  10.975 -0.7373 -0.5995 -0.6224
  560TMC3    H2 8313   3.752   0.575  11.140  2.0933  0.9486 -0.9408
  560TMC3    C7 8314   3.837   0.822  11.180 -0.3237  0.5141 -0.4750
  560TMC3    C8 8315   3.612   0.488  10.907 -0.6882 -0.5159  0.5540
  560TMC3    O1 8316   3.831   0.759  11.286 -0.9690 -0.0426 -0.3002
  560TMC3    O2 8317   3.586   0.459  10.794  0.2339  0.1257 -0.4401
  561TMC3    C1 8318   1.400   4.315  11.080  0.6354 -0.7983 -0.3366
  561TMC3    C2 8319   1.311   4.218  11.107 -0.6045 -0.3051  0.2812
  561TMC3    C3 8320   1.186   4.247  11.142  0.3085  0.3767  0.5974
  561TMC3    C4 8321   1.362   4.444  11.054 -0.1887 -0.6419 -0.2351
  561TMC3    C5 8322   1.227   4.470  11.090  0.0873 -0.5740 -0.1791
  561TMC3    C6 8323   1.142   4.380  11.139  0.0035 -0.2379 -0.0775
  561TMC3     C 8324   1.528   4.284  11.153  0.0346  0.0643 -0.0197
  561TMC3     O 8325   1.525   4.184  11.225 -0.0139 -0.2775 -0.2396
  561TMC3     H 8326   1.346   4.115  11.104 -0.9699 -0.4323  0.3851
  561TMC3    H1 8327   1.428   4.526  11.028 -0.4013  0.5866  3.0397
  561TMC3    H2 8328   1.043   4.416  11.165 -0.6176 -0.4165 -2.1711
  561TMC3    C7 8329   1.184   4.604  11.105  0.1136 -0.2981 -0.1321
  561TMC3    C8 8330   1.136   4.165  11.245  0.2350  0.6461 -0.1321
  561TMC3    O1 8331   1.083   4.620  11.175 -0.2176 -0.3316 -0.2503
  561TMC3    O2 8332   1.220   4.084  11.284  0.0431 -0.0695 -0.1766
  562TMC3    C1 8333   2.265   0.993  16.112 -0.1874 -0.3376  0.2502
  562TMC3    C2 8334   2.236   1.125  16.104 -0.1108  0.2727  0.2667
  562TMC3    C3 8335   2.187   1.168  15.981 -0.1592 -0.6816 -0.3514
  562TMC3    C4 8336   2.267   0.905  16.008 -0.6447 -0.9133  0.2407
  562TMC3    C5 8337   2.234   0.952  15.885 -0.0949 -0.5787  0.3230
  562TMC3    C6 8338   2.191   1.084  15.867  0.2266 -0.5739  0.2674
  562TMC3     C 8339   2.308   0.940  16.239 -0.0405  0.1404  0.6757
  562TMC3     O 8340   2.287   1.006  16.341  0.5927 -0.1342 -0.2895
  562TMC3     H 8341   2.219   1.176  16.198 -0.2294 -2.0678  1.5225
  562TMC3    H1 8342   2.264   0.801  16.039 -0.4793 -0.9669  0.0759
  562TMC3    H2 8343   2.156   1.117  15.769  1.6019  0.9049  0.2712
  562TMC3    C7 8344   2.267   0.873  15.775 -0.0221  0.0073 -0.0238
  562TMC3    C8 8345   2.126   1.301  15.971  0.2185 -0.2464 -0.1663
  562TMC3    O1 8346   2.229   0.920  15.666 -0.3878  0.4140 -0.4735
  562TMC3    O2 8347   2.083   1.349  16.075 -0.1407  0.3936  0.0903
  563MPD2     C 8348   4.397   2.364  15.881  0.6858  0.1691  0.2585
  563MPD2    C1 8349   4.391   2.355  16.019 -0.8621 -0.4122  0.2607
  563MPD2    C2 8350   4.507   2.374  16.102 -0.3314  0.0273  0.1395
  563MPD2    C3 8351   4.626   2.413  16.040  0.3521  0.3213 -1.2894
  563MPD2    C4 8352   4.632   2.421  15.901 -1.0816 -0.6877  0.0958
  563MPD2    C5 8353   4.523   2.398  15.825 -0.5485  1.1670 -1.1244
  563MPD2     H 8354   4.500   2.367  16.210 -0.0763  0.5810  0.1889
  563MPD2    H1 8355   0.002   2.456  15.852 -2.0319  0.2886 -0.9399
  563MPD2    H2 8356   4.311   2.365  15.815  0.8923 -2.5970 -0.0192
  563MPD2    H3 8357   4.533   2.416  15.718  0.0520 -1.2838 -1.4876
  563MPD2     N 8358   0.012   2.443  16.129  0.1694 -0.8995 -0.3221
  563MPD2    H5 8359   0.007   2.415  16.227  1.9590 -0.3424 -0.0787
  563MPD2    N1 8360   4.264   2.341  16.077  0.4795 -0.7774  0.2740
  563MPD2    H7 8361   4.257   2.372  16.173 -1.3145 -0.4621  0.0318
  564TMC3    C1 8362   4.053   2.304  16.127 -0.0300 -0.3639 -0.0095
  564TMC3    C2 8363   4.016   2.181  16.162  0.0336  0.8028 -0.2355
  564TMC3    C3 8364   4.004   2.147  16.296 -0.9750  0.2725  1.0294
  564TMC3    C4 8365   4.089   2.392  16.227 -0.6109  0.0653 -0.4386
  564TMC3    C5 8366   4.070   2.362  16.360  0.1986 -0.3870 -0.3288
  564TMC3    C6 8367   4.023   2.239  16.398 -0.1384 -0.7156  0.3595
  564TMC3     C 8368   4.146   2.308  16.019  0.0062  0.1173 -0.8507
  564TMC3     O 8369   4.125   2.238  15.921 -1.0190 -0.1189  0.5128
  564TMC3     H 8370   3.978   2.116  16.084 -1.4735  1.8262 -0.3592
  564TMC3    H1 8371   4.112   2.487  16.182 -2.3427  0.6074 -0.1741
  564TMC3    H2 8372   4.025   2.211  16.503  0.0715  1.6053  0.9709
  564TMC3    C7 8373   4.183   2.401  16.429  0.2231 -0.1259  0.5136
  564TMC3    C8 8374   4.045   2.010  16.331  1.1204 -0.6724  0.4896
  564TMC3    O1 8375   4.279   2.422  16.350  0.6933  0.2047 -0.7204
  564TMC3    O2 8376   4.053   1.988  16.454  0.0457  0.0287  0.2547
  565TMC3    C1 8377   0.477   3.687  10.423  0.6466 -0.4226  0.1316
  565TMC3    C2 8378   0.437   3.593  10.512  0.1376 -0.0039  0.6118
  565TMC3    C3 8379   0.325   3.520  10.499  0.4696 -0.3076  0.1023
  565TMC3    C4 8380   0.393   3.721  10.318  0.4298  0.1811 -0.5328
  565TMC3    C5 8381   0.277   3.642  10.310 -0.5808 -0.7874  0.3212
  565TMC3    C6 8382   0.245   3.535  10.389  0.3231 -0.7920 -0.0092
  565TMC3     C 8383   0.592   3.773  10.451  0.2092 -0.5194 -0.2930
  565TMC3     O 8384   0.629   3.768  10.565 -0.9574 -0.0600 -0.0131
  565TMC3     H 8385   0.506   3.571  10.593 -0.5446 -0.4483  1.0751
  565TMC3    H1 8386   0.394   3.823  10.284  1.6066 -0.3827 -2.1554
  565TMC3    H2 8387   0.150   3.484  10.373  0.1496  0.0958 -1.8106
  565TMC3    C7 8388   0.191   3.654  10.190  0.4420  0.0720  0.5255
  565TMC3    C8 8389   0.309   3.389  10.566  0.5420 -0.0809  0.1595
  565TMC3    O1 8390   0.091   3.584  10.178  0.2405 -0.3508  0.2360
  565TMC3    O2 8391   0.249   3.302  10.505  0.0278 -0.0852 -0.1079
  566MPD2     C 8392   1.764   0.073  13.992 -0.0448 -0.0027  0.5123
  566MPD2    C1 8393   1.820   0.185  13.934 -0.0260  0.4799  0.0340
  566MPD2    C2 8394   1.739   0.253  13.846 -0.4181 -0.1117 -0.4275
  566MPD2    C3 8395   1.614   0.207  13.798  0.2007  0.3226  0.2325
  566MPD2    C4 8396   1.559   0.094  13.868 -0.0242  0.1901 -0.5697
  566MPD2    C5 8397   1.636   0.037  13.966  0.0806  0.3893  0.2301
  566MPD2     H 8398   1.776   0.345  13.804  1.6760 -0.8775 -0.2460
  566MPD2    H1 8399   1.463   0.046  13.852  0.4563 -1.5897  1.8683
  566MPD2    H2 8400   1.815   0.025  14.074 -0.9840 -1.6811  0.1177
  566MPD2    H3 8401   1.590   4.689  14.037 -0.4620  0.4186 -0.0975
  566MPD2     N 8402   1.534   0.275  13.701 -0.0255 -0.5405 -0.2331
  566MPD2    H5 8403   1.437   0.248  13.715 -0.8933  1.1983 -3.1479
  566MPD2    N1 8404   1.947   0.223  13.978  0.5285  0.1059 -0.3022
  566MPD2    H7 8405   1.994   0.144  14.020 -1.1967 -0.8933 -0.2817
  567TMC3    C1 8406   2.130   0.360  14.027 -0.0536  0.2676  0.0407
  567TMC3    C2 8407   2.229   0.440  13.977 -0.6007  0.2090  0.4408
  567TMC3    C3 8408   2.340   0.471  14.046  0.4079 -0.1129 -1.1628
  567TMC3    C4 8409   2.149   0.296  14.150  0.2121 -0.4003 -0.3359
  567TMC3    C5 8410   2.268   0.331  14.215  0.2937 -0.5081 -0.3658
  567TMC3    C6 8411   2.367   0.415  14.167  0.1499  0.1385  0.3790
  567TMC3     C 8412   2.018   0.337  13.939 -0.1430  0.1527 -0.2398
  567TMC3     O 8413   1.980   0.420  13.855 -0.2842  0.5629 -0.2262
  567TMC3     H 8414   2.198   0.474  13.879 -0.3456 -1.3275 -0.1765
  567TMC3    H1 8415   2.067   0.242  14.196  0.2753  0.8758  1.2710
  567TMC3    H2 8416   2.451   0.432  14.233  0.2998  0.6012  0.0679
  567TMC3    C7 8417   2.285   0.279  14.343 -0.6092  0.5790 -0.9803
  567TMC3    C8 8418   2.419   0.577  13.979  0.0126  0.1258  0.0198
  567TMC3    O1 8419   2.402   0.260  14.379 -0.0229  0.0690  0.3894
  567TMC3    O2 8420   2.393   0.603  13.862  0.0648 -0.9005  0.3437
  568MPD2     C 8421   3.788   0.610  16.817 -0.2503  0.1604 -0.1109
  568MPD2    C1 8422   3.864   0.699  16.885 -0.0680 -0.0150 -0.1228
  568MPD2    C2 8423   3.834   0.831  16.873  0.0026 -0.0440  0.1489
  568MPD2    C3 8424   3.739   0.872  16.781 -0.8709 -0.0883  0.2680
  568MPD2    C4 8425   3.657   0.782  16.720  0.1021  0.1362 -0.3961
  568MPD2    C5 8426   3.687   0.649  16.735 -0.1777 -0.3809  0.1102
  568MPD2     H 8427   3.901   0.902  16.918 -0.5406  0.0017  0.8907
  568MPD2    H1 8428   3.586   0.814  16.644 -0.6390  0.2253  0.3222
  568MPD2    H2 8429   3.826   0.510  16.806 -2.0424 -0.4957 -0.3995
  568MPD2    H3 8430   3.639   0.569  16.679 -0.7902 -0.3203  0.5580
  568MPD2     N 8431   3.730   1.017  16.772  0.0876  0.1764 -0.2428
  568MPD2    H5 8432   3.785   1.069  16.839 -1.4709  1.8253 -0.2686
  568MPD2    N1 8433   3.972   0.648  16.962  0.2718  0.1162  0.0090
  568MPD2    H7 8434   3.992   0.550  16.946  1.2789  0.3064  0.0786
  569TMC3    C1 8435   3.705   1.212  16.681  0.4102 -0.0063  0.1388
  569TMC3    C2 8436   3.746   1.260  16.803  0.4926 -0.4371 -0.1866
  569TMC3    C3 8437   3.837   1.359  16.798  0.1871 -0.5684  0.0406
  569TMC3    C4 8438   3.758   1.247  16.558  0.4827  0.0268 -0.1560
  569TMC3    C5 8439   3.858   1.343  16.564  0.6012  0.4467 -0.2908
  569TMC3    C6 8440   3.896   1.399  16.681  0.5290 -0.2154  0.5219
  569TMC3     C 8441   3.648   1.082  16.692  0.0183 -0.2762  0.4116
  569TMC3     O 8442   3.588   1.045  16.593  0.3608  0.0961 -0.4281
  569TMC3     H 8443   3.693   1.250  16.897 -0.4044 -1.0241 -0.7545
  569TMC3    H1 8444   3.740   1.191  16.466  0.7080  1.3061 -0.9836
  569TMC3    H2 8445   3.972   1.477  16.685  0.5948 -0.3431  1.6832
  569TMC3    C7 8446   3.912   1.385  16.437 -0.1253 -0.4462 -0.1771
  569TMC3    C8 8447   3.852   1.446  16.911 -0.0659 -0.8942  0.4388
  569TMC3    O1 8448   3.900   1.305  16.344 -0.3124 -0.2426  0.2854
  569TMC3    O2 8449   3.746   1.461  16.971  0.1436  0.3224 -0.8416
  570TMC3    C1 8450   3.390   0.044  16.651  0.3679  0.0423  0.2759
  570TMC3    C2 8451   3.449   0.048  16.529  0.1995  0.0280 -0.0512
  570TMC3    C3 8452   3.468   0.170  16.464  0.5056 -0.4940  0.6998
  570TMC3    C4 8453   3.356   0.157  16.709 -0.0334 -0.2544 -0.8608
  570TMC3    C5 8454   3.361   0.276  16.639 -0.2569  0.2963  0.5516
  570TMC3    C6 8455   3.430   0.284  16.525 -0.2759 -0.6888  0.1420
  570TMC3     C 8456   3.391   4.633  16.721 -1.0670 -0.3461 -0.0267
  570TMC3     O 8457   3.397   4.533  16.652  0.0013 -0.8095 -0.5751
  570TMC3     H 8458   3.499   4.677  16.498 -0.2400 -0.5560  0.9462
  570TMC3    H1 8459   3.314   0.158  16.809 -0.4257  1.6036 -1.0286
  570TMC3    H2 8460   3.440   0.377  16.471  1.0645 -0.5233  0.6795
  570TMC3    C7 8461   3.355   0.390  16.721  0.0288 -1.2475  0.6190
  570TMC3    C8 8462   3.545   0.171  16.343 -0.3987  0.4255 -0.4257
  570TMC3    O1 8463   3.379   0.369  16.840  0.3025 -0.0694 -0.4346
  570TMC3    O2 8464   3.604   0.275  16.319 -0.1601  0.0497  0.4642
  571MPD2     C 8465   1.870   0.834  17.437 -0.4433  0.0150 -0.1712
  571MPD2    C1 8466   1.904   0.856  17.566  0.2138  0.1455  0.9434
  571MPD2    C2 8467   1.894   0.990  17.609  0.4010  0.4498 -0.0333
  571MPD2    C3 8468   1.848   1.094  17.535  0.3805  0.2170  0.0572
  571MPD2    C4 8469   1.826   1.070  17.399 -0.6628  0.2075 -0.6807
  571MPD2    C5 8470   1.837   0.939  17.356  0.3102  0.3695  0.4180
  571MPD2     H 8471   1.933   1.005   0.027 -0.3082 -1.3159  0.5072
  571MPD2    H1 8472   1.785   1.139  17.326  2.5855  1.8704 -0.9166
  571MPD2    H2 8473   1.884   0.736  17.393  0.1720 -0.2184  0.5442
  571MPD2    H3 8474   1.825   0.920  17.250  0.1908 -2.3377  0.9236
  571MPD2     N 8475   1.834   1.226  17.585  0.0225 -0.2670 -0.4036
  571MPD2    H5 8476   1.817   1.295  17.513 -0.3978 -0.4661 -0.4987
  571MPD2    N1 8477   1.959   0.748  17.641 -0.5283  0.2659 -0.2112
  571MPD2    H7 8478   1.976   0.661  17.590 -1.3142 -0.0559  0.0735
  572TMC3    C1 8479   1.803   1.394   0.064 -0.0768 -0.5111  0.0213
  572TMC3    C2 8480   1.746   1.419   0.185  0.8312 -0.0889  0.5061
  572TMC3    C3 8481   1.724   1.555   0.218  0.1877  0.1452 -0.1905
  572TMC3    C4 8482   1.828   1.487  17.650 -0.2987  0.4612  0.0678
  572TMC3    C5 8483   1.816   1.618   0.009  0.1800  0.9571  0.1361
  572TMC3    C6 8484   1.752   1.651   0.128 -0.6764 -0.4703  0.0265
  572TMC3     C 8485   1.811   1.250   0.032 -0.2550 -0.1352 -0.1199
  572TMC3     O 8486   1.785   1.170   0.123 -0.3840 -0.4030 -0.0764
  572TMC3     H 8487   1.746   1.349   0.267 -1.9026 -0.4219  0.2472
  572TMC3    H1 8488   1.874   1.460  17.556 -0.5213  1.7650 -0.4176
  572TMC3    H2 8489   1.749   1.757   0.148 -0.6216 -1.2187  3.9264
  572TMC3    C7 8490   1.867   1.725  17.610  0.6240  0.3187  0.0789
  572TMC3    C8 8491   1.769   1.587   0.357  0.2247  0.4684 -0.3224
  572TMC3    O1 8492   1.810   1.834  17.607  0.5498  0.4076 -0.2011
  572TMC3    O2 8493   1.842   1.514   0.419  0.0600 -0.0709 -0.5863
  573MPD2     C 8494   2.905   1.788   0.535  1.0987 -0.2143 -0.3142
  573MPD2    C1 8495   2.889   1.917   0.483 -0.0526 -0.1719 -0.4119
  573MPD2    C2 8496   2.897   1.929   0.344  0.4521  0.3579 -0.1811
  573MPD2    C3 8497   2.879   1.811   0.269 -0.4403  0.7951  0.0056
  573MPD2    C4 8498   2.869   1.686   0.324 -0.8377 -0.4211  0.3120
  573MPD2    C5 8499   2.889   1.678   0.459 -0.1686 -0.6152  0.5581
  573MPD2     H 8500   2.900   2.025   0.294  0.4836  0.2021 -0.4779
  573MPD2    H1 8501   2.858   1.595   0.266 -0.1256 -1.4047  1.7486
  573MPD2    H2 8502   2.906   1.762   0.640 -1.5690 -0.1811 -0.2798
  573MPD2    H3 8503   2.875   1.579   0.501  1.2865 -1.4646 -0.9110
  573MPD2     N 8504   2.866   1.812   0.128 -0.7196 -0.1242  0.0899
  573MPD2    H5 8505   2.819   1.735   0.081 -1.0257  0.3004 -0.3063
  573MPD2    N1 8506   2.883   2.025   0.574 -0.6568  0.1484  0.8520
  573MPD2    H7 8507   2.901   2.008   0.673 -1.3249 -0.5757  0.8496
  574TMC3    C1 8508   2.860   1.887  17.601  0.1053  0.4470 -0.1290
  574TMC3    C2 8509   2.721   1.869  17.602 -0.4372  1.0003  0.3935
  574TMC3    C3 8510   2.653   1.912  17.494 -0.6191  0.3379  0.6787
  574TMC3    C4 8511   2.925   1.958  17.501  0.4649 -0.6688  0.1099
  574TMC3    C5 8512   2.843   1.991  17.394  0.5953  0.1329 -0.3791
  574TMC3    C6 8513   2.707   1.976  17.387 -0.4104  0.5894  0.0849
  574TMC3     C 8514   2.917   1.908   0.050  0.5675  0.4255  0.6791
  574TMC3     O 8515   2.988   2.010   0.068  0.1408 -0.8383 -0.0288
  574TMC3     H 8516   2.667   1.815  17.679 -0.9884 -0.2861 -0.9055
  574TMC3    H1 8517   3.032   1.972  17.500  0.4303 -0.3658  0.4182
  574TMC3    H2 8518   2.656   2.022  17.304 -0.3993  1.4716  0.5624
  574TMC3    C7 8519   2.912   2.044  17.279 -0.3133  0.3113  1.2412
  574TMC3    C8 8520   2.512   1.942  17.522  0.1259  0.6644  0.1439
  574TMC3    O1 8521   3.011   2.111  17.301  0.6311  0.0933 -0.1026
  574TMC3    O2 8522   2.447   1.885  17.609  0.1024 -0.0428  0.1953
  575TMC3    C1 8523   0.737   3.343  11.468  1.0751 -0.1753  0.3766
  575TMC3    C2 8524   0.684   3.244  11.558 -0.0155  0.3126  0.2948
  575TMC3    C3 8525   0.586   3.161  11.515 -0.3780 -0.0836  0.3291
  575TMC3    C4 8526   0.685   3.356  11.343  0.3782  0.5767 -0.2547
  575TMC3    C5 8527   0.574   3.277  11.309  0.1076  0.3221  0.4420
  575TMC3    C6 8528   0.534   3.173  11.389 -0.6460 -0.3169  0.4716
  575TMC3     C 8529   0.861   3.415  11.508  0.2065 -0.6500  0.5039
  575TMC3     O 8530   0.915   3.380  11.615  0.1786 -0.1488  0.0765
  575TMC3     H 8531   0.740   3.239  11.650  1.6084  1.0778 -0.6528
  575TMC3    H1 8532   0.719   3.428  11.270  0.3413  0.6276 -0.2213
  575TMC3    H2 8533   0.442   3.119  11.370 -1.0760 -0.7001  3.5224
  575TMC3    C7 8534   0.519   3.309  11.183  0.3873 -0.7289 -0.4805
  575TMC3    C8 8535   0.529   3.061  11.600  0.0026 -0.2075 -0.2266
  575TMC3    O1 8536   0.543   3.417  11.121 -0.0584  0.2687  0.1962
  575TMC3    O2 8537   0.470   2.966  11.547  0.0013  0.3225 -0.8574
  576MPD2     C 8538   0.143   4.573  12.272  0.0484 -0.1521  0.9313
  576MPD2    C1 8539   0.164   4.676  12.185  0.0286 -0.2715 -0.2822
  576MPD2    C2 8540   0.086   0.071  12.205 -0.0940  0.3710 -0.0198
  576MPD2    C3 8541   4.698   0.077  12.288 -0.2035 -0.9149  0.5628
  576MPD2    C4 8542   4.664   4.685  12.355 -0.0430 -0.4235  0.1046
  576MPD2    C5 8543   0.033   4.582  12.348  0.4663 -0.6317 -0.7675
  576MPD2     H 8544   0.108   0.159  12.145  0.6109  0.0933 -0.1791
  576MPD2    H1 8545   4.585   4.677  12.428 -0.1058  1.9795  0.2905
  576MPD2    H2 8546   0.202   4.483  12.277  0.5934  0.1593  0.0528
  576MPD2    H3 8547   0.002   4.499  12.410 -2.4889  0.3615 -0.9146
  576MPD2     N 8548   4.620   0.200  12.293  0.1573 -0.0724  0.3724
  576MPD2    H5 8549   4.658   0.280  12.243 -1.8316 -0.4627 -1.7630
  576MPD2    N1 8550   0.265   4.673  12.085 -0.4001 -0.3615  0.1380
  576MPD2    H7 8551   0.254   0.022  12.011  0.2798 -1.2406 -0.7897
  577TMC3    C1 8552   0.414   4.558  11.929 -0.4213  0.0043  0.7854
  577TMC3    C2 8553   0.495   4.453  11.902 -0.1148  0.6676  0.0414
  577TMC3    C3 8554   0.568   4.449  11.783 -0.4668 -0.3195  0.1136
  577TMC3    C4 8555   0.417   4.664  11.843  0.1274  0.2576  0.3324
  577TMC3    C5 8556   0.500   4.662  11.729  0.1430  0.6162  0.6747
  577TMC3    C6 8557   0.573   4.552  11.695  0.5350  0.4225 -0.2321
  577TMC3     C 8558   0.350   4.562  12.061  0.4891  0.7363  0.4420
  577TMC3     O 8559   0.382   4.472  12.137  0.9207  0.4651 -0.5490
  577TMC3     H 8560   0.516   4.372  11.971  0.2797 -0.2717 -1.1884
  577TMC3    H1 8561   0.350   0.026  11.866 -0.1630  0.0143  0.3556
  577TMC3    H2 8562   0.640   4.560  11.610  0.5484  1.6039 -0.1179
  577TMC3    C7 8563   0.544   0.073  11.673  0.4920 -0.6486  0.1376
  577TMC3    C8 8564   0.659   4.338  11.764  0.0123  0.2519 -0.3381
  577TMC3    O1 8565   0.661   0.070  11.637  0.1019 -0.1503 -0.6432
  577TMC3    O2 8566   0.665   4.253  11.853  0.1701  0.8226  0.1425
  578MPD2     C 8567   3.135   0.368   1.479  0.4170  0.6464  0.4248
  578MPD2    C1 8568   3.219   0.293   1.401  0.0023  0.6891  0.4707
  578MPD2    C2 8569   3.262   0.172   1.455  0.6439 -0.0911  0.3004
  578MPD2    C3 8570   3.222   0.120   1.576 -0.0998  0.0664 -0.8209
  578MPD2    C4 8571   3.130   0.194   1.646  0.1595 -0.0009  0.1183
  578MPD2    C5 8572   3.089   0.321   1.597  0.0515 -0.1069 -0.2591
  578MPD2     H 8573   3.329   0.112   1.396  0.1553  0.7107 -1.0635
  578MPD2    H1 8574   3.090   0.153   1.738  0.4852  3.2595  1.7400
  578MPD2    H2 8575   3.108   0.466   1.443  2.2407  1.0283  0.1101
  578MPD2    H3 8576   3.024   0.383   1.657  0.6457 -1.1501  1.4796
  578MPD2     N 8577   3.279   0.004   1.629 -0.1614  0.0285  0.4688
  578MPD2    H5 8578   3.341   4.672   1.567 -1.8068 -1.7932  0.3232
  578MPD2    N1 8579   3.254   0.341   1.274 -0.2329  0.4039  0.7683
  578MPD2    H7 8580   3.199   0.424   1.253  0.1066  0.5984  0.6502
  579TMC3    C1 8581   3.328   4.540   1.771 -0.5304 -0.5276 -0.2415
  579TMC3    C2 8582   3.353   4.496   1.896  0.0593  0.3748  0.0319
  579TMC3    C3 8583   3.466   4.419   1.911 -0.9099 -0.1143 -0.6781
  579TMC3    C4 8584   3.387   4.485   1.656  0.2360  0.2727 -0.7163
  579TMC3    C5 8585   3.484   4.392   1.680 -0.1465  0.2934 -0.3193
  579TMC3    C6 8586   3.527   4.366   1.805 -0.4070  0.2277 -0.3274
  579TMC3     C 8587   3.253   4.667   1.753 -0.0584  0.4735 -0.2306
  579TMC3     O 8588   3.192   4.699   1.857 -0.4360 -0.3971  0.2029
  579TMC3     H 8589   3.301   4.540   1.980 -2.4124 -0.2421 -1.1675
  579TMC3    H1 8590   3.333   4.496   1.562  4.0475 -0.5994 -3.0087
  579TMC3    H2 8591   3.604   4.293   1.823  0.0268  0.8540  0.3410
  579TMC3    C7 8592   3.529   4.299   1.576 -0.1988  0.4663  0.4118
  579TMC3    C8 8593   3.554   4.471   2.021 -0.8782 -0.0473  1.0066
  579TMC3    O1 8594   3.614   4.218   1.612 -0.2264  0.0039  0.4052
  579TMC3    O2 8595   3.491   4.532   2.102  0.3738 -0.3245 -0.5240
  580TMC3    C1 8596   2.603   3.830  11.979 -0.1354  0.1511  0.3157
  580TMC3    C2 8597   2.573   3.960  11.997 -0.0337 -0.1474  0.2398
  580TMC3    C3 8598   2.611   4.020  12.111 -0.7691 -0.3306 -0.0818
  580TMC3    C4 8599   2.667   3.756  12.076  0.2631  0.0866  0.0270
  580TMC3    C5 8600   2.704   3.826  12.188  0.1051 -1.2037  0.3808
  580TMC3    C6 8601   2.667   3.954  12.209 -0.0268 -0.2615 -0.1831
  580TMC3     C 8602   2.617   3.796  11.838  0.2308 -0.2719  0.1014
  580TMC3     O 8603   2.643   3.891  11.759 -0.3533 -0.1440 -0.0414
  580TMC3     H 8604   2.515   4.022  11.929 -1.3416 -0.6818  0.8609
  580TMC3    H1 8605   2.706   3.658  12.050 -0.5091 -0.4179  0.7276
  580TMC3    H2 8606   2.688   4.005  12.303  3.4409 -0.0093 -1.1103
  580TMC3    C7 8607   2.769   3.766  12.302 -0.6074 -0.0124 -0.0604
  580TMC3    C8 8608   2.646   4.157  12.094 -0.6984  0.3597 -1.0610
  580TMC3    O1 8609   2.802   3.838  12.396  0.3366 -0.1282 -0.0012
  580TMC3    O2 8610   2.668   4.223  12.196 -0.0913 -0.0888  0.8996
  581MPD2     C 8611   0.919   4.164  15.118 -0.5427  0.0402  0.0307
  581MPD2    C1 8612   0.873   4.031  15.099 -0.5223  0.4355  0.7645
  581MPD2    C2 8613   0.743   4.002  15.069 -0.3472  0.5045 -0.1486
  581MPD2    C3 8614   0.655   4.107  15.042  0.4246 -0.0182 -0.5628
  581MPD2    C4 8615   0.705   4.238  15.038  0.3204 -0.6451 -0.2105
  581MPD2    C5 8616   0.835   4.265  15.081 -0.0374 -0.1129  1.4156
  581MPD2     H 8617   0.715   3.898  15.056  1.1732  0.1390 -0.4367
  581MPD2    H1 8618   0.647   4.325  15.012  1.7585 -0.4090 -2.6402
  581MPD2    H2 8619   1.022   4.178  15.149 -0.9091  0.9295  0.8240
  581MPD2    H3 8620   0.865   4.369  15.092  0.8641 -0.3015  0.7752
  581MPD2     N 8621   0.530   4.065  14.987  0.2880 -0.6428 -0.0920
  581MPD2    H5 8622   0.525   3.966  14.968  1.7353 -0.8398  0.5186
  581MPD2    N1 8623   0.972   3.933  15.135  0.2056  0.2580 -0.3798
  581MPD2    H7 8624   1.065   3.969  15.154  1.8660 -3.3346 -1.8551
  582TMC3    C1 8625   1.052   3.729  15.237  0.0934  0.1038 -0.1917
  582TMC3    C2 8626   1.101   3.792  15.349  0.2134  0.0308 -0.1334
  582TMC3    C3 8627   1.156   3.720  15.451  1.5248 -0.4813 -0.5606
  582TMC3    C4 8628   1.053   3.589  15.236 -1.1617  0.2987 -0.0679
  582TMC3    C5 8629   1.092   3.518  15.348  0.0161  0.5611 -0.0674
  582TMC3    C6 8630   1.145   3.582  15.453 -0.3177  0.9364  0.1571
  582TMC3     C 8631   0.944   3.796  15.161  0.2068 -0.1596 -0.6445
  582TMC3     O 8632   0.863   3.718  15.108 -0.4425 -0.0639 -0.0682
  582TMC3     H 8633   1.077   3.896  15.365  2.0201  0.7248 -1.9728
  582TMC3    H1 8634   1.042   3.540  15.140 -0.9031  2.0958 -1.0156
  582TMC3    H2 8635   1.163   3.529  15.547  1.4371  0.7653 -0.2891
  582TMC3    C7 8636   0.997   3.421  15.396  0.5803  0.0858 -0.1676
  582TMC3    C8 8637   1.154   3.778  15.579 -0.4216  0.3320  0.1706
  582TMC3    O1 8638   1.013   3.373  15.505  0.3745 -0.1717  0.4984
  582TMC3    O2 8639   1.109   3.887  15.601 -0.2940  0.1910 -0.2871
  583MPD2     C 8640   0.963   0.966  16.954 -0.6417 -0.4464 -0.0604
  583MPD2    C1 8641   0.902   1.024  16.848  0.4482 -0.0279 -0.5895
  583MPD2    C2 8642   0.806   1.124  16.881 -0.1924 -0.6245  0.0093
  583MPD2    C3 8643   0.754   1.137  17.014  0.2068 -0.7670 -1.3708
  583MPD2    C4 8644   0.827   1.084  17.115 -0.0113 -0.0403 -0.4047
  583MPD2    C5 8645   0.932   0.997  17.087 -0.1217 -0.2715 -0.2354
  583MPD2     H 8646   0.753   1.186  16.810  0.6504  1.6874  1.3884
  583MPD2    H1 8647   0.814   1.098  17.222  0.6740 -2.1639 -0.0296
  583MPD2    H2 8648   1.042   0.894  16.938 -2.0125 -1.7056 -1.0904
  583MPD2    H3 8649   0.982   0.941  17.164 -1.4973 -1.9711 -0.5845
  583MPD2     N 8650   0.639   1.220  17.040 -0.0590  0.1085  0.1283
  583MPD2    H5 8651   0.608   1.288  16.972 -0.6707 -0.7234 -0.4210
  583MPD2    N1 8652   0.929   0.993  16.711  0.0696  0.4784  0.2403
  583MPD2    H7 8653   0.877   1.044  16.640 -0.2153 -0.6436 -0.3645
  584TMC3    C1 8654   0.446   1.288  17.175 -0.3677  0.1723  0.0952
  584TMC3    C2 8655   0.457   1.423  17.148 -0.6938  0.1135  0.0600
  584TMC3    C3 8656   0.394   1.521  17.231 -0.4152 -0.6811  0.9686
  584TMC3    C4 8657   0.358   1.252  17.269  0.0010 -0.1192 -0.1765
  584TMC3    C5 8658   0.291   1.344  17.343  0.1524 -0.6878 -0.4054
  584TMC3    C6 8659   0.320   1.479  17.334  1.4269 -0.7216 -0.2361
  584TMC3     C 8660   0.550   1.188  17.144 -0.4491  0.0880 -0.0780
  584TMC3     O 8661   0.551   1.094  17.225  0.8414 -0.2599  0.9762
  584TMC3     H 8662   0.511   1.471  17.068  0.0608  0.9661  1.0801
  584TMC3    H1 8663   0.339   1.146  17.281 -1.4308  0.1720  0.1242
  584TMC3    H2 8664   0.274   1.550  17.401  1.4873 -0.5022 -0.4286
  584TMC3    C7 8665   0.237   1.292  17.465  0.2980  0.1078  0.0292
  584TMC3    C8 8666   0.419   1.659  17.205  0.6546 -0.2300  0.5896
  584TMC3    O1 8667   0.244   1.173  17.479  0.0742  0.1310  0.4190
  584TMC3    O2 8668   0.429   1.684  17.086 -0.0816  0.6968  0.0845
  585MPD2     C 8669   4.632   4.324   0.965 -0.0049  0.5474  0.1839
  585MPD2    C1 8670   4.600   4.361   0.833  0.0949 -0.5947 -0.0116
  585MPD2    C2 8671   4.607   4.262   0.742 -0.3051  0.0085  0.0067
  585MPD2    C3 8672   4.660   4.138   0.776 -0.3358  0.4773  0.6791
  585MPD2    C4 8673   4.681   4.097   0.904  0.2749 -0.4560 -0.3098
  585MPD2    C5 8674   4.669   4.195   1.000 -0.0684  0.4298  0.4695
  585MPD2     H 8675   4.582   4.283   0.639  0.9946 -3.3656 -0.9901
  585MPD2    H1 8676   4.719   3.998   0.927  0.5647 -1.1393 -3.7666
  585MPD2    H2 8677   4.625   4.399   1.042  0.2902  3.6691 -2.8289
  585MPD2    H3 8678   4.689   4.177   1.105  0.9509  2.3531  0.6022
  585MPD2     N 8679   4.681   4.049   0.666 -0.2656  0.3662  0.0382
  585MPD2    H5 8680   4.656   4.083   0.573  1.1805  2.1277  0.2976
  585MPD2    N1 8681   4.565   4.499   0.801 -0.0336 -0.1283 -0.5112
  585MPD2    H7 8682   4.557   4.562   0.880  0.0351 -0.0670 -0.5536
  586TMC3    C1 8683   0.042   3.891   0.537 -0.1273 -0.2893  0.6229
  586TMC3    C2 8684   0.173   3.908   0.488  0.0456  0.1341  0.0975
  586TMC3    C3 8685   0.185   3.944   0.355  0.1009 -1.2415 -0.0257
  586TMC3    C4 8686   4.646   3.916   0.465  0.1491 -0.2044  0.5076
  586TMC3    C5 8687   4.671   3.959   0.337 -0.7774  0.0484  0.8922
  586TMC3    C6 8688   0.073   3.973   0.277  0.1183  0.0362  0.7030
  586TMC3     C 8689   0.030   3.934   0.675  0.4563  0.2500  0.5216
  586TMC3     O 8690   0.097   3.883   0.769 -0.4609  0.1438  0.1440
  586TMC3     H 8691   0.253   3.885   0.557  1.5411 -2.0479 -2.3954
  586TMC3    H1 8692   4.545   3.908   0.504 -0.2553 -0.3834 -0.5893
  586TMC3    H2 8693   0.083   3.985   0.170 -0.8664 -0.6964  0.5303
  586TMC3    C7 8694   4.548   3.991   0.264  0.3201 -0.2332  0.2958
  586TMC3    C8 8695   0.317   3.933   0.288 -0.4493 -0.1051  0.7727
  586TMC3    O1 8696   4.438   3.960   0.311 -0.5004  0.0198  0.2909
  586TMC3    O2 8697   0.395   3.857   0.349  0.0673 -0.0309  0.1450
  587TMC3    C1 8698   2.814   3.222  16.312 -0.3166  0.5942  0.5723
  587TMC3    C2 8699   2.810   3.281  16.433  0.5150 -0.5485  0.5997
  587TMC3    C3 8700   2.847   3.201  16.542  0.5076  0.2564  0.2144
  587TMC3    C4 8701   2.825   3.086  16.295  0.3049  0.6301  0.2836
  587TMC3    C5 8702   2.868   3.018  16.408 -0.2595 -0.2385  0.0988
  587TMC3    C6 8703   2.877   3.067  16.525  0.1408  0.2211 -0.2862
  587TMC3     C 8704   2.712   3.278  16.227 -0.4965 -0.7825 -0.2477
  587TMC3     O 8705   2.692   3.399  16.228 -0.3132 -0.0942  0.6773
  587TMC3     H 8706   2.801   3.389  16.438 -2.9399 -0.8014 -0.1283
  587TMC3    H1 8707   2.840   3.042  16.197  0.9170  0.1623  0.5890
  587TMC3    H2 8708   2.887   2.996  16.607  1.5561 -0.3393 -0.9492
  587TMC3    C7 8709   2.874   2.875  16.385 -0.0422  0.7951 -0.6744
  587TMC3    C8 8710   2.774   3.232  16.663 -0.0589  0.0960 -0.6144
  587TMC3    O1 8711   2.819   2.838  16.284  0.2073 -0.2797 -0.4706
  587TMC3    O2 8712   2.801   3.176  16.765  0.0589  0.4823 -0.2248
  588TMC3    C1 8713   4.433   0.759   9.891 -0.8092  0.3656 -0.3024
  588TMC3    C2 8714   4.391   0.633   9.857  0.3808  0.5164  0.1951
  588TMC3    C3 8715   4.445   0.525   9.935 -0.4268 -0.8370 -0.0306
  588TMC3    C4 8716   4.522   0.783   9.987 -0.5938  0.6430 -1.0988
  588TMC3    C5 8717   4.585   0.677  10.054  0.2840 -0.1340 -0.3313
  588TMC3    C6 8718   4.549   0.549  10.017 -0.1926 -0.5799 -0.1390
  588TMC3     C 8719   4.424   0.855   9.778  0.6577 -0.6613 -0.4714
  588TMC3     O 8720   4.353   0.837   9.682 -0.2169  0.3274  1.0005
  588TMC3     H 8721   4.324   0.614   9.774 -1.6786  0.3007  1.9130
  588TMC3    H1 8722   4.527   0.885  10.024 -1.0078  0.2450  0.0406
  588TMC3    H2 8723   4.611   0.462  10.039  0.6000  0.0670  0.1828
  588TMC3    C7 8724   0.004   0.693  10.093  0.5247 -0.2203 -0.4362
  588TMC3    C8 8725   4.388   0.398   9.912 -0.1102  0.1899 -0.2652
  588TMC3    O1 8726   0.083   0.599  10.087  0.0733 -0.0980 -0.0493
  588TMC3    O2 8727   4.268   0.411   9.892 -0.2768  0.3881  0.2211
  589TMC3    C1 8728   3.319   2.978   1.038 -0.3191 -0.1413 -0.2773
  589TMC3    C2 8729   3.393   3.018   1.149  0.6629  0.6956 -0.8746
  589TMC3    C3 8730   3.511   2.954   1.183 -0.1111 -0.0031  0.0999
  589TMC3    C4 8731   3.356   2.867   0.971 -0.4209  0.3277 -0.0834
  589TMC3    C5 8732   3.477   2.812   0.998  0.0548  0.2625  0.4143
  589TMC3    C6 8733   3.556   2.853   1.107 -0.7546 -0.3246  0.4939
  589TMC3     C 8734   3.190   3.035   1.014  0.1141  0.8973 -0.1552
  589TMC3     O 8735   3.115   2.985   0.932 -0.2389  0.2541  0.1814
  589TMC3     H 8736   3.368   3.104   1.210 -1.6431  0.3429 -1.3327
  589TMC3    H1 8737   3.282   2.814   0.911  2.4117  0.8478 -4.0553
  589TMC3    H2 8738   3.654   2.809   1.118 -0.7568 -0.0353  1.7487
  589TMC3    C7 8739   3.511   2.695   0.919  0.1474  0.1620 -0.5620
  589TMC3    C8 8740   3.600   3.016   1.275 -1.0569 -0.3471  0.1124
  589TMC3    O1 8741   3.597   2.620   0.968  0.4366  0.5744  0.3783
  589TMC3    O2 8742   3.551   3.101   1.347 -0.3044 -0.2581 -0.0021
  590MPD2     C 8743   3.114   1.163  16.725  0.1630  0.4579 -0.1923
  590MPD2    C1 8744   3.103   1.176  16.589 -0.3771  0.4007  0.1076
  590MPD2    C2 8745   3.207   1.245  16.518 -0.3682 -0.8776  0.2966
  590MPD2    C3 8746   3.308   1.311  16.589 -0.5321  0.7683 -0.7798
  590MPD2    C4 8747   3.323   1.288  16.720  0.0334  0.6579 -0.4158
  590MPD2    C5 8748   3.229   1.213  16.786  0.3699  0.5478 -0.0252
  590MPD2     H 8749   3.186   1.265  16.414 -0.9466 -1.1041  0.3677
  590MPD2    H1 8750   3.406   1.333  16.773 -0.1623  0.5906 -0.0449
  590MPD2    H2 8751   3.043   1.111  16.788 -1.5382  1.4418 -1.3002
  590MPD2    H3 8752   3.233   1.203  16.894 -0.6492  2.0258  0.1553
  590MPD2     N 8753   3.388   1.393  16.509 -0.1350  0.5473  0.1925
  590MPD2    H5 8754   3.374   1.383  16.409  1.2044 -0.1103  0.0814
  590MPD2    N1 8755   2.978   1.151  16.530  0.0091 -0.2042  0.0488
  590MPD2    H7 8756   2.902   1.116  16.587  0.1000 -0.4857 -0.0058
  591TMC3    C1 8757   3.527   1.573  16.448 -0.4959  0.8599 -0.4167
  591TMC3    C2 8758   3.578   1.509  16.341 -0.8633 -0.2760  0.0308
  591TMC3    C3 8759   3.634   1.596  16.250 -0.0066  0.4400 -0.2528
  591TMC3    C4 8760   3.539   1.706  16.479  0.2973  0.3104 -0.1400
  591TMC3    C5 8761   3.597   1.787  16.379 -0.0414 -0.1254 -0.0515
  591TMC3    C6 8762   3.641   1.733  16.263 -0.2655 -0.0525 -0.1150
  591TMC3     C 8763   3.476   1.489  16.557 -0.7729 -0.7308 -0.5416
  591TMC3     O 8764   3.493   1.533  16.671  0.1008  0.2845  0.1045
  591TMC3     H 8765   3.582   1.401  16.342  1.2409 -0.2020  0.8738
  591TMC3    H1 8766   3.486   1.748  16.563  2.6679  3.9340 -0.4723
  591TMC3    H2 8767   3.707   1.791  16.201 -0.2219 -2.1457 -2.0065
  591TMC3    C7 8768   3.632   1.918  16.423 -0.4317  0.1529  0.2311
  591TMC3    C8 8769   3.687   1.531  16.132 -0.5667 -0.3201 -0.3167
  591TMC3    O1 8770   3.630   1.931  16.543  0.2158  0.4340 -0.4563
  591TMC3    O2 8771   3.716   1.415  16.135 -0.2496 -0.3916 -0.1594
  592MPD2     C 8772   4.097   3.424  10.972 -0.0435 -0.2184 -0.1323
  592MPD2    C1 8773   3.994   3.488  11.044 -0.4844  0.8875  0.5180
  592MPD2    C2 8774   3.896   3.403  11.093  0.1072  1.1900  0.5274
  592MPD2    C3 8775   3.890   3.267  11.060  0.9825 -1.0050 -0.4970
  592MPD2    C4 8776   4.000   3.210  11.002 -0.5314  0.4200  0.5090
  592MPD2    C5 8777   4.103   3.291  10.953  0.1248 -0.9464  0.0250
  592MPD2     H 8778   3.814   3.445  11.149  0.0420  0.6467  0.8381
  592MPD2    H1 8779   4.024   3.105  11.004 -0.0693  0.4722 -1.8504
  592MPD2    H2 8780   4.188   3.475  10.943 -0.4058  1.2611  1.3455
  592MPD2    H3 8781   4.189   3.242  10.909  0.8105 -1.9415  2.4108
  592MPD2     N 8782   3.786   3.193  11.120  0.1482  0.0976  0.6203
  592MPD2    H5 8783   3.721   3.249  11.173 -0.3873  2.5602 -2.5964
  592MPD2    N1 8784   4.025   3.620  11.095  0.0457  0.2260 -0.3888
  592MPD2    H7 8785   4.099   3.676  11.053  0.7797  0.1717  0.8248
  593TMC3    C1 8786   4.000   3.822  11.219  0.0315  0.6038 -0.0874
  593TMC3    C2 8787   3.974   3.868  11.344  0.8340  0.6392 -0.0942
  593TMC3    C3 8788   4.016   3.994  11.374 -0.3562  0.0412 -0.6489
  593TMC3    C4 8789   4.061   3.895  11.123  0.2865 -0.4515 -0.3863
  593TMC3    C5 8790   4.111   4.021  11.162  0.1662 -0.0936 -0.1068
  593TMC3    C6 8791   4.087   4.071  11.287  0.4598 -0.0981  0.2850
  593TMC3     C 8792   3.949   3.687  11.191 -0.4334 -0.2928  0.0545
  593TMC3     O 8793   3.868   3.638  11.263  0.5610 -0.7344 -0.1462
  593TMC3     H 8794   3.922   3.805  11.416 -0.1274 -1.6928 -2.8270
  593TMC3    H1 8795   4.051   3.868  11.018 -1.2737 -0.6492 -0.1912
  593TMC3    H2 8796   4.120   4.172  11.305 -0.3341  0.1116  0.5582
  593TMC3    C7 8797   4.184   4.103  11.063  0.0174  0.4614  0.2810
  593TMC3    C8 8798   3.978   4.045  11.495  0.4566 -0.6305  0.6824
  593TMC3    O1 8799   4.229   4.211  11.100 -0.0723 -0.2056 -0.1995
  593TMC3    O2 8800   3.905   3.977  11.561 -0.3512  0.7546  0.3067
  594MPD2     C 8801   2.314   2.570  13.917 -0.3588  0.0688  0.1984
  594MPD2    C1 8802   2.293   2.560  14.054 -0.4811  0.1842 -0.0382
  594MPD2    C2 8803   2.395   2.596  14.136  0.5036 -0.0606 -0.1008
  594MPD2    C3 8804   2.514   2.642  14.086 -0.0363 -0.0201  0.0043
  594MPD2    C4 8805   2.544   2.643  13.953  0.0058  0.7358  0.1945
  594MPD2    C5 8806   2.441   2.605  13.869  0.2634 -0.7834 -0.3107
  594MPD2     H 8807   2.382   2.604  14.243 -2.1217 -2.1243 -0.2628
  594MPD2    H1 8808   2.633   2.684  13.905 -0.2106  0.3232 -0.5664
  594MPD2    H2 8809   2.257   2.514  13.844 -1.6442  0.5445  0.8452
  594MPD2    H3 8810   2.464   2.606  13.763  0.6769  1.0321 -0.2148
  594MPD2     N 8811   2.595   2.700  14.185  0.2065  0.0461 -0.1867
  594MPD2    H5 8812   2.552   2.711  14.276  3.0517 -1.5632  1.3577
  594MPD2    N1 8813   2.183   2.495  14.100 -0.4838 -0.2942  0.1601
  594MPD2    H7 8814   2.120   2.452  14.033 -0.3453  1.9303 -1.3968
  595TMC3    C1 8815   2.937   2.891  14.415 -0.5785 -0.4736  0.0617
  595TMC3    C2 8816   2.898   2.819  14.308 -0.1233 -0.7139 -0.3950
  595TMC3    C3 8817   2.764   2.812  14.289 -0.2542 -0.6864  0.1952
  595TMC3    C4 8818   2.849   2.942  14.505 -0.1059 -0.7176  0.0016
  595TMC3    C5 8819   2.719   2.943  14.472 -0.6193  0.4314  0.2237
  595TMC3    C6 8820   2.668   2.882  14.362  0.1510  0.4616 -0.2759
  595TMC3     C 8821   3.071   2.880  14.470  0.1662 -0.3940  0.8469
  595TMC3     O 8822   3.091   2.921  14.583 -0.2681  0.1391  0.1885
  595TMC3     H 8823   2.971   2.770  14.246  0.9129 -1.9798  1.8241
  595TMC3    H1 8824   2.888   2.995  14.592  1.5751 -0.3885 -0.9434
  595TMC3    H2 8825   2.563   2.885  14.334  0.1692  2.3651 -0.1473
  595TMC3    C7 8826   2.628   2.956  14.582 -0.3962 -0.5989 -0.7416
  595TMC3    C8 8827   2.722   2.736  14.172  0.0261 -0.7075  0.0555
  595TMC3    O1 8828   2.508   2.967  14.558  0.6977 -0.1252  0.4712
  595TMC3    O2 8829   2.809   2.706  14.091 -0.1515 -0.2073  0.4577
  596MPD2     C 8830   1.728   0.859  16.909  0.3830  0.1819  0.5819
  596MPD2    C1 8831   1.684   0.969  16.832  0.1753  0.0411 -0.9919
  596MPD2    C2 8832   1.691   0.953  16.692  0.3475  0.3488  0.1442
  596MPD2    C3 8833   1.731   0.833  16.631  0.1946  0.3372 -0.2873
  596MPD2    C4 8834   1.777   0.733  16.704 -1.1669 -0.7351 -0.2337
  596MPD2    C5 8835   1.776   0.746  16.842 -0.3266 -0.0091  0.0507
  596MPD2     H 8836   1.682   1.036  16.623 -2.6189  0.5325  0.7785
  596MPD2    H1 8837   1.803   0.635  16.665  3.2972  0.3944 -0.1411
  596MPD2    H2 8838   1.734   0.855  17.017 -0.3530  0.5982  0.6373
  596MPD2    H3 8839   1.803   0.648  16.881 -0.6389  0.1165  0.5834
  596MPD2     N 8840   1.737   0.819  16.490  0.2785 -0.4679 -0.3037
  596MPD2    H5 8841   1.761   0.724  16.464 -3.4264 -1.6381  0.5992
  596MPD2    N1 8842   1.649   1.099  16.888 -0.2221 -0.6129 -0.5464
  596MPD2    H7 8843   1.620   1.166  16.818  0.3597 -0.2389 -0.4278
  597TMC3    C1 8844   1.591   1.264  17.056 -0.0924 -0.3613 -0.0958
  597TMC3    C2 8845   1.606   1.358  16.963  0.2136  0.8401 -0.7581
  597TMC3    C3 8846   1.542   1.472  16.972  0.1950  0.0908  0.3639
  597TMC3    C4 8847   1.495   1.272  17.157 -0.2606  0.3366  0.2106
  597TMC3    C5 8848   1.424   1.391  17.164 -0.0234  0.0336  0.3147
  597TMC3    C6 8849   1.454   1.495  17.078 -0.1016 -0.5318  0.1354
  597TMC3     C 8850   1.643   1.130  17.021  0.1829 -0.0767  0.0491
  597TMC3     O 8851   1.650   1.055  17.118 -0.0475  0.5446 -0.2859
  597TMC3     H 8852   1.671   1.332  16.881  0.9039  1.2415 -0.3349
  597TMC3    H1 8853   1.461   1.185  17.213 -0.6312  1.4114  1.6724
  597TMC3    H2 8854   1.386   1.577  17.056  0.2949 -0.1862  0.1935
  597TMC3    C7 8855   1.282   1.385  17.193 -0.4444 -0.2336  0.3002
  597TMC3    C8 8856   1.585   1.584  16.897  0.0485 -0.0153 -0.5623
  597TMC3    O1 8857   1.229   1.276  17.181 -0.7175 -0.2810  0.5795
  597TMC3    O2 8858   1.580   1.693  16.956  0.4660 -0.4148 -0.4367
  598TMC3    C1 8859   4.642   2.107  15.711 -0.3077  0.0648 -0.3202
  598TMC3    C2 8860   4.507   2.076  15.697  0.8659 -0.4730  0.0865
  598TMC3    C3 8861   4.452   2.119  15.576  0.3867 -0.3594  0.3127
  598TMC3    C4 8862   4.710   2.188  15.621  0.2808 -0.1125 -1.0203
  598TMC3    C5 8863   4.644   2.245  15.511 -0.5397  0.3261 -0.1596
  598TMC3    C6 8864   4.515   2.202  15.487  0.6004  0.4564  0.0379
  598TMC3     C 8865   4.705   2.104  15.845  0.4319 -0.0376 -0.7635
  598TMC3     O 8866   0.105   2.122  15.856  0.2001 -0.4943 -0.2658
  598TMC3     H 8867   4.454   2.018  15.772  0.1468  0.4027  0.2520
  598TMC3    H1 8868   0.092   2.218  15.639  0.6318 -1.1764 -1.2513
  598TMC3    H2 8869   4.465   2.228  15.394  0.7883 -0.3511 -0.2868
  598TMC3    C7 8870   4.715   2.294  15.388  0.2809  0.4826 -0.3116
  598TMC3    C8 8871   4.325   2.058  15.541 -0.1897 -0.3379  0.3174
  598TMC3    O1 8872   4.691   2.237  15.279  0.2572 -0.1770  0.5217
  598TMC3    O2 8873   4.308   1.938  15.561 -0.0948  0.0289 -0.7664
  599MPD2     C 8874   4.368   4.478  16.309 -0.2455  0.2880  0.6584
  599MPD2    C1 8875   4.461   4.516  16.403  0.1635  0.2480 -0.4166
  599MPD2    C2 8876   4.419   4.532  16.533 -0.2656  0.0689 -0.0002
  599MPD2    C3 8877   4.286   4.511  16.567 -0.5445  0.1407 -0.2260
  599MPD2    C4 8878   4.199   4.480  16.469 -0.0413  0.7677  0.5050
  599MPD2    C5 8879   4.239   4.458  16.343  0.3696 -0.3247 -0.2062
  599MPD2     H 8880   4.489   4.573  16.604 -0.5680 -0.0253  0.3507
  599MPD2    H1 8881   4.099   4.452  16.499 -0.5962  0.3419 -1.7173
  599MPD2    H2 8882   4.408   4.480  16.208  0.6879 -0.7381  1.0051
  599MPD2    H3 8883   4.164   4.432  16.269  1.5571  1.2587 -1.9741
  599MPD2     N 8884   4.239   4.539  16.699 -0.7447  0.1848  0.0435
  599MPD2    H5 8885   4.138   4.541  16.707 -0.5017 -1.1071  3.4293
  599MPD2    N1 8886   4.595   4.535  16.365 -0.1718 -0.4002  0.8220
  599MPD2    H7 8887   4.603   4.519  16.265  0.6399  0.4521  0.7482
  600TMC3    C1 8888   4.223   4.615  16.912  0.1520  0.1236 -0.1437
  600TMC3    C2 8889   4.096   4.555  16.918 -0.4392 -0.3112  0.4544
  600TMC3    C3 8890   4.021   4.570  17.026  0.0640  0.5645 -1.0935
  600TMC3    C4 8891   4.270   4.695  17.012  0.1217 -0.1696 -0.8789
  600TMC3    C5 8892   4.190   4.718  17.115  0.1297 -0.8907 -0.5865
  600TMC3    C6 8893   4.066   4.653  17.124  0.2563  0.5334  0.3797
  600TMC3     C 8894   4.310   4.587  16.804 -0.2220  0.0139  0.5907
  600TMC3     O 8895   4.428   4.615  16.813 -0.3071  0.0565 -0.3366
  600TMC3     H 8896   4.072   4.482  16.842  0.2938 -0.5487  0.4505
  600TMC3    H1 8897   4.377   4.714  17.020 -0.6399  3.9393 -0.5482
  600TMC3    H2 8898   3.991   4.663  17.202 -2.1300 -0.0054 -1.8667
  600TMC3    C7 8899   4.219   0.106  17.200  0.7712 -0.0307  0.2906
  600TMC3    C8 8900   3.916   4.481  17.056 -0.1658  0.5066 -0.0394
  600TMC3    O1 8901   4.333   0.144  17.214 -0.3659  0.2521  0.0770
  600TMC3    O2 8902   3.895   4.446  17.171  0.0584  0.3548  0.3469
  601MPD2     C 8903   2.181   1.933  17.256 -0.3738  0.8407  0.0121
  601MPD2    C1 8904   2.061   1.972  17.307 -0.1039 -0.5547  0.6344
  601MPD2    C2 8905   1.987   1.889  17.388  0.1348  0.7107  0.1945
  601MPD2    C3 8906   2.047   1.771  17.434 -0.3425  0.1716 -0.1026
  601MPD2    C4 8907   2.166   1.725  17.373  0.2354  0.3749  0.1285
  601MPD2    C5 8908   2.231   1.805  17.285 -0.5767 -0.4845  0.6360
  601MPD2     H 8909   1.887   1.917  17.417  0.0932 -0.8015  1.5610
  601MPD2    H1 8910   2.213   1.629  17.392 -0.0151  0.1489 -0.3755
  601MPD2    H2 8911   2.247   1.991  17.193 -1.1107  0.8853 -0.7161
  601MPD2    H3 8912   2.321   1.766  17.238  0.4934 -0.0401  2.3224
  601MPD2     N 8913   1.991   1.692  17.540 -0.2237  0.0208 -0.1078
  601MPD2    H5 8914   2.042   1.605  17.552  3.3757  2.1254 -0.3742
  601MPD2    N1 8915   1.999   2.102  17.277  0.2325  0.1614 -0.7965
  601MPD2    H7 8916   1.911   2.126  17.322 -0.9954  2.2338 -4.2440
  602TMC3    C1 8917   1.963   2.310  17.164 -0.0763  0.3475  0.0190
  602TMC3    C2 8918   2.023   2.426  17.116  0.3845 -0.6055 -0.1865
  602TMC3    C3 8919   1.946   2.526  17.061 -0.4186  0.5586  0.3526
  602TMC3    C4 8920   1.832   2.293  17.156  0.5198 -0.9480 -0.3000
  602TMC3    C5 8921   1.757   2.395  17.099 -0.3645 -0.2568  0.2297
  602TMC3    C6 8922   1.808   2.519  17.061  0.5471 -0.0762 -0.3388
  602TMC3     C 8923   2.050   2.200  17.193  0.4759 -0.2668 -0.3195
  602TMC3     O 8924   2.164   2.207  17.147 -0.5565 -0.2261 -0.1249
  602TMC3     H 8925   2.130   2.432  17.132  1.0461 -2.3967 -3.8700
  602TMC3    H1 8926   1.782   2.203  17.190  0.6899  0.3207  3.2888
  602TMC3    H2 8927   1.755   2.584  16.993 -1.4135 -2.0843 -0.7138
  602TMC3    C7 8928   1.620   2.401  17.122 -1.6748  0.2459  0.0058
  602TMC3    C8 8929   2.001   2.649  17.020 -0.0251  0.2267 -0.0042
  602TMC3    O1 8930   1.559   2.293  17.138 -0.4125  0.3062  0.1082
  602TMC3    O2 8931   2.111   2.649  16.968 -0.4395 -0.5588  0.3339
  603TMC3    C1 8932   0.076   2.924  10.946  0.2377 -0.2345  0.0538
  603TMC3    C2 8933   0.088   2.960  11.081  0.0326  0.5482  0.3466
  603TMC3    C3 8934   0.072   3.093  11.112  0.1763  0.1361  0.4761
  603TMC3    C4 8935   0.046   3.014  10.849 -0.4451  0.0346 -0.4220
  603TMC3    C5 8936   0.049   3.145  10.887 -0.2033 -0.1812  0.5205
  603TMC3    C6 8937   0.063   3.188  11.018  0.5803 -0.0936  0.1838
  603TMC3     C 8938   0.100   2.783  10.915  1.1204  0.3283  0.3676
  603TMC3     O 8939   0.139   2.709  11.008 -0.2553 -0.3340  0.1657
  603TMC3     H 8940   0.113   2.886  11.156 -3.0216  0.3992  1.2010
  603TMC3    H1 8941   0.063   2.987  10.746 -0.4660 -0.7006 -0.2360
  603TMC3    H2 8942   0.020   3.284  11.042 -0.9116 -0.6418 -0.2994
  603TMC3    C7 8943   0.008   3.245  10.792  0.0181 -0.0447  0.3941
  603TMC3    C8 8944   0.121   3.132  11.242  0.3452  0.6501  0.5975
  603TMC3    O1 8945   4.717   3.357  10.837 -0.2269 -0.2162  0.1792
  603TMC3    O2 8946   0.133   3.044  11.325 -0.3654 -0.2740  0.2970
  604MPD2     C 8947   0.741   2.147  16.279 -0.2611 -0.7700 -0.2024
  604MPD2    C1 8948   0.618   2.131  16.233  0.4416 -0.5639  0.4979
  604MPD2    C2 8949   0.604   2.076  16.107  0.4332 -0.5673 -0.4546
  604MPD2    C3 8950   0.715   2.030  16.039 -0.4870 -1.0228  0.2996
  604MPD2    C4 8951   0.841   2.073  16.084 -0.2341  0.1369 -0.3341
  604MPD2    C5 8952   0.854   2.124  16.207 -0.1328 -0.3940  0.2575
  604MPD2     H 8953   0.505   2.049  16.071 -0.4669  1.1699  0.6963
  604MPD2    H1 8954   0.933   2.048  16.031  0.9691 -1.9743  2.7324
  604MPD2    H2 8955   0.768   2.165  16.382 -0.1310  1.4802 -0.6321
  604MPD2    H3 8956   0.953   2.133  16.250  1.0219 -0.3501 -2.3893
  604MPD2     N 8957   0.695   1.961  15.922  0.0687  0.4068 -0.1595
  604MPD2    H5 8958   0.602   1.958  15.883 -0.7069  0.3976  1.7106
  604MPD2    N1 8959   0.515   2.158  16.318  0.3787 -0.4264  0.0019
  604MPD2    H7 8960   0.543   2.168  16.414  3.6014 -0.9747 -0.8810
  605TMC3    C1 8961   0.293   2.140  16.396 -0.3057  0.5069 -0.8390
  605TMC3    C2 8962   0.346   2.080  16.508  0.0109 -0.0914  0.4156
  605TMC3    C3 8963   0.294   2.116  16.628 -0.1776 -0.5089 -0.3163
  605TMC3    C4 8964   0.178   2.216  16.403  0.0914 -0.0371  0.1972
  605TMC3    C5 8965   0.127   2.245  16.525 -0.0872  0.2358  0.0439
  605TMC3    C6 8966   0.186   2.199  16.637 -0.0562  0.5010  0.5463
  605TMC3     C 8967   0.380   2.166  16.283  0.1179 -0.1185 -0.7148
  605TMC3     O 8968   0.324   2.189  16.177 -0.0225  0.1459  1.0881
  605TMC3     H 8969   0.440   2.027  16.516  0.5903  0.6388 -1.5872
  605TMC3    H1 8970   0.133   2.253  16.312 -0.0359 -1.9731 -0.5281
  605TMC3    H2 8971   0.158   2.234  16.736 -0.3797 -0.1345  0.6837
  605TMC3    C7 8972   0.002   2.322  16.519 -0.1547 -0.4855 -0.4820
  605TMC3    C8 8973   0.378   2.110  16.749  0.0253  0.8227 -0.5100
  605TMC3    O1 8974   4.670   2.334  16.409  0.0234  0.6119 -0.0499
  605TMC3    O2 8975   0.391   2.204  16.825  0.2252 -0.2117  0.8084
  606TMC3    C1 8976   1.979   4.615  17.052 -0.0396  0.0598 -0.6954
  606TMC3    C2 8977   2.113   4.608  17.086 -0.0765  0.2086 -0.1069
  606TMC3    C3 8978   2.144   4.546  17.205  0.0571 -0.0307 -0.5444
  606TMC3    C4 8979   1.877   4.558  17.127  0.2888  0.1011 -0.3840
  606TMC3    C5 8980   1.911   4.489  17.236 -0.2587  0.5209 -0.5095
  606TMC3    C6 8981   2.042   4.472  17.269 -0.3381 -0.5012  0.3571
  606TMC3     C 8982   1.955   4.707  16.944 -0.2926 -0.1592 -0.7267
  606TMC3     O 8983   2.022   4.696  16.845 -0.3104  0.2668  0.1171
  606TMC3     H 8984   2.190   4.656  17.026  1.0330 -0.7654  0.5411
  606TMC3    H1 8985   1.777   4.574  17.089 -0.8984  1.9143  3.5275
  606TMC3    H2 8986   2.071   4.427  17.363 -3.3994 -2.5878  0.2970
  606TMC3    C7 8987   1.812   4.411  17.310  0.2603 -0.8212 -0.6995
  606TMC3    C8 8988   2.256   4.589  17.275 -0.0264 -0.3268  0.5981
  606TMC3    O1 8989   1.849   4.305  17.363  0.3537 -0.6194 -0.1390
  606TMC3    O2 8990   2.268   4.707  17.271 -0.0192 -0.3559  0.2622
  607MPD2     C 8991   4.069   2.985  11.855  0.0965 -0.1982 -0.4468
  607MPD2    C1 8992   4.039   3.099  11.918 -0.1581 -0.3780 -1.0053
  607MPD2    C2 8993   4.019   3.091  12.049 -0.2616  0.6695 -0.7624
  607MPD2    C3 8994   4.019   2.983  12.132  0.4786 -0.0085 -0.0365
  607MPD2    C4 8995   4.054   2.867  12.068 -0.4751  0.0943  0.2557
  607MPD2    C5 8996   4.078   2.871  11.933 -0.0116 -0.6203 -0.0646
  607MPD2     H 8997   3.991   3.185  12.096  1.2895  0.8643 -0.2298
  607MPD2    H1 8998   4.066   2.773  12.122  0.8241 -0.2156 -0.5668
  607MPD2    H2 8999   4.090   2.971  11.750  0.8024  1.4597 -0.5347
  607MPD2    H3 9000   4.099   2.777  11.883 -0.8382  1.4597 -4.2459
  607MPD2     N 9001   3.986   3.010  12.267  0.1317 -0.2140 -0.0253
  607MPD2    H5 9002   3.952   3.105  12.280 -1.6641 -1.0084  1.0591
  607MPD2    N1 9003   4.052   3.228  11.863  0.1157 -0.4313 -0.4622
  607MPD2    H7 9004   4.045   3.305  11.929  0.4083  1.1589 -2.2708
  608TMC3    C1 9005   4.068   3.419  11.725 -0.1505 -0.2474 -0.0847
  608TMC3    C2 9006   4.005   3.493  11.819  0.2806 -0.0747 -0.4947
  608TMC3    C3 9007   4.015   3.628  11.815 -0.0452 -0.4702  0.0252
  608TMC3    C4 9008   4.131   3.477  11.624 -0.0360  0.0412 -0.6898
  608TMC3    C5 9009   4.140   3.614  11.615  1.1397  0.6660  0.0209
  608TMC3    C6 9010   4.083   3.690  11.717  0.1505 -0.0071 -0.1732
  608TMC3     C 9011   4.065   3.271  11.733  0.3132 -0.9351 -0.3157
  608TMC3     O 9012   4.085   3.198  11.636  0.1161  0.4794  0.4314
  608TMC3     H 9013   3.927   3.447  11.878  1.2691  0.5116  1.2730
  608TMC3    H1 9014   4.169   3.411  11.547  1.6939 -1.3348  1.3372
  608TMC3    H2 9015   4.094   3.798  11.727 -0.8016 -0.2641  3.7411
  608TMC3    C7 9016   4.192   3.678  11.496  0.3066 -0.2359 -0.5686
  608TMC3    C8 9017   3.953   3.699  11.922 -0.0313 -0.2485  0.5114
  608TMC3    O1 9018   4.192   3.611  11.394 -0.4987 -0.3110  0.2609
  608TMC3    O2 9019   3.908   3.809  11.898 -0.2012  0.1103 -0.6454
  609TMC3    C1 9020   2.710   2.334   9.127 -0.4812 -0.2897  0.1607
  609TMC3    C2 9021   2.764   2.398   9.020 -0.0052  0.5382 -0.1219
  609TMC3    C3 9022   2.865   2.341   8.956 -0.4688 -0.2013  0.3727
  609TMC3    C4 9023   2.762   2.217   9.160  0.0519 -0.5099  0.1858
  609TMC3    C5 9024   2.857   2.156   9.085  0.2283 -0.5360  0.1184
  609TMC3    C6 9025   2.914   2.218   8.979 -0.4175 -0.4766 -0.5940
  609TMC3     C 9026   2.597   2.392   9.204 -0.5077 -0.3103  0.2025
  609TMC3     O 9027   2.533   2.318   9.279 -0.5052  0.2509 -0.0345
  609TMC3     H 9028   2.711   2.481   8.974  1.8156  1.1903 -1.0571
  609TMC3    H1 9029   2.709   2.166   9.239 -0.9863 -1.3526 -1.0685
  609TMC3    H2 9030   2.999   2.177   8.926 -1.2289 -1.0727 -1.4281
  609TMC3    C7 9031   2.930   2.043   9.145 -0.3577 -0.3903 -0.0552
  609TMC3    C8 9032   2.937   2.424   8.865  0.5469  0.6880  0.4550
  609TMC3    O1 9033   2.902   2.012   9.260 -0.1785  0.9437 -0.2845
  609TMC3    O2 9034   2.873   2.520   8.819 -0.9083 -0.0899 -0.0558
  610TMC3    C1 9035   4.663   3.270  12.815  0.2376  0.1074  0.1304
  610TMC3    C2 9036   0.048   3.335  12.753  0.0592 -0.4163 -0.3777
  610TMC3    C3 9037   0.170   3.281  12.770  0.4662 -0.3092 -0.0565
  610TMC3    C4 9038   4.686   3.166  12.903  0.4188  0.4333 -0.1145
  610TMC3    C5 9039   0.091   3.119  12.924 -0.1618  0.7130  0.3556
  610TMC3    C6 9040   0.194   3.181  12.857  0.3390  0.3108  0.2344
  610TMC3     C 9041   4.529   3.326  12.820 -0.9029 -0.0284 -0.6807
  610TMC3     O 9042   4.470   3.315  12.927  0.3895  0.3175  0.3307
  610TMC3     H 9043   0.033   3.422  12.690  1.6586  0.8798  1.0644
  610TMC3    H1 9044   4.599   3.112  12.937 -0.5942 -0.1366 -3.6474
  610TMC3    H2 9045   0.292   3.135  12.863  0.2324  0.2320  1.3521
  610TMC3    C7 9046   0.108   2.997  13.004 -0.0419  0.2747  0.5062
  610TMC3    C8 9047   0.284   3.363  12.732  0.4154 -0.0867  0.0906
  610TMC3    O1 9048   0.019   2.908  12.995 -0.7935 -0.5725  0.7077
  610TMC3    O2 9049   0.263   3.425  12.628 -0.3434  0.3122  0.6400
  611MPD2     C 9050   4.066   2.508  10.292 -0.0999 -0.3446 -0.6256
  611MPD2    C1 9051   3.953   2.583  10.295  0.1473  0.3258  0.3041
  611MPD2    C2 9052   3.961   2.721  10.262  0.0859 -0.6014 -0.7954
  611MPD2    C3 9053   4.081   2.771  10.215 -0.6373 -0.0282  0.0604
  611MPD2    C4 9054   4.193   2.693  10.215 -0.7995  0.2015  0.3021
  611MPD2    C5 9055   4.188   2.561  10.251 -0.2362  0.3914  0.4732
  611MPD2     H 9056   3.871   2.779  10.250  0.3732  0.2739  1.2840
  611MPD2    H1 9057   4.291   2.723  10.181 -0.7319 -0.7959 -0.3889
  611MPD2    H2 9058   4.065   2.409  10.336 -1.6641  1.1114  2.6881
  611MPD2    H3 9059   4.289   2.525  10.253 -1.1875 -2.2189  1.0573
  611MPD2     N 9060   4.105   2.904  10.170  0.2933  0.0949  0.3631
  611MPD2    H5 9061   4.196   2.926  10.131 -0.2946  0.8541 -0.6165
  611MPD2    N1 9062   3.832   2.513  10.329  0.0203 -0.3205  0.5398
  611MPD2    H7 9063   3.841   2.417  10.363  0.4961 -0.5744 -0.3026
  612TMC3    C1 9064   4.064   3.121  10.111 -0.4294 -0.0236  0.0350
  612TMC3    C2 9065   4.197   3.148  10.129 -0.7817  0.3696 -0.2989
  612TMC3    C3 9066   4.244   3.271  10.104  0.4685 -0.7650  0.1792
  612TMC3    C4 9067   3.983   3.208  10.048  0.3739  0.9916 -1.1517
  612TMC3    C5 9068   4.032   3.329  10.019  0.1310  0.5543 -0.2775
  612TMC3    C6 9069   4.160   3.366  10.054  0.0672  0.3495 -0.3896
  612TMC3     C 9070   4.006   3.002  10.159 -0.2131 -1.0382 -0.0245
  612TMC3     O 9071   3.889   2.989  10.188 -0.0640 -0.5066  0.1882
  612TMC3     H 9072   4.259   3.076  10.183 -1.1634  0.7366  0.6189
  612TMC3    H1 9073   3.886   3.168  10.021  1.0568  0.2409 -2.5142
  612TMC3    H2 9074   4.210   3.462  10.049  0.6131  0.1535  1.3929
  612TMC3    C7 9075   3.933   3.418   9.971 -0.8034 -0.4462  0.0914
  612TMC3    C8 9076   4.365   3.320  10.168  0.2819  0.1708 -0.0004
  612TMC3    O1 9077   3.826   3.367   9.934  0.3470  0.3370  0.2035
  612TMC3    O2 9078   4.442   3.393  10.108 -0.3134  0.1023  0.5924
  613MPD2     C 9079   2.956   0.844  16.053 -0.1079  0.1292  0.3577
  613MPD2    C1 9080   3.036   0.778  15.962 -0.4800  0.0347  0.1793
  613MPD2    C2 9081   3.009   0.649  15.933 -0.4410 -0.1296  0.0447
  613MPD2    C3 9082   2.910   0.581  15.997  0.0640 -0.0641 -0.4856
  613MPD2    C4 9083   2.838   0.648  16.094  0.0399 -0.4199  0.5568
  613MPD2    C5 9084   2.856   0.779  16.125  0.7807 -0.4211  0.2078
  613MPD2     H 9085   3.056   0.598  15.850 -0.1659  4.9210 -2.9414
  613MPD2    H1 9086   2.748   0.602  16.134 -0.4666 -0.1735 -0.2813
  613MPD2    H2 9087   2.978   0.948  16.072 -0.0405  0.0703  0.6106
  613MPD2    H3 9088   2.786   0.844  16.174  0.7890  1.0492 -1.7420
  613MPD2     N 9089   2.891   0.445  15.968 -1.0223 -0.2165 -0.1304
  613MPD2    H5 9090   2.966   0.392  15.925  1.8023  2.6670  1.2719
  613MPD2    N1 9091   3.149   0.848  15.905 -0.8038 -0.0532 -0.2266
  613MPD2    H7 9092   3.163   0.948  15.920 -1.2535 -0.4209  2.6281
  614TMC3    C1 9093   3.322   0.872  15.742 -0.3044  0.2181  1.0409
  614TMC3    C2 9094   3.416   0.800  15.681 -1.0138 -0.3895 -0.0379
  614TMC3    C3 9095   3.426   0.799  15.543  0.4974 -0.6036 -0.8928
  614TMC3    C4 9096   3.248   0.966  15.669  0.1571  0.8075 -0.2812
  614TMC3    C5 9097   3.270   0.976  15.536 -0.1357  0.4446  0.6842
  614TMC3    C6 9098   3.347   0.885  15.467 -0.3352  0.1289  0.6809
  614TMC3     C 9099   3.248   0.787  15.834 -0.0431 -0.7044 -0.1349
  614TMC3     O 9100   3.271   0.668  15.833 -0.1333 -0.0298 -0.0167
  614TMC3     H 9101   3.470   0.727  15.740  1.0353 -0.0629 -1.5026
  614TMC3    H1 9102   3.168   1.027  15.708 -1.3018  0.5071 -2.7658
  614TMC3    H2 9103   3.359   0.901  15.361  1.1748 -0.2831  0.7822
  614TMC3    C7 9104   3.185   1.069  15.459  0.8247  0.7463 -0.5161
  614TMC3    C8 9105   3.455   0.673  15.474  0.0071  0.1378  0.0418
  614TMC3    O1 9106   3.158   1.174  15.518  0.0551 -0.5415  0.3229
  614TMC3    O2 9107   3.470   0.684  15.355  0.0064 -0.3509 -0.0713
  615MPD2     C 9108   2.201   2.056  15.751 -0.1909  0.2513  0.0204
  615MPD2    C1 9109   2.101   2.151  15.761  0.8848  0.0409 -0.4668
  615MPD2    C2 9110   1.977   2.121  15.705  0.8005  0.6204 -0.3484
  615MPD2    C3 9111   1.952   1.999  15.638  0.2130  0.0959 -0.3331
  615MPD2    C4 9112   2.058   1.904  15.638 -0.0129  0.3164  0.2819
  615MPD2    C5 9113   2.183   1.933  15.696 -0.2181 -0.1838 -0.4369
  615MPD2     H 9114   1.890   2.184  15.718  0.7607  0.3077  0.8946
  615MPD2    H1 9115   2.041   1.814  15.580 -1.1268  0.5262  0.2760
  615MPD2    H2 9116   2.301   2.067  15.791 -0.3321  0.0293  0.4341
  615MPD2    H3 9117   2.268   1.867  15.688 -0.7094 -0.7535 -0.9816
  615MPD2     N 9118   1.835   1.959  15.577  0.0994 -0.2718 -0.1014
  615MPD2    H5 9119   1.843   1.875  15.520  0.2136 -0.0258 -0.4448
  615MPD2    N1 9120   2.116   2.268  15.840 -0.0986 -0.1788  0.1293
  615MPD2    H7 9121   2.046   2.341  15.837 -1.7445 -1.9207 -3.2504
  616TMC3    C1 9122   2.238   2.458  15.908 -0.2033  0.6364  0.8702
  616TMC3    C2 9123   2.353   2.519  15.875 -0.0483 -0.2936 -1.5209
  616TMC3    C3 9124   2.371   2.654  15.890 -0.3067  0.0706 -0.1073
  616TMC3    C4 9125   2.136   2.530  15.966  0.1828 -0.3617 -0.2079
  616TMC3    C5 9126   2.159   2.668  15.981 -0.0023  0.4946  0.0289
  616TMC3    C6 9127   2.278   2.729  15.954  0.2187 -0.1329 -0.7033
  616TMC3     C 9128   2.234   2.314  15.889 -0.4975  0.4005  0.6036
  616TMC3     O 9129   2.344   2.266  15.882  0.2517  0.3590  0.3399
  616TMC3     H 9130   2.425   2.465  15.815  1.9567 -1.9577  2.3935
  616TMC3    H1 9131   2.055   2.481  16.018  1.5627 -0.8268  1.5025
  616TMC3    H2 9132   2.297   2.831  15.986 -0.6989 -0.4563  0.8919
  616TMC3    C7 9133   2.055   2.736  16.056 -0.6916 -0.5497 -0.1718
  616TMC3    C8 9134   2.506   2.693  15.900  0.2830 -0.4236 -1.0642
  616TMC3    O1 9135   1.957   2.669  16.090  0.5406 -0.2896 -0.2030
  616TMC3    O2 9136   2.591   2.607  15.919 -0.2488  0.1033 -0.2867
  617MPD2     C 9137   0.184   0.021  13.645 -0.1514 -0.0455  0.0569
  617MPD2    C1 9138   0.207   4.603  13.680 -1.1250 -0.6228 -0.0575
  617MPD2    C2 9139   0.115   4.527  13.746  0.0293 -0.5549 -0.1759
  617MPD2    C3 9140   4.716   4.585  13.786  0.6583 -0.3280  1.1990
  617MPD2    C4 9141   4.699   0.003  13.764 -0.1885  0.4168 -0.2884
  617MPD2    C5 9142   0.063   0.071  13.682  0.1966  0.7144 -0.6976
  617MPD2     H 9143   0.141   4.425  13.772 -0.4585  0.0365  2.5599
  617MPD2    H1 9144   4.607   0.051  13.796  0.5496  1.7767 -0.1958
  617MPD2    H2 9145   0.245   0.082  13.580  0.0582 -0.1900  0.1200
  617MPD2    H3 9146   0.041   0.168  13.639  0.0090  1.6100  1.4610
  617MPD2     N 9147   4.610   4.516  13.843  0.5040  0.4252  0.5433
  617MPD2    H5 9148   4.534   4.569  13.884 -2.8131 -1.9051 -2.6022
  617MPD2    N1 9149   0.334   4.549  13.633 -0.3625  0.1895  0.3595
  617MPD2    H7 9150   0.387   4.613  13.574 -0.1798 -0.6171 -0.3569
  618TMC3    C1 9151   0.506   4.401  13.583 -0.1154 -0.2627 -0.0522
  618TMC3    C2 9152   0.599   4.309  13.640 -0.2052  0.3225 -0.5429
  618TMC3    C3 9153   0.727   4.349  13.618 -0.2009 -0.7259  0.6631
  618TMC3    C4 9154   0.538   4.501  13.487 -0.4426  0.5662 -0.0671
  618TMC3    C5 9155   0.673   4.510  13.456 -1.0379  0.8448 -0.5145
  618TMC3    C6 9156   0.766   4.444  13.525  0.1903 -0.7981  1.2693
  618TMC3     C 9157   0.381   4.422  13.647  0.2036 -0.4583  0.0027
  618TMC3     O 9158   0.334   4.319  13.698  0.3747 -0.0556 -0.0373
  618TMC3     H 9159   0.574   4.239  13.719 -1.8440  0.4193 -0.9813
  618TMC3    H1 9160   0.461   4.560  13.440  1.9427  2.2305 -1.8696
  618TMC3    H2 9161   0.866   4.466  13.490 -0.0838 -1.9018 -0.2345
  618TMC3    C7 9162   0.717   4.607  13.358 -0.0556  0.3047 -0.0736
  618TMC3    C8 9163   0.831   4.258  13.668 -0.0980 -0.6027  0.3563
  618TMC3    O1 9164   0.828   4.655  13.374 -0.1777 -0.0248 -0.6542
  618TMC3    O2 9165   0.796   4.155  13.721 -0.5094  0.2387  0.1373
  619MPD2     C 9166   1.752   1.072  13.170 -0.5201 -0.4350 -0.1033
  619MPD2    C1 9167   1.672   1.183  13.157 -0.2969 -0.4947 -0.4880
  619MPD2    C2 9168   1.533   1.168  13.181 -0.0401 -0.0585 -0.1506
  619MPD2    C3 9169   1.480   1.056  13.245  0.1127 -0.2217  0.0175
  619MPD2    C4 9170   1.562   0.944  13.255 -0.0153 -0.3530 -0.6084
  619MPD2    C5 9171   1.696   0.955  13.215 -0.0969  0.5860 -0.1646
  619MPD2     H 9172   1.464   1.250  13.161 -0.7454 -0.2671  1.4496
  619MPD2    H1 9173   1.533   0.852  13.303 -2.0188  1.2481  1.2852
  619MPD2    H2 9174   1.854   1.067  13.134 -0.9016  1.0037 -1.3714
  619MPD2    H3 9175   1.765   0.872  13.223 -0.2439  0.4693 -0.1259
  619MPD2     N 9176   1.351   1.052  13.310 -0.0558  0.1580 -0.1085
  619MPD2    H5 9177   1.313   0.962  13.335 -0.4813  0.6437  0.9991
  619MPD2    N1 9178   1.722   1.305  13.111 -0.9224 -0.3382  0.1571
  619MPD2    H7 9179   1.662   1.388  13.106 -0.7638 -0.1887  0.6940
  620TMC3    C1 9180   1.853   1.448  12.985  0.0867 -0.1270  0.5350
  620TMC3    C2 9181   1.732   1.467  12.911 -0.8109  0.5933  0.8129
  620TMC3    C3 9182   1.696   1.593  12.878  0.4966 -0.3076  0.2751
  620TMC3    C4 9183   1.939   1.549  13.014 -0.5155  0.3695  0.4115
  620TMC3    C5 9184   1.889   1.675  12.984  0.0310  0.1939  0.1044
  620TMC3    C6 9185   1.781   1.699  12.907 -0.2716  1.4877  0.5279
  620TMC3     C 9186   1.848   1.339  13.078 -0.2807  0.1159  0.2627
  620TMC3     O 9187   1.949   1.283  13.105  0.5303  0.5250 -0.0442
  620TMC3     H 9188   1.668   1.384  12.883 -1.5738  0.6907  2.2619
  620TMC3    H1 9189   2.019   1.536  13.086 -0.0242 -1.2715 -0.4325
  620TMC3    H2 9190   1.765   1.799  12.867 -1.3538 -0.0054 -2.7927
  620TMC3    C7 9191   1.899   1.770  13.082 -0.7290 -0.3203  0.9541
  620TMC3    C8 9192   1.560   1.624  12.929  0.4883  0.3083  0.0681
  620TMC3    O1 9193   1.998   1.771  13.155  0.8468 -0.3702  0.0722
  620TMC3    O2 9194   1.557   1.725  12.991  0.4103  0.4014  0.1085
  621MPD2     C 9195   2.730   1.166  10.499 -0.0424 -0.2840  0.2948
  621MPD2    C1 9196   2.666   1.247  10.403  0.0473  0.3113  0.3255
  621MPD2    C2 9197   2.701   1.379  10.395  0.1784 -0.1076 -0.5424
  621MPD2    C3 9198   2.764   1.440  10.498 -0.2956 -0.2835 -0.2008
  621MPD2    C4 9199   2.804   1.364  10.607  0.7759 -0.4479  0.6412
  621MPD2    C5 9200   2.790   1.232  10.604 -0.3937 -0.3258  0.0645
  621MPD2     H 9201   2.667   1.437  10.310 -0.1634  0.2946 -0.1340
  621MPD2    H1 9202   2.853   1.410  10.692 -0.8930 -1.6208  2.2407
  621MPD2    H2 9203   2.738   1.057  10.499  0.8078 -0.2236  2.3213
  621MPD2    H3 9204   2.835   1.172  10.682  1.1959 -0.1797 -0.7378
  621MPD2     N 9205   2.786   1.580  10.497 -0.4932  0.5109 -0.1393
  621MPD2    H5 9206   2.739   1.628  10.422 -1.6458  3.2548  2.3355
  621MPD2    N1 9207   2.587   1.196  10.291  1.1521 -0.1931  0.4945
  621MPD2    H7 9208   2.563   1.263  10.219  0.6628 -0.5916  0.2924
  622TMC3    C1 9209   2.478   1.024  10.164 -0.1926 -0.4921 -0.6717
  622TMC3    C2 9210   2.401   0.911  10.171  0.5875 -0.6156 -0.8477
  622TMC3    C3 9211   2.351   0.864  10.055  0.7965  0.0603 -0.5636
  622TMC3    C4 9212   2.512   1.083  10.048 -0.2148 -0.1047 -0.6370
  622TMC3    C5 9213   2.463   1.026   9.934  0.1659  0.1470 -0.0257
  622TMC3    C6 9214   2.381   0.913   9.928 -0.0372  0.2520  0.7995
  622TMC3     C 9215   2.541   1.068  10.286  0.7423 -0.2293  0.1623
  622TMC3     O 9216   2.539   0.985  10.377 -0.2384  0.4543 -0.0565
  622TMC3     H 9217   2.378   0.864  10.266 -1.5375 -0.4538 -1.2687
  622TMC3    H1 9218   2.588   1.161  10.045  0.4674 -0.6324  2.2387
  622TMC3    H2 9219   2.341   0.863   9.841  0.6417  2.4105 -0.7571
  622TMC3    C7 9220   2.500   1.092   9.804 -0.4528 -0.3258 -0.2785
  622TMC3    C8 9221   2.231   0.784  10.065  0.6792 -0.7903 -0.4394
  622TMC3    O1 9222   2.558   1.197   9.809  0.6335  0.3237 -0.1168
  622TMC3    O2 9223   2.180   0.739   9.959  0.6329 -0.4266 -0.1914
  623MPD2     C 9224   0.811   2.500  16.158  0.0609 -0.6652 -0.6017
  623MPD2    C1 9225   0.738   2.501  16.280 -0.7458 -1.0520  0.4295
  623MPD2    C2 9226   0.812   2.465  16.398  0.2636  1.1991 -0.0167
  623MPD2    C3 9227   0.948   2.461  16.392 -0.2229 -0.2045  0.4594
  623MPD2    C4 9228   1.014   2.468  16.264  0.5837  0.6190 -0.7299
  623MPD2    C5 9229   0.939   2.476  16.145 -0.1111  0.4487  0.1670
  623MPD2     H 9230   0.758   2.442  16.490 -0.7031 -1.8998 -1.3509
  623MPD2    H1 9231   1.117   2.436  16.258 -0.4537 -2.5964 -1.1706
  623MPD2    H2 9232   0.760   2.523  16.065 -1.2059  1.0408  0.5051
  623MPD2    H3 9233   0.982   2.466  16.046  0.5081  1.1473  0.3679
  623MPD2     N 9234   1.013   2.425  16.515 -0.1915 -0.3852  0.4653
  623MPD2    H5 9235   0.959   2.386  16.591  1.2058 -1.8345  0.7044
  623MPD2    N1 9236   0.601   2.522  16.282  0.2800  0.2066 -0.1563
  623MPD2    H7 9237   0.554   2.540  16.194  0.5629  0.8641 -0.1669
  624TMC3    C1 9238   1.262   2.244  16.820 -0.4335  0.5332 -0.2878
  624TMC3    C2 9239   1.149   2.225  16.886  0.1158  0.4314  0.4593
  624TMC3    C3 9240   1.037   2.299  16.852  0.2573  0.7688  0.3088
  624TMC3    C4 9241   1.281   2.338  16.719  1.0247 -0.5547 -0.0217
  624TMC3    C5 9242   1.169   2.404  16.690 -0.6604  0.0175  0.3362
  624TMC3    C6 9243   1.051   2.398  16.764  0.4151  0.4489  0.0648
  624TMC3     C 9244   1.373   2.165  16.872 -0.0066  0.4199 -0.3336
  624TMC3     O 9245   1.356   2.065  16.942 -0.4623 -0.4617  0.2047
  624TMC3     H 9246   1.135   2.143  16.955  1.4667 -1.3772 -1.4168
  624TMC3    H1 9247   1.372   2.354  16.661  1.1811  1.0327  0.6656
  624TMC3    H2 9248   0.964   2.458  16.742  0.9197  1.4438  0.7836
  624TMC3    C7 9249   1.149   2.450  16.550  0.4698 -0.6843 -0.1216
  624TMC3    C8 9250   0.907   2.231  16.842 -0.3306  0.3107  0.6833
  624TMC3    O1 9251   1.249   2.471  16.484 -0.1329  0.3233  0.3634
  624TMC3    O2 9252   0.859   2.237  16.731 -0.4955  0.7383  0.3382
  625MPD2     C 9253   0.858   2.924  17.652 -0.0081  0.6961  0.3389
  625MPD2    C1 9254   0.953   2.975   0.057 -0.0650  0.3715  0.0109
  625MPD2    C2 9255   1.012   2.886   0.150  0.7053  0.2849 -1.2266
  625MPD2    C3 9256   0.966   2.761   0.168 -0.3258  0.2525 -0.1753
  625MPD2    C4 9257   0.859   2.714   0.087 -0.6152 -0.6619  0.0234
  625MPD2    C5 9258   0.805   2.796  17.670  0.4277 -0.7266  1.0775
  625MPD2     H 9259   1.084   2.920   0.223  3.4941 -0.7496 -3.5113
  625MPD2    H1 9260   0.811   2.619   0.106 -4.0701  1.3421  1.3144
  625MPD2    H2 9261   0.811   2.983  17.574 -0.3381 -0.6768 -0.4898
  625MPD2    H3 9262   0.733   2.762  17.596 -0.6505 -0.7782  2.1621
  625MPD2     N 9263   1.027   2.684   0.273  0.5592  0.1017  0.3652
  625MPD2    H5 9264   1.109   2.725   0.316  0.4217 -0.0403  0.7719
  625MPD2    N1 9265   1.000   3.109   0.046  0.0711  0.0098  0.2095
  625MPD2    H7 9266   1.055   3.134   0.128 -0.1435 -0.9436  0.6452
  626TMC3    C1 9267   0.992   3.335  17.671 -0.0737  0.1465 -0.2112
  626TMC3    C2 9268   0.990   3.433  17.576 -0.5675  0.1005  0.3478
  626TMC3    C3 9269   1.019   3.566  17.613 -0.1526  0.1362  0.2289
  626TMC3    C4 9270   1.038   3.365   0.120 -0.0432  0.3796 -0.4934
  626TMC3    C5 9271   1.073   3.494   0.145  0.0636  0.2120  0.1583
  626TMC3    C6 9272   1.061   3.603   0.056  0.6202 -0.0236  0.3031
  626TMC3     C 9273   0.957   3.199  17.633 -0.4673  0.8646 -0.7664
  626TMC3     O 9274   0.882   3.194  17.535 -0.4428 -0.5103  0.5313
  626TMC3     H 9275   0.976   3.423  17.469 -0.3724  1.5636  0.1817
  626TMC3    H1 9276   1.039   3.282   0.189  0.0561  1.2432  0.5407
  626TMC3    H2 9277   1.081   3.705   0.085 -1.0542  0.9372 -1.8436
  626TMC3    C7 9278   1.075   3.537   0.282 -0.5020  0.0809 -0.1582
  626TMC3    C8 9279   0.997   3.670  17.510 -0.1991 -0.3078 -0.2143
  626TMC3    O1 9280   1.028   3.647   0.301 -0.5248  0.4711 -0.4950
  626TMC3    O2 9281   1.029   3.641  17.395  0.5230  0.0605 -0.1065
  627MPD2     C 9282   0.052   3.462  14.937  0.1733  0.9814 -0.1782
  627MPD2    C1 9283   0.114   3.503  14.825 -0.5710  0.3618  0.1707
  627MPD2    C2 9284   0.134   3.415  14.726 -0.3394 -0.0661 -0.5172
  627MPD2    C3 9285   0.093   3.282  14.743 -0.3293  0.3882  0.5833
  627MPD2    C4 9286   0.037   3.240  14.855 -0.0220  0.1107  0.2228
  627MPD2    C5 9287   0.013   3.332  14.947 -0.7605  0.2313 -0.2155
  627MPD2     H 9288   0.187   3.437  14.635 -1.1820  0.1522 -0.9534
  627MPD2    H1 9289   0.001   3.140  14.878 -0.9898  1.0810  2.9397
  627MPD2    H2 9290   0.034   3.529  15.021  0.3587 -0.2075  0.8185
  627MPD2    H3 9291   4.675   3.307  15.035 -0.6084  1.2620  0.1875
  627MPD2     N 9292   0.114   3.190  14.634 -0.5653  0.3846 -1.2063
  627MPD2    H5 9293   0.167   3.227  14.555 -1.4944 -2.3274 -3.1254
  627MPD2    N1 9294   0.166   3.634  14.814  0.5667  0.0406 -0.1092
  627MPD2    H7 9295   0.201   3.663  14.723  3.0108 -2.1048  0.1450
  628TMC3    C1 9296   0.232   3.858  14.862  0.5622 -0.3936 -0.3461
  628TMC3    C2 9297   0.305   3.936  14.944  0.4197  0.1963 -0.2606
  628TMC3    C3 9298   0.308   4.070  14.916  0.9899 -0.7944 -0.2826
  628TMC3    C4 9299   0.152   3.908  14.764  0.6588  0.6184  0.1010
  628TMC3    C5 9300   0.153   4.044  14.750  0.7225  0.4607 -0.1221
  628TMC3    C6 9301   0.224   4.133  14.827  0.3192  0.1469  0.2694
  628TMC3     C 9302   0.182   3.726  14.914 -0.0885  1.0039 -0.2391
  628TMC3     O 9303   0.158   3.721  15.032  0.4346 -0.0474  0.1351
  628TMC3     H 9304   0.362   3.895  15.027  0.6662  0.4836 -0.2871
  628TMC3    H1 9305   0.096   3.843  14.699 -0.4931  0.8566  0.8423
  628TMC3    H2 9306   0.245   4.228  14.781  0.8661  0.0635  0.3535
  628TMC3    C7 9307   0.044   4.103  14.669 -0.7209 -0.2168 -0.1759
  628TMC3    C8 9308   0.420   4.147  14.961  0.5620  0.5874 -0.3381
  628TMC3    O1 9309   4.716   4.033  14.584 -0.2712 -0.3446  0.8200
  628TMC3    O2 9310   0.415   4.271  14.963  0.1482  0.2933 -0.5115
  629MPD2     C 9311   2.896   3.022  15.949  0.0962 -0.7522 -0.6205
  629MPD2    C1 9312   2.883   2.885  15.977 -0.3813  0.1433 -0.4063
  629MPD2    C2 9313   2.765   2.821  15.945  0.1112  0.3315  0.2998
  629MPD2    C3 9314   2.652   2.888  15.898  0.5300 -0.0182  0.2607
  629MPD2    C4 9315   2.665   3.023  15.885 -0.2597  0.1726  0.0181
  629MPD2    C5 9316   2.790   3.086  15.902 -0.1716 -0.3434  0.1101
  629MPD2     H 9317   2.761   2.718  15.979  1.9951  0.1553 -0.0188
  629MPD2    H1 9318   2.578   3.085  15.867 -1.2598 -0.6747  1.9646
  629MPD2    H2 9319   2.978   3.089  15.972 -1.2479  0.8748 -0.4949
  629MPD2    H3 9320   2.794   3.194  15.895 -0.7742 -0.3810 -0.8530
  629MPD2     N 9321   2.525   2.824  15.871  0.2134 -0.5731  0.3442
  629MPD2    H5 9322   2.445   2.881  15.847  1.1121  0.5083 -0.0808
  629MPD2    N1 9323   3.000   2.821  16.029  0.2945  0.8813 -0.1523
  629MPD2    H7 9324   3.072   2.885  16.061  1.8260 -0.7289 -0.3568
  630TMC3    C1 9325   3.154   2.650  16.080 -0.9123 -0.6497 -0.5398
  630TMC3    C2 9326   3.245   2.743  16.133  0.1397  0.3690  0.7349
  630TMC3    C3 9327   3.362   2.697  16.192 -0.6372  0.1519 -0.1019
  630TMC3    C4 9328   3.185   2.518  16.098  0.0597  0.8687 -0.6939
  630TMC3    C5 9329   3.287   2.481  16.180 -0.0721 -0.5256  0.8796
  630TMC3    C6 9330   3.386   2.565  16.219  0.5781 -0.1167 -0.2813
  630TMC3     C 9331   3.015   2.679  16.037  1.0826 -0.6144 -0.7339
  630TMC3     O 9332   2.942   2.589  16.001 -0.1854  0.6544  0.0021
  630TMC3     H 9333   3.221   2.847  16.150 -1.3900 -0.2985  2.7177
  630TMC3    H1 9334   3.101   2.454  16.074  1.4458 -0.6956 -1.3593
  630TMC3    H2 9335   3.477   2.533  16.270 -0.3487  1.5545  2.4525
  630TMC3    C7 9336   3.263   2.349  16.240 -0.1926 -0.9937  0.0950
  630TMC3    C8 9337   3.428   2.794  16.279 -0.7306 -0.0792 -0.4687
  630TMC3    O1 9338   3.181   2.279  16.188 -0.8081  0.4043  0.2797
  630TMC3    O2 9339   3.475   2.751  16.381 -0.1844 -0.3658 -0.1593
  631MPD2     C 9340   0.970   2.328  15.677 -0.1517  0.3415 -1.2348
  631MPD2    C1 9341   1.037   2.347  15.561  0.3551  0.0335 -0.3296
  631MPD2    C2 9342   1.117   2.240  15.520 -0.1133 -0.3521 -0.3897
  631MPD2    C3 9343   1.118   2.124  15.595  0.1105 -0.0373 -0.4076
  631MPD2    C4 9344   1.041   2.105  15.709 -0.0663  0.1549  0.5890
  631MPD2    C5 9345   0.966   2.213  15.741 -0.1445  0.7739 -0.6158
  631MPD2     H 9346   1.169   2.240  15.425  1.4243  1.9567  0.4547
  631MPD2    H1 9347   1.049   2.018  15.773 -0.6509 -1.6527 -1.7962
  631MPD2    H2 9348   0.904   2.404  15.718  1.5360 -0.8352  3.6806
  631MPD2    H3 9349   0.900   2.210  15.827  0.2406 -2.7862 -0.4101
  631MPD2     N 9350   1.215   2.029  15.547  0.0704 -0.3747 -0.0976
  631MPD2    H5 9351   1.256   2.057  15.459  0.5670 -0.2569  0.1759
  631MPD2    N1 9352   1.041   2.478  15.500 -0.1931  0.1005 -0.6190
  631MPD2    H7 9353   1.002   2.555  15.553  2.2447 -0.2147  1.6476
  632TMC3    C1 9354   1.122   2.638  15.345 -1.0159  0.6247 -0.4920
  632TMC3    C2 9355   1.157   2.713  15.459  0.0628 -0.1459  0.7879
  632TMC3    C3 9356   1.253   2.810  15.451  0.5766  0.6035 -0.0889
  632TMC3    C4 9357   1.192   2.659  15.230  0.1301 -0.2036 -0.1727
  632TMC3    C5 9358   1.300   2.752  15.233  1.0638 -0.0798  0.3423
  632TMC3    C6 9359   1.333   2.831  15.339  0.6906 -0.3283 -0.4238
  632TMC3     C 9360   1.101   2.498  15.379 -0.2922  0.1187  0.5440
  632TMC3     O 9361   1.110   2.411  15.295  0.2667  0.3172 -0.2830
  632TMC3     H 9362   1.110   2.702  15.555 -3.1150 -0.8349 -0.8666
  632TMC3    H1 9363   1.170   2.605  15.139 -0.6266  2.3529 -1.5033
  632TMC3    H2 9364   1.416   2.901  15.337 -1.0451  1.7227 -0.9023
  632TMC3    C7 9365   1.393   2.743  15.121  0.7750  0.1483 -0.1193
  632TMC3    C8 9366   1.276   2.874  15.577 -0.2653  0.1479 -0.2020
  632TMC3    O1 9367   1.346   2.695  15.021  0.3039  0.4914 -0.0084
  632TMC3    O2 9368   1.191   2.884  15.661 -0.4290 -0.6376 -0.0396
  633MPD2     C 9369   1.252   0.662  17.386  0.1043 -0.5502 -0.1880
  633MPD2    C1 9370   1.217   0.624  17.258 -0.0905 -0.6948  0.1369
  633MPD2    C2 9371   1.178   0.495  17.235 -0.1876  0.4520 -1.3848
  633MPD2    C3 9372   1.161   0.414  17.346  0.0032  0.2454  0.4209
  633MPD2    C4 9373   1.200   0.456  17.471 -0.4487  0.5671 -0.3244
  633MPD2    C5 9374   1.245   0.583  17.492  1.0837  0.1610 -0.6677
  633MPD2     H 9375   1.142   0.466  17.137 -2.6680  1.9082 -0.9010
  633MPD2    H1 9376   1.189   0.384  17.551  0.3913 -1.6022 -2.1321
  633MPD2    H2 9377   1.280   0.766  17.396  0.2154 -0.5792 -0.1854
  633MPD2    H3 9378   1.266   0.611  17.594 -0.8223  1.0225 -0.5165
  633MPD2     N 9379   1.092   0.288  17.335 -0.4703 -0.5327  0.3793
  633MPD2    H5 9380   1.070   0.247  17.425  1.3046 -1.5823  0.3420
  633MPD2    N1 9381   1.238   0.705  17.141 -0.2668 -0.1298 -0.3032
  633MPD2    H7 9382   1.200   0.666  17.056 -0.0310 -0.6453 -0.1707
  634TMC3    C1 9383   1.326   0.880  17.015  0.4980 -0.6560 -0.3671
  634TMC3    C2 9384   1.377   0.787  16.926  0.3001  0.5097 -0.4380
  634TMC3    C3 9385   1.385   0.820  16.793  0.0479 -0.9591 -0.1753
  634TMC3    C4 9386   1.283   1.004  16.983  0.5017 -0.3599 -0.2624
  634TMC3    C5 9387   1.299   1.039  16.849 -0.0460 -0.1384 -0.0383
  634TMC3    C6 9388   1.352   0.950  16.752  0.1304 -0.1714 -0.0037
  634TMC3     C 9389   1.301   0.827  17.142 -0.0246 -0.9412 -0.3917
  634TMC3     O 9390   1.342   0.894  17.237 -0.5231 -0.5195 -0.2220
  634TMC3     H 9391   1.403   0.688  16.962 -0.6175  0.3393 -0.2506
  634TMC3    H1 9392   1.255   1.069  17.065  0.3403 -0.4456 -0.2499
  634TMC3    H2 9393   1.362   0.974  16.647 -0.0882 -1.2431 -0.2722
  634TMC3    C7 9394   1.235   1.155  16.794 -0.3565 -0.3697 -0.1395
  634TMC3    C8 9395   1.413   0.717  16.698 -0.3719  0.2435 -0.4661
  634TMC3    O1 9396   1.242   1.169  16.672  0.0254  0.3130  0.0270
  634TMC3    O2 9397   1.417   0.601  16.749 -0.4830 -0.6289 -0.3540
  635TMC3    C1 9398   2.041   0.616   0.132 -0.2964 -0.5338 -0.1547
  635TMC3    C2 9399   2.149   0.589   0.216 -0.3280  0.7179  0.0417
  635TMC3    C3 9400   2.171   0.454   0.244 -0.1278  0.0089 -0.2861
  635TMC3    C4 9401   1.953   0.525   0.090 -0.1825 -0.1278 -0.3591
  635TMC3    C5 9402   1.975   0.396   0.120 -0.1817 -0.6067 -0.0549
  635TMC3    C6 9403   2.082   0.357   0.194 -0.1360 -0.4739  0.6508
  635TMC3     C 9404   2.011   0.750   0.085  0.0021 -0.7253 -0.0982
  635TMC3     O 9405   2.016   0.839   0.169 -0.0538  0.3693 -0.4376
  635TMC3     H 9406   2.217   0.666   0.250 -2.6985  2.4930  0.7943
  635TMC3    H1 9407   1.854   0.540   0.049  0.8111  2.1364 -1.9036
  635TMC3    H2 9408   2.100   0.252   0.217 -1.2003 -0.9851 -0.8832
  635TMC3    C7 9409   1.874   0.297   0.077 -0.4492 -0.2670  0.4209
  635TMC3    C8 9410   2.262   0.415   0.350  0.2344 -0.2001  0.1600
  635TMC3    O1 9411   1.859   0.200   0.151 -0.4021 -0.2631 -0.4440
  635TMC3    O2 9412   2.223   0.312   0.404 -0.3873 -0.3458  0.0266
  636MPD2     C 9413   2.328   0.653  15.574  0.1930 -0.1677 -0.5373
  636MPD2    C1 9414   2.372   0.654  15.709 -0.3583  0.5109  0.2210
  636MPD2    C2 9415   2.461   0.561  15.752 -0.3207  0.2461  0.1824
  636MPD2    C3 9416   2.502   0.455  15.669 -0.1371  0.5410  0.3191
  636MPD2    C4 9417   2.454   0.453  15.541 -0.6165  0.1391  0.0191
  636MPD2    C5 9418   2.365   0.546  15.499  0.1024  0.3961  0.0064
  636MPD2     H 9419   2.482   0.557  15.858  1.3452 -1.4588 -0.2265
  636MPD2    H1 9420   2.484   0.375  15.471  1.7853  0.8108  0.3024
  636MPD2    H2 9421   2.266   0.725  15.521  1.3961  1.6174  0.4687
  636MPD2    H3 9422   2.324   0.529  15.400 -0.9179 -0.0825  0.5054
  636MPD2     N 9423   2.586   0.352  15.726  0.0921 -0.2113 -0.2575
  636MPD2    H5 9424   2.599   0.362  15.827 -1.2415 -0.8563 -0.0188
  636MPD2    N1 9425   2.336   0.756  15.801 -0.2106 -0.3546  0.0090
  636MPD2    H7 9426   2.369   0.741  15.896  0.4291 -0.5084 -0.2367
  637TMC3    C1 9427   2.729   0.175  15.743 -0.7506  0.2788 -0.3251
  637TMC3    C2 9428   2.699   0.198  15.870  0.2789 -0.0519 -0.9004
  637TMC3    C3 9429   2.801   0.229  15.961 -0.8545 -0.0468 -0.7396
  637TMC3    C4 9430   2.849   0.161  15.698 -0.6898 -0.1254  0.1717
  637TMC3    C5 9431   2.948   0.174  15.785  0.2449  0.2261  0.4008
  637TMC3    C6 9432   2.932   0.206  15.921  0.2650 -0.6421  0.2169
  637TMC3     C 9433   2.647   0.251  15.655 -0.0541  0.1441 -0.9227
  637TMC3     O 9434   2.678   0.247  15.533 -0.6890  0.5071  0.2963
  637TMC3     H 9435   2.600   0.183  15.912  1.1139  0.8574  1.3601
  637TMC3    H1 9436   2.875   0.151  15.594 -1.0986  2.1165 -0.1331
  637TMC3    H2 9437   3.017   0.217  15.987 -2.3454  1.8036  3.1271
  637TMC3    C7 9438   3.066   0.226  15.728  0.5314  0.2808  0.5100
  637TMC3    C8 9439   2.787   0.368  16.006 -0.3854 -0.4479  0.7947
  637TMC3    O1 9440   3.116   0.311  15.799 -0.1099 -0.1502  0.3776
  637TMC3    O2 9441   2.670   0.410  16.012  0.0950  0.0127 -0.2624
  638MPD2     C 9442   2.289   4.400  14.489 -0.0283 -0.2085 -0.0762
  638MPD2    C1 9443   2.262   4.266  14.482  0.7553 -0.0748  0.0462
  638MPD2    C2 9444   2.205   4.211  14.599  0.6949 -0.2927 -0.3018
  638MPD2    C3 9445   2.190   4.280  14.715  0.2576 -0.2355 -0.8512
  638MPD2    C4 9446   2.225   4.416  14.721 -0.2330 -0.2277 -0.1152
  638MPD2    C5 9447   2.260   4.475  14.605  0.2211 -0.0299 -0.5471
  638MPD2     H 9448   2.193   4.104  14.606  0.8026 -0.2450  0.5703
  638MPD2    H1 9449   2.206   4.477  14.808  2.9686 -0.1706  0.5219
  638MPD2    H2 9450   2.327   4.440  14.396 -2.4176  0.0724 -0.9468
  638MPD2    H3 9451   2.279   4.582  14.608 -2.2854  0.3286  1.7847
  638MPD2     N 9452   2.147   4.204  14.827 -0.6933 -0.3136  0.4949
  638MPD2    H5 9453   2.139   4.104  14.810 -2.7379 -0.3201  1.5259
  638MPD2    N1 9454   2.289   4.193  14.365 -0.5926 -0.0554  0.1620
  638MPD2    H7 9455   2.341   4.239  14.290 -0.2370 -1.8564 -0.6927
  639TMC3    C1 9456   2.091   4.144  15.047 -0.2624 -0.3895  0.2672
  639TMC3    C2 9457   1.996   4.054  14.997  0.2157 -0.0889  0.6645
  639TMC3    C3 9458   1.925   3.980  15.095  0.0235 -0.6003 -0.0077
  639TMC3    C4 9459   2.119   4.152  15.179  0.2836  0.4529 -0.7874
  639TMC3    C5 9460   2.042   4.086  15.271 -0.3248 -0.0605  0.0743
  639TMC3    C6 9461   1.947   3.993  15.228  0.4488 -0.4448  0.0011
  639TMC3     C 9462   2.144   4.245  14.959  0.2370  0.4511 -0.4448
  639TMC3     O 9463   2.185   4.357  14.994  0.1175  0.4638  0.3543
  639TMC3     H 9464   1.969   4.071  14.893  1.3549 -2.2357  0.0316
  639TMC3    H1 9465   2.199   4.213  15.221 -0.3817  1.6223 -1.2166
  639TMC3    H2 9466   1.900   3.928  15.301  1.5420 -1.6753 -0.3847
  639TMC3    C7 9467   2.126   4.015  15.363 -1.3840  0.1376  1.0059
  639TMC3    C8 9468   1.824   3.892  15.040  0.4293  0.7264  0.5051
  639TMC3    O1 9469   2.178   4.074  15.461  0.6513  0.3428 -1.1270
  639TMC3    O2 9470   1.832   3.852  14.924 -0.3342  0.1926 -0.3332
  640MPD2     C 9471   2.823   2.513   9.596 -0.6558  0.0876 -0.6271
  640MPD2    C1 9472   2.880   2.635   9.605  0.1289 -0.6992  0.7569
  640MPD2    C2 9473   2.797   2.742   9.587 -0.3931 -0.4971 -0.5475
  640MPD2    C3 9474   2.660   2.723   9.554  0.0591 -0.0285 -0.3622
  640MPD2    C4 9475   2.611   2.598   9.544  0.4389 -0.3092 -0.2283
  640MPD2    C5 9476   2.690   2.491   9.557 -0.8878 -0.3617 -0.1228
  640MPD2     H 9477   2.834   2.843   9.600  0.2617 -0.2503 -4.1734
  640MPD2    H1 9478   2.508   2.580   9.519  0.6975 -1.8599 -0.1540
  640MPD2    H2 9479   2.890   2.428   9.604  0.3339  0.8060 -1.2684
  640MPD2    H3 9480   2.648   2.396   9.527  0.4291 -1.0998  0.3425
  640MPD2     N 9481   2.569   2.826   9.531 -0.6454 -0.0492 -0.1977
  640MPD2    H5 9482   2.474   2.794   9.516 -0.0883 -1.5737 -0.4319
  640MPD2    N1 9483   3.024   2.642   9.620 -0.8423 -0.1504  0.3304
  640MPD2    H7 9484   3.069   2.555   9.647  0.5766  0.1041 -1.2195
  641TMC3    C1 9485   3.238   2.741   9.650  0.8567  0.4855 -0.1907
  641TMC3    C2 9486   3.268   2.648   9.737  0.5976  0.0279 -0.1740
  641TMC3    C3 9487   3.396   2.626   9.759 -0.0848  0.1957  0.0640
  641TMC3    C4 9488   3.332   2.814   9.587 -0.2336 -0.5376  0.6041
  641TMC3    C5 9489   3.466   2.788   9.607 -0.0209  0.5473  0.0909
  641TMC3    C6 9490   3.503   2.695   9.701 -0.2800  0.0157  0.0845
  641TMC3     C 9491   3.096   2.756   9.608 -0.3244 -0.0324  1.1055
  641TMC3     O 9492   3.066   2.871   9.585 -0.3910  0.0646 -0.6791
  641TMC3     H 9493   3.193   2.602   9.800  0.7948 -0.2177 -0.1185
  641TMC3    H1 9494   3.294   2.885   9.515 -1.0679 -0.6010  0.9740
  641TMC3    H2 9495   3.607   2.670   9.718 -0.1251  0.0372 -0.8527
  641TMC3    C7 9496   3.569   2.853   9.529  0.0801 -0.3344  0.1763
  641TMC3    C8 9497   3.429   2.488   9.807 -0.4265  0.4436  0.0528
  641TMC3    O1 9498   3.686   2.846   9.567  0.7437 -0.7658 -1.0175
  641TMC3    O2 9499   3.343   2.400   9.797 -0.3513 -0.3680  0.4545
  642TMC3    C1 9500   3.484   3.710  12.120 -0.4175  0.5769  0.7255
  642TMC3    C2 9501   3.455   3.686  12.252  0.7219  0.5405 -0.2663
  642TMC3    C3 9502   3.492   3.566  12.310  0.5465  0.5104  0.4631
  642TMC3    C4 9503   3.551   3.619  12.051 -0.0383  0.3493 -0.7136
  642TMC3    C5 9504   3.590   3.506  12.115 -0.1191  0.4093 -0.3407
  642TMC3    C6 9505   3.563   3.472  12.241  0.3532 -1.2539 -0.7885
  642TMC3     C 9506   3.432   3.825  12.048 -0.2831  0.2862  0.6700
  642TMC3     O 9507   3.455   3.833  11.924  0.0998 -0.3803  0.0180
  642TMC3     H 9508   3.420   3.770  12.310  0.5604 -1.2364  2.2209
  642TMC3    H1 9509   3.589   3.645  11.953  0.2140  0.7563 -0.5085
  642TMC3    H2 9510   3.598   3.382  12.290 -2.0613 -1.8806 -0.2194
  642TMC3    C7 9511   3.646   3.402  12.026 -0.1682  0.1120 -0.0169
  642TMC3    C8 9512   3.484   3.567  12.455 -0.1148  0.8652 -1.2206
  642TMC3    O1 9513   3.653   3.428  11.907  0.5941  0.3262 -0.8235
  642TMC3    O2 9514   3.460   3.680  12.497 -0.3737  0.0166 -0.7473
  643TMC3    C1 9515   3.059   3.461   0.602  0.0413  0.4460 -0.4147
  643TMC3    C2 9516   2.944   3.492   0.532 -0.3182  0.4640  0.5005
  643TMC3    C3 9517   2.914   3.410   0.425  0.0443  0.0160 -0.0358
  643TMC3    C4 9518   3.136   3.353   0.563  0.2297 -1.0839  0.1987
  643TMC3    C5 9519   3.095   3.269   0.460  0.1949  0.8478  0.4765
  643TMC3    C6 9520   2.976   3.294   0.393 -0.2169  0.3875 -1.4282
  643TMC3     C 9521   3.125   3.568   0.667  0.2183  0.1980  0.2675
  643TMC3     O 9522   3.104   3.678   0.621  0.0994  0.0532  0.1612
  643TMC3     H 9523   2.868   3.559   0.568 -0.4986  0.5604 -0.0508
  643TMC3    H1 9524   3.237   3.328   0.594  0.6261  0.8922  0.4763
  643TMC3    H2 9525   2.930   3.229   0.319  1.6778  0.9761 -3.1315
  643TMC3    C7 9526   3.184   3.153   0.449  0.4031  0.3974  0.3945
  643TMC3    C8 9527   2.838   3.473   0.314 -0.0057 -0.4731  0.4540
  643TMC3    O1 9528   3.225   3.117   0.556  0.3174 -0.2161  0.4055
  643TMC3    O2 9529   2.800   3.396   0.227 -0.4767 -0.0927  0.5021
  644MPD2     C 9530   3.387   3.576   9.080 -0.3592 -0.0170 -0.1223
  644MPD2    C1 9531   3.410   3.502   9.194  0.5481  0.2161 -0.0347
  644MPD2    C2 9532   3.332   3.391   9.222  0.4933 -0.4296 -0.0433
  644MPD2    C3 9533   3.246   3.350   9.120  0.6093  0.5470  0.8869
  644MPD2    C4 9534   3.234   3.416   8.996  0.2924 -0.9863 -0.8177
  644MPD2    C5 9535   3.302   3.536   8.984  0.3548  0.1259  0.2388
  644MPD2     H 9536   3.348   3.334   9.313  0.8637  0.5793  0.5218
  644MPD2    H1 9537   3.157   3.392   8.923 -1.1552 -1.2928  0.8164
  644MPD2    H2 9538   3.438   3.671   9.090 -1.6056  0.8689 -2.3361
  644MPD2    H3 9539   3.277   3.596   8.897 -0.7986 -1.5244 -0.5680
  644MPD2     N 9540   3.171   3.230   9.139 -0.4874 -0.9420  0.3252
  644MPD2    H5 9541   3.187   3.189   9.230 -0.5983 -0.4150  0.5851
  644MPD2    N1 9542   3.510   3.547   9.285 -0.2927 -0.2651  0.6556
  644MPD2    H7 9543   3.556   3.631   9.251  0.6983 -0.6779  0.9884
  645TMC3    C1 9544   3.034   3.033   9.096  0.6305  0.0648 -0.0913
  645TMC3    C2 9545   2.934   2.984   9.016 -0.3867 -0.5452 -0.4300
  645TMC3    C3 9546   2.925   2.846   9.019  0.0940 -0.3294  0.1778
  645TMC3    C4 9547   3.122   2.959   9.179  0.1807  0.0953 -0.0059
  645TMC3    C5 9548   3.099   2.819   9.164 -0.4312 -0.7170 -0.3008
  645TMC3    C6 9549   2.998   2.763   9.097  0.0158  0.3430  0.0263
  645TMC3     C 9550   3.085   3.169   9.054  0.2618  0.3402 -0.4466
  645TMC3     O 9551   3.067   3.193   8.933 -0.4235  0.7792  0.4626
  645TMC3     H 9552   2.864   3.038   8.953  0.2929  0.0577 -0.6742
  645TMC3    H1 9553   3.201   2.993   9.244  0.0582 -1.4958  0.9756
  645TMC3    H2 9554   2.966   2.659   9.094  1.0382  0.0007  1.0584
  645TMC3    C7 9555   3.193   2.735   9.244 -0.3124 -0.1324 -0.2364
  645TMC3    C8 9556   2.793   2.803   8.976 -0.4011 -0.0777 -0.1144
  645TMC3    O1 9557   3.299   2.793   9.280 -0.3474  0.4274  0.1898
  645TMC3    O2 9558   2.738   2.722   9.049 -0.1201  0.0379  0.1889
  646MPD2     C 9559   2.183   2.820  14.854 -0.4604  0.0005 -0.1940
  646MPD2    C1 9560   2.093   2.854  14.952 -0.1821  0.6168 -0.1693
  646MPD2    C2 9561   1.979   2.930  14.932 -0.3297  0.1057  0.3258
  646MPD2    C3 9562   1.961   2.994  14.808  0.2636 -0.5328 -0.5512
  646MPD2    C4 9563   2.058   2.970  14.714 -0.1245  0.1818 -0.0266
  646MPD2    C5 9564   2.159   2.876  14.735  0.0714  0.4825 -0.8710
  646MPD2     H 9565   1.902   2.937  15.009  0.5371  1.6181  1.0397
  646MPD2    H1 9566   2.068   3.019  14.618  2.9937  1.2908  0.8324
  646MPD2    H2 9567   2.263   2.753  14.884  1.3776  1.6794 -1.3359
  646MPD2    H3 9568   2.220   2.855  14.648  1.4444  0.2566  0.1354
  646MPD2     N 9569   1.859   3.083  14.773  0.0519 -0.1038  0.4908
  646MPD2    H5 9570   1.797   3.117  14.846  0.4774  2.1254 -0.1815
  646MPD2    N1 9571   2.141   2.809  15.077  0.4055  0.1256  0.8195
  646MPD2    H7 9572   2.223   2.749  15.076 -0.3583 -0.8706 -1.2026
  647TMC3    C1 9573   2.166   2.775  15.303 -0.2837 -0.6027 -0.9053
  647TMC3    C2 9574   2.106   2.757  15.425 -0.1605  0.3185  0.2413
  647TMC3    C3 9575   2.187   2.701  15.528  0.1591 -0.6598 -1.1104
  647TMC3    C4 9576   2.297   2.744  15.281 -0.1750  0.2515 -0.1297
  647TMC3    C5 9577   2.375   2.697  15.387  0.1990  0.3305 -0.6609
  647TMC3    C6 9578   2.323   2.692  15.512  0.2036  0.1980 -0.6236
  647TMC3     C 9579   2.081   2.827  15.195 -0.4095 -0.9747  0.3958
  647TMC3     O 9580   1.968   2.872  15.222  0.1630  0.1475  0.8215
  647TMC3     H 9581   2.008   2.797  15.445 -0.5448 -1.6930  2.3742
  647TMC3    H1 9582   2.349   2.753  15.186 -1.2943  1.2574 -0.6393
  647TMC3    H2 9583   2.378   2.667  15.602 -0.8710  0.6535  0.1645
  647TMC3    C7 9584   2.509   2.635  15.384 -0.3875  0.1474  0.0575
  647TMC3    C8 9585   2.136   2.573  15.572 -0.1429  0.4504 -0.4242
  647TMC3    O1 9586   2.566   2.612  15.489  0.5287  0.1235 -0.2572
  647TMC3    O2 9587   2.219   2.495  15.623 -0.0433 -0.0602  0.7784
  648TMC3    C1 9588   1.707   0.842  16.255  0.2464 -0.5663 -0.1473
  648TMC3    C2 9589   1.812   0.760  16.227 -0.6739 -0.2222  0.1560
  648TMC3    C3 9590   1.832   0.720  16.100  0.6866  0.1856 -0.7206
  648TMC3    C4 9591   1.627   0.896  16.163 -0.1260  0.0609  0.2263
  648TMC3    C5 9592   1.648   0.856  16.033 -1.0049  0.2505 -0.2388
  648TMC3    C6 9593   1.751   0.768  16.001 -0.1045 -0.2831  0.4234
  648TMC3     C 9594   1.687   0.901  16.393 -0.0856 -0.1036 -0.3617
  648TMC3     O 9595   1.607   0.997  16.399 -0.1199  0.4654  0.0451
  648TMC3     H 9596   1.883   0.740  16.306 -0.7969 -0.7233  0.1427
  648TMC3    H1 9597   1.561   0.978  16.189 -0.4219 -0.1234  0.0561
  648TMC3    H2 9598   1.754   0.730  15.900 -2.3727  1.4121 -0.3038
  648TMC3    C7 9599   1.560   0.903  15.925 -0.8783 -0.3878 -0.2151
  648TMC3    C8 9600   1.975   0.690  16.078 -0.0622 -0.1960  0.8732
  648TMC3    O1 9601   1.587   0.878  15.811 -0.3114 -0.1588 -0.6515
  648TMC3    O2 9602   2.049   0.750  16.158  0.2145  0.0223  0.0415
  649TMC3    C1 9603   0.239   1.294  12.779  0.2392  0.2773  0.5341
  649TMC3    C2 9604   0.369   1.332  12.767 -0.3861 -0.6219 -0.0520
  649TMC3    C3 9605   0.464   1.281  12.853  0.9298  0.2692 -0.9977
  649TMC3    C4 9606   0.192   1.221  12.885  0.1144  0.1669 -0.5142
  649TMC3    C5 9607   0.287   1.175  12.971  0.1547 -0.2382 -0.6735
  649TMC3    C6 9608   0.424   1.206  12.961 -0.1855  0.4199  0.5363
  649TMC3     C 9609   0.136   1.361  12.699  0.9902 -0.0809 -0.6226
  649TMC3     O 9610   0.037   1.406  12.755 -0.0249 -0.2884  0.2565
  649TMC3     H 9611   0.397   1.406  12.694 -2.3086  1.3518  1.2178
  649TMC3    H1 9612   0.090   1.196  12.907  1.1504 -3.0197  0.5609
  649TMC3    H2 9613   0.501   1.176  13.031 -0.9355 -0.6278  0.9181
  649TMC3    C7 9614   0.241   1.101  13.091  0.0479 -0.4523 -0.3907
  649TMC3    C8 9615   0.600   1.337  12.844 -0.1903  0.2581  0.2098
  649TMC3    O1 9616   0.124   1.110  13.121  0.4031 -0.3871 -0.3385
  649TMC3    O2 9617   0.684   1.276  12.911  0.6497  0.3148 -0.0878
  650TMC3    C1 9618   3.157   3.476  13.146  0.2420 -0.1763  1.1645
  650TMC3    C2 9619   3.157   3.612  13.144 -0.2108  0.2813  0.9754
  650TMC3    C3 9620   3.160   3.669  13.024 -0.0448 -0.4314 -0.8340
  650TMC3    C4 9621   3.120   3.403  13.032  0.9475  0.4188 -0.7125
  650TMC3    C5 9622   3.115   3.472  12.909 -0.2007  0.2313  0.2050
  650TMC3    C6 9623   3.138   3.605  12.904 -0.5648  0.1852 -0.4469
  650TMC3     C 9624   3.211   3.407  13.258  0.5329 -0.1708 -0.3587
  650TMC3     O 9625   3.242   3.466  13.361  0.5026  0.0393 -0.5924
  650TMC3     H 9626   3.186   3.671  13.230 -0.6042  1.4173  0.3260
  650TMC3    H1 9627   3.100   3.296  13.033  1.1648  0.4067  1.5138
  650TMC3    H2 9628   3.153   3.656  12.809 -1.7490 -1.0989 -1.3177
  650TMC3    C7 9629   3.048   3.405  12.798  0.3625 -0.0441  0.3377
  650TMC3    C8 9630   3.174   3.810  13.012  0.5109 -0.5424 -0.1493
  650TMC3    O1 9631   3.063   3.283  12.784  0.1255 -0.0694 -0.5401
  650TMC3    O2 9632   3.205   3.849  12.900 -0.6768 -0.5083  0.6541
  651MPD2     C 9633   2.084   0.402  10.343 -0.1261  0.1090  0.4764
  651MPD2    C1 9634   2.089   0.499  10.439 -0.8714 -0.5927 -0.2206
  651MPD2    C2 9635   2.208   0.564  10.463 -0.2429 -0.7583 -0.6040
  651MPD2    C3 9636   2.319   0.552  10.397 -0.1227  0.0790  0.8828
  651MPD2    C4 9637   2.319   0.457  10.298  0.1343 -0.1483 -0.3584
  651MPD2    C5 9638   2.199   0.384  10.265  0.5732  0.1898 -0.0410
  651MPD2     H 9639   2.198   0.640  10.540  0.4977 -0.3914 -0.8737
  651MPD2    H1 9640   2.404   0.434  10.236  0.7939 -0.2523  0.5858
  651MPD2    H2 9641   1.993   0.345  10.330 -0.0650 -0.2001  1.4064
  651MPD2    H3 9642   2.192   0.303  10.193  0.2113  0.1285  0.0578
  651MPD2     N 9643   2.425   0.641  10.439 -0.6744 -0.1750 -0.1353
  651MPD2    H5 9644   2.395   0.708  10.508 -0.4781 -0.3974  0.1668
  651MPD2    N1 9645   1.974   0.544  10.506 -0.2063 -0.2138  0.2092
  651MPD2    H7 9646   1.980   0.637  10.546 -1.6447  0.3605 -0.8761
  652TMC3    C1 9647   2.876   0.770  10.502  0.0320  0.0860  1.2332
  652TMC3    C2 9648   2.781   0.711  10.423 -0.0712 -0.1359 -0.0851
  652TMC3    C3 9649   2.651   0.708  10.473 -0.5356  0.2128  0.0820
  652TMC3    C4 9650   2.846   0.832  10.625  0.6019 -0.1743 -0.0822
  652TMC3    C5 9651   2.710   0.821  10.670 -0.1685  0.3475 -0.4225
  652TMC3    C6 9652   2.616   0.754  10.597  0.6567 -0.4617  0.0477
  652TMC3     C 9653   3.017   0.771  10.454 -0.3782  0.1645  0.3055
  652TMC3     O 9654   3.044   0.770  10.337  0.0301  0.0649 -0.4242
  652TMC3     H 9655   2.807   0.672  10.325 -3.7770 -0.8058 -0.8290
  652TMC3    H1 9656   2.928   0.878  10.679 -1.0754  0.1679  2.1612
  652TMC3    H2 9657   2.515   0.762  10.636  0.7283  1.3613 -0.1602
  652TMC3    C7 9658   2.680   0.871  10.803 -0.5803 -0.0779 -0.1777
  652TMC3    C8 9659   2.554   0.640  10.386  0.4578 -0.3244 -0.0291
  652TMC3    O1 9660   2.575   0.832  10.854 -0.5991 -0.1713  0.2971
  652TMC3    O2 9661   2.602   0.577  10.288  0.5386 -0.4298  0.3094
  653MPD2     C 9662   0.770   0.683  17.415 -0.1054 -0.3291  0.0421
  653MPD2    C1 9663   0.710   0.786  17.339 -0.9165 -0.4460  0.1838
  653MPD2    C2 9664   0.680   0.762  17.210 -0.4429 -0.3095 -0.0348
  653MPD2    C3 9665   0.716   0.642  17.149  0.3520  0.3109  0.3949
  653MPD2    C4 9666   0.774   0.541  17.222 -0.0646  1.1367  0.1975
  653MPD2    C5 9667   0.798   0.564  17.356 -0.1214  0.3672  0.5005
  653MPD2     H 9668   0.632   0.828  17.139  1.7046  1.4529  0.1638
  653MPD2    H1 9669   0.805   0.443  17.189 -2.0572  0.2717  0.9293
  653MPD2    H2 9670   0.798   0.701  17.518 -2.3216 -0.0693  0.5975
  653MPD2    H3 9671   0.850   0.480  17.401 -1.6965 -1.8553 -1.7891
  653MPD2     N 9672   0.686   0.630  17.012  0.2571  0.4034  0.8778
  653MPD2    H5 9673   0.625   0.700  16.972 -0.3960  0.4502  1.9595
  653MPD2    N1 9674   0.658   0.899  17.408 -0.2223 -0.3864 -0.6060
  653MPD2    H7 9675   0.598   0.964  17.357  1.9877  1.8324 -0.3858
  654TMC3    C1 9676   0.650   0.516  16.799 -0.2144 -0.2870 -0.3359
  654TMC3    C2 9677   0.513   0.541  16.801 -0.6150 -0.3452 -0.1305
  654TMC3    C3 9678   0.430   0.466  16.715 -0.2991 -0.1079 -0.1078
  654TMC3    C4 9679   0.696   0.417  16.713 -0.4616  0.1297 -0.5467
  654TMC3    C5 9680   0.613   0.358  16.620 -0.4492  0.3496 -0.1489
  654TMC3    C6 9681   0.475   0.381  16.622  0.3525 -0.6889  0.1176
  654TMC3     C 9682   0.727   0.533  16.920  0.0947  0.0970 -0.2122
  654TMC3     O 9683   0.820   0.453  16.936 -0.5540 -0.3942  0.3856
  654TMC3     H 9684   0.472   0.589  16.889 -0.3943 -0.1704 -0.1228
  654TMC3    H1 9685   0.800   0.396  16.694  0.1816  2.8653 -0.0776
  654TMC3    H2 9686   0.417   0.345  16.538  0.0478  2.0946 -0.8791
  654TMC3    C7 9687   0.665   0.264  16.528 -0.0778  0.7345  0.6611
  654TMC3    C8 9688   0.292   0.447  16.762  0.2953  0.8406  0.2940
  654TMC3    O1 9689   0.614   0.267  16.415 -0.2021 -0.0819 -0.3210
  654TMC3    O2 9690   0.252   0.539  16.832  0.1549 -0.3667 -0.2896
  655MPD2     C 9691   1.932   0.789  15.642  0.2226 -0.7310  0.0091
  655MPD2    C1 9692   1.861   0.888  15.570  0.3552 -0.0560 -0.7351
  655MPD2    C2 9693   1.844   0.868  15.440  0.4426 -0.1234 -0.5714
  655MPD2    C3 9694   1.895   0.757  15.374 -0.3672  0.1726 -1.2056
  655MPD2    C4 9695   1.975   0.673  15.444 -0.2150 -0.3167  0.6017
  655MPD2    C5 9696   2.002   0.694  15.576 -0.1108 -0.3372 -0.1521
  655MPD2     H 9697   1.786   0.945  15.390 -2.4974 -0.8881  1.6265
  655MPD2    H1 9698   2.020   0.585  15.400  1.1593  0.8139 -0.2718
  655MPD2    H2 9699   1.945   0.802  15.749  1.6350 -0.9964 -0.1288
  655MPD2    H3 9700   2.074   0.632  15.629  1.4794  0.2517 -1.6252
  655MPD2     N 9701   1.850   0.713  15.248  0.2443 -0.1975  0.6236
  655MPD2    H5 9702   1.889   0.626  15.212  1.2685  0.2438  0.6604
  655MPD2    N1 9703   1.809   1.008  15.625  0.7469 -0.0603 -0.1424
  655MPD2    H7 9704   1.762   1.066  15.556 -1.7460 -2.8151 -0.7897
  656TMC3    C1 9705   1.769   1.181  15.787  0.6974 -0.9422 -0.0290
  656TMC3    C2 9706   1.764   1.220  15.918  0.1228  0.1005  0.1575
  656TMC3    C3 9707   1.685   1.329  15.938 -0.0905  0.3772  0.2473
  656TMC3    C4 9708   1.729   1.254  15.680 -0.0484 -0.7277  0.2069
  656TMC3    C5 9709   1.656   1.370  15.709 -0.1174 -0.8094  0.1546
  656TMC3    C6 9710   1.623   1.405  15.837  0.2182  0.4242  0.3594
  656TMC3     C 9711   1.827   1.051  15.749  0.5058  1.4916  0.0013
  656TMC3     O 9712   1.888   0.992  15.840  0.1247 -0.3448  0.3085
  656TMC3     H 9713   1.796   1.150  15.995  0.2799 -1.2002 -1.0957
  656TMC3    H1 9714   1.746   1.230  15.576 -0.0708 -0.1476  0.0717
  656TMC3    H2 9715   1.553   1.483  15.867 -2.3383 -1.6075 -0.3167
  656TMC3    C7 9716   1.585   1.426  15.600  0.8500 -0.3359 -0.7521
  656TMC3    C8 9717   1.623   1.315  16.072  0.8122  0.4420 -0.4663
  656TMC3    O1 9718   1.642   1.409  15.492  0.0403  0.1805 -0.3346
  656TMC3    O2 9719   1.661   1.222  16.135 -0.4624  0.1030  0.1551
  657TMC3    C1 9720   0.797   4.413  14.546  1.0495  0.9217 -0.0474
  657TMC3    C2 9721   0.803   4.491  14.656 -0.5222 -0.9504  0.5210
  657TMC3    C3 9722   0.694   4.478  14.739  0.4544 -0.7891 -1.2388
  657TMC3    C4 9723   0.687   4.340  14.515 -0.6748  0.1717  0.3863
  657TMC3    C5 9724   0.585   4.327  14.600 -0.5660  0.4065 -1.1842
  657TMC3    C6 9725   0.589   4.399  14.718  0.1560 -0.4232 -0.4975
  657TMC3     C 9726   0.912   4.413  14.464  0.1440  0.3200 -0.0753
  657TMC3     O 9727   0.890   4.392  14.348  0.2835  0.3595  0.4112
  657TMC3     H 9728   0.882   4.563  14.671 -1.0243  0.1940 -2.2014
  657TMC3    H1 9729   0.677   4.279  14.425  1.0597 -0.7084  0.7898
  657TMC3    H2 9730   0.512   4.380  14.792  1.8161  0.0629  1.3404
  657TMC3    C7 9731   0.521   4.200  14.608  0.0589  0.5099 -0.6467
  657TMC3    C8 9732   0.706   4.561  14.856 -0.4072 -0.0825 -0.2007
  657TMC3    O1 9733   0.401   4.200  14.589  0.1505  0.3761  0.0805
  657TMC3    O2 9734   0.815   4.608  14.878 -0.3750 -0.0549 -1.0146
  658MPD2     C 9735   2.092   0.256  14.828 -0.3924  0.1058  0.7079
  658MPD2    C1 9736   2.030   0.352  14.753 -0.3501 -0.2397 -0.2359
  658MPD2    C2 9737   2.065   0.381  14.623 -0.3656  0.1354 -0.0317
  658MPD2    C3 9738   2.157   0.296  14.563  0.0866 -0.7831 -0.2618
  658MPD2    C4 9739   2.214   0.191  14.633 -0.5499  0.4692  0.1779
  658MPD2    C5 9740   2.171   0.168  14.761 -0.4410 -0.0616 -0.1006
  658MPD2     H 9741   2.025   0.458  14.558  1.0174  2.3639  1.7461
  658MPD2    H1 9742   2.292   0.131  14.587  1.6779  3.7162 -0.3279
  658MPD2    H2 9743   2.055   0.239  14.928  0.2227 -0.2250  0.8805
  658MPD2    H3 9744   2.226   0.091  14.813 -1.4163  0.0693  1.1380
  658MPD2     N 9745   2.175   0.312  14.422 -0.5200 -0.6233  0.4901
  658MPD2    H5 9746   2.108   0.377  14.381  0.7326  0.2941 -0.1187
  658MPD2    N1 9747   1.940   0.441  14.823 -0.5504 -0.2179 -0.2178
  658MPD2    H7 9748   1.954   0.450  14.923  0.5141  1.1261 -0.4878
  659TMC3    C1 9749   1.745   0.561  14.866  0.2134  0.1060  0.1857
  659TMC3    C2 9750   1.792   0.620  14.982  0.1034 -0.6639  0.4005
  659TMC3    C3 9751   1.703   0.702  15.050 -0.6640 -0.3373  0.0169
  659TMC3    C4 9752   1.618   0.580  14.815 -0.0303  0.6524  0.1217
  659TMC3    C5 9753   1.537   0.661  14.884 -0.4403  0.3128  0.1271
  659TMC3    C6 9754   1.576   0.723  15.002 -0.5514  0.5830 -0.0588
  659TMC3     C 9755   1.841   0.513  14.769  0.1098  0.3627 -0.4679
  659TMC3     O 9756   1.807   0.517  14.650 -0.0506 -0.1462  0.0118
  659TMC3     H 9757   1.895   0.624  15.014  0.7236 -2.3209 -1.3417
  659TMC3    H1 9758   1.581   0.518  14.734  2.6566 -0.0669 -0.5342
  659TMC3    H2 9759   1.501   0.781  15.056 -0.3835  2.1586 -1.5186
  659TMC3    C7 9760   1.398   0.673  14.844 -0.5505 -0.2312  0.5767
  659TMC3    C8 9761   1.751   0.774  15.173  0.8349  0.1314  0.2632
  659TMC3    O1 9762   1.316   0.722  14.917  0.3586  0.5183  0.0276
  659TMC3    O2 9763   1.685   0.870  15.206 -0.2934  1.1049  0.5798
  660MPD2     C 9764   0.351   4.238  12.449  0.8163 -1.4123  0.2840
  660MPD2    C1 9765   0.214   4.214  12.453 -0.1801 -0.7391  0.1466
  660MPD2    C2 9766   0.158   4.179  12.572 -0.0936 -0.1970  0.1450
  660MPD2    C3 9767   0.242   4.162  12.681  0.3623  0.6583 -0.3184
  660MPD2    C4 9768   0.380   4.171  12.674  0.5575 -0.1385 -0.2005
  660MPD2    C5 9769   0.433   4.203  12.558  0.0551 -0.6516  0.5531
  660MPD2     H 9770   0.053   4.152  12.575 -0.8183  2.6966  0.4612
  660MPD2    H1 9771   0.438   4.173  12.765  2.5586  0.6662 -1.4782
  660MPD2    H2 9772   0.398   4.254  12.352  0.8522  1.8337  0.8492
  660MPD2    H3 9773   0.540   4.207  12.548 -0.0175 -1.3719 -0.5359
  660MPD2     N 9774   0.185   4.139  12.806  0.0156 -0.2510 -0.0419
  660MPD2    H5 9775   0.246   4.122  12.885  0.3749 -1.5496 -0.5900
  660MPD2    N1 9776   0.152   4.231  12.322  0.0385 -0.0522  0.5827
  660MPD2    H7 9777   0.215   4.265  12.250 -0.4792 -1.4844 -0.5483
  661TMC3    C1 9778   4.690   4.258  12.169 -0.3223  0.2698  0.4162
  661TMC3    C2 9779   0.057   4.310  12.074 -0.1552 -0.2498  0.5421
  661TMC3    C3 9780   4.718   4.361  11.957 -0.0185 -0.0353  0.2703
  661TMC3    C4 9781   4.554   4.285  12.158  0.0750 -0.5915  0.3892
  661TMC3    C5 9782   4.501   4.334  12.041  0.6349 -0.8076 -0.2285
  661TMC3    C6 9783   4.583   4.369  11.934  0.1070 -0.1276 -0.3634
  661TMC3     C 9784   0.016   4.215  12.298  0.3317 -0.2505 -0.7711
  661TMC3     O 9785   4.643   4.200  12.378 -0.2001  0.4952  0.5636
  661TMC3     H 9786   0.163   4.293  12.063  0.2093  1.2641  1.7577
  661TMC3    H1 9787   4.484   4.267  12.239 -0.9733 -3.8873 -1.2387
  661TMC3    H2 9788   4.548   4.407  11.838  1.0678 -0.9593 -1.0374
  661TMC3    C7 9789   4.359   4.331  12.024  0.0473 -0.0274 -0.0404
  661TMC3    C8 9790   0.082   4.422  11.859  0.0494 -0.2335  0.5840
  661TMC3    O1 9791   4.294   4.329  12.126 -0.2404 -0.7665 -0.5715
  661TMC3    O2 9792   0.194   4.370  11.843 -0.3943 -0.1443 -0.3250
  662MPD2     C 9793   0.546   3.888  17.508 -0.2228  0.3534  0.2663
  662MPD2    C1 9794   0.552   3.813  17.619 -0.4901 -0.8401  0.1798
  662MPD2    C2 9795   0.482   3.855   0.050 -0.4825  0.2254  0.6999
  662MPD2    C3 9796   0.394   3.963   0.057 -0.1230  0.5533 -1.0235
  662MPD2    C4 9797   0.401   4.044  17.628 -0.2385  0.5178 -0.4229
  662MPD2    C5 9798   0.476   4.007  17.518  0.0217  0.0493 -0.0163
  662MPD2     H 9799   0.485   3.786   0.134 -0.3230 -1.9874 -1.1503
  662MPD2    H1 9800   0.358   4.143  17.622 -0.7043  0.3655  0.4010
  662MPD2    H2 9801   0.588   3.864  17.411 -0.7132 -0.4108  0.2363
  662MPD2    H3 9802   0.487   4.085  17.444  1.3030 -1.6518 -1.6279
  662MPD2     N 9803   0.326   4.003   0.170  0.0279 -0.1042  0.0462
  662MPD2    H5 9804   0.255   4.076   0.161  0.3545  0.4786  2.3383
  662MPD2    N1 9805   0.613   3.686  17.630 -0.0808 -0.2588  0.3167
  662MPD2    H7 9806   0.602   3.640   0.037 -1.4960  0.1811  0.3659
  663TMC3    C1 9807   0.668   3.469  17.562  0.5316  0.2908  0.2890
  663TMC3    C2 9808   0.677   3.443   0.016  0.2569 -0.0210 -0.2340
  663TMC3    C3 9809   0.613   3.325   0.066 -0.0984  0.3255  0.4758
  663TMC3    C4 9810   0.619   3.378  17.476 -0.2798 -0.1125 -0.2151
  663TMC3    C5 9811   0.571   3.261  17.527 -0.2929 -0.7538  0.4082
  663TMC3    C6 9812   0.567   3.238  17.660  0.1303  0.0472  0.2333
  663TMC3     C 9813   0.646   3.610  17.520  0.2349  0.3632 -0.7930
  663TMC3     O 9814   0.642   3.637  17.401  0.2618 -0.0508 -0.0767
  663TMC3     H 9815   0.752   3.495   0.073  1.2384  0.1881 -1.7128
  663TMC3    H1 9816   0.606   3.394  17.370  2.4089  0.5192 -0.4532
  663TMC3    H2 9817   0.544   3.141   0.020 -0.0246 -0.9302 -2.0682
  663TMC3    C7 9818   0.500   3.166  17.443  0.7970  0.2899 -0.9334
  663TMC3    C8 9819   0.666   3.273   0.188 -1.0070  0.0452  0.3056
  663TMC3    O1 9820   0.512   3.194  17.327  0.1996 -0.2368  0.6626
  663TMC3    O2 9821   0.711   3.162   0.182  0.1899 -0.0192 -0.6172
  664MPD2     C 9822   3.278   1.753  17.354 -0.1884 -0.1863  0.0944
  664MPD2    C1 9823   3.289   1.878  17.421  0.2196  0.4029  0.2797
  664MPD2    C2 9824   3.292   1.891  17.563 -0.5869 -0.2731 -0.6782
  664MPD2    C3 9825   3.280   1.779  17.636 -0.4018  0.4001 -0.3178
  664MPD2    C4 9826   3.252   1.649  17.577 -0.6562  0.1990  0.2631
  664MPD2    C5 9827   3.258   1.636  17.436 -0.1950  0.2382  0.1999
  664MPD2     H 9828   3.299   1.987  17.613 -1.3323 -0.9740  0.7777
  664MPD2    H1 9829   3.249   1.563  17.642 -0.0257  2.7274  3.6589
  664MPD2    H2 9830   3.283   1.737  17.247 -1.7555 -1.0771  0.1543
  664MPD2    H3 9831   3.270   1.535  17.398  1.5179  1.3487 -2.2532
  664MPD2     N 9832   3.291   1.811   0.089 -0.4363 -0.3599 -0.2801
  664MPD2    H5 9833   3.306   1.907   0.115 -0.3821 -0.6944  0.9166
  664MPD2    N1 9834   3.300   2.000  17.352 -0.1025  0.0933 -0.1419
  664MPD2    H7 9835   3.295   2.084  17.408  0.5632  1.4546 -2.1145
  665TMC3    C1 9836   3.283   1.793   0.329  0.0687  0.1705 -0.2588
  665TMC3    C2 9837   3.243   1.714   0.437  0.0470 -0.7042 -1.1828
  665TMC3    C3 9838   3.222   1.773   0.559 -0.1539  0.4574  0.4057
  665TMC3    C4 9839   3.302   1.925   0.347  0.2614  0.9470 -0.1737
  665TMC3    C5 9840   3.272   1.982   0.469 -0.2360 -0.2686  0.4579
  665TMC3    C6 9841   3.229   1.907   0.579  0.1174  0.4162  0.9769
  665TMC3     C 9842   3.267   1.734   0.196 -0.5477 -0.2904 -0.2098
  665TMC3     O 9843   3.226   1.620   0.189  0.1369  0.3742 -0.3184
  665TMC3     H 9844   3.252   1.606   0.436 -0.6659 -0.7739  1.4985
  665TMC3    H1 9845   3.344   1.982   0.265  3.0934 -1.3901 -0.3786
  665TMC3    H2 9846   3.190   1.956   0.668 -0.5772 -0.3350  1.0852
  665TMC3    C7 9847   3.219   2.120   0.466  0.8108 -0.0839 -0.0007
  665TMC3    C8 9848   3.175   1.701   0.680 -0.0850  0.7555  0.3079
  665TMC3    O1 9849   3.232   2.175   0.360  0.2072  0.1467  0.4816
  665TMC3    O2 9850   3.156   1.766   0.783 -0.8337 -0.4343  0.7937
  666TMC3    C1 9851   2.883   1.785  10.547 -0.1457 -0.3048  0.4435
  666TMC3    C2 9852   3.001   1.853  10.586  0.1232  0.3420  0.1079
  666TMC3    C3 9853   3.009   1.989  10.567 -1.0199 -0.3298 -0.4309
  666TMC3    C4 9854   2.771   1.856  10.530  0.1208 -0.0134 -0.8963
  666TMC3    C5 9855   2.777   1.992  10.520 -0.4102 -0.1471  0.0289
  666TMC3    C6 9856   2.899   2.060  10.533  0.1548  0.0035 -0.4058
  666TMC3     C 9857   2.877   1.646  10.580  0.7664  0.0072 -0.4385
  666TMC3     O 9858   2.958   1.610  10.662  0.2993  0.1069 -0.0234
  666TMC3     H 9859   3.090   1.791  10.582  0.4187  0.8010 -0.4048
  666TMC3    H1 9860   2.679   1.798  10.524  0.3509 -0.4877  0.2919
  666TMC3    H2 9861   2.901   2.167  10.518 -1.0566  0.1359  0.3546
  666TMC3    C7 9862   2.661   2.036  10.444  0.1444  0.4858  0.3930
  666TMC3    C8 9863   3.096   2.045  10.669 -0.4691  0.0275  0.2493
  666TMC3    O1 9864   2.553   1.985  10.469 -0.4449 -0.1996  0.1881
  666TMC3    O2 9865   3.096   2.167  10.677 -0.3053  0.3970 -0.8634
  667MPD2     C 9866   4.261   1.823  14.745  0.1212 -0.3531  0.1959
  667MPD2    C1 9867   4.173   1.828  14.848 -0.1312  0.3606 -0.2029
  667MPD2    C2 9868   4.093   1.717  14.872 -0.2751 -0.8941  0.1993
  667MPD2    C3 9869   4.088   1.609  14.781 -0.1477 -0.1627  0.6903
  667MPD2    C4 9870   4.167   1.616  14.669 -0.2043  0.5580 -0.0699
  667MPD2    C5 9871   4.256   1.724  14.655  0.0830 -0.5857  0.2666
  667MPD2     H 9872   4.030   1.714  14.960 -0.8431 -1.6362 -0.2283
  667MPD2    H1 9873   4.152   1.533  14.601 -1.7244  0.8067 -0.0444
  667MPD2    H2 9874   4.335   1.898  14.718  0.6779 -1.3775 -1.1326
  667MPD2    H3 9875   4.325   1.728  14.572 -0.0202  3.2525  0.3997
  667MPD2     N 9876   4.011   1.492  14.792  0.2626  0.1380 -0.1970
  667MPD2    H5 9877   4.006   1.425  14.716  0.9051 -0.0782 -0.0478
  667MPD2    N1 9878   4.174   1.926  14.940  0.0234  0.4935  0.3679
  667MPD2    H7 9879   4.097   1.932  15.006 -0.0684 -1.0779  0.4061
  668TMC3    C1 9880   4.209   2.144  15.009 -0.2982  0.9414 -1.0322
  668TMC3    C2 9881   4.288   2.231  15.070  0.1211 -0.1035 -0.0611
  668TMC3    C3 9882   4.233   2.338  15.135 -0.1702 -0.2116 -0.3216
  668TMC3    C4 9883   4.076   2.170  15.008  0.3932 -0.0615 -0.2976
  668TMC3    C5 9884   4.016   2.277  15.067  0.3473 -0.0967 -0.2498
  668TMC3    C6 9885   4.098   2.370  15.134 -0.2758  0.1316  0.4497
  668TMC3     C 9886   4.261   2.030  14.942  0.2203  0.8547  0.1658
  668TMC3     O 9887   4.374   2.029  14.893  0.2566 -0.2657 -0.1467
  668TMC3     H 9888   4.392   2.207  15.089  0.1367 -0.1379 -0.1904
  668TMC3    H1 9889   4.010   2.102  14.955  0.5315 -0.6400  0.2749
  668TMC3    H2 9890   4.048   2.458  15.173  0.4942  0.0927  1.5059
  668TMC3    C7 9891   3.873   2.302  15.062  0.4433  0.1000 -0.4266
  668TMC3    C8 9892   4.312   2.429  15.210  0.0458  0.2140  0.1640
  668TMC3    O1 9893   3.844   2.420  15.064 -0.0041 -0.2185 -0.1269
  668TMC3    O2 9894   4.255   2.487  15.299 -0.3716  0.3309 -0.2583
  669TMC3    C1 9895   1.892   2.295  14.406 -0.1757 -0.2896 -0.0514
  669TMC3    C2 9896   1.793   2.289  14.311 -0.0723  0.2586  0.0754
  669TMC3    C3 9897   1.817   2.350  14.191  0.0423  0.4716  0.4353
  669TMC3    C4 9898   2.004   2.367  14.383  0.4095 -0.5174 -0.2127
  669TMC3    C5 9899   2.025   2.419  14.259 -0.6367  1.0523  0.0690
  669TMC3    C6 9900   1.932   2.411  14.163  0.2074 -0.4449 -0.3428
  669TMC3     C 9901   1.894   2.214  14.524 -0.1880 -0.2731  0.4073
  669TMC3     O 9902   1.894   2.088  14.512  0.3033  0.5017 -0.5077
  669TMC3     H 9903   1.705   2.229  14.330  1.2186 -1.3964  0.8016
  669TMC3    H1 9904   2.087   2.354  14.452 -0.3361 -1.8071  0.4530
  669TMC3    H2 9905   1.943   2.441  14.059  1.0060  0.8329  0.1129
  669TMC3    C7 9906   2.157   2.462  14.232  0.3498 -0.0873  0.4160
  669TMC3    C8 9907   1.706   2.386  14.113  0.5930  0.0854 -0.6302
  669TMC3    O1 9908   2.228   2.474  14.333 -0.0521 -0.1354  0.2154
  669TMC3    O2 9909   1.726   2.486  14.043 -0.1782  0.2713  0.5562
  670MPD2     C 9910   4.527   4.633  12.950 -0.5441  0.0633  0.7523
  670MPD2    C1 9911   4.663   4.619  12.953 -0.2551  0.5333 -0.3901
  670MPD2    C2 9912   0.011   4.551  13.048 -0.1107  1.2779  1.0608
  670MPD2    C3 9913   4.669   4.498  13.155  0.0561  0.2562  0.5219
  670MPD2    C4 9914   4.534   4.507  13.152  0.9606 -0.6835 -0.0413
  670MPD2    C5 9915   4.467   4.572  13.051  0.7614 -0.0843 -0.6485
  670MPD2     H 9916   0.120   4.551  13.045 -0.0926  1.3008  1.8259
  670MPD2    H1 9917   4.480   4.463  13.235  0.7950  0.1495  0.2954
  670MPD2    H2 9918   4.474   4.690  12.875  2.6941  0.5981 -1.1610
  670MPD2    H3 9919   4.358   4.576  13.056  0.8699 -2.2701  3.2381
  670MPD2     N 9920   0.025   4.424  13.250  0.2348 -0.1895 -0.0190
  670MPD2    H5 9921   0.123   4.421  13.226 -0.1930  0.6394 -1.8646
  670MPD2    N1 9922   0.026   4.658  12.846 -0.3281 -0.3744  0.1786
  670MPD2    H7 9923   0.128   4.650  12.848 -0.0538  2.9566 -0.7974
  671TMC3    C1 9924   0.068   4.255  13.431 -0.3958 -1.4079  0.0473
  671TMC3    C2 9925   0.191   4.230  13.384  0.3165  0.5687  0.4460
  671TMC3    C3 9926   0.246   4.107  13.388  0.1637 -0.7797  0.4370
  671TMC3    C4 9927   0.011   4.171  13.522 -0.3917 -0.3227 -0.4682
  671TMC3    C5 9928   0.079   4.053  13.541  0.1802  0.0159  0.9583
  671TMC3    C6 9929   0.192   4.013  13.473 -0.0423 -0.1464 -0.0883
  671TMC3     C 9930   4.687   4.334  13.350  0.3879  0.4180 -0.3464
  671TMC3     O 9931   4.569   4.322  13.379  0.0470  0.4798 -0.3788
  671TMC3     H 9932   0.227   4.303  13.312  1.3403 -1.3021 -0.9341
  671TMC3    H1 9933   4.629   4.171  13.559 -0.7332  0.0011 -1.4032
  671TMC3    H2 9934   0.234   3.917  13.498  0.6878  0.4036  0.8013
  671TMC3    C7 9935   0.038   3.965  13.638 -0.0250  0.2551 -0.2079
  671TMC3    C8 9936   0.388   4.110  13.378 -0.2068 -0.7160  0.7929
  671TMC3    O1 9937   0.069   3.842  13.636 -0.3112  0.3366 -0.1767
  671TMC3    O2 9938   0.436   4.196  13.308 -0.3063  0.3893 -0.3117
  672MPD2     C 9939   0.206   4.637   0.882 -0.2665 -0.3696  0.3613
  672MPD2    C1 9940   0.347   4.648   0.878 -0.3108 -1.2412 -0.0332
  672MPD2    C2 9941   0.419   4.709   0.982  0.0129 -0.3338 -0.1252
  672MPD2    C3 9942   0.346   0.055   1.079 -0.5394  0.2042 -0.1858
  672MPD2    C4 9943   0.210   0.040   1.084  0.5016  0.5103  0.0588
  672MPD2    C5 9944   0.136   4.687   0.989  0.1596  0.5304 -0.3426
  672MPD2     H 9945   0.525   0.004   0.966  0.0452 -1.4397 -0.9630
  672MPD2    H1 9946   0.151   0.088   1.161 -0.2583 -0.2895 -0.0339
  672MPD2    H2 9947   0.155   4.602   0.793  1.0175  2.6614 -1.6014
  672MPD2    H3 9948   0.028   4.691   0.987  0.2851  3.1614 -1.5763
  672MPD2     N 9949   0.402   0.140   1.169 -0.0978 -0.3948  0.2324
  672MPD2    H5 9950   0.342   0.196   1.228  0.5850 -0.2924  0.8264
  672MPD2    N1 9951   0.415   4.611   0.761  0.4113 -0.2860 -0.0847
  672MPD2    H7 9952   0.516   4.601   0.766  0.3195 -1.1012  0.2723
  673TMC3    C1 9953   0.462   4.573   0.536  0.2380 -0.0858 -0.2734
  673TMC3    C2 9954   0.567   4.508   0.587  0.2284 -0.1044  0.3569
  673TMC3    C3 9955   0.694   4.506   0.530 -0.0311 -0.4525 -0.3935
  673TMC3    C4 9956   0.479   4.662   0.436 -0.0677 -0.0400  0.3639
  673TMC3    C5 9957   0.607   4.670   0.385 -0.2210 -0.2303 -1.3522
  673TMC3    C6 9958   0.712   4.589   0.426 -0.0570  0.4997 -0.2332
  673TMC3     C 9959   0.359   4.608   0.632  0.2673 -0.6378  0.3753
  673TMC3     O 9960   0.255   4.654   0.586  0.4998 -0.0433  0.4219
  673TMC3     H 9961   0.546   4.425   0.654  0.6385 -0.7005 -0.2470
  673TMC3    H1 9962   0.388   4.719   0.419 -0.9162 -1.4133  0.3118
  673TMC3    H2 9963   0.807   4.588   0.373 -0.6613  0.6821 -1.3111
  673TMC3    C7 9964   0.629   0.062   0.300 -0.2193  0.2540  0.2044
  673TMC3    C8 9965   0.769   4.382   0.524 -0.0041  0.1782 -0.1544
  673TMC3    O1 9966   0.718   0.048   0.222  0.0364 -0.0065  0.2784
  673TMC3    O2 9967   0.815   4.350   0.414 -0.3885  0.6193  0.3528
  674MPD2     C 9968   0.225   0.259   0.027  0.6626  0.4605  1.0834
  674MPD2    C1 9969   0.232   0.140   0.085  0.1319  1.3643 -0.4123
  674MPD2    C2 9970   0.160   0.116   0.202  0.4522 -0.5255 -0.0289
  674MPD2    C3 9971   0.083   0.215   0.268 -0.2669  0.4341 -0.1830
  674MPD2    C4 9972   0.086   0.339   0.218  0.5716 -0.3450  0.2715
  674MPD2    C5 9973   0.157   0.361   0.100  0.0900 -0.0220 -0.6198
  674MPD2     H 9974   0.167   0.013   0.236  0.2815  0.3483  2.7267
  674MPD2    H1 9975   0.045   0.426   0.267  0.0183 -0.9727  0.9194
  674MPD2    H2 9976   0.295   0.291  17.633 -0.7411  0.7071 -0.0791
  674MPD2    H3 9977   0.165   0.458   0.053 -1.0526  0.0717 -0.6147
  674MPD2     N 9978   0.012   0.176   0.381 -0.2649 -0.2926 -0.1147
  674MPD2    H5 9979   0.026   0.077   0.395  0.2381 -0.2353 -0.2101
  674MPD2    N1 9980   0.312   0.035   0.049  0.6595 -0.0466  0.2749
  674MPD2    H7 9981   0.298   4.670   0.102  1.9182 -0.9976 -0.9194
  675TMC3    C1 9982   0.451   4.615  17.609 -0.1239 -0.1903 -0.0404
  675TMC3    C2 9983   0.381   4.520  17.672 -0.2300 -0.3131  0.2777
  675TMC3    C3 9984   0.453   4.425   0.054  0.0045  0.4007 -0.3087
  675TMC3    C4 9985   0.584   4.625  17.596 -0.5124  0.2963  0.2191
  675TMC3    C5 9986   0.652   4.533  17.674 -0.3756 -0.0341 -0.1208
  675TMC3    C6 9987   0.592   4.429   0.059 -0.3695  0.1941  0.3346
  675TMC3     C 9988   0.388   0.028  17.616  0.8558  0.0755  0.0442
  675TMC3     O 9989   0.402   0.111  17.528 -0.5034 -0.2506  0.8494
  675TMC3     H 9990   0.273   4.532  17.663 -0.1572 -0.6813 -1.1281
  675TMC3    H1 9991   0.623   4.705  17.535 -1.5959  2.8289  2.8625
  675TMC3    H2 9992   0.643   4.360   0.124  0.7408 -1.1500 -1.9887
  675TMC3    C7 9993   0.804   4.554  17.678 -0.2021 -0.6365 -0.7587
  675TMC3    C8 9994   0.381   4.388   0.172 -0.6412  0.2742 -0.1567
  675TMC3    O1 9995   0.839   4.651  17.607 -0.1892 -0.2993  0.1326
  675TMC3    O2 9996   0.282   4.459   0.190  0.4230  0.2213 -0.3800
  676MPD2     C 9997   2.656   3.014  10.696  0.4963  0.0758  0.3040
  676MPD2    C1 9998   2.674   3.035  10.830  0.5316 -0.2364 -0.4378
  676MPD2    C2 9999   2.702   2.923  10.907 -0.1088 -0.3931  0.1817
  676MPD2    C310000   2.720   2.800  10.854 -0.0274 -0.0895  0.3130
  676MPD2    C410001   2.719   2.782  10.715  0.3960 -0.3212 -0.0657
  676MPD2    C510002   2.685   2.888  10.637 -0.5792 -0.8564 -0.8321
  676MPD2     H10003   2.713   2.946  11.012  1.2696 -1.1650  0.2165
  676MPD2    H110004   2.749   2.690  10.666 -0.8368  0.7000 -2.7511
  676MPD2    H210005   2.626   3.100  10.638  0.1884  0.6644  1.3444
  676MPD2    H310006   2.704   2.864  10.533 -1.1217  1.0211 -1.3598
  676MPD2     N10007   2.755   2.686  10.936  0.1548 -0.0999 -0.1619
  676MPD2    H510008   2.765   2.594  10.894 -0.2731 -0.6981  1.0365
  676MPD2    N110009   2.667   3.154  10.896 -0.2122  0.7709  0.1034
  676MPD2    H710010   2.685   3.151  10.996  1.3366 -2.2781 -0.2777
  677TMC3    C110011   2.636   3.373  10.947 -0.7985  0.1025 -0.6863
  677TMC3    C210012   2.638   3.324  11.072  0.4802  1.1853  0.2326
  677TMC3    C310013   2.705   3.397  11.168 -0.1475  0.1959  0.3554
  677TMC3    C410014   2.677   3.500  10.920  0.3366 -0.7073 -0.0137
  677TMC3    C510015   2.729   3.576  11.021  0.8256 -0.2837 -0.2826
  677TMC3    C610016   2.753   3.525  11.145  0.0445  0.1991 -0.0026
  677TMC3     C10017   2.627   3.271  10.840 -0.2850 -0.0086 -0.4149
  677TMC3     O10018   2.608   3.310  10.725  0.4611 -0.1505 -0.1254
  677TMC3     H10019   2.586   3.236  11.110 -0.0630 -0.0634 -3.4639
  677TMC3    H110020   2.702   3.530  10.819  2.3611  0.4181  0.8441
  677TMC3    H210021   2.788   3.585  11.228  0.2016  1.0352 -0.6767
  677TMC3    C710022   2.801   3.702  11.001 -0.4457  0.1630  0.3215
  677TMC3    C810023   2.815   3.316  11.235 -0.1608 -0.0693  0.0813
  677TMC3    O110024   2.842   3.759  11.102 -0.3120  1.2534 -0.2073
  677TMC3    O210025   2.864   3.215  11.189 -0.3470  0.0810  0.0359
  678MPD2     C10026   3.996   3.106   1.582 -1.2219 -0.5648 -0.2701
  678MPD2    C110027   4.041   3.040   1.472 -0.3045  0.5331  0.1004
  678MPD2    C210028   3.950   2.994   1.385  0.1079  0.6457  0.1511
  678MPD2    C310029   3.814   3.003   1.400  0.4140 -0.2308  0.6968
  678MPD2    C410030   3.768   3.053   1.518 -0.5151  0.1147  0.6864
  678MPD2    C510031   3.862   3.110   1.601 -0.3377 -0.2128 -0.1369
  678MPD2     H10032   3.985   2.931   1.304 -2.2514  0.4102 -0.6917
  678MPD2    H110033   3.665   3.060   1.551 -0.4508 -2.5914  1.4990
  678MPD2    H210034   4.066   3.138   1.659 -1.0525 -4.1800  1.0627
  678MPD2    H310035   3.822   3.151   1.694  1.7026  0.6227  0.3730
  678MPD2     N10036   3.728   2.963   1.292 -0.1281  0.4311  0.6896
  678MPD2    H510037   3.759   2.919   1.205 -2.6019 -0.1977  0.1270
  678MPD2    N110038   4.177   3.021   1.443  0.6192 -0.6887  0.5054
  678MPD2    H710039   4.208   2.957   1.371  0.7453  1.3006 -1.2186
  679TMC3    C110040   4.537   2.845   1.471 -0.3833  0.0214 -0.2650
  679TMC3    C210041   4.420   2.905   1.482 -0.3922  0.4048  0.0012
  679TMC3    C310042   4.414   3.037   1.484  0.2519  0.3412 -0.3680
  679TMC3    C410043   4.648   2.918   1.452 -0.1094 -0.3594 -0.1337
  679TMC3    C510044   4.645   3.056   1.452  0.3704  0.0313  0.6633
  679TMC3    C610045   4.530   3.117   1.477 -0.4527  0.8805 -0.0354
  679TMC3     C10046   4.550   2.699   1.449 -0.1195  0.7301 -0.2047
  679TMC3     O10047   4.628   2.678   1.361 -0.5243 -0.4380 -0.3250
  679TMC3     H10048   4.326   2.852   1.491  1.8278 -3.2533  1.4839
  679TMC3    H110049   0.019   2.864   1.430 -0.2341 -1.3466  1.7286
  679TMC3    H210050   4.511   3.222   1.494  0.2211  1.0215 -0.1514
  679TMC3    C710051   0.039   3.140   1.423  0.6162  0.4870  0.4730
  679TMC3    C810052   4.279   3.089   1.515 -0.8520  0.1368  1.2710
  679TMC3    O110053   0.009   3.257   1.398  0.0800  0.4998  0.5348
  679TMC3    O210054   4.271   3.174   1.598 -0.2938  0.0836 -0.4070
  680MPD2     C10055   4.500   1.504  13.776  0.6281 -0.4105 -0.1530
  680MPD2    C110056   4.595   1.407  13.812  0.0813 -0.1131  0.1911
  680MPD2    C210057   4.704   1.445  13.881  0.1090 -0.8115 -0.5665
  680MPD2    C310058   0.011   1.575  13.907 -0.2015 -0.3018  0.1100
  680MPD2    C410059   4.649   1.674  13.856  0.2828 -0.3877 -0.3109
  680MPD2    C510060   4.529   1.639  13.801  0.1905 -0.2687  0.2805
  680MPD2     H10061   0.049   1.369  13.920 -0.1184 -0.0353  1.3009
  680MPD2    H110062   4.678   1.777  13.873  0.8794 -0.7447  0.8868
  680MPD2    H210063   4.405   1.474  13.733 -0.4611  1.8013  0.7258
  680MPD2    H310064   4.471   1.722  13.765  0.6747  0.9325  2.2461
  680MPD2     N10065   0.130   1.620  13.965  0.7606  0.6471  0.1891
  680MPD2    H510066   0.151   1.719  13.963  0.8929  0.6385  1.5496
  680MPD2    N110067   4.583   1.267  13.792 -0.3951  0.0272 -0.2575
  680MPD2    H710068   4.670   1.216  13.806 -0.9262 -1.1295 -1.1858
  681TMC3    C110069   4.483   1.068  13.737  0.4690 -0.4182 -0.1323
  681TMC3    C210070   4.425   1.008  13.844 -0.2628  0.3081 -0.6254
  681TMC3    C310071   4.486   0.900  13.900 -0.0034 -0.1397 -0.0782
  681TMC3    C410072   4.587   1.007  13.671  0.3728 -0.0652  0.3360
  681TMC3    C510073   4.628   0.882  13.713  0.3455  0.5746  0.1010
  681TMC3    C610074   4.581   0.831  13.831 -0.3209 -0.3724  0.4000
  681TMC3     C10075   4.473   1.210  13.729 -0.0109 -0.1383 -0.6654
  681TMC3     O10076   4.361   1.253  13.712  0.0667 -0.3438  0.0879
  681TMC3     H10077   4.351   1.069  13.895 -1.2973 -1.0959 -0.4398
  681TMC3    H110078   4.637   1.064  13.594  2.4749  0.6287  2.2124
  681TMC3    H210079   4.610   0.732  13.865  1.8560  0.3294  0.6159
  681TMC3    C710080   0.047   0.834  13.666  0.1472  0.2322  0.3017
  681TMC3    C810081   4.491   0.874  14.048 -0.3529  0.4591 -0.4683
  681TMC3    O110082   0.113   0.771  13.747 -0.0408 -0.3726 -0.1514
  681TMC3    O210083   4.556   0.775  14.088 -0.1931  0.3444  0.0060
  682MPD2     C10084   1.637   2.819  10.310  0.7199  0.4866  0.5869
  682MPD2    C110085   1.675   2.734  10.415 -0.3321  0.7461 -0.2372
  682MPD2    C210086   1.663   2.779  10.545 -0.3897  0.0103 -0.1751
  682MPD2    C310087   1.614   2.909  10.573  1.2775 -0.2511  0.0933
  682MPD2    C410088   1.577   2.989  10.464 -0.5627 -0.5058 -0.2170
  682MPD2    C510089   1.590   2.942  10.341 -0.0559  0.4417 -0.1737
  682MPD2     H10090   1.688   2.709  10.624  2.2571 -0.7573 -1.7211
  682MPD2    H110091   1.538   3.086  10.490  0.3380 -0.1569 -0.1574
  682MPD2    H210092   1.644   2.801  10.204 -0.6001 -1.2454  0.8008
  682MPD2    H310093   1.569   3.003  10.254  0.9799 -2.6292 -2.5631
  682MPD2     N10094   1.595   2.950  10.710 -0.4965  0.9165  0.0490
  682MPD2    H510095   1.573   3.048  10.728 -2.2113  0.3407  1.0261
  682MPD2    N110096   1.722   2.598  10.388  0.5758  0.0346  0.2388
  682MPD2    H710097   1.734   2.547  10.475 -3.4537 -0.3057  0.6076
  683TMC3    C110098   1.528   2.924  11.168  0.3448  0.6202 -0.0418
  683TMC3    C210099   1.394   2.958  11.152  0.6173  0.2945 -0.5020
  683TMC3    C310100   1.345   2.990  11.027 -0.1999  0.5049  0.5593
  683TMC3    C410101   1.612   2.901  11.062  0.6210  0.1852 -0.8702
  683TMC3    C510102   1.550   2.933  10.945 -0.1968 -0.1681 -0.0916
  683TMC3    C610103   1.426   2.976  10.925  0.2731  0.3746 -0.0071
  683TMC3     C10104   1.590   2.921  11.296 -0.0211  0.4744  0.4171
  683TMC3     O10105   1.711   2.922  11.298  0.0319  0.4059 -0.2461
  683TMC3     H10106   1.336   2.981  11.241 -0.2452  0.0166 -0.9935
  683TMC3    H110107   1.720   2.892  11.068  0.4614 -0.9873  0.1320
  683TMC3    H210108   1.389   2.994  10.825 -0.1664 -0.1902  0.0566
  683TMC3    C710109   1.618   2.879  10.827  0.8778 -0.0929  0.2188
  683TMC3    C810110   1.217   2.944  10.988  0.1381  0.4060  0.0563
  683TMC3    O110111   1.681   2.778  10.839  1.0615 -0.0564 -0.6875
  683TMC3    O210112   1.168   3.016  10.897  0.3388 -0.8480  0.4985
  684MPD2     C10113   0.029   2.965  16.668  0.0355  0.5845 -0.5560
  684MPD2    C110114   0.154   2.933  16.609  0.1516 -0.5873  0.3225
  684MPD2    C210115   0.238   3.042  16.600  0.3435 -1.1923 -0.2538
  684MPD2    C310116   0.207   3.170  16.633  0.2477 -0.1274 -0.2413
  684MPD2    C410117   0.087   3.191  16.699 -0.3334  0.4209 -0.4620
  684MPD2    C510118   4.718   3.091  16.717 -0.1706 -0.0802  0.0380
  684MPD2     H10119   0.328   3.037  16.540  0.4422  0.9647 -0.2786
  684MPD2    H110120   0.055   3.289  16.730 -3.8043 -1.4693  1.9300
  684MPD2    H210121   4.664   2.897  16.667 -0.0987  0.7674 -1.5512
  684MPD2    H310122   4.621   3.114  16.761  1.9665  0.5975  4.4494
  684MPD2     N10123   0.294   3.278  16.604  0.1703 -0.1473  0.6318
  684MPD2    H510124   0.391   3.257  16.581  0.0606  1.4881 -1.4066
  684MPD2    N110125   0.191   2.813  16.549  0.5939  0.0597  0.3636
  684MPD2    H710126   0.282   2.801  16.506  0.3196  0.5118 -0.3342
  685TMC3    C110127   0.169   2.609  16.441 -0.7767  0.2943  0.0775
  685TMC3    C210128   0.120   2.594  16.318 -0.1093 -0.1744  0.6732
  685TMC3    C310129   0.193   2.544  16.213  0.4429 -0.2200  0.6762
  685TMC3    C410130   0.304   2.594  16.453  0.7207  0.1008 -0.2845
  685TMC3    C510131   0.377   2.530  16.358 -0.6528  0.0499  0.0244
  685TMC3    C610132   0.322   2.504  16.234 -0.5048 -0.0343 -0.0995
  685TMC3     C10133   0.104   2.710  16.529  0.2156 -0.1415 -0.0379
  685TMC3     O10134   4.703   2.703  16.551 -0.0794 -0.0217  0.1622
  685TMC3     H10135   0.017   2.625  16.299  0.1780  0.0520 -0.5714
  685TMC3    H110136   0.351   2.620  16.548  1.3035  0.6315 -0.7225
  685TMC3    H210137   0.385   2.469  16.152  0.1076  0.7614  0.0276
  685TMC3    C710138   0.515   2.513  16.391  0.1683 -0.2031 -0.3881
  685TMC3    C810139   0.126   2.506  16.097  0.0013  0.1679  0.2190
  685TMC3    O110140   0.538   2.489  16.507  0.1815 -0.2395 -0.2040
  685TMC3    O210141   0.163   2.536  15.985  0.1318  0.1443  0.7495
  686MPD2     C10142   1.618   2.300  15.047  0.3518 -0.5094  0.3053
  686MPD2    C110143   1.535   2.246  15.146  0.0456  0.1672 -0.1357
  686MPD2    C210144   1.523   2.113  15.158  0.1753  0.1886  0.1818
  686MPD2    C310145   1.595   2.022  15.093  0.3888 -0.3766  0.6197
  686MPD2    C410146   1.683   2.071  14.994 -0.5682 -0.0535  0.1396
  686MPD2    C510147   1.691   2.208  14.976  0.5948 -0.6297 -0.0733
  686MPD2     H10148   1.448   2.076  15.228  1.4489  1.1259  2.0572
  686MPD2    H110149   1.745   2.007  14.932  0.5239  1.7944 -0.6844
  686MPD2    H210150   1.645   2.404  15.038 -0.7135 -0.1083  1.7735
  686MPD2    H310151   1.766   2.250  14.910 -0.7305 -0.3308 -1.3707
  686MPD2     N10152   1.579   1.883  15.112 -0.0882  0.1164  0.3150
  686MPD2    H510153   1.624   1.833  15.036 -0.1704 -2.2407  1.8135
  686MPD2    N110154   1.485   2.340  15.236  0.9424 -0.0875 -0.4145
  686MPD2    H710155   1.485   2.438  15.210 -0.4106  0.1222  0.3184
  687TMC3    C110156   1.499   1.859  15.333  0.7528 -0.2736 -0.0051
  687TMC3    C210157   1.396   1.837  15.415  0.4986  0.4488  0.5168
  687TMC3    C310158   1.391   1.873  15.550 -0.1305  0.2223  0.1779
  687TMC3    C410159   1.615   1.913  15.394 -0.8859  0.0839 -0.7339
  687TMC3    C510160   1.608   1.950  15.527 -1.1460  0.3062  0.2927
  687TMC3    C610161   1.497   1.947  15.612  0.3549  0.6622 -0.3189
  687TMC3     C10162   1.489   1.820  15.195  0.3175 -0.3964 -0.2512
  687TMC3     O10163   1.440   1.710  15.177 -0.1541 -0.4178 -0.1761
  687TMC3     H10164   1.307   1.799  15.367  1.2993 -0.3755 -0.3264
  687TMC3    H110165   1.695   1.944  15.327  1.3885 -0.5698  1.6893
  687TMC3    H210166   1.484   1.982  15.714 -0.5152 -2.2828  0.5830
  687TMC3    C710167   1.716   2.033  15.578 -0.3249 -0.4567  0.8452
  687TMC3    C810168   1.260   1.913  15.603  0.3647 -0.9357 -0.4861
  687TMC3    O110169   1.682   2.123  15.661  0.3444 -0.5605  0.3814
  687TMC3    O210170   1.231   1.857  15.709 -0.3129  0.9228 -0.6384
  688MPD2     C10171   0.848   1.611  17.345  0.1691  0.1552  0.4395
  688MPD2    C110172   0.881   1.479  17.352  0.0706 -0.3593  1.1260
  688MPD2    C210173   1.009   1.441  17.309  0.4171  0.3910 -0.4892
  688MPD2    C310174   1.104   1.535  17.276  0.6347 -0.3989  0.4079
  688MPD2    C410175   1.077   1.669  17.275 -0.3903 -0.0169  0.4466
  688MPD2    C510176   0.950   1.699  17.314  0.2383 -0.2738 -1.0249
  688MPD2     H10177   1.030   1.335  17.304 -3.5630 -0.3481 -1.4941
  688MPD2    H110178   1.146   1.747  17.245  0.1423 -1.4401 -2.0018
  688MPD2    H210179   0.751   1.653  17.367  1.5703  3.6306 -0.0876
  688MPD2    H310180   0.920   1.801  17.331  2.0366  0.1373 -0.2947
  688MPD2     N10181   1.235   1.503  17.249 -0.4747 -0.0087 -0.3606
  688MPD2    H510182   1.295   1.584  17.236 -0.8710  0.3760  0.1825
  688MPD2    N110183   0.797   1.380  17.417 -0.1418 -0.5143  0.4694
  688MPD2    H710184   0.834   1.286  17.425 -1.4131 -1.1365 -1.1056
  689TMC3    C110185   0.609   1.292  17.531  0.5138  0.2024 -0.3777
  689TMC3    C210186   0.522   1.318  17.639  0.0208 -0.3742 -0.1589
  689TMC3    C310187   0.493   1.202   0.033 -0.4430 -0.0220 -0.3445
  689TMC3    C410188   0.642   1.160  17.501  0.3501 -0.1348  0.4613
  689TMC3    C510189   0.591   1.056  17.570  0.3446 -0.6113 -0.0607
  689TMC3    C610190   0.517   1.071   0.001  0.1402  0.4303  0.0946
  689TMC3     C10191   0.679   1.403  17.481  0.6312 -0.0451 -0.7096
  689TMC3     O10192   0.631   1.515  17.500 -0.2479  0.0365 -0.0209
  689TMC3     H10193   0.489   1.418  17.662  2.4157  0.7038 -1.3707
  689TMC3    H110194   0.702   1.139  17.414  1.8330 -0.0733  1.4621
  689TMC3    H210195   0.494   0.985   0.063 -1.2821 -0.1283 -1.2075
  689TMC3    C710196   0.648   0.920  17.541 -0.2305  0.0547 -0.3128
  689TMC3    C810197   0.435   1.212   0.169 -0.8334  0.4048  0.4531
  689TMC3    O110198   0.679   0.851  17.636  0.0156  0.5927  0.6902
  689TMC3    O210199   0.427   1.111   0.236  0.2173 -0.0724  0.9682
  690MPD2     C10200   3.377   3.223  15.781  0.4913  0.9421 -0.4143
  690MPD2    C110201   3.344   3.189  15.646 -0.0927 -0.2181 -0.1316
  690MPD2    C210202   3.421   3.253  15.550  0.2329  0.2338  0.1609
  690MPD2    C310203   3.532   3.335  15.580  0.3688 -0.1865 -0.3145
  690MPD2    C410204   3.556   3.374  15.705  0.1066  0.8247  0.0167
  690MPD2    C510205   3.479   3.311  15.803  0.2985 -0.4932 -0.5587
  690MPD2     H10206   3.413   3.234  15.443 -1.3541  0.0463  0.3163
  690MPD2    H110207   3.646   3.429  15.729 -0.0954  0.0223  2.5764
  690MPD2    H210208   3.340   3.163  15.864  0.9457  0.8202 -0.3028
  690MPD2    H310209   3.510   3.335  15.904 -2.1038  1.5485 -0.3074
  690MPD2     N10210   3.615   3.379  15.466 -0.1647 -0.2080  0.0166
  690MPD2    H510211   3.579   3.347  15.377  0.6446 -0.5557 -0.1797
  690MPD2    N110212   3.236   3.101  15.607  0.2678 -0.4660 -0.6174
  690MPD2    H710213   3.208   3.084  15.511 -0.8574 -1.0789 -0.1897
  691TMC3    C110214   3.065   2.954  15.649  0.2818 -0.0273 -0.2480
  691TMC3    C210215   2.964   3.014  15.582 -0.5231  0.4635 -0.0816
  691TMC3    C310216   2.867   2.931  15.542  0.1878 -0.1285  1.0904
  691TMC3    C410217   3.066   2.825  15.703 -0.2375 -0.5185  0.4738
  691TMC3    C510218   2.958   2.745  15.665  0.1268 -0.5473 -0.8648
  691TMC3    C610219   2.861   2.792  15.578  0.0760  0.1238  0.2483
  691TMC3     C10220   3.166   3.035  15.705 -0.4379 -0.5218 -0.4961
  691TMC3     O10221   3.198   3.009  15.825  0.1886  0.0294  0.4150
  691TMC3     H10222   2.973   3.120  15.561 -0.2275  0.6906  1.1476
  691TMC3    H110223   3.153   2.782  15.752 -1.7769 -0.8675  2.9081
  691TMC3    H210224   2.768   2.741  15.554  0.0288  0.1278  0.4264
  691TMC3    C710225   2.975   2.599  15.677 -0.1037  0.0806  0.0595
  691TMC3    C810226   2.740   2.990  15.500 -0.8361  0.0123 -0.0159
  691TMC3    O110227   3.090   2.562  15.706  0.5360 -0.1513  0.4348
  691TMC3    O210228   2.684   2.948  15.397  0.5411  0.1762  0.5998
  692TMC3    C110229   0.110   4.604  16.371  0.1888 -0.1691  0.1799
  692TMC3    C210230   0.181   4.718  16.407 -0.1185  0.0444  0.2577
  692TMC3    C310231   0.316   4.719  16.393  0.1243 -0.1991  0.0884
  692TMC3    C410232   0.165   4.494  16.319 -0.6806  0.2783 -0.4009
  692TMC3    C510233   0.302   4.500  16.303  0.1857 -0.2781 -0.3023
  692TMC3    C610234   0.379   4.607  16.342  0.3622 -0.0000  0.0535
  692TMC3     C10235   4.699   4.593  16.433  0.0169 -0.4936  0.2702
  692TMC3     O10236   4.691   4.621  16.551  0.3188  0.2177 -0.3145
  692TMC3     H10237   0.133   0.067  16.475 -0.9641 -1.3500  1.0568
  692TMC3    H110238   0.099   4.417  16.282 -2.6347  1.1710  1.2531
  692TMC3    H210239   0.483   4.616  16.312  0.8100 -0.1937  1.5715
  692TMC3    C710240   0.349   4.417  16.197 -0.2895 -0.9043  0.4251
  692TMC3    C810241   0.377   0.039  16.519  0.4764 -0.4005  0.7100
  692TMC3    O110242   0.389   4.466  16.092  0.2399 -0.2124  0.1399
  692TMC3    O210243   0.323   0.130  16.578  0.4699 -0.1735  0.0187
  693MPD2     C10244   4.021   2.476  10.714 -0.4693  0.3947 -0.3373
  693MPD2    C110245   4.027   2.385  10.812 -0.4236 -0.2277  0.9042
  693MPD2    C210246   4.145   2.321  10.846 -0.0458 -0.0156 -0.1902
  693MPD2    C310247   4.251   2.334  10.755 -0.1901 -0.4908  0.1211
  693MPD2    C410248   4.245   2.429  10.660  0.5312  0.3784 -0.4287
  693MPD2    C510249   4.131   2.500  10.633 -0.4521 -0.2644  0.4413
  693MPD2     H10250   4.145   2.243  10.921  1.2326 -0.4480 -0.6386
  693MPD2    H110251   4.327   2.445  10.591 -0.0642 -1.3714 -1.5384
  693MPD2    H210252   3.935   2.540  10.693 -1.7010 -1.2955 -0.4468
  693MPD2    H310253   4.136   2.579  10.559  1.2539 -0.1403  0.7059
  693MPD2     N10254   4.366   2.248  10.767  0.2852  0.4762 -0.1384
  693MPD2    H510255   4.429   2.264  10.689 -0.8868 -0.3043 -1.2547
  693MPD2    N110256   3.908   2.356  10.886  0.4763  0.2324  0.5964
  693MPD2    H710257   3.819   2.385  10.846  1.0167 -1.4603 -1.8706
  694TMC3    C110258   3.786   2.243  11.055 -0.2540  0.4457 -0.4378
  694TMC3    C210259   3.744   2.157  10.953 -0.2691  0.3004 -0.0134
  694TMC3    C310260   3.698   2.030  10.985  0.3244  1.0210 -0.2278
  694TMC3    C410261   3.778   2.199  11.184 -0.1392 -0.2017  0.4936
  694TMC3    C510262   3.743   2.071  11.211  0.5367  0.2919 -0.8771
  694TMC3    C610263   3.693   1.983  11.120 -1.0938 -0.3655 -0.4390
  694TMC3     C10264   3.904   2.316  11.018  0.0314  0.6603  0.5779
  694TMC3     O10265   3.987   2.323  11.108 -0.5107 -0.6506 -0.0048
  694TMC3     H10266   3.771   2.169  10.848  1.2457  0.0395  0.3397
  694TMC3    H110267   3.821   2.267  11.256 -1.4256  1.9021 -0.7146
  694TMC3    H210268   3.648   1.887  11.142 -0.5337 -0.7046 -0.7786
  694TMC3    C710269   3.770   2.035  11.344 -0.3787 -0.4128 -0.4227
  694TMC3    C810270   3.627   1.952  10.889  0.2239 -0.0306 -0.0670
  694TMC3    O110271   3.747   2.119  11.428  0.5060  0.4407  0.4892
  694TMC3    O210272   3.596   1.840  10.923  0.0632 -0.6896 -0.2173
  695MPD2     C10273   0.341   3.051  13.828  0.6416 -0.7822  0.0094
  695MPD2    C110274   0.350   3.189  13.836 -0.2506  0.2782  0.6563
  695MPD2    C210275   0.235   3.262  13.830  0.1912  0.2400 -0.4621
  695MPD2    C310276   0.106   3.198  13.831 -0.4930 -0.0559 -0.0244
  695MPD2    C410277   0.100   3.065  13.837  0.5570  0.2186 -0.5006
  695MPD2    C510278   0.218   2.994  13.837 -0.5327 -0.2494  0.4407
  695MPD2     H10279   0.246   3.370  13.830 -0.1044  0.2984  4.4913
  695MPD2    H110280   0.005   3.013  13.841  1.4213 -1.3394  0.0986
  695MPD2    H210281   0.424   2.984  13.849 -0.0632 -1.0659  1.8875
  695MPD2    H310282   0.208   2.886  13.845 -0.8422 -0.3619 -1.4295
  695MPD2     N10283   4.718   3.283  13.855  0.1459 -0.3424 -0.1527
  695MPD2    H510284   0.018   3.382  13.852 -0.1872 -0.2536  0.8683
  695MPD2    N110285   0.476   3.259  13.834  0.9266  0.2784  0.0254
  695MPD2    H710286   0.481   3.356  13.803  1.4934  0.5528  0.9725
  696TMC3    C110287   4.511   3.356  13.938 -0.1878 -0.5962 -0.4120
  696TMC3    C210288   4.566   3.427  14.040 -0.2828  0.4978 -0.0329
  696TMC3    C310289   4.473   3.494  14.121 -0.3836 -0.3365  0.8367
  696TMC3    C410290   4.378   3.349  13.917  0.1629  0.7491  0.0882
  696TMC3    C510291   4.290   3.414  14.004  0.5534 -0.2209 -0.0668
  696TMC3    C610292   4.336   3.480  14.112 -0.0710 -0.2194  0.2003
  696TMC3     C10293   4.587   3.244  13.872  0.3555  1.0287  0.4306
  696TMC3     O10294   4.533   3.134  13.851 -0.0947  0.1824 -0.4031
  696TMC3     H10295   4.671   3.431  14.065 -1.0316 -0.4475  3.1848
  696TMC3    H110296   4.343   3.266  13.856  1.8671 -0.2228  0.4509
  696TMC3    H210297   4.268   3.543  14.168 -0.3845 -0.1073 -0.3069
  696TMC3    C710298   4.197   3.491  13.942  0.2798  0.2630  0.0009
  696TMC3    C810299   4.507   3.634  14.157  0.2341 -0.3834 -0.1852
  696TMC3    O110300   4.122   3.564  14.010  0.0610 -0.3122  0.5955
  696TMC3    O210301   4.477   3.680  14.267  0.3453  0.1280  0.1786
  697MPD2     C10302   4.536   0.804  15.943 -1.3515  0.6273 -0.0025
  697MPD2    C110303   4.495   0.761  15.819 -1.4646 -0.7709  0.1091
  697MPD2    C210304   4.575   0.774  15.710 -0.5635 -0.4386 -0.1108
  697MPD2    C310305   4.702   0.834  15.718 -0.5115  0.2380 -0.4433
  697MPD2    C410306   0.026   0.865  15.848  0.6875  0.8098 -0.1770
  697MPD2    C510307   4.659   0.865  15.957 -0.4788 -0.0695  0.3468
  697MPD2     H10308   4.532   0.734  15.620 -0.8412 -0.0439 -0.1568
  697MPD2    H110309   0.125   0.902  15.872  1.3512 -0.8842 -0.3324
  697MPD2    H210310   4.476   0.800  16.033  0.6738  0.5988  1.3305
  697MPD2    H310311   4.689   0.912  16.050 -0.8156  0.5139  0.1611
  697MPD2     N10312   0.062   0.841  15.604  0.1765 -0.3382 -0.6722
  697MPD2    H510313   0.023   0.799  15.521  0.4507 -0.3446 -0.7990
  697MPD2    N110314   4.380   0.681  15.800 -0.0793  0.0409  0.4941
  697MPD2    H710315   4.372   0.641  15.707 -2.1923  3.4026 -0.7637
  698TMC3    C110316   0.243   0.893  15.471 -0.0951  0.4001 -0.4852
  698TMC3    C210317   0.371   0.856  15.477  0.0821  0.1646  0.2330
  698TMC3    C310318   0.429   0.803  15.365  0.9611 -0.0140 -0.8578
  698TMC3    C410319   0.163   0.880  15.359  0.1063  0.1507 -0.7448
  698TMC3    C510320   0.219   0.819  15.255 -0.1864  0.2536  0.2487
  698TMC3    C610321   0.355   0.791  15.254  0.7403 -0.5803  0.3542
  698TMC3     C10322   0.182   0.909  15.600 -0.4444  0.0536 -1.0869
  698TMC3     O10323   0.250   0.966  15.685 -0.3127 -0.6858  0.3532
  698TMC3     H10324   0.421   0.844  15.572 -3.2809  1.0456  2.1003
  698TMC3    H110325   0.058   0.904  15.361 -0.0228 -0.5661  1.3133
  698TMC3    H210326   0.394   0.733  15.171 -1.6319 -1.3164 -0.2509
  698TMC3    C710327   0.137   0.795  15.135 -0.4276 -0.1121 -0.1194
  698TMC3    C810328   0.567   0.793  15.367  0.0600 -0.2808 -0.8495
  698TMC3    O110329   0.029   0.850  15.129  0.0135 -0.4404  0.0524
  698TMC3    O210330   0.614   0.798  15.479  0.4091 -0.0411  0.1717
  699TMC3    C110331   0.028   4.138  12.977 -0.0609 -0.4603 -0.3149
  699TMC3    C210332   0.078   4.024  13.030  0.3553 -0.0581 -0.8371
  699TMC3    C310333   0.018   3.963  13.141 -0.0085 -0.4282 -0.1988
  699TMC3    C410334   4.633   4.191  13.021 -1.4754 -0.1746  0.1444
  699TMC3    C510335   4.568   4.121  13.116 -0.4675 -0.1307  0.2680
  699TMC3    C610336   4.625   4.020  13.189  0.3257 -0.8634 -0.8483
  699TMC3     C10337   0.056   4.176  12.841 -0.2846  0.2710 -0.0682
  699TMC3     O10338   4.688   4.230  12.776 -0.1279  0.3525  0.1100
  699TMC3     H10339   0.164   3.976  12.985  2.1803  1.7422  0.7563
  699TMC3    H110340   4.603   4.291  12.995 -1.5229 -0.2382 -0.0458
  699TMC3    H210341   4.564   3.971  13.265  1.9011  0.6018  1.3634
  699TMC3    C710342   4.425   4.149  13.140 -0.3860 -0.2821  0.2019
  699TMC3    C810343   0.068   3.841  13.201  0.7488  0.2999  0.8912
  699TMC3    O110344   4.364   4.120  13.244  0.5581  0.2138  0.2561
  699TMC3    O210345   4.708   3.783  13.270 -0.0290  0.9526 -0.1325
  700TMC3    C110346   3.834   1.386   0.131  0.2850 -0.1064 -0.4403
  700TMC3    C210347   3.936   1.295   0.119 -0.1192  0.1415 -0.1597
  700TMC3    C310348   4.049   1.322   0.191  1.0932 -0.0099 -0.0311
  700TMC3    C410349   3.839   1.494   0.228  0.0827  0.4832  0.4696
  700TMC3    C510350   3.955   1.509   0.305 -0.0200 -0.6658 -0.6218
  700TMC3    C610351   4.055   1.417   0.290 -0.2476  0.3103 -0.4441
  700TMC3     C10352   3.753   1.397   0.013 -0.0739 -0.5722 -0.7717
  700TMC3     O10353   3.732   1.291  17.634 -0.2055  0.4855  0.7729
  700TMC3     H10354   3.940   1.243   0.025  0.3647  0.9970 -0.6126
  700TMC3    H110355   3.757   1.564   0.237  0.0505  0.6779 -1.4007
  700TMC3    H210356   4.142   1.414   0.354  1.5628 -0.5756 -2.9342
  700TMC3    C710357   3.975   1.630   0.379  0.0885 -0.5402 -0.0216
  700TMC3    C810358   4.169   1.248   0.148 -0.3472 -0.4699  0.5826
  700TMC3    O110359   3.908   1.724   0.343  0.2989 -0.1588 -0.2784
  700TMC3    O210360   4.273   1.290   0.201  0.0263  0.5146  0.2790
  701TMC3    C110361   3.434   0.080  15.822 -0.1590  0.5363 -0.7848
  701TMC3    C210362   3.485   0.001  15.717 -0.2126 -0.6948 -0.2955
  701TMC3    C310363   3.590   0.048  15.649  0.9177  0.1163 -0.4700
  701TMC3    C410364   3.502   0.197  15.858  0.1031 -1.1578  0.1730
  701TMC3    C510365   3.605   0.234  15.787 -0.3532 -0.4873  0.5278
  701TMC3    C610366   3.657   0.164  15.686  0.5971  0.6152  0.4278
  701TMC3     C10367   3.320   0.026  15.892 -0.2909 -0.2814  0.0976
  701TMC3     O10368   3.296   0.082  15.999 -0.1149  0.0971 -0.1481
  701TMC3     H10369   3.461   4.616  15.711  1.5035 -1.0491 -1.0809
  701TMC3    H110370   3.471   0.247  15.949 -0.9692  1.4515 -1.6367
  701TMC3    H210371   3.744   0.202  15.635  1.5447  1.4077  2.6514
  701TMC3    C710372   3.668   0.369  15.806 -0.3904  0.2662 -0.4014
  701TMC3    C810373   3.684   4.670  15.592 -0.1466  0.4419 -0.0071
  701TMC3    O110374   3.765   0.392  15.734  0.0343  0.5997  0.8981
  701TMC3    O210375   3.803   4.694  15.599 -0.3761 -0.4346 -0.3027
  702MPD2     C10376   3.414   2.443  11.219 -0.2898  0.4032 -0.0374
  702MPD2    C110377   3.305   2.458  11.134 -0.7826  0.1903  0.2204
  702MPD2    C210378   3.320   2.446  11.000 -0.5313 -0.1765  0.1730
  702MPD2    C310379   3.440   2.433  10.940  0.0543 -0.4805  0.1860
  702MPD2    C410380   3.552   2.439  11.018 -0.3781 -0.3025  0.5973
  702MPD2    C510381   3.531   2.432  11.158 -0.0381 -0.7780 -0.2107
  702MPD2     H10382   3.233   2.446  10.936 -2.0249 -1.0300  2.2313
  702MPD2    H110383   3.652   2.441  10.977  0.1541  3.5891  2.0758
  702MPD2    H210384   3.415   2.445  11.327 -0.2938 -0.6108 -0.0178
  702MPD2    H310385   3.616   2.436  11.225 -0.6424  1.2068  0.4468
  702MPD2     N10386   3.448   2.437  10.800  0.1243 -0.8445  0.0589
  702MPD2    H510387   3.361   2.463  10.754  0.4561  0.2188  0.0243
  702MPD2    N110388   3.169   2.482  11.182  0.4654 -0.0873  0.1619
  702MPD2    H710389   3.104   2.479  11.103  0.6592  0.3053 -0.0112
  703TMC3    C110390   3.524   2.411  10.580  0.1576 -0.0940  0.0446
  703TMC3    C210391   3.389   2.427  10.545  0.2049  0.8837  0.1448
  703TMC3    C310392   3.371   2.447  10.409 -0.0388  0.2283 -0.0998
  703TMC3    C410393   3.633   2.426  10.500 -0.6088 -0.2594  0.3159
  703TMC3    C510394   3.607   2.472  10.373 -0.4426  1.2239 -0.3008
  703TMC3    C610395   3.477   2.479  10.321  0.0196  0.3203 -0.5043
  703TMC3     C10396   3.551   2.398  10.721  0.2204  0.3437 -0.1593
  703TMC3     O10397   3.661   2.357  10.747  0.4461  0.0557  0.0407
  703TMC3     H10398   3.315   2.372  10.601  0.2383  0.3012 -0.3692
  703TMC3    H110399   3.732   2.420  10.543 -0.0577  2.1828 -0.6083
  703TMC3    H210400   3.467   2.532  10.227  0.1401  0.9059 -0.1855
  703TMC3    C710401   3.702   2.556  10.316 -0.0144  0.0332  0.4548
  703TMC3    C810402   3.238   2.453  10.352  0.0346  0.3804 -0.6637
  703TMC3    O110403   3.667   2.654  10.257 -0.2227  0.0579  0.3628
  703TMC3    O210404   3.241   2.463  10.230  0.5242  0.7683  0.0892
  704TMC3    C110405   0.996   0.582  12.231 -0.0765 -0.5395  0.3861
  704TMC3    C210406   1.119   0.631  12.226  0.9727 -0.1737  0.4602
  704TMC3    C310407   1.217   0.552  12.284  0.4039 -0.8855  0.9466
  704TMC3    C410408   0.956   0.476  12.297  0.1139 -0.3422 -0.0525
  704TMC3    C510409   1.051   0.398  12.339  0.2448 -0.4973 -0.7286
  704TMC3    C610410   1.179   0.438  12.348 -0.1805  0.4220 -0.0334
  704TMC3     C10411   0.903   0.615  12.122 -0.2858 -0.4798  0.5921
  704TMC3     O10412   0.784   0.592  12.135  0.6922  0.8180  0.4457
  704TMC3     H10413   1.150   0.721  12.176  2.8428 -0.3727  1.2554
  704TMC3    H110414   0.852   0.444  12.296 -0.0680  0.2279  0.6537
  704TMC3    H210415   1.255   0.369  12.382 -0.5132 -0.2643 -0.6930
  704TMC3    C710416   1.041   0.251  12.327  0.2065 -0.6215 -0.4443
  704TMC3    C810417   1.344   0.562  12.222 -0.5175 -0.5242 -0.4420
  704TMC3    O110418   1.148   0.185  12.329 -0.6650  0.0180 -0.2613
  704TMC3    O210419   1.340   0.616  12.114 -0.1841 -0.2808  1.1439
  705MPD2     C10420   0.654   3.926  16.814  0.0498  0.5588  0.1687
  705MPD2    C110421   0.580   3.924  16.697 -0.0240 -0.3687  0.5047
  705MPD2    C210422   0.443   3.933  16.703 -0.5855 -0.2567 -0.1453
  705MPD2    C310423   0.385   3.931  16.827  0.0862 -0.4819  0.6701
  705MPD2    C410424   0.460   3.930  16.942  0.1668 -0.6903  0.3989
  705MPD2    C510425   0.597   3.924  16.936 -0.6004  0.1526  0.8091
  705MPD2     H10426   0.392   3.945  16.608 -1.7291 -3.0230  0.1382
  705MPD2    H110427   0.417   3.955  17.038 -0.7899 -0.5584 -0.0714
  705MPD2    H210428   0.762   3.937  16.819  0.2952 -0.0724 -3.7646
  705MPD2    H310429   0.671   3.944  17.012  1.8059 -2.2563 -0.8837
  705MPD2     N10430   0.249   3.924  16.846 -0.0554  0.3801 -0.6633
  705MPD2    H510431   0.216   3.941  16.941 -2.6814  0.4294 -1.5824
  705MPD2    N110432   0.644   3.939  16.570 -0.3585  0.2911  0.4441
  705MPD2    H710433   0.585   3.964  16.491 -2.9665 -0.3561  2.1608
  706TMC3    C110434   1.013   3.955  16.262 -0.1633 -0.4922  0.4906
  706TMC3    C210435   0.967   4.061  16.188 -0.3534 -0.0076  0.3454
  706TMC3    C310436   0.840   4.104  16.226 -0.8559  0.1925 -0.0652
  706TMC3    C410437   0.945   3.904  16.367 -0.6623 -0.3056 -0.5137
  706TMC3    C510438   0.819   3.949  16.401 -0.4808 -0.2119  0.0903
  706TMC3    C610439   0.763   4.044  16.329  0.5224 -1.0622 -0.3540
  706TMC3     C10440   1.135   3.898  16.214  0.0408  0.3640  0.6256
  706TMC3     O10441   1.205   3.835  16.286  0.0995  0.5707  0.1963
  706TMC3     H10442   1.039   4.130  16.145  0.8360 -1.2954  0.2899
  706TMC3    H110443   0.980   3.820  16.426 -0.2517 -0.3707 -0.8484
  706TMC3    H210444   0.668   4.088  16.354 -1.0512 -3.6832 -1.7380
  706TMC3    C710445   0.777   3.926  16.545 -0.3209 -0.6280  0.1426
  706TMC3    C810446   0.792   4.231  16.182  0.0793  0.6784  0.6212
  706TMC3    O110447   0.861   3.874  16.620 -0.2113  0.1720 -0.1677
  706TMC3    O210448   0.705   4.282  16.252 -0.2340  0.2197  0.0291
  707TMC3    C110449   2.019   2.149   1.075  0.1983  0.5064  0.3643
  707TMC3    C210450   2.072   2.097   1.181 -0.2901  0.9969 -0.0316
  707TMC3    C310451   1.995   2.028   1.270 -0.6338 -0.1666  0.5358
  707TMC3    C410452   1.886   2.140   1.058 -0.4533 -0.5958 -0.6130
  707TMC3    C510453   1.807   2.088   1.158  0.0286 -0.2619  0.1333
  707TMC3    C610454   1.859   2.020   1.261  0.4052 -0.0330  0.3688
  707TMC3     C10455   2.112   2.210   0.979  0.0597  0.4475 -0.0903
  707TMC3     O10456   2.231   2.201   1.013 -0.4031 -0.1745 -0.1033
  707TMC3     H10457   2.172   2.131   1.209 -0.1113  0.5476 -0.1262
  707TMC3    H110458   1.826   2.193   0.985  0.5095  2.2874  0.7183
  707TMC3    H210459   1.807   1.965   1.338 -1.1084 -0.4467 -0.9498
  707TMC3    C710460   1.669   2.058   1.123 -0.6131  0.0534  0.0368
  707TMC3    C810461   2.058   1.957   1.380  0.1418 -0.2604  0.1463
  707TMC3    O110462   1.633   2.063   1.006 -0.4152 -0.3551  0.2611
  707TMC3    O210463   1.986   1.919   1.472  0.1576 -0.3181  0.2394
  708MPD2     C10464   4.456   2.203  13.973  0.8014 -0.0124 -0.2763
  708MPD2    C110465   4.357   2.122  14.022  0.2336  1.1425  0.2608
  708MPD2    C210466   4.336   2.136  14.157 -0.7045 -0.0622 -0.8826
  708MPD2    C310467   4.427   2.204  14.235 -0.2372 -0.0616 -0.2187
  708MPD2    C410468   4.537   2.276  14.188  0.7075 -0.2593 -0.0722
  708MPD2    C510469   4.543   2.274  14.054  0.1385  0.1275  0.3174
  708MPD2     H10470   4.250   2.086  14.201  0.2618  0.3524  1.4695
  708MPD2    H110471   4.613   2.322  14.250  1.2841 -2.4015  0.8038
  708MPD2    H210472   4.480   2.194  13.867 -0.0288 -0.4504 -0.4206
  708MPD2    H310473   4.628   2.317  14.003 -0.2358  0.9758  0.4038
  708MPD2     N10474   4.383   2.206  14.371  0.4065  0.3280 -0.0807
  708MPD2    H510475   4.292   2.164  14.390 -0.5579  1.6664 -1.7339
  708MPD2    N110476   4.273   2.056  13.928 -0.1375  0.0071  0.6383
  708MPD2    H710477   4.295   2.076  13.831  2.9906  1.0129  1.5511
  709TMC3    C110478   4.083   1.931  13.856  0.9156  0.0803  0.1292
  709TMC3    C210479   4.085   2.018  13.749  0.3435  0.4414  0.3209
  709TMC3    C310480   3.961   2.048  13.695 -0.2769 -0.7461  0.2595
  709TMC3    C410481   3.966   1.879  13.899  0.0890 -0.1509  0.1339
  709TMC3    C510482   3.846   1.918  13.854  0.6021  0.3157  0.8514
  709TMC3    C610483   3.841   2.010  13.751 -0.2110  0.0406  0.3923
  709TMC3     C10484   4.177   1.958  13.964  0.4116 -0.2070 -0.5220
  709TMC3     O10485   4.152   1.905  14.070  0.0062  0.2005  0.0953
  709TMC3     H10486   4.178   2.043  13.699  1.2146  0.9856  2.2012
  709TMC3    H110487   3.971   1.810  13.983  1.8901 -0.6895 -0.4031
  709TMC3    H210488   3.746   2.043  13.710 -0.9302 -1.5960  0.7295
  709TMC3    C710489   3.757   1.964  13.960  0.3771 -0.3197  0.0970
  709TMC3    C810490   3.968   2.051  13.548 -0.2238 -0.0479 -0.2913
  709TMC3    O110491   3.640   1.986  13.929 -0.6061  0.1986 -0.2040
  709TMC3    O210492   4.066   1.999  13.495 -0.2006 -0.7491 -0.2551
  710TMC3    C110493   0.358   3.801   0.982  0.2785  0.1348 -0.1796
  710TMC3    C210494   0.430   3.758   0.875 -0.0125 -0.0063  0.5378
  710TMC3    C310495   0.493   3.637   0.876 -0.5788 -1.0238 -0.0571
  710TMC3    C410496   0.336   3.720   1.091  0.1346  0.5690 -0.7169
  710TMC3    C510497   0.401   3.596   1.085 -0.1107 -0.0873 -0.3625
  710TMC3    C610498   0.477   3.551   0.981 -0.1405 -0.2964  0.6108
  710TMC3     C10499   0.341   3.946   1.000  0.6999 -0.2753  0.4362
  710TMC3     O10500   0.394   4.020   0.917 -0.0393  0.4216 -0.5179
  710TMC3     H10501   0.435   3.819   0.786  1.6753 -1.4068 -0.3275
  710TMC3    H110502   0.272   3.742   1.175 -2.5887  0.5619 -2.7816
  710TMC3    H210503   0.509   3.447   0.983  1.0473  0.0477 -0.6474
  710TMC3    C710504   0.348   3.486   1.161  0.3326  0.5715  0.6046
  710TMC3    C810505   0.547   3.586   0.752 -0.5400 -0.3157 -0.4800
  710TMC3    O110506   0.240   3.511   1.211 -0.0389 -0.7884 -0.9896
  710TMC3    O210507   0.506   3.647   0.651  0.3566  0.2125  0.8507
  711TMC3    C110508   4.152   4.631  15.391 -0.2141 -0.0360  0.0638
  711TMC3    C210509   4.118   4.665  15.523  0.0354  0.1477 -0.0127
  711TMC3    C310510   4.194   4.610  15.622 -0.3621 -0.5647 -0.5851
  711TMC3    C410511   4.254   4.549  15.354  0.3308 -0.4039  0.6365
  711TMC3    C510512   4.319   4.492  15.458 -0.8715 -0.5413 -0.3009
  711TMC3    C610513   4.289   4.516  15.588 -0.5491  0.1341 -0.5477
  711TMC3     C10514   4.052   4.660  15.286 -0.0452  0.2146  0.5322
  711TMC3     O10515   4.063   4.587  15.185  0.6615 -0.3136  0.3841
  711TMC3     H10516   4.048   0.023  15.551  0.8085  0.0330  2.2297
  711TMC3    H110517   4.261   4.494  15.261 -1.3493 -1.5648  1.2074
  711TMC3    H210518   4.333   4.462  15.671 -2.0129  0.8193  0.6775
  711TMC3    C710519   4.444   4.434  15.425  0.5211 -1.1240 -0.0096
  711TMC3    C810520   4.183   4.665  15.752  0.6666 -0.0818 -0.0834
  711TMC3    O110521   4.506   4.392  15.525  0.2173 -0.0523  0.2832
  711TMC3    O210522   4.070   4.707  15.778  0.0097  0.6886  0.4526
  712MPD2     C10523   0.789   0.430  13.350 -0.1035 -0.1172  1.2600
  712MPD2    C110524   0.710   0.518  13.285  0.3372  0.1526  0.3868
  712MPD2    C210525   0.754   0.652  13.286 -0.8046  0.4556 -0.5483
  712MPD2    C310526   0.885   0.684  13.327 -0.4117  0.1404  0.1747
  712MPD2    C410527   0.972   0.586  13.372 -0.0603  0.6922 -1.1391
  712MPD2    C510528   0.922   0.458  13.379  0.4181  0.7713  0.3604
  712MPD2     H10529   0.679   0.727  13.263 -0.1044  1.8930  1.9198
  712MPD2    H110530   1.073   0.612  13.401  0.4010 -0.9382 -1.2959
  712MPD2    H210531   0.766   0.324  13.360  1.0066 -0.6434 -1.7485
  712MPD2    H310532   0.984   0.383  13.427  0.1590 -2.1153 -3.8281
  712MPD2     N10533   0.941   0.813  13.333 -0.2169  0.1305  0.4364
  712MPD2    H510534   1.037   0.825  13.365 -0.2756 -2.8255  1.7549
  712MPD2    N110535   0.577   0.477  13.254 -0.8913 -0.5394 -0.2509
  712MPD2    H710536   0.552   0.381  13.271  0.3624 -1.3474 -2.9881
  713TMC3    C110537   0.951   1.044  13.359 -0.1133  0.5768 -1.0062
  713TMC3    C210538   1.087   1.049  13.336  0.2732 -0.1844 -0.5147
  713TMC3    C310539   1.162   1.142  13.403  0.5345 -0.9271  0.3887
  713TMC3    C410540   0.891   1.134  13.441  0.4954 -0.2658  0.4950
  713TMC3    C510541   0.972   1.223  13.505  0.0409 -0.5387 -0.8013
  713TMC3    C610542   1.108   1.232  13.497  0.1909  0.2308 -0.0781
  713TMC3     C10543   0.867   0.931  13.325 -0.4012  0.6467  0.5260
  713TMC3     O10544   0.746   0.943  13.337  0.1795 -0.3337 -0.0049
  713TMC3     H10545   1.129   0.977  13.266 -0.0061  0.6650 -1.5620
  713TMC3    H110546   0.789   1.120  13.476  0.6294 -0.3654  0.8418
  713TMC3    H210547   1.175   1.306  13.539 -0.6532  1.0974 -0.2784
  713TMC3    C710548   0.915   1.339  13.578  0.0871  0.2283  0.4194
  713TMC3    C810549   1.294   1.165  13.356 -0.8184  0.0456  0.2369
  713TMC3    O110550   0.989   1.411  13.636  0.4747 -0.3828  0.2087
  713TMC3    O210551   1.344   1.273  13.382 -0.8872  0.2548 -0.1090
  714MPD2     C10552   2.917   4.536   1.730  0.5866 -0.3752  0.0145
  714MPD2    C110553   2.990   4.454   1.643 -1.2550 -0.2952 -0.1590
  714MPD2    C210554   3.020   4.500   1.514  0.8093 -0.3246  0.4273
  714MPD2    C310555   2.981   4.625   1.473 -0.4575  0.2384  0.0175
  714MPD2    C410556   2.909   4.703   1.560 -0.1490  0.2260 -0.2558
  714MPD2    C510557   2.883   4.660   1.689  0.2091  0.0929 -0.3776
  714MPD2     H10558   3.084   4.441   1.449  1.5932  0.3941  0.5484
  714MPD2    H110559   2.872   0.083   1.538 -1.1840 -0.6592 -2.5878
  714MPD2    H210560   2.894   4.504   1.831  1.6474  0.2416  0.4543
  714MPD2    H310561   2.837   0.002   1.765 -2.8285 -0.9510 -1.3629
  714MPD2     N10562   3.000   4.661   1.339 -0.7937 -0.0317  0.4666
  714MPD2    H510563   3.025   4.579   1.285 -0.3676 -0.7685  1.8009
  714MPD2    N110564   3.030   4.325   1.700 -0.3767 -0.1813  0.5702
  714MPD2    H710565   2.997   4.289   1.789  0.8235 -4.1234 -0.5612
  715TMC3    C110566   3.173   4.139   1.716  0.3951  0.2069  0.5518
  715TMC3    C210567   3.259   4.054   1.653  0.2430 -0.2690  0.1852
  715TMC3    C310568   3.353   3.984   1.727 -0.1011  0.5035 -0.6424
  715TMC3    C410569   3.196   4.171   1.848  0.0157  0.3209 -0.3056
  715TMC3    C510570   3.286   4.096   1.924  0.1987 -0.2676 -0.2875
  715TMC3    C610571   3.369   4.005   1.859 -0.2576  0.7309  0.1424
  715TMC3     C10572   3.109   4.239   1.629  0.5484 -0.2747  0.3329
  715TMC3     O10573   3.153   4.249   1.517 -0.0757  0.2397 -0.3385
  715TMC3     H10574   3.256   4.029   1.548  0.9102  1.9311 -0.3661
  715TMC3    H110575   3.150   4.251   1.905 -0.5110 -1.4161  1.6934
  715TMC3    H210576   3.437   3.945   1.919 -0.4274 -0.4504 -0.8378
  715TMC3    C710577   3.330   4.134   2.054 -0.4339 -0.1349  0.0374
  715TMC3    C810578   3.458   3.912   1.661 -1.0044 -0.2247 -0.0952
  715TMC3    O110579   3.443   4.092   2.083  0.7514 -0.0450 -0.2498
  715TMC3    O210580   3.410   3.840   1.571 -0.1277 -0.0800 -0.3912
  716MPD2     C10581   3.735   2.359   9.972 -0.8414 -0.0262 -0.0494
  716MPD2    C110582   3.617   2.356   9.896  0.2066  0.1436 -0.7819
  716MPD2    C210583   3.571   2.237   9.844  0.4935  0.0631 -0.2185
  716MPD2    C310584   3.635   2.116   9.880  0.4745 -0.2851  0.4715
  716MPD2    C410585   3.755   2.116   9.950 -0.3096  0.0211  0.2634
  716MPD2    C510586   3.806   2.239  10.003 -0.3466  0.3618  0.2755
  716MPD2     H10587   3.479   2.222   9.788  2.3939 -4.0585 -2.2615
  716MPD2    H110588   3.813   2.027   9.970  0.2430 -0.1257 -2.0011
  716MPD2    H210589   3.766   2.446  10.028 -1.0086  0.5423 -0.8443
  716MPD2    H310590   3.890   2.240  10.071  1.6959 -0.7397 -2.2258
  716MPD2     N10591   3.585   1.999   9.823 -0.6488  0.4660  0.4984
  716MPD2    H510592   3.488   1.997   9.793 -0.4686 -1.7631  0.0160
  716MPD2    N110593   3.559   2.476   9.855  0.7072 -0.0026 -0.0769
  716MPD2    H710594   3.612   2.560   9.875 -1.9758  1.3018  1.5892
  717TMC3    C110595   3.575   1.783   9.728  0.2255  0.0586  0.5478
  717TMC3    C210596   3.488   1.841   9.636  0.3157  1.1648 -0.6444
  717TMC3    C310597   3.417   1.765   9.551 -0.2119 -0.6458 -0.5141
  717TMC3    C410598   3.597   1.646   9.741 -0.0041  0.1955  0.1522
  717TMC3    C510599   3.516   1.572   9.653 -0.5617  0.8537 -0.1336
  717TMC3    C610600   3.426   1.628   9.564 -0.5586 -0.0332 -0.1836
  717TMC3     C10601   3.645   1.874   9.820 -0.7316  0.0813 -0.4747
  717TMC3     O10602   3.726   1.819   9.894 -0.4107 -0.3420  0.4520
  717TMC3     H10603   3.478   1.946   9.612 -2.0020  1.2114  0.4746
  717TMC3    H110604   3.669   1.605   9.811 -2.0213 -1.9088  0.9872
  717TMC3    H210605   3.362   1.566   9.502 -1.1695  0.9006 -0.4901
  717TMC3    C710606   3.545   1.426   9.649  0.1137 -0.3487  0.4955
  717TMC3    C810607   3.328   1.825   9.454 -0.2638 -0.3620 -0.2992
  717TMC3    O110608   3.585   1.373   9.751 -0.3872 -0.3814 -0.5549
  717TMC3    O210609   3.267   1.927   9.483 -0.5108  0.5614 -0.4057
  718MPD2     C10610   2.494   0.714  13.086  0.0818 -0.0672 -0.0011
  718MPD2    C110611   2.494   0.762  12.953  0.5515 -0.4598  0.0120
  718MPD2    C210612   2.376   0.785  12.888 -0.5352  0.9198  0.5503
  718MPD2    C310613   2.257   0.761  12.953 -0.8392 -0.1831  0.2437
  718MPD2    C410614   2.251   0.723  13.082  0.4089  0.8262 -0.0942
  718MPD2    C510615   2.373   0.695  13.143 -0.3545  0.7073 -0.1596
  718MPD2     H10616   2.381   0.821  12.786  0.1144  1.4880  0.7853
  718MPD2    H110617   2.155   0.718  13.132  0.4781 -0.3904 -0.1053
  718MPD2    H210618   2.585   0.705  13.144  0.6814  1.6046 -0.6883
  718MPD2    H310619   2.373   0.651  13.242 -1.0801  0.4863 -0.2526
  718MPD2     N10620   2.144   0.807  12.888 -0.1545 -0.4747  0.3368
  718MPD2    H510621   2.157   0.818  12.788 -3.5644  1.2589  0.0755
  718MPD2    N110622   2.614   0.794  12.878 -0.3530 -0.0804 -0.7776
  718MPD2    H710623   2.590   0.817  12.782 -0.3603 -1.1811 -1.0322
  719TMC3    C110624   2.834   0.820  12.797  0.7600 -0.0245  0.1530
  719TMC3    C210625   2.757   0.818  12.677 -0.1710  0.7848 -0.0041
  719TMC3    C310626   2.746   0.924  12.603  0.3714  0.0502 -0.8341
  719TMC3    C410627   2.893   0.934  12.832  0.2504  0.0018  0.4893
  719TMC3    C510628   2.890   1.042  12.749  0.2793  1.1884  0.4454
  719TMC3    C610629   2.814   1.036  12.637 -0.8491  0.5170  0.3076
  719TMC3     C10630   2.747   0.777  12.913 -0.2880  0.2051 -0.0722
  719TMC3     O10631   2.797   0.754  13.024  0.7588  0.4404  0.6432
  719TMC3     H10632   2.709   0.723  12.656 -2.1372  1.8030 -0.0484
  719TMC3    H110633   2.933   0.924  12.933  0.3450 -0.0860  0.4431
  719TMC3    H210634   2.814   1.125  12.575  2.6190  2.4623  3.0553
  719TMC3    C710635   2.976   1.154  12.766 -0.3622  0.3470  0.6063
  719TMC3    C810636   2.616   0.935  12.539 -0.4761  0.1531 -0.7793
  719TMC3    O110637   2.996   1.216  12.663  0.0157 -0.3902  0.3083
  719TMC3    O210638   2.538   0.839  12.559 -0.0065  0.3162  0.7925
  720MPD2     C10639   1.111   2.803  14.008  0.3041 -0.1510 -0.0056
  720MPD2    C110640   1.214   2.828  13.918 -0.1135  0.0097 -0.0437
  720MPD2    C210641   1.348   2.807  13.952  0.4529 -0.3300  0.6484
  720MPD2    C310642   1.374   2.747  14.079 -0.0311  0.4059 -0.7613
  720MPD2    C410643   1.264   2.717  14.159  0.5507 -0.1132  0.3532
  720MPD2    C510644   1.137   2.738  14.121  0.3373  0.5491  0.3660
  720MPD2     H10645   1.430   2.828  13.884  0.0265  1.3275  0.6505
  720MPD2    H110646   1.262   2.657  14.250  2.0824  2.6852  2.2463
  720MPD2    H210647   1.010   2.803  13.970  0.7522 -2.1682 -1.2035
  720MPD2    H310648   1.060   2.700  14.187  2.5023 -2.9399  0.9293
  720MPD2     N10649   1.508   2.733  14.127 -0.0881 -0.2052 -0.1432
  720MPD2    H510650   1.580   2.784  14.077  0.3659 -1.8620 -1.1818
  720MPD2    N110651   1.189   2.893  13.792 -0.1094 -0.2482 -0.3797
  720MPD2    H710652   1.259   2.887  13.719 -1.8605  1.1094 -2.1729
  721TMC3    C110653   1.672   2.702  14.302 -0.5518  0.5300 -0.5055
  721TMC3    C210654   1.680   2.678  14.441 -0.8893 -0.3529 -0.0101
  721TMC3    C310655   1.789   2.722  14.505 -0.5488  0.4029  0.1756
  721TMC3    C410656   1.767   2.765  14.229  0.0335  0.1046 -0.0438
  721TMC3    C510657   1.870   2.800  14.305 -0.3552  0.0791 -0.8285
  721TMC3    C610658   1.884   2.778  14.437 -0.5903  0.5930 -0.0578
  721TMC3     C10659   1.537   2.677  14.247  1.2967 -0.4604  0.4351
  721TMC3     O10660   1.465   2.605  14.314 -0.1213  0.5242  0.1707
  721TMC3     H10661   1.600   2.632  14.498  0.2218 -0.6181  1.3444
  721TMC3    H110662   1.769   2.781  14.122  0.2960 -0.6535 -0.1566
  721TMC3    H210663   1.969   2.803  14.500 -0.0533 -1.6056  0.1020
  721TMC3    C710664   1.963   2.885  14.239  0.2293  0.2870 -0.6562
  721TMC3    C810665   1.825   2.667  14.633 -0.7169 -0.8075  0.1171
  721TMC3    O110666   1.970   2.879  14.120  0.2867 -0.1999 -0.2675
  721TMC3    O210667   1.926   2.600  14.640  0.2394 -0.1151  0.9321
  722MPD2     C10668   4.450   1.334  13.303 -0.5059 -0.2338  0.1478
  722MPD2    C110669   4.479   1.460  13.259  0.8662 -0.2472 -0.8560
  722MPD2    C210670   4.430   1.505  13.138  0.3147  0.1218 -0.0627
  722MPD2    C310671   4.341   1.421  13.063  0.4584  0.1110  0.5061
  722MPD2    C410672   4.298   1.298  13.118  0.3393 -0.3688 -0.3926
  722MPD2    C510673   4.359   1.260  13.229 -0.4837  0.1473  0.0268
  722MPD2     H10674   4.462   1.600  13.097 -0.8706  0.2612 -0.6781
  722MPD2    H110675   4.241   1.220  13.069 -1.0082 -0.8464  1.9554
  722MPD2    H210676   4.485   1.295  13.398  1.1036 -1.1094 -0.7910
  722MPD2    H310677   4.324   1.170  13.278  0.9962 -0.7332 -0.5503
  722MPD2     N10678   4.277   1.476  12.945 -0.6923  0.3616 -0.2654
  722MPD2    H510679   4.304   1.568  12.913 -0.5066 -0.4544 -2.5121
  722MPD2    N110680   4.564   1.545  13.338 -0.2175 -0.2100  0.0177
  722MPD2    H710681   4.583   1.637  13.300  0.0560  0.1700  1.0552
  723TMC3    C110682   4.163   1.488  12.744 -0.3843 -0.0022 -0.6106
  723TMC3    C210683   4.107   1.419  12.640  0.5814 -0.6497 -0.4842
  723TMC3    C310684   4.087   1.491  12.522 -1.0024  0.3535  0.3567
  723TMC3    C410685   4.191   1.629  12.740 -0.5608 -0.4898  0.1368
  723TMC3    C510686   4.161   1.694  12.623 -0.2874  0.4133 -0.4080
  723TMC3    C610687   4.107   1.627  12.521 -0.0350  0.2693  0.6563
  723TMC3     C10688   4.191   1.413  12.862 -0.5673 -0.1380 -0.9746
  723TMC3     O10689   4.149   1.297  12.857 -0.6182  0.0399 -0.1924
  723TMC3     H10690   4.073   1.316  12.648 -0.6615 -0.2473 -0.5671
  723TMC3    H110691   4.237   1.679  12.823  1.8323 -0.8140 -0.9955
  723TMC3    H210692   4.091   1.678  12.427  1.3420  1.6673  1.1708
  723TMC3    C710693   4.155   1.840  12.618  0.2720 -0.2170  0.4562
  723TMC3    C810694   3.979   1.445  12.433  0.2351  0.3703 -0.1783
  723TMC3    O110695   4.130   1.886  12.510  0.3221 -0.4640  0.2044
  723TMC3    O210696   3.890   1.516  12.395  0.4773 -0.0680  0.9209
  724TMC3    C110697   4.264   4.518   8.841 -0.0798 -0.0423  0.5121
  724TMC3    C210698   4.262   4.553   8.973 -0.0788 -0.1702 -0.0271
  724TMC3    C310699   4.269   4.451   9.064  0.6655  0.1088 -0.2743
  724TMC3    C410700   4.289   4.389   8.798 -0.4588 -0.3205  0.2787
  724TMC3    C510701   4.307   4.292   8.890 -0.3533  0.0599 -0.0152
  724TMC3    C610702   4.298   4.324   9.022 -0.6776 -0.2223 -0.1063
  724TMC3     C10703   4.205   4.607   8.741 -0.0343 -0.7404 -0.3945
  724TMC3     O10704   4.183   4.562   8.629  0.0106 -0.4699  0.2285
  724TMC3     H10705   4.206   4.640   9.006 -1.2643 -1.2713  0.8062
  724TMC3    H110706   4.305   4.364   8.694 -0.2430 -0.4014  0.3311
  724TMC3    H210707   4.318   4.257   9.105 -1.2283 -1.9568 -1.3932
  724TMC3    C710708   4.409   4.203   8.861  0.5668  0.2194 -0.0070
  724TMC3    C810709   4.308   4.487   9.201 -0.5437 -0.2286 -0.1029
  724TMC3    O110710   4.478   4.228   8.762  0.1780 -0.0023 -0.0281
  724TMC3    O210711   4.308   4.399   9.290  0.2004  0.3759  0.2679
  725TMC3    C110712   1.310   3.210  12.669  0.3710 -0.3447 -0.8627
  725TMC3    C210713   1.278   3.288  12.563  0.3619 -0.5191 -0.6145
  725TMC3    C310714   1.171   3.254  12.477  0.3745 -0.0482  0.5519
  725TMC3    C410715   1.232   3.098  12.689  0.8383  0.4358  0.2622
  725TMC3    C510716   1.127   3.072  12.599 -0.3730 -0.3670  0.6218
  725TMC3    C610717   1.100   3.148  12.490 -0.1524 -0.4356 -0.3162
  725TMC3     C10718   1.411   3.257  12.764 -0.5332  0.9413 -0.4309
  725TMC3     O10719   1.477   3.352  12.731 -0.4283 -0.3778 -0.1680
  725TMC3     H10720   1.325   3.386  12.564  3.0257 -1.7951 -1.0484
  725TMC3    H110721   1.239   3.038  12.779  0.1813  1.3609  0.9324
  725TMC3    H210722   1.032   3.114  12.412 -3.0049  1.7497  1.2276
  725TMC3    C710723   1.088   2.931  12.584  1.0716  0.4614 -0.0372
  725TMC3    C810724   1.104   3.358  12.404 -0.0436  0.1267 -1.1288
  725TMC3    O110725   1.091   2.886  12.470  0.4269  0.2928  0.7382
  725TMC3    O210726   0.982   3.355  12.394  0.1355 -0.2058  0.9039
  726MPD2     C10727   4.371   4.354  10.174 -0.2092 -0.6737  0.6442
  726MPD2    C110728   4.362   4.478  10.237 -0.2229 -0.3209  0.1374
  726MPD2    C210729   4.240   4.515  10.289  0.4486  0.3401 -0.8750
  726MPD2    C310730   4.127   4.435  10.281  0.6801 -0.2595  0.2094
  726MPD2    C410731   4.133   4.312  10.208 -0.2975 -0.4179 -0.1395
  726MPD2    C510732   4.257   4.274  10.166 -0.3627  0.8784  0.6721
  726MPD2     H10733   4.235   4.612  10.337 -0.6246 -0.8985  1.5055
  726MPD2    H110734   4.056   4.235  10.207  1.6050 -2.2992 -1.0241
  726MPD2    H210735   4.457   4.320  10.119  0.3473 -0.1830  1.2146
  726MPD2    H310736   4.274   4.176  10.122  0.7941  1.6672 -0.6511
  726MPD2     N10737   4.007   4.457  10.348 -0.1551  0.0220  0.0246
  726MPD2    H510738   3.933   4.389  10.339 -1.4125  1.7505 -2.7783
  726MPD2    N110739   4.460   4.573  10.259  0.7695 -0.0558  0.2655
  726MPD2    H710740   4.431   4.659  10.305  1.7834 -0.5910  1.9114
  727TMC3    C110741   4.672   4.690  10.252 -0.2493  0.2135  0.1543
  727TMC3    C210742   0.085   4.677  10.228 -0.4369 -0.3730 -0.0294
  727TMC3    C310743   0.162   0.065  10.252 -0.4536  0.0513 -0.3750
  727TMC3    C410744   4.615   0.074  10.314 -0.1717  0.2926 -0.1240
  727TMC3    C510745   4.695   0.184  10.338  0.1513 -0.0567 -0.0231
  727TMC3    C610746   0.108   0.184  10.301 -0.1707 -1.2422 -1.1061
  727TMC3     C10747   4.594   4.562  10.234  0.3896 -0.0413  0.3787
  727TMC3     O10748   4.653   4.458  10.201 -0.7393 -0.3863  0.3576
  727TMC3     H10749   0.124   4.578  10.207  1.5644  0.9644 -2.5918
  727TMC3    H110750   4.516   0.072  10.358 -0.7910  2.6222 -1.3633
  727TMC3    H210751   0.160   0.279  10.291 -3.5101  0.8861  1.6609
  727TMC3    C710752   4.618   0.307  10.342 -0.1145  0.1530 -0.4547
  727TMC3    C810753   0.305   0.050  10.253  0.6146  0.0330 -0.3799
  727TMC3    O110754   4.500   0.302  10.307 -0.0447 -0.1176 -0.6647
  727TMC3    O210755   0.353   4.658  10.229 -0.5168 -1.2233  0.3182
  728TMC3    C110756   3.802   3.477  15.350 -0.4251 -0.6325 -0.5323
  728TMC3    C210757   3.938   3.505  15.367  0.6467 -0.9190  0.2707
  728TMC3    C310758   3.993   3.573  15.261  0.4940  0.4943 -0.2095
  728TMC3    C410759   3.725   3.484  15.242 -0.9893  0.0573 -0.8662
  728TMC3    C510760   3.786   3.553  15.145  0.3037 -0.0368 -0.4818
  728TMC3    C610761   3.918   3.605  15.150 -0.1857  0.2937 -0.0748
  728TMC3     C10762   3.740   3.442  15.475  0.5982 -0.1746  0.2877
  728TMC3     O10763   3.803   3.477  15.576  0.3007  0.1897  0.6784
  728TMC3     H10764   3.986   3.494  15.464 -0.7248  0.0918  1.0841
  728TMC3    H110765   3.618   3.465  15.237 -0.6721 -1.9640 -0.1715
  728TMC3    H210766   3.961   3.662  15.069  1.8651  0.3617  1.0597
  728TMC3    C710767   3.696   3.569  15.027  0.4885 -0.6426 -0.1494
  728TMC3    C810768   4.134   3.602  15.254  0.0070  0.2786 -0.4962
  728TMC3    O110769   3.615   3.476  15.010 -0.0627 -0.2662  0.4212
  728TMC3    O210770   4.167   3.710  15.210 -0.1647  0.0413  0.6948
  729MPD2     C10771   1.366   4.328  16.829  0.2027 -0.1704 -0.5250
  729MPD2    C110772   1.293   4.429  16.770  0.4902  0.6767  0.1782
  729MPD2    C210773   1.189   4.490  16.841 -0.2455 -0.1450  0.0576
  729MPD2    C310774   1.150   4.441  16.968 -0.2380 -0.2099  0.0749
  729MPD2    C410775   1.229   4.340  17.025 -0.1342  0.3720  0.1764
  729MPD2    C510776   1.333   4.285  16.958 -0.4965 -0.3300 -0.6919
  729MPD2     H10777   1.129   4.565  16.790 -0.6550 -0.1088  0.5953
  729MPD2    H110778   1.219   4.304  17.127  0.2675 -0.0546  0.0681
  729MPD2    H210779   1.453   4.288  16.780 -0.3128 -2.8486  0.7098
  729MPD2    H310780   1.379   4.199  17.005  2.3427  2.6490  1.9924
  729MPD2     N10781   1.038   4.480  17.042 -0.2416  0.6085  0.3622
  729MPD2    H510782   1.022   4.435  17.131  0.3827  3.7200  2.0329
  729MPD2    N110783   1.345   4.473  16.649  0.1713 -0.0969  0.0066
  729MPD2    H710784   1.423   4.425  16.605  1.9349  0.0326  2.9826
  730TMC3    C110785   0.895   4.623  17.132  0.2699  0.2356  0.3043
  730TMC3    C210786   0.930   4.547  17.240 -0.0203  0.0719 -0.9165
  730TMC3    C310787   1.012   4.610  17.331  0.8965  0.0405  0.1250
  730TMC3    C410788   0.919   0.040  17.146  0.2215 -0.1368  0.5885
  730TMC3    C510789   0.994   0.093  17.244 -0.2543  0.4065  0.2213
  730TMC3    C610790   1.045   0.023  17.347  0.6747 -0.0556 -0.5083
  730TMC3     C10791   0.948   4.573  17.012  0.0152  0.3669 -0.3323
  730TMC3     O10792   0.955   4.652  16.918  0.2693 -0.2522 -0.6555
  730TMC3     H10793   0.912   4.440  17.246  1.9779 -0.1719  0.7108
  730TMC3    H110794   0.890   0.102  17.061 -2.4819 -0.3576  1.3630
  730TMC3    H210795   1.114   0.057  17.423 -0.8913  0.9497  0.4555
  730TMC3    C710796   1.042   0.231  17.220 -0.3507  0.1740  0.5736
  730TMC3    C810797   1.095   4.514  17.389 -0.7080 -0.0688 -0.5751
  730TMC3    O110798   1.049   0.265  17.101 -0.4886  0.0291 -0.2334
  730TMC3    O210799   1.055   4.401  17.406  0.3757  0.3771 -0.1658
  731MPD2     C10800   0.916   2.999  11.968 -0.1514  0.2063  0.7686
  731MPD2    C110801   0.888   2.864  11.953 -0.0499  0.0439  0.1231
  731MPD2    C210802   0.860   2.784  12.056  0.3407 -0.8822  0.3295
  731MPD2    C310803   0.847   2.841  12.186  0.9282 -0.1450  0.4035
  731MPD2    C410804   0.878   2.974  12.204  0.6075  0.0632  0.0553
  731MPD2    C510805   0.914   3.049  12.094 -0.8070 -0.2980 -0.5118
  731MPD2     H10806   0.838   2.680  12.034 -1.0373 -0.3632 -0.7262
  731MPD2    H110807   0.883   3.026  12.299  0.9196 -0.0685  0.1133
  731MPD2    H210808   0.939   3.070  11.890  0.8000 -0.8042  0.1299
  731MPD2    H310809   0.938   3.153  12.114 -0.0102 -0.8541  1.3993
  731MPD2     N10810   0.803   2.764  12.295  0.2934  0.1499  0.0490
  731MPD2    H510811   0.792   2.665  12.276  0.9377 -0.2466  1.6893
  731MPD2    N110812   0.890   2.804  11.820 -0.4227  0.0211 -0.0440
  731MPD2    H710813   0.859   2.708  11.810  0.9623 -0.4838  0.6138
  732TMC3    C110814   0.947   2.768  11.606  0.8064 -0.1862 -0.2141
  732TMC3    C210815   0.857   2.664  11.604 -0.2674  0.2336  0.0066
  732TMC3    C310816   0.884   2.568  11.509  0.4464  0.4547 -0.6025
  732TMC3    C410817   1.057   2.771  11.530 -0.3123 -0.0143  0.2045
  732TMC3    C510818   1.081   2.669  11.439 -0.3751 -0.6211  0.0593
  732TMC3    C610819   0.992   2.570  11.427  0.2892 -0.1289 -0.0797
  732TMC3     C10820   0.932   2.871  11.707  0.7827 -0.1163  0.1743
  732TMC3     O10821   0.978   2.979  11.678  0.0813 -0.2026 -0.1008
  732TMC3     H10822   0.763   2.679  11.655  0.2985 -1.7404  1.6362
  732TMC3    H110823   1.131   2.848  11.547 -1.3066  1.1077 -0.5917
  732TMC3    H210824   1.020   2.485  11.367  3.4621 -1.1908  2.9017
  732TMC3    C710825   1.219   2.642  11.440 -0.5003 -0.1675  1.1225
  732TMC3    C810826   0.790   2.459  11.494 -0.0269  0.1453  0.1791
  732TMC3    O110827   1.293   2.734  11.404  0.1557  0.2457  0.3370
  732TMC3    O210828   0.795   2.392  11.397  0.1278 -0.6096 -0.2783
  733TMC3    C110829   1.736   0.956  12.750  0.5408  0.0024 -0.1720
  733TMC3    C210830   1.802   0.883  12.846  0.6060 -0.3481  0.6744
  733TMC3    C310831   1.935   0.881  12.824  0.6312 -0.5867  0.2687
  733TMC3    C410832   1.792   1.024  12.653  0.9529  0.2168 -0.7885
  733TMC3    C510833   1.922   1.010  12.640  0.0614  0.2574 -0.5973
  733TMC3    C610834   2.001   0.942  12.722  0.6443 -0.4506 -0.3110
  733TMC3     C10835   1.593   0.976  12.770 -0.1240 -0.4195 -0.4531
  733TMC3     O10836   1.546   1.085  12.734  0.0691 -0.1430 -0.1837
  733TMC3     H10837   1.763   0.839  12.937  0.0384  0.8336  0.9947
  733TMC3    H110838   1.732   1.067  12.574  0.8054  2.0293  0.3087
  733TMC3    H210839   2.108   0.958  12.729  0.6903 -0.2326 -1.5248
  733TMC3    C710840   1.977   1.076  12.527  0.4032 -0.5149  0.0146
  733TMC3    C810841   2.018   0.828  12.932 -1.2719 -0.1822  0.2215
  733TMC3    O110842   1.924   1.172  12.473 -0.3490  0.0777  0.2416
  733TMC3    O210843   1.959   0.799  13.037  0.2256 -0.0142  0.0090
  734MPD2     C10844   3.813   3.675  12.421  0.3977  0.4742  0.0884
  734MPD2    C110845   3.866   3.555  12.378  0.0017  0.1588  1.0731
  734MPD2    C210846   3.921   3.551  12.260 -0.1281 -1.2409  0.1308
  734MPD2    C310847   3.911   3.652  12.169  0.0950  0.0619 -0.1300
  734MPD2    C410848   3.854   3.775  12.206 -0.5615  0.6070  0.4638
  734MPD2    C510849   3.807   3.783  12.339 -0.4137 -0.3074  0.1754
  734MPD2     H10850   3.971   3.457  12.236 -0.4506 -1.5906  0.8259
  734MPD2    H110851   3.832   3.850  12.132  0.2374 -0.0111 -0.3984
  734MPD2    H210852   3.761   3.690  12.515  1.2110 -0.1360  0.6267
  734MPD2    H310853   3.754   3.870  12.376 -0.7867 -0.6581  0.4555
  734MPD2     N10854   3.963   3.626  12.040  0.1698  0.2569 -0.3250
  734MPD2    H510855   4.023   3.544  12.038 -0.7323 -0.4487  1.0665
  734MPD2    N110856   3.874   3.442  12.465  0.0754  0.1823  0.3485
  734MPD2    H710857   3.843   3.459  12.560 -1.9087  1.1023 -0.4524
  735TMC3    C110858   3.931   3.216  12.527  0.1014  0.0607  0.2474
  735TMC3    C210859   3.891   3.094  12.487  0.1383 -0.2977 -0.0790
  735TMC3    C310860   3.967   2.984  12.502 -0.7290 -0.1885 -0.1393
  735TMC3    C410861   4.056   3.233  12.575  0.1852 -0.0246  0.4777
  735TMC3    C510862   4.130   3.119  12.595  0.9359 -0.2136 -0.6386
  735TMC3    C610863   4.080   2.995  12.579  0.9320  0.2064  0.2110
  735TMC3     C10864   3.896   3.313  12.426 -0.5966 -0.4476 -0.2910
  735TMC3     O10865   3.890   3.270  12.312 -0.2501 -0.4934 -0.3498
  735TMC3     H10866   3.803   3.089  12.424  0.5407 -0.6845 -0.6148
  735TMC3    H110867   4.090   3.335  12.585 -2.7685  0.7188  2.9781
  735TMC3    H210868   4.143   2.907  12.592  0.5507 -0.1544 -0.4253
  735TMC3    C710869   4.271   3.141  12.570 -0.0567  0.3486 -0.7756
  735TMC3    C810870   3.993   2.923  12.369 -0.1769 -0.3744 -1.0638
  735TMC3    O110871   4.304   3.213  12.478  0.3998 -0.4123  0.1233
  735TMC3    O210872   4.024   2.807  12.367 -0.4431  0.2569  0.3375
  736MPD2     C10873   4.550   2.930  12.699  0.7213  0.0323  0.8547
  736MPD2    C110874   4.485   3.007  12.611 -0.6842 -0.4168 -0.4265
  736MPD2    C210875   4.540   3.033  12.485  0.7177  0.5114  0.6352
  736MPD2    C310876   4.669   2.993  12.457  0.1541 -0.3710 -0.1554
  736MPD2    C410877   0.021   2.925  12.552 -0.3984  0.3417 -0.2997
  736MPD2    C510878   4.680   2.893  12.667 -0.2130 -0.5427 -0.5953
  736MPD2     H10879   4.485   3.090  12.410  1.0299  1.4142  1.0954
  736MPD2    H110880   0.123   2.896  12.531 -0.3177  1.1245 -1.0012
  736MPD2    H210881   4.505   2.893  12.791  0.4333  0.6040  0.9445
  736MPD2    H310882   0.007   2.833  12.744 -2.5036 -2.2820 -0.5280
  736MPD2     N10883   0.014   3.003  12.330  0.5153 -0.5987 -0.1574
  736MPD2    H510884   0.101   2.953  12.315  0.5386 -0.6496  0.1476
  736MPD2    N110885   4.347   3.047  12.638  0.3432 -0.5070 -0.0431
  736MPD2    H710886   4.312   3.025  12.731  2.4407  1.1725  1.1627
  737TMC3    C110887   0.042   3.056  12.100 -0.5288  0.0281 -0.0607
  737TMC3    C210888   0.092   3.165  12.033 -0.6822  0.0712  0.7083
  737TMC3    C310889   0.170   3.130  11.932 -0.0269  0.2299  0.2281
  737TMC3    C410890   0.058   2.929  12.065  0.7014 -0.2934 -0.8151
  737TMC3    C510891   0.135   2.902  11.961  0.1285  0.1602 -0.5565
  737TMC3    C610892   0.197   3.000  11.891 -0.0071 -0.3000 -0.0214
  737TMC3     C10893   4.694   3.082  12.226  0.4681  0.2149  0.4712
  737TMC3     O10894   4.651   3.195  12.241 -0.2362  0.4030 -0.8813
  737TMC3     H10895   0.089   3.264  12.078  3.0854  0.1122  0.8224
  737TMC3    H110896   0.006   2.850  12.118  1.8979 -0.2513  0.4272
  737TMC3    H210897   0.249   2.986  11.797  1.0378  0.6238  0.4082
  737TMC3    C710898   0.112   2.766  11.908  0.4660  0.4987  0.2536
  737TMC3    C810899   0.219   3.246  11.863  0.3720 -0.1682 -0.1757
  737TMC3    O110900   0.048   2.676  11.968  0.0692 -0.5792  0.1110
  737TMC3    O210901   0.261   3.348  11.915  0.7266 -0.5449 -0.3021
  738MPD2     C10902   0.863   0.778  15.320  0.1219  1.0007  0.2165
  738MPD2    C110903   0.765   0.793  15.219  0.1273  0.4634  0.8351
  738MPD2    C210904   0.818   0.828  15.096  0.0973 -0.6625 -0.2411
  738MPD2    C310905   0.952   0.845  15.067  0.0692  0.1363 -0.2745
  738MPD2    C410906   1.036   0.833  15.172 -0.1235  0.2823 -0.9499
  738MPD2    C510907   0.988   0.801  15.290 -0.7143  0.9443 -0.5628
  738MPD2     H10908   0.747   0.860  15.020  1.7303  1.6535 -0.8011
  738MPD2    H110909   1.139   0.865  15.167  0.2414 -0.6224  0.8186
  738MPD2    H210910   0.842   0.750  15.423  1.0198 -1.7238 -0.3489
  738MPD2    H310911   1.051   0.800  15.378 -0.7464 -0.8193 -0.5534
  738MPD2     N10912   1.014   0.894  14.947 -0.2826 -0.2466  0.5783
  738MPD2    H510913   1.107   0.930  14.963 -0.8835  1.4969  0.1365
  738MPD2    N110914   0.626   0.793  15.240  0.6342  0.6491  0.6774
  738MPD2    H710915   0.566   0.802  15.158 -1.6075  0.2424  2.2807
  739TMC3    C110916   1.017   0.969  14.717 -0.6867 -0.0750  0.2369
  739TMC3    C210917   0.945   1.008  14.609  0.5265 -0.4115  0.4964
  739TMC3    C310918   1.015   1.039  14.495  0.8497 -0.4908  0.6205
  739TMC3    C410919   1.155   0.952  14.709 -0.2324  0.4748 -0.3318
  739TMC3    C510920   1.216   0.987  14.592  0.0043 -0.8847  0.0027
  739TMC3    C610921   1.151   1.044  14.484 -0.0453 -0.5534  0.2506
  739TMC3     C10922   0.942   0.922  14.833  0.4757  0.5198 -0.0229
  739TMC3     O10923   0.823   0.942  14.821  0.2466  0.1092 -0.5885
  739TMC3     H10924   0.836   1.004  14.609  0.4547  1.8838 -2.0922
  739TMC3    H110925   1.206   0.935  14.803 -1.1913  4.4689  0.8977
  739TMC3    H210926   1.206   1.084  14.400 -4.0618  0.5349 -1.8071
  739TMC3    C710927   1.363   0.999  14.594  0.6111  0.5774  1.0558
  739TMC3    C810928   0.933   1.104  14.397 -0.2245  0.4115 -0.0134
  739TMC3    O110929   1.415   1.020  14.705  0.6544  0.0456 -0.6345
  739TMC3    O210930   0.824   1.140  14.437 -0.1601  0.5078 -0.2405
  740TMC3    C110931   1.206   3.063  14.445  0.1971 -0.2507 -0.2907
  740TMC3    C210932   1.245   2.985  14.544  0.4801  0.1859  0.5210
  740TMC3    C310933   1.371   2.942  14.539  0.1503 -1.0765  0.1951
  740TMC3    C410934   1.292   3.099  14.339  0.2329 -0.0680 -0.0890
  740TMC3    C510935   1.416   3.038  14.332  0.4681  0.6220  0.3253
  740TMC3    C610936   1.459   2.960  14.434  0.2397  0.7041 -0.6699
  740TMC3     C10937   1.123   3.181  14.487 -0.2785  0.3779 -0.2789
  740TMC3     O10938   1.169   3.293  14.454  0.4513  0.5472 -0.6223
  740TMC3     H10939   1.172   2.965  14.621 -0.2490 -0.2329 -0.2857
  740TMC3    H110940   1.265   3.155  14.250 -1.4516  0.2534  0.6275
  740TMC3    H210941   1.559   2.917  14.432 -0.6755 -1.4102 -0.0796
  740TMC3    C710942   1.503   3.051  14.218 -0.0542 -0.0273  0.4639
  740TMC3    C810943   1.435   2.942  14.670  0.0142  0.5743 -0.3072
  740TMC3    O110944   1.622   3.035  14.236  0.0429 -0.4797  0.0618
  740TMC3    O210945   1.534   2.872  14.671  0.5827 -0.2057  0.4898
  741TMC3    C110946   0.724   2.158  15.362 -0.1227 -0.2398 -0.4695
  741TMC3    C210947   0.616   2.085  15.410  0.3214 -0.0106 -0.0377
  741TMC3    C310948   0.523   2.161  15.479 -0.3367 -0.1649  0.1378
  741TMC3    C410949   0.742   2.293  15.383 -0.7068 -0.1804  0.2931
  741TMC3    C510950   0.644   2.364  15.459 -0.1180 -0.4817  0.2464
  741TMC3    C610951   0.538   2.295  15.510 -0.0089 -0.2182 -0.2852
  741TMC3     C10952   0.839   2.077  15.333  0.4211 -0.1227  0.9288
  741TMC3     O10953   0.843   1.970  15.395 -0.2245  0.6175  0.5826
  741TMC3     H10954   0.616   1.977  15.402  0.8346 -0.0387  0.3451
  741TMC3    H110955   0.831   2.346  15.351 -0.7781 -2.1124 -3.0844
  741TMC3    H210956   0.455   2.341  15.561  1.3959  3.5806 -1.4206
  741TMC3    C710957   0.665   2.504  15.471 -0.1533 -0.4987 -0.0213
  741TMC3    C810958   0.388   2.113  15.492  0.0060 -0.4648  0.2090
  741TMC3    O110959   0.741   2.557  15.391  0.3277  0.2116  0.0653
  741TMC3    O210960   0.315   2.162  15.575  0.4703 -0.0226 -0.0407
  742TMC3    C110961   0.001   0.451  15.555 -0.5735  0.1544 -0.3060
  742TMC3    C210962   4.635   0.427  15.449 -0.2230  0.2008  0.5652
  742TMC3    C310963   4.688   0.411  15.323  0.1010 -0.2116 -0.1578
  742TMC3    C410964   0.137   0.414  15.540 -0.5735  0.5524  0.1785
  742TMC3    C510965   0.185   0.396  15.416 -0.3144 -0.0069 -0.1820
  742TMC3    C610966   0.104   0.397  15.307 -0.1777  0.2341  0.4800
  742TMC3     C10967   4.666   0.420  15.684 -0.7489 -0.0115 -0.2938
  742TMC3     O10968   4.562   0.353  15.683  0.2652 -0.3641 -0.3793
  742TMC3     H10969   4.534   0.467  15.457 -0.0047  0.7977  0.3489
  742TMC3    H110970   0.201   0.402  15.626  0.0865  2.3754 -0.0511
  742TMC3    H210971   0.140   0.385  15.206  0.0232  0.6121  0.5089
  742TMC3    C710972   0.325   0.410  15.394  0.4581 -0.1298  0.2686
  742TMC3    C810973   4.610   0.406  15.200 -0.0083  0.4775  0.2237
  742TMC3    O110974   0.357   0.414  15.275 -0.2122  0.2406 -0.0988
  742TMC3    O210975   4.671   0.345  15.115 -0.1334 -0.2336  0.8863
  743MPD2     C10976   3.075   1.958   1.871 -0.3814  1.0735 -0.2183
  743MPD2    C110977   3.148   1.899   1.774 -0.2288  0.1105  0.0235
  743MPD2    C210978   3.287   1.912   1.767  0.2528  0.0485 -0.2587
  743MPD2    C310979   3.348   1.987   1.866 -0.0256  0.8572  0.0968
  743MPD2    C410980   3.273   2.056   1.962  0.3576 -0.2349  0.5411
  743MPD2    C510981   3.136   2.032   1.966  0.1084 -0.9603 -1.2423
  743MPD2     H10982   3.355   1.873   1.691 -0.2788 -1.6320  0.1414
  743MPD2    H110983   3.316   2.118   2.040  3.0667 -1.5455  0.0943
  743MPD2    H210984   2.967   1.951   1.883 -0.2555  2.5393  1.8476
  743MPD2    H310985   3.077   2.075   2.046  2.4360  0.1341 -0.0981
  743MPD2     N10986   3.492   1.997   1.867  0.7553  0.4975 -0.4548
  743MPD2    H510987   3.537   1.947   1.790  2.0718  0.1810  0.5215
  743MPD2    N110988   3.075   1.827   1.678 -0.1568  0.3182  0.6334
  743MPD2    H710989   2.975   1.822   1.694 -0.7469 -0.5803 -3.4238
  744TMC3    C110990   3.018   1.702   1.488  0.1114 -0.0094 -1.3951
  744TMC3    C210991   2.889   1.747   1.500  0.1475 -0.5550  0.6387
  744TMC3    C310992   2.802   1.695   1.410 -0.0930 -0.6857  0.0127
  744TMC3    C410993   3.055   1.611   1.391 -0.4518 -0.7329  0.1449
  744TMC3    C510994   2.964   1.555   1.309  0.0478  0.1869  0.0869
  744TMC3    C610995   2.837   1.603   1.318 -0.0597 -0.1971 -1.0672
  744TMC3     C10996   3.124   1.748   1.579 -0.2762  0.0172 -0.4695
  744TMC3     O10997   3.237   1.729   1.533  0.3347  0.5003  0.2093
  744TMC3     H10998   2.860   1.828   1.566  1.4860 -0.1874  0.7856
  744TMC3    H110999   3.156   1.571   1.388 -0.2567 -0.1172 -1.4033
  744TMC3    H211000   2.763   1.559   1.253 -0.3038 -0.9514 -0.2897
  744TMC3    C711001   3.025   1.535   1.181 -0.4694 -0.3167  0.0184
  744TMC3    C811002   2.660   1.736   1.429 -0.2958 -0.4253  0.1999
  744TMC3    O111003   3.139   1.581   1.161  0.3038 -0.3975 -0.4348
  744TMC3    O211004   2.582   1.697   1.343  0.3653 -0.5735 -0.0534
  745TMC3    C111005   0.357   0.504  13.170  0.2190  1.3166  0.3941
  745TMC3    C211006   0.308   0.502  13.300  0.3523 -0.4903  0.1753
  745TMC3    C311007   0.176   0.546  13.320 -0.4819 -0.8177  0.3956
  745TMC3    C411008   0.285   0.568  13.073 -0.9803  0.4908 -0.3189
  745TMC3    C511009   0.160   0.614  13.095 -0.7402  0.0749 -0.1434
  745TMC3    C611010   0.101   0.605  13.218 -0.5116  0.1868 -0.5721
  745TMC3     C11011   0.495   0.560  13.181  0.1159 -0.1934 -0.1282
  745TMC3     O11012   0.521   0.654  13.107 -0.1428 -0.4247  0.2905
  745TMC3     H11013   0.366   0.467  13.384 -1.3248  1.2124  2.0234
  745TMC3    H111014   0.319   0.570  12.970 -0.3994 -0.3877 -0.1437
  745TMC3    H211015   0.015   0.665  13.246  0.7953  1.1460  1.3769
  745TMC3    C711016   0.097   0.715  13.003 -0.8817 -0.3424 -0.2389
  745TMC3    C811017   0.108   0.527  13.448  0.2810 -0.2856  0.2044
  745TMC3    O111018   4.694   0.729  12.999  0.1801 -0.1119  0.4200
  745TMC3    O211019   0.000   0.580  13.458  0.1034  0.0846  0.9957
  746TMC3    C111020   2.842   2.578  11.133 -0.0602  0.5580 -0.5568
  746TMC3    C211021   2.936   2.605  11.232 -0.0160 -0.3784 -0.1233
  746TMC3    C311022   2.976   2.495  11.311 -0.5513  0.3296 -0.4666
  746TMC3    C411023   2.779   2.453  11.114 -0.1322  0.5149  0.3691
  746TMC3    C511024   2.821   2.355  11.208  0.0467  0.0963 -0.2321
  746TMC3    C611025   2.914   2.373  11.309  0.0967 -0.6309 -0.2659
  746TMC3     C11026   2.793   2.698  11.066  0.0038 -0.3473 -0.1104
  746TMC3     O11027   2.822   2.801  11.129  0.1870  0.6190 -0.2116
  746TMC3     H11028   2.995   2.695  11.227 -0.3504 -0.2167 -1.2752
  746TMC3    H111029   2.693   2.432  11.052  0.5121 -1.3072  0.0855
  746TMC3    H211030   2.952   2.285  11.358  0.6810  0.9291  2.0980
  746TMC3    C711031   2.727   2.249  11.225  0.4402  0.1807  0.9244
  746TMC3    C811032   3.119   2.482  11.308 -0.4806  0.1928 -0.1230
  746TMC3    O111033   2.657   2.228  11.120 -0.4299 -0.7973 -0.1112
  746TMC3    O211034   3.184   2.472  11.410 -0.5929 -0.1749  0.1365
  747TMC3    C111035   0.596   2.664  10.992  0.2840  0.7661 -0.2191
  747TMC3    C211036   0.506   2.584  11.068  0.3310 -0.4731 -0.2195
  747TMC3    C311037   0.505   2.587  11.202  0.2928  0.1074  0.2594
  747TMC3    C411038   0.666   2.766  11.064 -0.9422 -0.3273 -0.2101
  747TMC3    C511039   0.653   2.776  11.202  0.3997  0.0910  0.3503
  747TMC3    C611040   0.580   2.682  11.273 -0.2741 -0.1551  0.2488
  747TMC3     C11041   0.578   2.675  10.847 -0.5401  0.2814  0.2125
  747TMC3     O11042   0.620   2.780  10.800  0.3145  0.0466  0.1307
  747TMC3     H11043   0.436   2.515  11.021  1.2011 -1.0676 -0.6504
  747TMC3    H111044   0.725   2.832  11.002  0.1678 -0.8655  0.2769
  747TMC3    H211045   0.572   2.695  11.380  1.6468 -3.9876  0.8420
  747TMC3    C711046   0.735   2.874  11.276 -0.2113  0.1547 -0.1485
  747TMC3    C811047   0.387   2.531  11.275  0.0160 -0.4810  0.0975
  747TMC3    O111048   0.747   2.851  11.395 -0.4332  0.3297 -0.0375
  747TMC3    O211049   0.340   2.430  11.224 -0.9790  0.0599 -0.2426
  748MPD2     C11050   2.188   4.083   1.825 -0.1846 -0.4265  0.2596
  748MPD2    C111051   2.133   3.987   1.739  0.1816 -0.2588  0.3507
  748MPD2    C211052   2.225   3.898   1.675  0.7130  0.1137 -0.5831
  748MPD2    C311053   2.359   3.908   1.700 -0.2265 -0.1756 -0.8513
  748MPD2    C411054   2.407   4.001   1.786 -0.1507  0.6550  0.4906
  748MPD2    C511055   2.325   4.084   1.853  0.3630  0.5369 -0.1970
  748MPD2     H11056   2.197   3.821   1.604 -0.6558 -0.6170  0.7611
  748MPD2    H111057   2.514   4.009   1.803  0.1174  0.3315 -1.0568
  748MPD2    H211058   2.122   4.155   1.873  1.5192  1.1084  0.2984
  748MPD2    H311059   2.361   4.169   1.910  0.3018  0.8375 -0.5976
  748MPD2     N11060   2.462   3.829   1.647  0.3740  0.3885  0.7953
  748MPD2    H511061   2.557   3.859   1.666  0.0545  0.6576  1.9817
  748MPD2    N111062   1.992   3.981   1.732  0.4708  0.8549 -0.1099
  748MPD2    H711063   1.934   4.052   1.774 -0.3414 -0.6124  1.2539
  749TMC3    C111064   2.563   3.660   1.512  0.6148  1.0073  0.0261
  749TMC3    C211065   2.551   3.525   1.477  0.4429  0.1971  0.6699
  749TMC3    C311066   2.638   3.472   1.387 -0.6906  0.3678  0.0762
  749TMC3    C411067   2.634   3.736   1.432 -0.4007  0.5060  0.6866
  749TMC3    C511068   2.703   3.680   1.322 -1.8999  0.9024 -0.1112
  749TMC3    C611069   2.714   3.544   1.301  0.4076  0.2575  0.0803
  749TMC3     C11070   2.442   3.719   1.562 -0.0558  0.0710 -0.6331
  749TMC3     O11071   2.345   3.647   1.561 -0.1610  0.0185  0.5038
  749TMC3     H11072   2.489   3.466   1.542  0.5256 -2.4691 -1.6667
  749TMC3    H111073   2.619   3.843   1.442 -0.2871  0.5640  0.2093
  749TMC3    H211074   2.777   3.506   1.222 -0.5266 -0.6973 -0.1990
  749TMC3    C711075   2.724   3.771   1.217  0.2859 -1.1533  0.7227
  749TMC3    C811076   2.593   3.338   1.339 -0.3241  0.0093 -0.1335
  749TMC3    O111077   2.738   3.892   1.238 -0.0427  0.1232 -0.5772
  749TMC3    O211078   2.473   3.317   1.333 -0.1619  0.3960 -0.3433
  750MPD2     C11079   2.616   3.877  10.481  0.6778 -0.6383  0.4932
  750MPD2    C111080   2.535   3.791  10.557 -0.2975 -0.3656 -0.2516
  750MPD2    C211081   2.530   3.655  10.520  0.7895 -0.3085  1.2344
  750MPD2    C311082   2.587   3.606  10.407 -0.5865  0.3127 -0.2384
  750MPD2    C411083   2.671   3.685  10.333  0.5421  0.5311  0.2997
  750MPD2    C511084   2.680   3.821  10.371  0.2497 -0.7958 -0.5131
  750MPD2     H11085   2.465   3.585  10.571  0.5679 -0.0944  1.2508
  750MPD2    H111086   2.729   3.651  10.248 -1.4115 -0.7662 -0.4916
  750MPD2    H211087   2.634   3.981  10.507 -2.6495 -0.0603  0.4842
  750MPD2    H311088   2.742   3.888  10.313 -0.3836  0.5437  0.3364
  750MPD2     N11089   2.592   3.468  10.375 -0.0139  0.4013  0.0379
  750MPD2    H511090   2.666   3.439  10.312 -0.9716  0.8774 -1.3208
  750MPD2    N111091   2.481   3.838  10.675  0.2178  0.2498  0.0283
  750MPD2    H711092   2.520   3.928  10.703  1.1631  0.2721 -1.3880
  751TMC3    C111093   2.573   3.232  10.372  0.0279  0.3178  0.1985
  751TMC3    C211094   2.481   3.134  10.341 -0.5318 -0.2346 -0.1511
  751TMC3    C311095   2.530   3.029  10.263  0.0295 -1.0893  0.4701
  751TMC3    C411096   2.711   3.214  10.356 -1.2774 -0.4775  0.5672
  751TMC3    C511097   2.757   3.099  10.299  0.2379  0.5889  0.2287
  751TMC3    C611098   2.668   3.009  10.245 -0.1111  0.0265  0.5958
  751TMC3     C11099   2.513   3.358  10.420 -0.9765  0.1236  0.0996
  751TMC3     O11100   2.401   3.367  10.464  0.4087 -0.3628  0.5091
  751TMC3     H11101   2.379   3.167  10.359 -0.4799  0.4212 -1.0421
  751TMC3    H111102   2.787   3.287  10.382 -0.3239 -0.5789 -1.9768
  751TMC3    H211103   2.706   2.912  10.215 -0.3835  0.0307  0.2360
  751TMC3    C711104   2.894   3.104  10.266  0.6199  0.7755 -0.3755
  751TMC3    C811105   2.462   2.909  10.273  0.0852 -0.0167  0.0294
  751TMC3    O111106   2.964   3.174  10.341 -0.2539 -0.2062  0.9606
  751TMC3    O211107   2.533   2.805  10.268  0.8535 -0.4736 -0.1597
  752TMC3    C111108   2.039   3.993  16.708  0.3537  0.6607 -0.0535
  752TMC3    C211109   2.179   3.992  16.684  0.1448  0.1421 -0.0012
  752TMC3    C311110   2.250   3.899  16.741  0.1929 -0.4383 -0.4763
  752TMC3    C411111   1.985   3.919  16.809  0.5356  0.0323 -0.5425
  752TMC3    C511112   2.064   3.824  16.874  0.1301  0.0311 -0.0431
  752TMC3    C611113   2.193   3.809  16.834  0.2363  0.1400  0.0617
  752TMC3     C11114   1.960   4.082  16.623  0.4270 -0.6530  0.2031
  752TMC3     O11115   1.847   4.110  16.671 -0.8102  0.0380  0.3047
  752TMC3     H11116   2.229   4.071  16.629 -0.4407  1.0576  0.7776
  752TMC3    H111117   1.879   3.927  16.831  0.4834 -1.8270 -0.1488
  752TMC3    H211118   2.253   3.731  16.879 -0.1426  0.5523  1.2581
  752TMC3    C711119   2.003   3.713  16.944  0.4432 -0.0542  0.3051
  752TMC3    C811120   2.381   3.864  16.680 -0.3580  0.2815 -0.5294
  752TMC3    O111121   2.054   3.606  16.923 -0.0142 -0.1047 -0.1930
  752TMC3    O211122   2.415   3.922  16.576 -0.0313 -0.1738 -0.1981
  753TMC3    C111123   3.975   0.673  13.479  0.1049  0.3292 -0.1033
  753TMC3    C211124   3.943   0.659  13.614 -0.3067 -0.3328 -0.3036
  753TMC3    C311125   3.911   0.530  13.659 -0.4410 -0.4440  0.0681
  753TMC3    C411126   3.950   0.567  13.393 -0.0081  0.1570  0.2765
  753TMC3    C511127   3.907   0.450  13.442  0.9567  0.2560 -0.2721
  753TMC3    C611128   3.892   0.429  13.573 -0.2327 -0.8136  0.8575
  753TMC3     C11129   3.969   0.808  13.430  0.5791 -0.4218  1.2026
  753TMC3     O11130   3.995   0.893  13.515  0.0841  0.0291 -0.2439
  753TMC3     H11131   3.939   0.740  13.686  4.2509 -0.7921  0.4936
  753TMC3    H111132   3.956   0.578  13.286  3.0575 -2.4720  0.1815
  753TMC3    H211133   3.866   0.329  13.608  1.5495 -1.2661  0.8834
  753TMC3    C711134   3.827   0.369  13.349  0.4372  0.4425 -0.4479
  753TMC3    C811135   3.888   0.503  13.799  1.1768 -0.0502 -0.2442
  753TMC3    O111136   3.847   0.393  13.230  0.1085 -0.5568 -0.8972
  753TMC3    O211137   3.846   0.392  13.820 -0.1521  0.8740 -0.9426
  754MPD2     C11138   2.534   3.613  12.598 -0.1065  0.9320 -0.6581
  754MPD2    C111139   2.505   3.505  12.675 -0.1666  0.5396  0.4418
  754MPD2    C211140   2.407   3.514  12.774  0.1957 -0.3781 -0.8228
  754MPD2    C311141   2.366   3.643  12.810 -0.4188 -0.5446  0.2859
  754MPD2    C411142   2.399   3.751  12.736  0.1540 -0.0594 -0.1638
  754MPD2    C511143   2.482   3.739  12.623 -0.0009  0.0622  0.0506
  754MPD2     H11144   2.375   3.430  12.834  0.7775 -0.8724 -1.1984
  754MPD2    H111145   2.378   3.855  12.758 -0.6945 -0.4565  0.9324
  754MPD2    H211146   2.595   3.615  12.508  0.3126 -1.6885 -0.4217
  754MPD2    H311147   2.507   3.825  12.562  1.6375 -0.7219 -0.3736
  754MPD2     N11148   2.275   3.667  12.913  0.1899  0.5045 -0.3762
  754MPD2    H511149   2.243   3.763  12.920 -0.5252 -0.0515  3.6735
  754MPD2    N111150   2.571   3.387  12.629 -0.1434  0.3133 -0.1224
  754MPD2    H711151   2.635   3.397  12.550  0.6606 -1.5484  0.2976
  755MPD2     C11152   1.715   4.406  13.006 -0.2537 -1.0820 -0.5661
  755MPD2    C111153   1.803   4.366  13.118 -0.3471 -0.0164 -0.0326
  755MPD2    C211154   1.851   4.238  13.117  0.5544 -0.4624 -0.1325
  755MPD2    C311155   1.823   4.148  13.021 -0.3651 -0.3069 -0.2285
  755MPD2    C411156   1.733   4.179  12.922 -0.4636 -0.1924 -0.2302
  755MPD2    C511157   1.687   4.309  12.919  0.3011 -0.4083 -0.4825
  755MPD2     H11158   1.896   4.200  13.207  1.7044  1.8250  0.2337
  755MPD2    H111159   1.704   4.103  12.851  1.8441 -0.8006 -0.5003
  755MPD2    H211160   1.677   4.506  12.987  1.1895 -0.6385 -1.1154
  755MPD2    H311161   1.617   4.322  12.837 -0.2312 -2.1258 -0.3043
  755MPD2     N11162   1.871   4.015  13.034  0.2020  0.6811  0.2450
  755MPD2    H511163   1.825   3.945  12.977  2.4820 -0.5291 -0.0868
  755MPD2    N111164   1.826   4.444  13.238 -0.3601  0.4286 -0.6035
  755MPD2    H711165   1.859   4.394  13.320 -0.5935  2.2997  0.6366
  756MPD2     C11166   3.495   4.336   8.976 -0.3105  0.8726 -0.7006
  756MPD2    C111167   3.424   4.326   9.098  0.3240  0.4382  0.2700
  756MPD2    C211168   3.332   4.222   9.120 -0.0992  0.8702  0.0879
  756MPD2    C311169   3.309   4.129   9.022 -0.4023  0.4860 -0.4105
  756MPD2    C411170   3.367   4.145   8.897 -0.7706 -0.4918 -0.2850
  756MPD2    C511171   3.457   4.243   8.877 -0.8214 -0.1394  0.2329
  756MPD2     H11172   3.282   4.210   9.215 -0.2237 -0.0115 -0.0939
  756MPD2    H111173   3.344   4.086   8.809 -3.2751 -1.1758  0.8525
  756MPD2    H211174   3.579   4.402   8.957 -1.5682  2.1679 -1.6883
  756MPD2    H311175   3.511   4.248   8.783 -2.1467  0.6426 -0.4885
  756MPD2     N11176   3.215   4.029   9.055  0.4972  0.3111 -0.2681
  756MPD2    H511177   3.194   4.018   9.153 -1.7667  2.9448 -0.4642
  756MPD2    N111178   3.460   4.401   9.208  0.4900 -0.7690  1.0340
  756MPD2    H711179   3.405   4.375   9.289  2.2422  0.3758  2.5735
  757MPD2     C11180   2.562   3.163   8.862  0.0537  0.8665  0.1912
  757MPD2    C111181   2.519   3.228   8.976  0.2570  0.0099  0.2613
  757MPD2    C211182   2.594   3.335   9.023 -0.3264  0.6306 -0.3821
  757MPD2    C311183   2.723   3.365   8.970  0.2542  0.1030  0.4615
  757MPD2    C411184   2.755   3.300   8.854  0.6119 -0.5480 -0.9346
  757MPD2    C511185   2.666   3.211   8.795  0.3202 -0.0411  0.3415
  757MPD2     H11186   2.551   3.407   9.091 -0.4401  0.5711 -0.3902
  757MPD2    H111187   2.844   3.327   8.798  0.5985 -0.6345 -0.9966
  757MPD2    H211188   2.509   3.083   8.812  1.3709 -0.4464  0.9048
  757MPD2    H311189   2.696   3.153   8.709 -1.0800  0.9594 -0.8317
  757MPD2     N11190   2.791   3.472   9.023  0.4422  0.1438  0.1118
  757MPD2    H511191   2.765   3.509   9.114 -0.3235 -0.7316  0.2461
  757MPD2    N111192   2.386   3.197   9.021  0.4364  0.3625  0.3182
  757MPD2    H711193   2.328   3.138   8.962 -2.7882  2.1345  1.7440
  758MPD2     C11194   2.764   3.930  16.023  0.4289 -0.2162 -0.4490
  758MPD2    C111195   2.829   3.868  16.128 -0.0948  0.2324  0.1728
  758MPD2    C211196   2.813   3.901  16.262 -0.5603  0.6538  0.4046
  758MPD2    C311197   2.736   4.015  16.291 -0.3177  0.5865 -0.7013
  758MPD2    C411198   2.670   4.079  16.183  0.1592 -0.9777 -0.0875
  758MPD2    C511199   2.682   4.034  16.055  0.5887 -0.8648  0.4859
  758MPD2     H11200   2.851   3.844  16.346  1.7360  1.0503 -0.3628
  758MPD2    H111201   2.610   4.165  16.208  1.7870  0.1498 -0.0619
  758MPD2    H211202   2.775   3.898  15.920 -0.4948 -0.7152 -0.3903
  758MPD2    H311203   2.632   4.093  15.979 -1.0758 -0.1512  2.1305
  758MPD2     N11204   2.714   4.061  16.418 -0.4050  0.5232 -0.4313
  758MPD2    H511205   2.632   4.121  16.429 -2.9724 -2.9021 -0.7542
  758MPD2    N111206   2.902   3.760  16.083 -0.1152 -0.4336  0.7899
  758MPD2    H711207   2.901   3.739  15.983 -2.0708 -2.2408  1.1856
  759MPD2     C11208   2.064   1.863  10.147  0.9697 -0.5527 -0.0807
  759MPD2    C111209   1.936   1.855  10.093 -0.0985 -0.4571 -0.1249
  759MPD2    C211210   1.897   1.945   9.995 -0.3974  0.4324  0.4967
  759MPD2    C311211   1.985   2.041   9.947 -0.3185  0.1663  0.4585
  759MPD2    C411212   2.118   2.044  10.004 -0.1041  0.5055 -0.0712
  759MPD2    C511213   2.156   1.956  10.105  0.1579 -0.9904  0.2798
  759MPD2     H11214   1.798   1.958   9.951  0.1904  2.7955 -0.1077
  759MPD2    H111215   2.186   2.128   9.995 -1.3282  1.2844 -1.9169
  759MPD2    H211216   2.102   1.800  10.227  0.7564 -0.0583  0.4128
  759MPD2    H311217   2.254   1.961  10.150 -0.3133  0.2457  1.1596
  759MPD2     N11218   1.951   2.127   9.844 -0.0662  0.5927  0.3880
  759MPD2    H511219   1.857   2.120   9.806  0.7755 -1.1588 -1.3678
  759MPD2    N111220   1.847   1.754  10.125 -0.5099 -0.2255  0.4719
  759MPD2    H711221   1.763   1.745  10.069  1.3567  0.3792 -2.4326
  760MPD2     C11222   1.379   4.466  11.428  0.3744  0.1011 -0.2368
  760MPD2    C111223   1.498   4.481  11.490 -0.0438  0.2666 -0.1905
  760MPD2    C211224   1.525   4.396  11.596  0.1629  0.8619  0.1084
  760MPD2    C311225   1.429   4.312  11.647 -0.1011 -0.3319  0.1351
  760MPD2    C411226   1.302   4.310  11.592 -0.1271  0.5600  0.0759
  760MPD2    C511227   1.282   4.381  11.476 -0.9831 -0.2821 -0.8662
  760MPD2     H11228   1.623   4.399  11.644  0.7757 -0.0677 -1.0900
  760MPD2    H111229   1.221   4.249  11.629 -0.8253  1.0860 -0.5734
  760MPD2    H211230   1.351   4.530  11.346 -0.4604 -1.2507 -1.0117
  760MPD2    H311231   1.182   4.384  11.435 -1.3849  3.4703  0.3362
  760MPD2     N11232   1.447   4.233  11.761  0.7816  0.1675 -0.4478
  760MPD2    H511233   1.368   4.176  11.790  0.1258  1.1216 -0.3818
  760MPD2    N111234   1.591   4.582  11.455  0.5411 -0.2811 -0.1931
  760MPD2    H711235   1.666   4.602  11.520 -1.1121  1.8115  1.0499
  761MPD2     C11236   2.038   2.674  10.432  0.1678 -0.5209 -0.1897
  761MPD2    C111237   2.164   2.627  10.426  0.0437  0.7330  0.4873
  761MPD2    C211238   2.265   2.709  10.387  0.4235  0.4449 -0.8391
  761MPD2    C311239   2.232   2.838  10.345  0.1154 -0.4060 -0.2593
  761MPD2    C411240   2.101   2.886  10.343 -0.3066 -0.7662 -0.0590
  761MPD2    C511241   2.007   2.802  10.403 -0.3212 -0.0106  0.5286
  761MPD2     H11242   2.369   2.682  10.397  0.1975 -0.0909  0.1014
  761MPD2    H111243   2.073   2.986  10.314  3.3452 -0.3568 -2.2171
  761MPD2    H211244   1.965   2.613  10.484  1.7199  0.6091  3.3255
  761MPD2    H311245   1.907   2.842  10.414 -0.3757  0.4350 -1.5812
  761MPD2     N11246   2.327   2.931  10.297 -0.3483  0.0812  0.0116
  761MPD2    H511247   2.287   3.013  10.253 -1.6392 -0.6464 -0.1830
  761MPD2    N111248   2.188   2.511  10.503  0.6330 -0.6514 -0.3534
  761MPD2    H711249   2.114   2.459  10.550  0.9222  0.8753  1.7438
  762MPD2     C11250   2.732   2.495  10.350 -0.8271 -0.2076 -0.1104
  762MPD2    C111251   2.766   2.455  10.475  0.0874 -0.3790  0.0288
  762MPD2    C211252   2.898   2.440  10.505  0.9831  0.0157 -0.5935
  762MPD2    C311253   2.996   2.466  10.406 -0.4384  0.3606 -0.2996
  762MPD2    C411254   2.958   2.513  10.282  0.3222  0.2973  0.0169
  762MPD2    C511255   2.827   2.523  10.256  0.5807  0.0422 -0.3352
  762MPD2     H11256   2.928   2.397  10.600  2.8655 -0.1798 -1.2819
  762MPD2    H111257   3.030   2.528  10.201 -1.1936  0.8111 -1.2319
  762MPD2    H211258   2.628   2.503  10.320 -1.4761  0.8636  2.3834
  762MPD2    H311259   2.783   2.559  10.164 -0.8956  4.2340  1.9701
  762MPD2     N11260   3.132   2.445  10.443  0.5028  0.1094 -0.5223
  762MPD2    H511261   3.151   2.423  10.540 -0.0575 -1.5029 -0.7775
  762MPD2    N111262   2.667   2.421  10.568  0.3046 -0.2028 -0.5657
  762MPD2    H711263   2.569   2.429  10.541  0.0434  1.2425  0.8156
  763MPD2     C11264   4.532   4.112  16.292  0.6230  0.4977 -0.2786
  763MPD2    C111265   4.671   4.078  16.281  0.0125 -0.0928 -0.5453
  763MPD2    C211266   0.029   4.125  16.382  0.7848 -0.6292 -0.2069
  763MPD2    C311267   4.701   4.196  16.492  0.5710 -0.0291 -0.1161
  763MPD2    C411268   4.566   4.216  16.503 -0.0992  0.6007  0.7245
  763MPD2    C511269   4.482   4.176  16.403 -0.5010  0.4047 -0.2805
  763MPD2     H11270   0.133   4.092  16.387  0.9517 -0.2424 -1.2293
  763MPD2    H111271   4.524   4.282  16.578  0.2132 -0.0398  1.4707
  763MPD2    H211272   4.459   4.090  16.215 -0.9077  0.1874  1.2617
  763MPD2    H311273   4.374   4.174  16.417 -0.7655 -0.6130 -2.5140
  763MPD2     N11274   0.062   4.252  16.594  0.4666  0.5845 -0.3160
  763MPD2    H511275   0.022   4.281  16.683  0.9538 -1.0625  0.4456
  763MPD2    N111276   0.018   4.004  16.180  0.2034  0.2371  0.0742
  763MPD2    H711277   0.116   3.982  16.189 -0.0698  0.0973  2.8104
  764MPD2     C11278   2.183   1.001  17.513 -0.4186 -0.2407  0.8277
  764MPD2    C111279   2.241   0.927  17.410 -0.2986  0.2793  0.5893
  764MPD2    C211280   2.313   0.815  17.444 -0.7079 -0.2832  0.1570
  764MPD2    C311281   2.339   0.786  17.578  0.4669 -0.3932  0.5363
  764MPD2    C411282   2.304   0.876  17.670  0.6315  0.2058  0.6135
  764MPD2    C511283   2.216   0.978  17.640 -0.0381 -0.0289  0.2092
  764MPD2     H11284   2.353   0.763  17.358  1.0797 -1.1126  1.4936
  764MPD2    H111285   2.325   0.871   0.093 -0.8746  1.6748  0.9797
  764MPD2    H211286   2.124   1.090  17.495 -0.3923 -0.0765  1.5750
  764MPD2    H311287   2.184   1.047   0.034 -1.8842  0.8799 -1.3835
  764MPD2     N11288   2.424   0.672  17.606 -0.7744  0.0595 -0.4689
  764MPD2    H511289   2.451   0.618  17.525 -1.0212  1.1982 -1.3035
  764MPD2    N111290   2.239   0.963  17.272 -0.5225  0.2804 -0.0080
  764MPD2    H711291   2.279   0.904  17.200  0.3451  0.0222  0.6842
  765MPD2     C11292   2.330   3.261  15.644  0.1940  0.2063 -0.9606
  765MPD2    C111293   2.442   3.312  15.710  0.3920 -0.8446 -0.4997
  765MPD2    C211294   2.568   3.261  15.676 -0.2740 -0.2463 -0.2067
  765MPD2    C311295   2.577   3.147  15.594  0.0405 -0.2019  0.0975
  765MPD2    C411296   2.464   3.096  15.534 -0.0722  0.4815 -0.3757
  765MPD2    C511297   2.344   3.150  15.564  0.3785 -0.3588 -0.4140
  765MPD2     H11298   2.659   3.294  15.725 -1.2258  2.4304 -0.2508
  765MPD2    H111299   2.461   3.024  15.454  0.6308 -0.2726  0.2775
  765MPD2    H211300   2.232   3.297  15.670  0.6020  1.2061 -0.8090
  765MPD2    H311301   2.256   3.104  15.521  1.3553 -1.3908 -1.3152
  765MPD2     N11302   2.710   3.098  15.583 -0.0017 -0.3014  0.2421
  765MPD2    H511303   2.766   3.115  15.666 -1.7865 -1.2200  1.6614
  765MPD2    N111304   2.430   3.414  15.808  0.5572  0.2252  0.3318
  765MPD2    H711305   2.336   3.452  15.821  0.1051 -0.5109 -0.7882
  766MPD2     C11306   1.843   3.747  15.706 -0.2842 -0.3723  0.2092
  766MPD2    C111307   1.947   3.663  15.723  0.4349 -0.1540 -0.6884
  766MPD2    C211308   1.977   3.584  15.618  0.3112 -0.1687 -0.4115
  766MPD2    C311309   1.910   3.588  15.496  0.1711 -0.1946 -0.5115
  766MPD2    C411310   1.807   3.677  15.475  0.2482 -0.5700 -0.4529
  766MPD2    C511311   1.776   3.753  15.586  0.5144  0.3355  0.7383
  766MPD2     H11312   2.068   3.526  15.624  0.9489  0.4132 -4.7111
  766MPD2    H111313   1.752   3.686  15.382 -1.0329  0.5746  0.4161
  766MPD2    H211314   1.807   3.802  15.792  0.4296 -1.2612  1.0795
  766MPD2    H311315   1.681   3.805  15.583  1.3934  1.7200 -2.6042
  766MPD2     N11316   1.951   3.523  15.378  0.0800 -0.4141 -0.1616
  766MPD2    H511317   1.897   3.535  15.293 -1.7081 -0.6333  0.9332
  766MPD2    N111318   2.025   3.657  15.842  0.5501 -0.0059  0.8252
  766MPD2    H711319   1.999   3.726  15.911  0.1360  1.5508 -0.8803
  767MPD2     C11320   1.525   3.760  15.223 -0.1300  0.4727  0.2994
  767MPD2    C111321   1.634   3.752  15.136 -0.3306  0.4648  1.4455
  767MPD2    C211322   1.663   3.642  15.054 -0.9946 -0.1690 -0.0350
  767MPD2    C311323   1.564   3.552  15.032 -0.9368 -0.8711 -0.4195
  767MPD2    C411324   1.447   3.565  15.101 -0.5491  0.0417  0.1875
  767MPD2    C511325   1.435   3.654  15.207  0.2033  0.4939  0.1433
  767MPD2     H11326   1.754   3.634  14.995 -1.1850  1.0240 -0.4882
  767MPD2    H111327   1.376   3.482  15.093  0.4373 -0.8135  0.2889
  767MPD2    H211328   1.499   3.833  15.299 -1.5398  2.7195 -2.3163
  767MPD2    H311329   1.346   3.657  15.268 -0.8161 -0.4304 -1.3073
  767MPD2     N11330   1.579   3.455  14.923 -0.6026 -0.0897  0.0544
  767MPD2    H511331   1.675   3.442  14.892 -0.1128  1.4212  0.9497
  767MPD2    N111332   1.729   3.860  15.134  0.0066  0.3458 -0.1218
  767MPD2    H711333   1.720   3.931  15.206  0.7686  0.2925  0.0316
  768MPD2     C11334   2.775   1.950  10.909 -0.3780 -0.4083  0.1914
  768MPD2    C111335   2.760   1.831  10.979 -0.5386  0.3771  0.4861
  768MPD2    C211336   2.832   1.819  11.096 -0.5021 -0.4098  0.6012
  768MPD2    C311337   2.931   1.912  11.128 -0.3193  0.4358  0.7028
  768MPD2    C411338   2.944   2.029  11.054  0.0732 -0.1129  0.0344
  768MPD2    C511339   2.860   2.049  10.942  0.2292  0.3841  0.7971
  768MPD2     H11340   2.816   1.729  11.154 -0.2403 -0.9720 -0.2007
  768MPD2    H111341   3.007   2.112  11.083 -0.6577  0.7646 -0.8928
  768MPD2    H211342   2.717   1.963  10.818  1.6770  0.0585 -1.0730
  768MPD2    H311343   2.856   2.141  10.884 -1.1570 -0.3887 -0.3293
  768MPD2     N11344   2.999   1.911  11.250  0.0789  0.2355  0.9268
  768MPD2    H511345   3.066   1.985  11.267  0.0845  0.0797  1.5656
  768MPD2    N111346   2.662   1.743  10.956  0.5214 -0.0649  0.5140
  768MPD2    H711347   2.661   1.668  11.026 -0.2033  0.0485  0.6255
  769MPD2     C11348   3.771   4.305  15.242  0.3590 -0.5879 -0.1031
  769MPD2    C111349   3.635   4.342  15.237 -0.3981 -0.0533  0.2020
  769MPD2    C211350   3.591   4.443  15.318  0.4973 -0.1007 -0.2834
  769MPD2    C311351   3.676   4.498  15.412 -1.2020  0.0889 -0.1088
  769MPD2    C411352   3.808   4.468  15.411 -0.0991  0.0474  0.2417
  769MPD2    C511353   3.854   4.374  15.318  0.7260  0.8302 -0.3902
  769MPD2     H11354   3.488   4.473  15.329  0.4900 -0.6080  1.0363
  769MPD2    H111355   3.880   4.509  15.481  0.5976 -1.0201  0.1551
  769MPD2    H211356   3.812   4.216  15.196  1.7700  0.1086 -0.1962
  769MPD2    H311357   3.957   4.341  15.314  0.3185 -0.4729 -0.2070
  769MPD2     N11358   3.616   4.584  15.505  0.2725  0.1435 -0.0878
  769MPD2    H511359   3.518   4.609  15.497 -0.0465 -0.6771  1.4554
  769MPD2    N111360   3.545   4.272  15.159  0.0652 -0.1295  0.2843
  769MPD2    H711361   3.580   4.189  15.112 -1.3795 -1.2662  1.2344
  770MPD2     C11362   3.169   3.383  14.932 -0.1461 -0.1046 -0.1771
  770MPD2    C111363   3.060   3.463  14.911  0.4486 -0.1416 -0.1619
  770MPD2    C211364   3.079   3.599  14.912  0.1233 -0.4213  0.0638
  770MPD2    C311365   3.194   3.656  14.947 -0.2329  0.0155 -0.4009
  770MPD2    C411366   3.306   3.576  14.963 -0.0983 -0.1907  0.0063
  770MPD2    C511367   3.288   3.443  14.946 -0.3636 -0.0251 -0.5628
  770MPD2     H11368   2.995   3.668  14.912 -0.2419 -0.8658  2.4835
  770MPD2    H111369   3.407   3.613  14.973 -0.0574 -0.3610  0.2249
  770MPD2    H211370   3.155   3.276  14.925  3.5778 -0.6356  0.5685
  770MPD2    H311371   3.378   3.382  14.951 -0.2166  0.3311  1.1514
  770MPD2     N11372   3.207   3.798  14.949 -0.8741 -0.2008  0.5072
  770MPD2    H511373   3.130   3.856  14.917  1.7247  1.9496 -1.8666
  770MPD2    N111374   2.930   3.403  14.916  0.6886 -0.5689 -0.3334
  770MPD2    H711375   2.925   3.302  14.915  2.0430 -0.6234 -0.9023
  771MPD2     C11376   0.037   2.552  13.604 -0.4954  0.2330  0.1978
  771MPD2    C111377   4.680   2.632  13.518  0.2335  0.0246 -0.2979
  771MPD2    C211378   4.554   2.595  13.479 -0.6702 -0.5203 -0.1253
  771MPD2    C311379   4.504   2.472  13.514 -0.0567  0.0480 -0.3437
  771MPD2    C411380   4.588   2.383  13.582 -0.0407 -0.0021 -0.0367
  771MPD2    C511381   4.707   2.428  13.633  0.5047 -0.3886 -0.4734
  771MPD2     H11382   4.491   2.664  13.424 -2.7123 -3.2757 -1.2431
  771MPD2    H111383   4.545   2.292  13.621 -0.2210  0.2827  0.4328
  771MPD2    H211384   0.131   2.588  13.645  0.7653 -0.2226 -2.3131
  771MPD2    H311385   0.049   2.368  13.698  1.0110 -0.6391 -1.1897
  771MPD2     N11386   4.372   2.435  13.479 -0.9518  0.1427  0.4437
  771MPD2    H511387   4.330   2.495  13.409  1.1055  1.3909  0.2816
  771MPD2    N111388   0.004   2.762  13.485 -0.2480  0.0720 -0.5478
  771MPD2    H711389   4.665   2.824  13.430 -2.4003  0.3584  2.0923
  772MPD2     C11390   4.215   3.200  13.436  0.2744  0.4317  0.1441
  772MPD2    C111391   4.276   3.167  13.554 -0.2065  0.0647  0.8507
  772MPD2    C211392   4.203   3.131  13.670 -0.4649 -0.0290 -0.3501
  772MPD2    C311393   4.060   3.156  13.669 -0.0575  0.6089  0.8117
  772MPD2    C411394   3.998   3.187  13.544 -0.3307 -0.2505 -0.2822
  772MPD2    C511395   4.077   3.215  13.434 -0.3128  0.0671  0.0008
  772MPD2     H11396   4.252   3.087  13.756 -0.7585 -1.8213 -1.0979
  772MPD2    H111397   3.891   3.206  13.541 -0.7607 -2.6175  0.4308
  772MPD2    H211398   4.265   3.222  13.342  1.1894 -2.9071 -0.1616
  772MPD2    H311399   4.027   3.244  13.343 -1.1670 -1.6475 -0.0704
  772MPD2     N11400   3.983   3.153  13.787  0.3199 -0.2104  0.3725
  772MPD2    H511401   3.886   3.181  13.777 -0.0031 -1.6664 -0.5529
  772MPD2    N111402   4.417   3.150  13.565 -0.1681 -0.5715  0.3550
  772MPD2    H711403   4.448   3.119  13.656  4.1039  2.8479  0.0459
  773MPD2     C11404   3.408   4.374   0.405  0.1819 -0.8223  0.0380
  773MPD2    C111405   3.340   4.265   0.356 -0.1885 -0.3889  0.5506
  773MPD2    C211406   3.359   4.139   0.418  0.6249 -0.7228  0.1813
  773MPD2    C311407   3.440   4.121   0.530  0.2285  0.2283 -0.0414
  773MPD2    C411408   3.513   4.236   0.573 -0.7212  0.3055 -0.2614
  773MPD2    C511409   3.494   4.353   0.510  0.3530  0.4209  0.3867
  773MPD2     H11410   3.296   4.062   0.375 -2.1278 -0.1904  3.2690
  773MPD2    H111411   3.599   4.226   0.639 -0.4952  0.3413 -0.5487
  773MPD2    H211412   3.395   4.472   0.361  3.1209 -0.4979 -0.0872
  773MPD2    H311413   3.556   4.437   0.538  1.3884 -0.7211  1.5266
  773MPD2     N11414   3.464   3.996   0.587  0.0271 -0.4442 -0.1441
  773MPD2    H511415   3.425   3.917   0.537 -2.7475  0.7259  0.1681
  773MPD2    N111416   3.239   4.276   0.250  0.2631  0.1999 -0.3541
  773MPD2    H711417   3.177   4.195   0.244  0.7802 -0.0415 -2.2213
  774MPD2     C11418   2.311   2.833  13.544  0.6723  0.0674  0.1577
  774MPD2    C111419   2.444   2.865  13.538  0.3141 -0.0207 -0.1574
  774MPD2    C211420   2.507   2.906  13.423  0.1940 -0.3087 -0.6131
  774MPD2    C311421   2.427   2.935  13.315  1.1141  0.0194 -0.1289
  774MPD2    C411422   2.293   2.904  13.317  0.3130  0.9560 -0.1765
  774MPD2    C511423   2.238   2.848  13.430  0.7719 -0.2029  0.4914
  774MPD2     H11424   2.613   2.923  13.412  0.1970 -1.4703 -2.2630
  774MPD2    H111425   2.229   2.916  13.230 -1.2211  0.4227  0.8970
  774MPD2    H211426   2.263   2.797  13.634  0.2490  0.1789 -0.0245
  774MPD2    H311427   2.129   2.842  13.427  0.9186 -2.4322 -0.7955
  774MPD2     N11428   2.498   2.995  13.209  0.0462  0.4598 -0.0172
  774MPD2    H511429   2.599   3.001  13.212  0.1186 -0.5954 -0.3478
  774MPD2    N111430   2.514   2.856  13.660  0.2039  0.1972 -0.1536
  774MPD2    H711431   2.459   2.828  13.740  0.3415  0.8678  0.1723
  775MPD2     C11432   3.637   4.627  16.097 -0.1233 -0.3835  0.1283
  775MPD2    C111433   3.644   0.031  16.153 -0.0947  0.3996  0.1899
  775MPD2    C211434   3.741   0.120  16.106  0.1358  0.4207 -0.1976
  775MPD2    C311435   3.813   0.089  15.994  0.0265 -0.0699 -0.1066
  775MPD2    C411436   3.799   4.681  15.934 -0.5533  0.1640  0.1297
  775MPD2    C511437   3.710   4.590  15.984 -0.3788  0.1528  0.0889
  775MPD2     H11438   3.748   0.216  16.155 -0.1828  0.8592 -1.0161
  775MPD2    H111439   3.847   4.648  15.843 -1.0504  0.1072 -0.1090
  775MPD2    H211440   3.563   4.559  16.138 -1.5955  1.8453  1.1182
  775MPD2    H311441   3.691   4.495  15.935 -1.7894 -0.1002  1.1299
  775MPD2     N11442   3.915   0.170  15.932 -0.7642  0.1246  0.1162
  775MPD2    H511443   3.951   0.128  15.847 -1.2998 -0.3950  0.1406
  775MPD2    N111444   3.559   0.051  16.271  1.0898  0.5222  0.4548
  775MPD2    H711445   3.503   4.689  16.293  1.0246  0.4820  0.1281
  776MPD2     C11446   2.549   4.345  11.359 -0.5020 -0.0863 -1.1294
  776MPD2    C111447   2.562   4.319  11.221  0.0504  0.0062  0.2100
  776MPD2    C211448   2.630   4.412  11.136  0.2352  0.4611  0.0315
  776MPD2    C311449   2.668   4.537  11.192  0.4979 -0.4757  0.6959
  776MPD2    C411450   2.635   4.566  11.325  0.4661  0.6483  0.2283
  776MPD2    C511451   2.569   4.471  11.403  0.0982 -0.6243  0.0201
  776MPD2     H11452   2.646   4.390  11.031 -1.7650  0.9829 -0.3845
  776MPD2    H111453   2.675   4.647  11.385  0.5214  0.1346  0.8946
  776MPD2    H211454   2.501   4.273  11.425  1.5097 -0.2414  0.1686
  776MPD2    H311455   2.537   4.498  11.503  1.0426  0.1537  0.1211
  776MPD2     N11456   2.736   4.643  11.124 -0.1238 -0.1967  0.1152
  776MPD2    H511457   2.750   0.012  11.171 -2.9286  0.3690 -0.1408
  776MPD2    N111458   2.520   4.188  11.187  0.0170 -0.6401 -0.1390
  776MPD2    H711459   2.480   4.128  11.258 -2.2765  2.4700  1.2368
  777MPD2     C11460   3.080   2.564   0.684 -0.3852 -0.7339  0.3824
  777MPD2    C111461   3.136   2.481   0.777  0.0899 -0.4751 -0.0301
  777MPD2    C211462   3.176   2.358   0.745  0.8763 -0.5025 -0.2780
  777MPD2    C311463   3.168   2.313   0.615 -0.0590 -0.3508  0.2706
  777MPD2    C411464   3.116   2.403   0.513  0.3685  0.3001  0.1445
  777MPD2    C511465   3.058   2.513   0.557 -0.6420 -0.3728 -0.2679
  777MPD2     H11466   3.229   2.287   0.807  1.5046  0.8112  0.6766
  777MPD2    H111467   3.122   2.373   0.409  0.0292  0.8083 -0.0218
  777MPD2    H211468   3.050   2.666   0.701 -0.4017 -0.4631 -1.2869
  777MPD2    H311469   3.023   2.573   0.474 -0.9886 -1.5994 -0.9984
  777MPD2     N11470   3.220   2.183   0.591 -0.1611  0.6199 -0.4365
  777MPD2    H511471   3.271   2.140   0.668 -1.7523 -1.3159 -0.4481
  777MPD2    N111472   3.142   2.539   0.906 -0.3787  0.1959  0.5239
  777MPD2    H711473   3.098   2.629   0.923 -1.5861 -0.1963 -0.5534
  778MPD2     C11474   4.525   2.617  15.311  0.3532  0.0653 -0.3861
  778MPD2    C111475   4.524   2.553  15.189 -0.6833 -0.4746  0.0114
  778MPD2    C211476   4.622   2.586  15.096  0.0374  0.0803  0.1866
  778MPD2    C311477   4.720   2.687  15.122  0.0804  0.3123  0.3134
  778MPD2    C411478   4.713   2.746  15.239 -0.0415  0.4878 -0.0054
  778MPD2    C511479   4.625   2.705  15.336  0.3615 -0.4267 -0.8124
  778MPD2     H11480   4.612   2.549  14.994 -0.3882 -3.0509  1.3532
  778MPD2    H111481   0.066   2.818  15.275  1.2218 -0.8564  0.1584
  778MPD2    H211482   4.457   2.592  15.392 -0.5614  0.8064 -0.9327
  778MPD2    H311483   4.625   2.743  15.437  0.3756 -1.6222 -0.3585
  778MPD2     N11484   0.097   2.708  15.030 -0.5212  0.0816 -0.3157
  778MPD2    H511485   0.101   2.642  14.952 -5.9717  0.8622 -1.2539
  778MPD2    N111486   4.436   2.450  15.158  0.8489  0.4577  0.3929
  778MPD2    H711487   4.441   2.419  15.061 -0.1403  2.2032 -0.2110
  779MPD2     C11488   4.232   1.217  14.904 -0.6900 -0.0584 -0.3328
  779MPD2    C111489   4.319   1.217  14.796  0.4634 -0.4596  1.0451
  779MPD2    C211490   4.401   1.333  14.771 -0.4440 -0.5618  0.5140
  779MPD2    C311491   4.401   1.436  14.860  0.0907 -0.2491 -0.4634
  779MPD2    C411492   4.327   1.424  14.977 -0.6560  0.0432 -0.0407
  779MPD2    C511493   4.233   1.321  14.997  0.4638  0.5423 -0.5213
  779MPD2     H11494   4.465   1.325  14.684  0.7328 -1.3947  1.4623
  779MPD2    H111495   4.326   1.507  15.046 -0.8083  0.0248 -0.0203
  779MPD2    H211496   4.172   1.129  14.926  0.1953 -0.6063 -0.1058
  779MPD2    H311497   4.164   1.316  15.080 -0.5054 -0.1342 -1.3627
  779MPD2     N11498   4.487   1.548  14.841 -0.1933 -0.2910 -0.2544
  779MPD2    H511499   4.499   1.621  14.910 -2.0688  0.0006 -0.2295
  779MPD2    N111500   4.330   1.109  14.706 -0.4283  0.8454 -0.4155
  779MPD2    H711501   4.406   1.099  14.639  0.4253  1.2564  0.4887
  780MPD2     C11502   3.928   1.649   1.641 -0.5919  0.3074  0.7917
  780MPD2    C111503   3.889   1.590   1.520  0.2958  0.2092 -0.2525
  780MPD2    C211504   3.983   1.571   1.415 -0.3878  0.4364 -0.1015
  780MPD2    C311505   4.117   1.584   1.433  0.1883 -0.0310 -0.4256
  780MPD2    C411506   4.162   1.635   1.558 -0.3873 -0.1917 -0.3157
  780MPD2    C511507   4.061   1.670   1.656  0.3875  0.1122  0.4169
  780MPD2     H11508   3.964   1.522   1.320  2.3365  2.5245 -1.7016
  780MPD2    H111509   4.264   1.669   1.573 -0.1466 -0.7279 -0.7255
  780MPD2    H211510   3.870   1.689   1.724  0.8059 -0.4177  2.1208
  780MPD2    H311511   4.079   1.730   1.744 -1.5004 -0.6385  1.3302
  780MPD2     N11512   4.202   1.562   1.317 -0.0405  0.5784  0.6196
  780MPD2    H511513   4.156   1.563   1.227 -0.0793  0.4722  0.6388
  780MPD2    N111514   3.753   1.551   1.510  0.0305 -0.4962  0.3457
  780MPD2    H711515   3.691   1.568   1.588 -0.1617 -2.4048  0.6071
  781MPD2     C11516   0.584   3.405  12.082  1.0138  0.6492 -0.2904
  781MPD2    C111517   0.698   3.385  12.161  0.7593  0.0547 -0.2075
  781MPD2    C211518   0.823   3.396  12.103  0.0774 -0.0944  0.0540
  781MPD2    C311519   0.835   3.406  11.963 -0.9345 -0.3376  0.0119
  781MPD2    C411520   0.726   3.426  11.888  0.2527 -0.7565 -0.0263
  781MPD2    C511521   0.600   3.433  11.951  0.3741 -0.3747 -0.1077
  781MPD2     H11522   0.911   3.400  12.166  0.5090 -0.4330 -0.5282
  781MPD2    H111523   0.736   3.451  11.783 -2.4833 -1.6766 -0.5152
  781MPD2    H211524   0.483   3.401  12.122  1.4076 -0.9394  0.5718
  781MPD2    H311525   0.510   3.470  11.904  0.2796 -0.2548  0.1695
  781MPD2     N11526   0.959   3.390  11.895 -0.2804  0.4941  0.0644
  781MPD2    H511527   0.958   3.396  11.794  2.3687  0.4860  0.0434
  781MPD2    N111528   0.696   3.343  12.296  0.0886 -0.2012  0.0842
  781MPD2    H711529   0.790   3.344  12.335 -0.0880  1.1945  0.4705
  782MPD2     C11530   3.348   4.059  10.096 -0.1361  1.0036  0.5804
  782MPD2    C111531   3.447   4.023  10.185 -0.0302 -0.1649 -0.2601
  782MPD2    C211532   3.505   4.107  10.275  0.2068  0.0068  0.0628
  782MPD2    C311533   3.467   4.242  10.280 -0.1128  0.3515  0.0264
  782MPD2    C411534   3.369   4.279  10.198 -0.9343 -0.1234 -0.0190
  782MPD2    C511535   3.311   4.190  10.110  0.4395  0.1083  0.2103
  782MPD2     H11536   3.582   4.059  10.333  0.6743 -0.0174 -0.5851
  782MPD2    H111537   3.326   4.379  10.197  0.4519  0.4267 -2.7339
  782MPD2    H211538   3.302   3.992  10.024  1.4960 -0.9398  1.3614
  782MPD2    H311539   3.238   4.237  10.045  0.8303  0.5734  0.1063
  782MPD2     N11540   3.531   4.338  10.362  0.6915 -0.3980 -0.1828
  782MPD2    H511541   3.601   4.304  10.427  2.1091  2.9270  0.0584
  782MPD2    N111542   3.501   3.888  10.188  0.3163 -0.1776 -0.3225
  782MPD2    H711543   3.568   3.865  10.261 -1.4528 -2.4829  0.5577
  783MPD2     C11544   3.114   2.970  10.002  0.8704  0.1326 -0.1150
  783MPD2    C111545   3.062   3.059  10.100 -0.3286 -0.4325 -0.2591
  783MPD2    C211546   3.148   3.160  10.136  0.9269  0.7053 -0.0265
  783MPD2    C311547   3.275   3.174  10.085 -0.5361  0.0057 -0.2123
  783MPD2    C411548   3.322   3.092   9.982  0.6618 -0.1168 -0.3421
  783MPD2    C511549   3.244   2.983   9.949 -0.0537  0.4518 -0.1984
  783MPD2     H11550   3.132   3.229  10.217 -2.5389 -0.3367  0.1875
  783MPD2    H111551   3.409   3.102   9.918  0.8859 -1.0217 -0.1839
  783MPD2    H211552   3.046   2.896   9.962  0.9745  0.7624 -1.4500
  783MPD2    H311553   3.288   2.909   9.883 -1.0229 -1.2511  1.0681
  783MPD2     N11554   3.353   3.281  10.132 -0.1215  0.4734 -0.1350
  783MPD2    H511555   3.306   3.354  10.185 -0.1894  0.4533 -0.1681
  783MPD2    N111556   2.930   3.045  10.154  0.0113  0.9816  0.0564
  783MPD2    H711557   2.866   2.973  10.123  0.4305 -0.0849  1.6440
  784MPD2     C11558   1.098   4.076   0.764 -0.1321  0.0165  0.5120
  784MPD2    C111559   1.050   4.166   0.859 -0.0644  0.3189  0.0420
  784MPD2    C211560   0.957   4.264   0.825  0.4124 -0.2164 -0.2681
  784MPD2    C311561   0.911   4.267   0.693 -0.3736 -0.5420  0.1263
  784MPD2    C411562   0.962   4.172   0.601 -0.3872 -0.7059 -0.0933
  784MPD2    C511563   1.055   4.085   0.639 -1.0014 -0.8423  0.1799
  784MPD2     H11564   0.935   4.348   0.889 -1.1853 -1.5176  0.9114
  784MPD2    H111565   0.920   4.165   0.502 -1.1443  2.7298 -0.0152
  784MPD2    H211566   1.164   3.992   0.783 -3.9977 -2.4683  3.0630
  784MPD2    H311567   1.097   4.015   0.567  1.1242  1.5454 -0.8995
  784MPD2     N11568   0.816   4.356   0.647  0.2100 -0.2378  0.1047
  784MPD2    H511569   0.783   4.423   0.716 -0.7300  0.0998 -0.6594
  784MPD2    N111570   1.093   4.162   0.997  0.0665 -0.0535 -0.4410
  784MPD2    H711571   1.039   4.216   1.064 -1.4776  0.9526 -2.5068
  785MPD2     C11572   1.480   2.030  10.479 -0.2182 -0.3997 -0.1416
  785MPD2    C111573   1.348   2.053  10.442 -0.1252 -0.6316 -0.1290
  785MPD2    C211574   1.312   2.012  10.314  0.0005  0.0335 -0.9858
  785MPD2    C311575   1.402   1.964  10.222 -0.4707  0.3087 -0.0928
  785MPD2    C411576   1.535   1.950  10.260  0.3932 -0.0981 -0.7378
  785MPD2    C511577   1.570   1.983  10.384  0.4404  0.5148  0.1733
  785MPD2     H11578   1.209   2.019  10.279  0.2902  2.1194 -1.4120
  785MPD2    H111579   1.605   1.898  10.195 -1.0525  2.3436 -4.2243
  785MPD2    H211580   1.509   2.052  10.581 -0.9617 -0.8745  0.1725
  785MPD2    H311581   1.668   1.963  10.426  0.9690 -1.2862 -1.9670
  785MPD2     N11582   1.355   1.914  10.097 -0.0107 -0.0031 -0.0205
  785MPD2    H511583   1.254   1.918  10.087 -0.0806  1.2652  1.0356
  785MPD2    N111584   1.248   2.116  10.517 -0.2558 -0.0501 -0.4134
  785MPD2    H711585   1.153   2.118  10.483 -1.0314 -0.1098  1.7172
  786MPD2     C11586   4.277   0.592  14.850  0.0222  0.2423 -0.3443
  786MPD2    C111587   4.379   0.498  14.841  0.3258  0.7861 -0.3684
  786MPD2    C211588   4.453   0.463  14.949 -0.1081  0.0959  0.0691
  786MPD2    C311589   4.420   0.508  15.077 -0.3090  1.2482  0.2252
  786MPD2    C411590   4.317   0.602  15.088 -0.1808 -0.0617 -0.3092
  786MPD2    C511591   4.250   0.644  14.969 -0.3330  0.4011 -0.1442
  786MPD2     H11592   4.537   0.396  14.934  1.9687  2.8301 -0.3583
  786MPD2    H111593   4.294   0.650  15.182  0.9254  0.1543 -0.1435
  786MPD2    H211594   4.217   0.614  14.763 -0.5862 -0.7338 -0.1765
  786MPD2    H311595   4.176   0.723  14.969 -0.3565  0.3832  0.3975
  786MPD2     N11596   4.497   0.481  15.192 -0.4531 -0.2724 -0.1073
  786MPD2    H511597   4.472   0.531  15.277 -0.6476  1.3481 -1.1115
  786MPD2    N111598   4.405   0.420  14.720 -0.4789 -0.1586 -0.0913
  786MPD2    H711599   4.472   0.345  14.730  2.3230  2.3988  0.4056
  787MPD2     C11600   0.138   4.707  14.693 -0.5869 -0.7773  0.5772
  787MPD2    C111601   0.091   4.719  14.566 -0.3039 -0.7790 -0.0966
  787MPD2    C211602   0.131   4.622  14.476  0.0339 -0.0518 -0.4985
  787MPD2    C311603   0.200   4.513  14.527 -0.5043  0.4764 -0.1957
  787MPD2    C411604   0.243   4.500  14.660 -0.0233  0.3726 -1.1372
  787MPD2    C511605   0.219   4.609  14.740  0.5018  0.2805 -0.3412
  787MPD2     H11606   0.099   4.638  14.374 -1.6832 -0.2145  0.0235
  787MPD2    H111607   0.298   4.415  14.700 -2.1615  0.2263  1.4224
  787MPD2    H211608   0.119   0.064  14.767  2.5224  0.5782 -0.0377
  787MPD2    H311609   0.244   4.612  14.845 -0.2288  1.7255 -0.2052
  787MPD2     N11610   0.231   4.405  14.443 -0.1439 -0.4554  0.4293
  787MPD2    H511611   0.272   4.324  14.490 -1.6497 -1.7349 -0.4432
  787MPD2    N111612   0.002   0.107  14.530  0.0647  0.0771 -0.3896
  787MPD2    H711613   4.675   0.153  14.607 -2.4771  0.2775 -2.0766
  788MPD2     C11614   1.538   2.789   0.749 -0.0603 -0.0204 -0.4119
  788MPD2    C111615   1.460   2.814   0.634 -0.1559 -0.4802  0.6000
  788MPD2    C211616   1.487   2.927   0.562 -0.9559  0.0491  0.1423
  788MPD2    C311617   1.597   3.005   0.597  0.3836  0.2478 -0.6339
  788MPD2    C411618   1.663   2.988   0.718  0.0072 -0.0084  0.1407
  788MPD2    C511619   1.625   2.882   0.796  0.5914  0.1305 -0.4900
  788MPD2     H11620   1.428   2.952   0.475 -1.1408 -0.2860  0.1730
  788MPD2    H111621   1.737   3.061   0.750  0.6280 -0.8326  0.5684
  788MPD2    H211622   1.509   2.719   0.827 -2.0175  1.9187  0.5891
  788MPD2    H311623   1.681   2.863   0.887 -0.7261  1.8411  0.6616
  788MPD2     N11624   1.647   3.108   0.513  0.1147  0.6060 -0.1618
  788MPD2    H511625   1.738   3.144   0.540  0.2917  1.1384 -1.4890
  788MPD2    N111626   1.354   2.731   0.597  0.5063  0.5236 -0.0050
  788MPD2    H711627   1.289   2.778   0.534  1.4871 -0.1229 -1.4947
  789MPD2     C11628   2.560   3.316  16.849 -0.2708  0.0418 -0.2324
  789MPD2    C111629   2.552   3.340  16.716 -0.6442 -0.8701  0.6083
  789MPD2    C211630   2.436   3.395  16.662  1.0899  0.1183 -0.3369
  789MPD2    C311631   2.329   3.423  16.739  0.4221 -0.3273 -0.2242
  789MPD2    C411632   2.336   3.390  16.870 -0.6973 -0.8711 -0.8535
  789MPD2    C511633   2.456   3.346  16.933 -0.5444 -0.0077  0.3696
  789MPD2     H11634   2.426   3.421  16.557  1.0629  0.6795 -0.1936
  789MPD2    H111635   2.245   3.397  16.929  1.5284  1.3085  2.3053
  789MPD2    H211636   2.649   3.274  16.894 -0.2522  1.9852  1.5552
  789MPD2    H311637   2.468   3.314  17.035  1.6080 -1.7240 -0.4207
  789MPD2     N11638   2.208   3.482  16.699 -0.0885 -0.0359  0.1687
  789MPD2    H511639   2.139   3.474  16.773 -1.6692  0.1313 -1.2660
  789MPD2    N111640   2.663   3.302  16.635  0.3481 -0.3209 -0.0784
  789MPD2    H711641   2.650   3.336  16.541 -2.8131 -1.4628 -0.0629
  790MPD2     C11642   3.607   0.703  13.473 -0.6943 -0.2440  0.3737
  790MPD2    C111643   3.554   0.587  13.515 -0.2897  0.6179  0.6032
  790MPD2    C211644   3.504   0.501  13.417 -0.4578 -0.3927 -0.0315
  790MPD2    C311645   3.514   0.531  13.274 -0.2112  0.2393 -0.1552
  790MPD2    C411646   3.573   0.655  13.236  0.5488 -0.0492 -0.6581
  790MPD2    C511647   3.618   0.733  13.338 -0.1215  0.2671 -0.0929
  790MPD2     H11648   3.460   0.406  13.443 -0.0178 -0.4808  0.3889
  790MPD2    H111649   3.585   0.679  13.131 -0.6134 -1.7282 -1.1572
  790MPD2    H211650   3.652   0.773  13.542 -0.4940 -0.0020 -0.0076
  790MPD2    H311651   3.659   0.831  13.316 -0.5777  0.2813 -0.8770
  790MPD2     N11652   3.457   0.441  13.188  0.9073  0.3250  0.0193
  790MPD2    H511653   3.409   0.359  13.225  0.7847 -0.1273 -1.1409
  790MPD2    N111654   3.550   0.557  13.659 -0.0614  0.0905 -0.1506
  790MPD2    H711655   3.596   0.624  13.720  0.6936 -0.9266  0.4015
  791MPD2     C11656   2.731   0.353  13.037 -0.5134  0.6928 -0.1894
  791MPD2    C111657   2.787   0.292  12.927 -0.4984 -0.2291 -0.3908
  791MPD2    C211658   2.703   0.280  12.818 -0.4013 -0.1512  0.7027
  791MPD2    C311659   2.571   0.321  12.819 -0.0958 -0.1113  0.1481
  791MPD2    C411660   2.530   0.404  12.920  0.3591  0.2668 -0.3315
  791MPD2    C511661   2.606   0.413  13.030 -0.4188 -0.5249 -0.3128
  791MPD2     H11662   2.746   0.235  12.729 -0.8443 -0.5479  0.6931
  791MPD2    H111663   2.431   0.447  12.920  0.9147  1.5687 -2.2337
  791MPD2    H211664   2.791   0.352  13.127 -1.3037  1.3727  0.3421
  791MPD2    H311665   2.569   0.457  13.122 -2.6183 -0.3633 -1.2609
  791MPD2     N11666   2.484   0.286  12.713  0.3246  0.3899 -0.0630
  791MPD2    H511667   2.529   0.222  12.649  1.1259  0.5384  0.3559
  791MPD2    N111668   2.920   0.253  12.927 -0.9077 -0.6908  0.0565
  791MPD2    H711669   2.957   0.213  12.841  1.3574  0.0781  0.6965
  792MPD2     C11670   3.432   0.324  11.191 -0.1626  0.5018 -0.1232
  792MPD2    C111671   3.473   0.337  11.060  0.6740  0.3575  0.6068
  792MPD2    C211672   3.419   0.258  10.959 -0.3494 -0.1311  0.1487
  792MPD2    C311673   3.319   0.169  10.990  0.0134 -0.5732  0.3962
  792MPD2    C411674   3.280   0.149  11.114  1.2346 -0.0836  0.0775
  792MPD2    C511675   3.337   0.223  11.215 -0.5836 -0.2142  0.2073
  792MPD2     H11676   3.436   0.271  10.853  1.2834 -1.9703  0.1777
  792MPD2    H111677   3.199   0.080  11.135 -0.2230  0.3375 -4.1394
  792MPD2    H211678   3.476   0.387  11.267  0.2971  1.3859 -1.1220
  792MPD2    H311679   3.299   0.225  11.317  0.7914  0.6134  0.7057
  792MPD2     N11680   3.258   0.086  10.896 -0.1967 -0.2037  0.2841
  792MPD2    H511681   3.209   0.006  10.934 -0.6985 -0.0033  0.0621
  792MPD2    N111682   3.564   0.443  11.029  0.1760  0.1360  0.4286
  792MPD2    H711683   3.595   0.506  11.102 -1.1108  0.9954  0.2454
  793MPD2     C11684   3.100   4.699   9.805 -0.3459  0.2676 -0.1545
  793MPD2    C111685   3.227   4.656   9.860  0.0428 -0.1006 -0.4097
  793MPD2    C211686   3.251   4.651  10.002 -0.1574 -0.0122 -0.0163
  793MPD2    C311687   3.156   4.701  10.086  0.4644 -0.5548  0.0767
  793MPD2    C411688   3.043   0.034  10.035  0.1841 -0.1651  0.4498
  793MPD2    C511689   3.019   0.035   9.899 -0.3063 -0.3727  0.7787
  793MPD2     H11690   3.345   4.617  10.046 -0.9754 -0.0864  1.6822
  793MPD2    H111691   2.962   0.079  10.092  0.2841 -2.7677  2.6004
  793MPD2    H211692   3.079   0.009   9.703  0.6373  1.2497 -0.0741
  793MPD2    H311693   2.939   0.097   9.859 -0.1964 -0.4430  0.4467
  793MPD2     N11694   3.181   4.675  10.223  0.3107 -0.1550  0.0658
  793MPD2    H511695   3.262   4.622  10.251 -0.3129 -0.5153  1.1832
  793MPD2    N111696   3.331   4.621   9.771  0.6506 -0.8218 -0.7995
  793MPD2    H711697   3.422   4.598   9.811 -0.1560 -3.7095 -0.6667
  794MPD2     C11698   2.836   0.137  17.448 -0.3167 -0.0845  0.1678
  794MPD2    C111699   2.811   0.009  17.416  0.4448  0.4973 -0.3647
  794MPD2    C211700   2.738   4.716  17.295 -0.2866  0.7437  0.0461
  794MPD2    C311701   2.678   0.101  17.226  0.4803  0.6545 -0.5018
  794MPD2    C411702   2.698   0.226  17.276  0.6193 -0.3763 -0.6932
  794MPD2    C511703   2.778   0.240  17.380  0.1755  0.1047  0.7514
  794MPD2     H11704   2.720   4.615  17.261 -0.6570  0.7956  0.0805
  794MPD2    H111705   2.672   0.316  17.221  0.3756 -0.5139 -0.8033
  794MPD2    H211706   2.881   0.152  17.546  0.6729 -0.1594 -0.2799
  794MPD2    H311707   2.792   0.342  17.416 -0.9196  0.8439 -0.9652
  794MPD2     N11708   2.598   0.089  17.111 -0.0437 -0.4142 -0.1804
  794MPD2    H511709   2.563   0.178  17.077  0.4315  0.1561  0.8216
  794MPD2    N111710   2.843   4.616  17.495 -0.4825 -0.3048  0.6308
  794MPD2    H711711   2.822   4.522  17.463  2.9939 -1.3934  1.5093
  795MPD2     C11712   0.557   1.654  13.771  0.0639  0.2924  0.3741
  795MPD2    C111713   0.498   1.582  13.674  0.0567 -0.0937 -0.0111
  795MPD2    C211714   0.563   1.482  13.604 -0.1021  0.2714  0.8058
  795MPD2    C311715   0.704   1.472  13.620  0.0805  0.1505 -0.0076
  795MPD2    C411716   0.766   1.553  13.716  0.5374  0.8658 -0.2006
  795MPD2    C511717   0.690   1.641  13.794  0.2388 -0.7411  0.1687
  795MPD2     H11718   0.515   1.415  13.533 -2.4936  1.3648  1.4069
  795MPD2    H111719   0.872   1.553  13.739  0.7671 -1.2116 -1.2629
  795MPD2    H211720   0.504   1.726  13.831  0.7814  0.9951  0.1610
  795MPD2    H311721   0.725   1.697  13.879  0.4635  0.2268 -0.5549
  795MPD2     N11722   0.782   1.368  13.557 -0.7454 -0.2650 -0.1614
  795MPD2    H511723   0.738   1.302  13.493 -0.7682  0.4627 -0.8997
  795MPD2    N111724   0.364   1.600  13.632 -0.1355 -0.1509  0.0292
  795MPD2    H711725   0.329   1.545  13.555  2.6987 -1.5749 -0.2600
  796MPD2     C11726   0.528   3.961  16.044  0.2200 -0.5217 -0.1944
  796MPD2    C111727   0.459   3.946  16.160  0.0775  1.0887 -0.7037
  796MPD2    C211728   0.409   4.056  16.225  0.1195  0.5086  0.1506
  796MPD2    C311729   0.416   4.182  16.163 -0.2494  0.5459 -0.1211
  796MPD2    C411730   0.488   4.189  16.041 -0.5612 -0.1361  0.8517
  796MPD2    C511731   0.547   4.080  15.988 -0.7913  0.1523  0.2764
  796MPD2     H11732   0.356   4.052  16.319  1.1157  2.6012  0.7970
  796MPD2    H111733   0.510   4.287  15.999 -1.2883  0.1862  1.2197
  796MPD2    H211734   0.573   3.878  15.992  1.8528  0.6056 -0.6064
  796MPD2    H311735   0.617   4.089  15.906 -0.2456  1.3644  0.8788
  796MPD2     N11736   0.356   4.285  16.237  0.2852 -0.1209 -0.5433
  796MPD2    H511737   0.344   4.268  16.337 -1.3976 -0.0421 -0.7322
  796MPD2    N111738   0.462   3.822  16.228  0.3056 -0.7753  0.0581
  796MPD2    H711739   0.519   3.746  16.191  0.3849 -1.1073  0.8643
  797MPD2     C11740   1.338   2.497  17.067 -0.0144  0.7904  0.4024
  797MPD2    C111741   1.447   2.577  17.113 -0.3736  0.0046  0.0609
  797MPD2    C211742   1.422   2.714  17.116  0.2985  1.4101 -0.5834
  797MPD2    C311743   1.305   2.769  17.082 -0.1719  0.2449 -0.1198
  797MPD2    C411744   1.204   2.685  17.041  0.5920 -0.0737  0.2826
  797MPD2    C511745   1.222   2.553  17.032  0.0253 -0.6074  0.4697
  797MPD2     H11746   1.504   2.775  17.151  1.6625 -0.9785  0.4353
  797MPD2    H111747   1.106   2.717  17.007  0.3592 -2.2314 -1.0760
  797MPD2    H211748   1.349   2.393  17.040  1.3908  0.2515  3.0435
  797MPD2    H311749   1.137   2.501  16.988 -0.8291  1.5125 -0.3496
  797MPD2     N11750   1.297   2.910  17.088  0.6527  0.0521 -0.4135
  797MPD2    H511751   1.375   2.966  17.121  2.7378 -1.4958 -2.7227
  797MPD2    N111752   1.575   2.534  17.128 -0.3613 -0.1157  0.1971
  797MPD2    H711753   1.638   2.611  17.145  1.7277 -1.9984  0.9083
  798MPD2     C11754   1.909   3.145  16.895  0.0026  0.1281  0.1126
  798MPD2    C111755   1.814   3.098  16.979 -0.0116 -0.3571  0.0397
  798MPD2    C211756   1.813   2.968  17.028 -0.2466  0.3226 -0.8878
  798MPD2    C311757   1.919   2.887  16.996  0.3715 -0.1222 -0.4294
  798MPD2    C411758   2.018   2.942  16.910 -0.1448 -0.0757 -0.3598
  798MPD2    C511759   2.023   3.073  16.866  0.6990 -0.3066 -0.1652
  798MPD2     H11760   1.736   2.931  17.095 -0.5926  0.8554 -0.9944
  798MPD2    H111761   2.099   2.871  16.895  1.1079  1.1712  0.5115
  798MPD2    H211762   1.906   3.245  16.854 -0.0598  0.7113  1.5345
  798MPD2    H311763   2.109   3.113  16.815 -0.8956  0.9881 -1.8580
  798MPD2     N11764   1.915   2.751  17.040 -0.6594 -0.2061 -0.2086
  798MPD2    H511765   1.835   2.726  17.097 -0.5416  0.2803  0.1666
  798MPD2    N111766   1.702   3.185  17.004  0.4594 -0.1720  0.2853
  798MPD2    H711767   1.715   3.275  16.959 -1.3904  0.5318  1.1547
  799MPD2     C11768   4.614   4.436  14.726  0.5548 -0.0413 -0.3124
  799MPD2    C111769   4.629   4.317  14.655  0.1723 -0.2385 -0.0408
  799MPD2    C211770   4.579   4.294  14.529  0.2004 -0.2720 -0.3924
  799MPD2    C311771   4.509   4.395  14.470  0.1083  0.7027 -0.3894
  799MPD2    C411772   4.488   4.505  14.542 -0.1679  0.2510  0.1329
  799MPD2    C511773   4.540   4.529  14.665  0.0083  0.1180  0.2319
  799MPD2     H11774   4.608   4.204  14.476  2.2389  0.4153 -0.4173
  799MPD2    H111775   4.461   4.590  14.481 -0.6229  0.6979  0.9589
  799MPD2    H211776   4.669   4.444  14.819 -0.4929  0.9083  0.2177
  799MPD2    H311777   4.535   4.628  14.708  1.4173  1.3338 -2.4378
  799MPD2     N11778   4.447   4.389  14.343 -0.0698  0.0147  0.2884
  799MPD2    H511779   4.403   4.474  14.307 -1.2013 -0.4770  0.5040
  799MPD2    N111780   4.718   4.225  14.713  0.1324  0.5128 -0.9259
  799MPD2    H711781   0.038   4.260  14.800 -0.4663  0.0073 -0.4531
  800MPD2     C11782   0.114   0.293  13.915  0.1306  0.7218 -0.1442
  800MPD2    C111783   0.241   0.297  13.871 -0.1073 -0.1592 -0.3112
  800MPD2    C211784   0.258   0.345  13.739 -0.2202  0.0452  0.1192
  800MPD2    C311785   0.157   0.413  13.669 -0.3289  0.3027  0.0121
  800MPD2    C411786   0.027   0.415  13.715  0.5190  0.5961 -0.0513
  800MPD2    C511787   0.013   0.362  13.846  0.5838 -0.3014  0.4228
  800MPD2     H11788   0.355   0.339  13.690 -0.5026 -1.6120 -0.2558
  800MPD2    H111789   4.662   0.458  13.663  0.0123  0.1572  0.4243
  800MPD2    H211790   0.095   0.266  14.019 -2.4034 -0.4884 -0.9181
  800MPD2    H311791   4.631   0.360  13.882 -0.5304  2.7932 -2.6116
  800MPD2     N11792   0.189   0.462  13.540  1.0063 -0.1513  0.4932
  800MPD2    H511793   0.274   0.433  13.493  1.2485 -0.0301  0.8616
  800MPD2    N111794   0.343   0.238  13.955 -0.1699  0.6770  0.2388
  800MPD2    H711795   0.305   0.224  14.048 -1.9456  1.8069 -0.3131
  801MPD2     C11796   0.514   0.164  14.653  0.1512  0.0150 -0.3818
  801MPD2    C111797   0.476   0.240  14.544 -1.2591  1.0320  1.0294
  801MPD2    C211798   0.440   0.372  14.558  0.2009 -0.3164  0.1457
  801MPD2    C311799   0.429   0.424  14.689 -0.8507 -0.0731  0.0351
  801MPD2    C411800   0.447   0.345  14.793  0.0076  0.4595 -0.5784
  801MPD2    C511801   0.484   0.219  14.775  0.3544 -0.0421  0.3914
  801MPD2     H11802   0.433   0.427  14.465 -0.0924  1.1189  1.0166
  801MPD2    H111803   0.454   0.390  14.891  0.8612  1.3678 -1.0521
  801MPD2    H211804   0.538   0.058  14.652  0.1265 -0.0107  1.5781
  801MPD2    H311805   0.511   0.166  14.865 -0.3889 -1.5311 -0.2710
  801MPD2     N11806   0.410   0.560  14.704 -0.0466  0.1277  0.1766
  801MPD2    H511807   0.427   0.603  14.794 -0.2539  0.2630  0.1514
  801MPD2    N111808   0.486   0.189  14.413 -0.2943 -0.4806 -0.7579
  801MPD2    H711809   0.465   0.254  14.337  2.5563 -0.3348 -1.4124
  802MPD2     C11810   4.003   1.494  17.498 -0.2275  0.0616  1.1439
  802MPD2    C111811   4.132   1.476  17.552 -0.7932 -0.3218  0.1802
  802MPD2    C211812   4.216   1.380  17.497  0.2130 -0.0407  0.0438
  802MPD2    C311813   4.175   1.300  17.400  0.4905  0.0646 -0.0453
  802MPD2    C411814   4.053   1.330  17.332 -0.1469  0.3883 -0.6056
  802MPD2    C511815   3.982   1.439  17.377  0.7901 -0.2585  0.4393
  802MPD2     H11816   4.311   1.363  17.546 -0.0449 -0.5013  0.3825
  802MPD2    H111817   4.011   1.272  17.251 -1.9528  1.4815 -0.4502
  802MPD2    H211818   3.938   1.579  17.514  1.3856  0.8807  3.2530
  802MPD2    H311819   3.892   1.476  17.329 -1.1816 -1.7328  2.9679
  802MPD2     N11820   4.265   1.211  17.348  0.1356  0.3612  0.4128
  802MPD2    H511821   4.358   1.223  17.387  0.6508 -0.8492 -0.4332
  802MPD2    N111822   4.183   1.559  17.653  0.5772 -0.5002  0.1854
  802MPD2    H711823   4.272   1.541   0.017  1.3726 -0.2140 -1.2132
  803MPD2     C11824   1.514   0.391  11.352 -0.5452 -0.1654 -0.2305
  803MPD2    C111825   1.559   0.376  11.481 -0.6450 -0.3146  1.0116
  803MPD2    C211826   1.508   0.274  11.559  1.0454 -0.6048 -0.0421
  803MPD2    C311827   1.413   0.182  11.505 -0.1505  0.0268  0.6716
  803MPD2    C411828   1.377   0.193  11.370 -0.0492  0.7015  0.0066
  803MPD2    C511829   1.432   0.295  11.298 -0.3543 -0.1995 -0.5683
  803MPD2     H11830   1.541   0.273  11.662  1.4170 -1.4580 -0.1682
  803MPD2    H111831   1.308   0.127  11.319  3.0198 -3.5812  1.4311
  803MPD2    H211832   1.543   0.475  11.291  0.3289 -0.4925 -0.2678
  803MPD2    H311833   1.405   0.297  11.193 -0.5070 -1.2500 -0.5447
  803MPD2     N11834   1.356   0.081  11.582 -0.2361  0.3466 -0.4155
  803MPD2    H511835   1.280   0.028  11.542 -0.0536 -1.3653  1.5385
  803MPD2    N111836   1.648   0.474  11.542 -0.4590 -0.2355  0.5681
  803MPD2    H711837   1.651   0.471  11.643 -1.6853 -1.1082  0.5834
  804MPD2     C11838   0.498   1.942  17.195  0.4305 -0.1945 -0.4672
  804MPD2    C111839   0.522   1.860  17.301 -0.0996 -0.2041 -0.0001
  804MPD2    C211840   0.614   1.896  17.398 -0.3729 -0.0125  0.1065
  804MPD2    C311841   0.696   2.005  17.380 -0.0967  0.0342  0.1287
  804MPD2    C411842   0.675   2.088  17.267  0.0366 -0.3998  0.0309
  804MPD2    C511843   0.567   2.056  17.184  0.0483  0.0521  0.3178
  804MPD2     H11844   0.628   1.832  17.485  0.4257 -0.0096 -0.0252
  804MPD2    H111845   0.724   2.184  17.256  2.8382 -1.9245 -0.7557
  804MPD2    H211846   0.429   1.913  17.117 -0.6612  0.6770  0.1743
  804MPD2    H311847   0.533   2.122  17.105 -0.7561 -1.6701 -0.7729
  804MPD2     N11848   0.790   2.028  17.482  0.4541 -0.4150  0.0608
  804MPD2    H511849   0.785   1.978  17.571 -0.0092  1.4264  1.0634
  804MPD2    N111850   0.458   1.731  17.311 -0.3886  0.3611  0.2246
  804MPD2    H711851   0.490   1.675  17.389 -1.0631  2.2240  1.8573
  805MPD2     C11852   4.254   0.045  16.029 -0.0606  0.1875 -0.6546
  805MPD2    C111853   4.346   0.024  15.927 -0.5108 -0.1932 -0.0776
  805MPD2    C211854   4.485   0.037  15.950  0.3190  0.3926  0.0818
  805MPD2    C311855   4.529   0.078  16.075  0.8924  0.0363 -0.6582
  805MPD2    C411856   4.437   0.117  16.169  0.7780 -0.1265  0.1172
  805MPD2    C511857   4.300   0.100  16.145 -0.7412  0.8355 -0.7626
  805MPD2     H11858   4.555   0.014  15.871 -0.7306 -0.4926 -0.5777
  805MPD2    H111859   4.463   0.149  16.269 -2.3363 -1.3910  1.3449
  805MPD2    H211860   4.151   0.013  16.019 -0.5849  1.5470  0.3281
  805MPD2    H311861   4.234   0.122  16.229 -0.6176 -0.6532 -0.2767
  805MPD2     N11862   4.665   0.088  16.109 -0.2857  0.2198  0.3177
  805MPD2    H511863   4.683   0.133  16.198 -1.2107  1.6628 -0.2185
  805MPD2    N111864   4.310   4.689  15.805  0.1678  0.8189  0.2250
  805MPD2    H711865   4.389   4.663  15.748 -2.6038 -0.6714 -2.9477
  806MPD2     C11866   0.310   4.208   0.644  0.1922 -0.3735 -0.5127
  806MPD2    C111867   0.437   4.179   0.598 -0.3604 -0.1422 -0.2083
  806MPD2    C211868   0.480   4.218   0.475 -0.2486 -0.2306  0.0404
  806MPD2    C311869   0.394   4.278   0.390 -0.5418 -0.1049 -0.2635
  806MPD2    C411870   0.258   4.299   0.427  0.4674 -0.5389  0.2397
  806MPD2    C511871   0.228   4.268   0.553 -0.1176  0.8209  0.4548
  806MPD2     H11872   0.575   4.185   0.435  0.0380  2.3966 -1.3738
  806MPD2    H111873   0.180   4.336   0.361  0.4491 -1.5368 -0.3049
  806MPD2    H211874   0.279   4.174   0.742 -2.5510  1.4704 -0.7612
  806MPD2    H311875   0.125   4.291   0.576 -0.4093 -0.2470  0.2341
  806MPD2     N11876   0.451   4.321   0.263 -0.5954 -0.3686  0.7562
  806MPD2    H511877   0.551   4.304   0.254 -0.6159 -0.5472  0.8664
  806MPD2    N111878   0.516   4.113   0.697 -0.4535 -0.2314 -0.3900
  806MPD2    H711879   0.466   4.090   0.782  1.6950 -0.9014  0.6957
  807MPD2     C11880   0.475   3.957   1.409 -0.2784 -0.5293 -0.2941
  807MPD2    C111881   0.563   3.862   1.357 -1.0248 -1.2469  0.6891
  807MPD2    C211882   0.567   3.737   1.413 -0.6033 -0.0160 -0.2144
  807MPD2    C311883   0.482   3.694   1.510 -0.7380 -0.0423 -0.1801
  807MPD2    C411884   0.411   3.795   1.578 -0.0450  0.1105 -0.5415
  807MPD2    C511885   0.415   3.923   1.529 -0.6955 -0.0905 -0.0808
  807MPD2     H11886   0.630   3.658   1.374  2.5347  1.2268  2.3875
  807MPD2    H111887   0.349   3.776   1.665  1.0024 -0.8506  0.0002
  807MPD2    H211888   0.459   4.054   1.362 -0.4283 -1.2827 -1.7909
  807MPD2    H311889   0.350   3.998   1.575  0.3920  1.1740 -0.6146
  807MPD2     N11890   0.500   3.561   1.560 -0.3990  0.0351 -0.5596
  807MPD2    H511891   0.583   3.505   1.539 -0.1713  0.0014  0.4571
  807MPD2    N111892   0.635   3.879   1.235 -0.3899 -0.0403 -0.7557
  807MPD2    H711893   0.670   3.791   1.199  3.9914  1.5649 -0.4444
  808MPD2     C11894   0.513   0.682   9.052 -0.2040  0.2101  0.3238
  808MPD2    C111895   0.505   0.710   9.191 -0.7412 -0.4863 -0.1956
  808MPD2    C211896   0.619   0.770   9.250 -0.3043 -0.4474 -0.1197
  808MPD2    C311897   0.728   0.806   9.176 -0.3639 -0.6516 -0.2047
  808MPD2    C411898   0.730   0.773   9.045 -0.0157 -1.0312 -0.2442
  808MPD2    C511899   0.624   0.710   8.981  0.4668 -0.0678 -0.0990
  808MPD2     H11900   0.621   0.790   9.357  0.8390  0.0363 -0.2329
  808MPD2    H111901   0.814   0.805   8.983 -1.3250  0.3104 -1.3276
  808MPD2    H211902   0.425   0.641   9.003  0.2098  1.3937 -1.4119
  808MPD2    H311903   0.633   0.689   8.875 -0.1240  0.6504 -0.2908
  808MPD2     N11904   0.839   0.869   9.228 -0.4600  0.8289 -0.2483
  808MPD2    H511905   0.910   0.889   9.157 -2.9860  2.6136 -2.2699
  808MPD2    N111906   0.389   0.689   9.272  0.3293  0.5114 -0.0886
  808MPD2    H711907   0.405   0.688   9.372  0.7049  0.4081 -0.1494
  809MPD2     C11908   1.593   0.559   9.130  0.0152  0.2803  0.3284
  809MPD2    C111909   1.646   0.686   9.138  0.5433  0.2392  0.2957
  809MPD2    C211910   1.560   0.786   9.169 -0.1033 -0.2714  0.2507
  809MPD2    C311911   1.420   0.761   9.189  0.3174  0.2652 -0.4889
  809MPD2    C411912   1.378   0.631   9.184 -0.9847  0.2750 -0.6509
  809MPD2    C511913   1.462   0.534   9.158  0.3370 -0.0663 -0.8447
  809MPD2     H11914   1.598   0.887   9.177 -0.5417 -0.2022  1.4501
  809MPD2    H111915   1.272   0.609   9.192 -0.8862 -0.1132 -0.4019
  809MPD2    H211916   1.650   0.469   9.113 -1.4039 -0.7366  1.0067
  809MPD2    H311917   1.414   0.437   9.157  2.1907 -1.0106  1.4591
  809MPD2     N11918   1.323   0.846   9.223  0.0887 -0.4896  0.1247
  809MPD2    H511919   1.227   0.814   9.232 -0.0707 -0.0614 -0.0688
  809MPD2    N111920   1.783   0.713   9.116 -0.5503  0.0191  0.4692
  809MPD2    H711921   1.813   0.808   9.095 -1.2692  0.8331  3.1052
  810MPD2     C11922   0.577   4.539   9.520 -0.4118 -0.2859 -0.7633
  810MPD2    C111923   0.555   4.464   9.630 -0.5114  0.4391  0.4522
  810MPD2    C211924   0.662   4.460   9.718  0.9734 -0.6679 -0.3859
  810MPD2    C311925   0.775   4.540   9.697  0.2667  0.5356 -0.1243
  810MPD2    C411926   0.791   4.617   9.582  0.4353 -0.5044  0.4498
  810MPD2    C511927   0.684   4.620   9.497 -0.9747  0.4453  0.3619
  810MPD2     H11928   0.664   4.404   9.811 -2.9493 -0.7091 -0.3426
  810MPD2    H111929   0.858   4.700   9.564 -0.4678  0.0613 -0.3214
  810MPD2    H211930   0.489   4.561   9.460  0.2796  2.0072 -0.9217
  810MPD2    H311931   0.690   4.698   9.422  0.9605 -1.3689 -1.3740
  810MPD2     N11932   0.862   4.554   9.805 -0.2510 -0.0659  0.6763
  810MPD2    H511933   0.831   4.522   9.896 -1.3847  0.4177  0.4544
  810MPD2    N111934   0.430   4.397   9.656  0.5538  0.1868  1.0234
  810MPD2    H711935   0.356   4.407   9.587  0.8561 -1.1618  0.5140
  811MPD2     C11936   4.382   4.610   9.887  0.3812  0.1068 -1.1760
  811MPD2    C111937   4.514   4.645   9.890  1.2338  0.5014  0.0921
  811MPD2    C211938   4.539   0.064   9.903  0.0535  0.2151 -0.1197
  811MPD2    C311939   4.437   0.156   9.911 -0.3281 -0.1506  0.7477
  811MPD2    C411940   4.303   0.115   9.919 -0.0959  0.6821  0.1678
  811MPD2    C511941   4.280   4.705   9.905  0.3303  0.7393  0.5404
  811MPD2     H11942   4.642   0.094   9.887  0.1697  0.2324  0.6816
  811MPD2    H111943   4.220   0.183   9.938 -1.1999 -1.1775  1.9900
  811MPD2    H211944   4.351   4.509   9.861  0.4255 -0.3893  0.6717
  811MPD2    H311945   4.177   4.672   9.905  0.7335 -0.6293  4.4303
  811MPD2     N11946   4.477   0.295   9.908  0.0415 -0.3712  0.4075
  811MPD2    H511947   4.577   0.313   9.897 -0.2715  0.6416 -0.7799
  811MPD2    N111948   4.603   4.543   9.866  0.4023 -0.0460  0.3900
  811MPD2    H711949   4.571   4.448   9.852  0.1492  0.0435  0.3651
  812MPD2     C11950   3.059   4.614  12.100 -0.7988  0.2924 -0.3404
  812MPD2    C111951   3.050   0.001  12.185 -0.8916  0.4382  0.0957
  812MPD2    C211952   3.103   4.719  12.312 -0.2900  0.2039 -0.5027
  812MPD2    C311953   3.159   4.601  12.363 -0.0691 -0.4443 -0.4267
  812MPD2    C411954   3.166   4.489  12.283 -0.0487  0.2813 -0.1957
  812MPD2    C511955   3.116   4.498  12.145 -0.0713 -0.7428  0.3575
  812MPD2     H11956   3.098   0.094  12.363 -0.2338  0.1065 -0.3122
  812MPD2    H111957   3.209   4.395  12.316  0.4816  0.8142  0.5983
  812MPD2    H211958   3.007   4.613  12.005 -0.9670 -1.1319 -0.2401
  812MPD2    H311959   3.123   4.420  12.070  1.6251  0.0898 -0.3364
  812MPD2     N11960   3.210   4.604  12.494  0.9225  0.0472  0.2739
  812MPD2    H511961   3.216   4.695  12.538  1.9624  1.3109 -2.4959
  812MPD2    N111962   2.985   0.115  12.127  0.0059  0.3596 -1.1756
  812MPD2    H711963   2.931   0.097  12.043 -0.5502 -2.1131 -0.2982
  813MPD2     C11964   3.164   2.391  12.620 -0.7890 -0.9840 -0.0781
  813MPD2    C111965   3.181   2.368  12.750  0.5806 -0.0891 -0.0186
  813MPD2    C211966   3.102   2.289  12.824  0.1145  0.9161  0.7544
  813MPD2    C311967   3.001   2.223  12.763  0.1412  0.4710 -0.3332
  813MPD2    C411968   2.972   2.231  12.626 -0.0584 -0.5614  0.5587
  813MPD2    C511969   3.064   2.313  12.558  0.7075 -0.5635  0.1056
  813MPD2     H11970   3.117   2.291  12.932  2.1222 -1.2784  0.5271
  813MPD2    H111971   2.889   2.186  12.574  1.6229 -1.6745 -1.1583
  813MPD2    H211972   3.232   2.449  12.558 -0.5855  0.2435  1.2937
  813MPD2    H311973   3.054   2.303  12.450  1.9878 -0.6019 -0.0113
  813MPD2     N11974   2.900   2.146  12.837  0.0170  0.2808  0.2394
  813MPD2    H511975   2.823   2.110  12.781  1.1685  0.2534 -1.3281
  813MPD2    N111976   3.274   2.444  12.820  0.4280  0.2838 -0.8395
  813MPD2    H711977   3.275   2.435  12.922 -0.9524 -0.5084 -0.9000
  814MPD2     C11978   3.739   2.919  11.869  0.1213  0.4707  0.4239
  814MPD2    C111979   3.715   3.038  11.801  0.0617  0.3903 -0.7833
  814MPD2    C211980   3.692   3.150  11.869 -0.6478  0.1692  0.6748
  814MPD2    C311981   3.686   3.156  12.005 -0.3918 -0.3453 -0.4295
  814MPD2    C411982   3.691   3.037  12.075 -0.3894 -0.3288  0.8996
  814MPD2    C511983   3.735   2.925  12.009 -0.3103  0.0790 -0.5170
  814MPD2     H11984   3.699   3.240  11.808  2.2777  0.2579  1.1359
  814MPD2    H111985   3.672   3.023  12.181  0.4014  0.6863  1.1691
  814MPD2    H211986   3.771   2.826  11.822  0.1835  0.8000 -0.1942
  814MPD2    H311987   3.764   2.843  12.074  0.4420 -0.5059 -1.5932
  814MPD2     N11988   3.663   3.280  12.084  0.2676  0.1735 -0.2056
  814MPD2    H511989   3.650   3.267  12.184 -0.9994  1.2141 -0.2442
  814MPD2    N111990   3.713   3.055  11.662  0.1719 -0.0970  0.7987
  814MPD2    H711991   3.687   3.148  11.632 -0.2117 -0.7597 -0.9237
  815MPD2     C11992   4.024   2.096  12.130 -0.4561  0.2264  0.2656
  815MPD2    C111993   4.008   1.962  12.114 -0.1337 -1.1811 -0.4318
  815MPD2    C211994   3.935   1.895  12.202  0.6838 -0.7660  0.2027
  815MPD2    C311995   3.867   1.959  12.306  0.0805  0.0471  0.0663
  815MPD2    C411996   3.880   2.096  12.325 -0.1580  0.6042 -0.1497
  815MPD2    C511997   3.968   2.160  12.238 -0.4293 -0.4863 -0.1012
  815MPD2     H11998   3.921   1.787  12.195  0.3221 -0.6993 -0.0607
  815MPD2    H111999   3.831   2.151  12.405 -0.5501 -1.0460  0.7435
  815MPD2    H212000   4.084   2.156  12.063  1.2462 -2.9104 -1.0034
  815MPD2    H312001   3.999   2.263  12.243  0.1538 -0.6375 -0.6573
  815MPD2     N12002   3.771   1.877  12.371 -0.4371  0.0307 -0.6507
  815MPD2    H512003   3.755   1.787  12.327  2.0508  0.1670 -1.8511
  815MPD2    N112004   4.071   1.906  12.000  0.1734  0.2186  0.5385
  815MPD2    H712005   4.119   1.974  11.942 -1.2355  1.3653  0.6937
  816MPD2     C12006   4.409   1.128   0.011  0.2145  0.1007  0.3836
  816MPD2    C112007   4.278   1.092  17.672 -0.4156  0.2957 -0.1016
  816MPD2    C212008   4.255   0.984  17.588 -0.0408 -0.5515 -0.3206
  816MPD2    C312009   4.358   0.908  17.534  0.0892  0.2353  0.0335
  816MPD2    C412010   4.486   0.957  17.554  0.4473  0.2423  0.3538
  816MPD2    C512011   4.508   1.063  17.636 -0.0363 -0.1380  0.1132
  816MPD2     H12012   4.151   0.958  17.570  0.1642 -0.5951 -1.4715
  816MPD2    H112013   4.570   0.905  17.510 -0.6931 -0.5065 -0.9207
  816MPD2    H212014   4.437   1.215   0.069  0.6449  0.1503  0.1011
  816MPD2    H312015   4.608   1.095  17.664  0.9210 -0.5161 -2.8766
  816MPD2     N12016   4.317   0.802  17.456 -0.2195 -0.2755 -0.0841
  816MPD2    H512017   4.217   0.791  17.445 -0.1938 -3.5327  3.3423
  816MPD2    N112018   4.167   1.157   0.046 -0.5414  0.2608 -0.4580
  816MPD2    H712019   4.074   1.135   0.014 -1.6652  4.1271  0.0659
  817MPD2     C12020   4.163   2.964   9.790  0.2266 -0.5190  0.8899
  817MPD2    C112021   4.039   2.933   9.755 -0.9240  0.0532  0.1299
  817MPD2    C212022   3.962   3.035   9.694  0.3015 -0.0506  0.0604
  817MPD2    C312023   4.021   3.161   9.674 -0.2683  0.6128 -0.2403
  817MPD2    C412024   4.146   3.189   9.727  0.8987 -0.7192 -1.2557
  817MPD2    C512025   4.208   3.095   9.797 -0.1064  0.2572  0.4311
  817MPD2     H12026   3.863   3.001   9.666  0.2754  0.1811 -0.1203
  817MPD2    H112027   4.206   3.279   9.718 -1.4525  1.0240  0.2168
  817MPD2    H212028   4.229   2.887   9.826 -0.6837 -0.3389  2.9256
  817MPD2    H312029   4.305   3.120   9.839  0.9028 -2.5213 -0.2198
  817MPD2     N12030   3.952   3.260   9.598 -0.5370 -0.4962  0.9478
  817MPD2    H512031   3.860   3.236   9.563 -0.6476 -0.2484  1.0710
  817MPD2    N112032   3.997   2.801   9.748 -0.4458 -0.3365 -0.3520
  817MPD2    H712033   3.902   2.781   9.718 -0.7273 -1.6381  1.3808
  818MPD2     C12034   2.423   2.280  10.065  0.2665 -0.1191 -0.0784
  818MPD2    C112035   2.378   2.242  10.185 -0.0518 -0.0053 -0.5722
  818MPD2    C212036   2.465   2.182  10.275 -0.4213  1.1096 -0.1433
  818MPD2    C312037   2.594   2.160  10.246 -0.2079  0.1825 -0.4938
  818MPD2    C412038   2.640   2.194  10.117  0.8366 -0.0138  0.5279
  818MPD2    C512039   2.559   2.254  10.026  0.5286  0.0087 -0.1224
  818MPD2     H12040   2.418   2.139  10.363 -1.7846  0.1896 -1.3145
  818MPD2    H112041   2.743   2.174  10.090  0.7487  0.9183 -0.5084
  818MPD2    H212042   2.358   2.325   9.991 -2.6478 -2.0230  1.2901
  818MPD2    H312043   2.610   2.303   9.943  0.5216  0.6958  0.2747
  818MPD2     N12044   2.693   2.113  10.339 -0.3943 -0.3407  0.1708
  818MPD2    H512045   2.789   2.118  10.307  0.1522  0.5990  1.9547
  818MPD2    N112046   2.257   2.290  10.235 -0.1038  0.5264 -1.4567
  818MPD2    H712047   2.234   2.265  10.331 -0.8239 -0.8561 -1.9887
  819MPD2     C12048   0.820   4.372  15.459 -0.2606  0.9925 -0.3305
  819MPD2    C112049   0.812   4.239  15.449 -0.0310 -0.7332 -0.1872
  819MPD2    C212050   0.927   4.158  15.470  0.4805 -0.1844 -0.8135
  819MPD2    C312051   1.043   4.225  15.525  0.0374 -0.7251 -0.6837
  819MPD2    C412052   1.044   4.363  15.540  0.0156  0.1763  0.7034
  819MPD2    C512053   0.940   4.432  15.502 -0.1307 -0.3521  0.0241
  819MPD2     H12054   0.917   4.051  15.454  0.0700 -0.3223  0.4016
  819MPD2    H112055   1.130   4.420  15.572 -1.2354  2.0937  0.6803
  819MPD2    H212056   0.735   4.435  15.436  0.2286  1.1264 -1.7961
  819MPD2    H312057   0.947   4.539  15.515 -3.2185 -0.3197  1.6330
  819MPD2     N12058   1.166   4.158  15.552  0.4693  0.1764 -0.0294
  819MPD2    H512059   1.168   4.060  15.525  1.4862  0.1244  0.2464
  819MPD2    N112060   0.685   4.185  15.406  0.3476 -0.0351 -0.3441
  819MPD2    H712061   0.613   4.244  15.367  1.2750  0.4437 -1.3331
  820MPD2     C12062   4.655   4.505  15.123 -0.0588  0.2765  0.3640
  820MPD2    C112063   4.620   4.436  15.240  0.0969 -0.2987  0.4423
  820MPD2    C212064   4.709   4.356  15.302  0.2588  0.2000 -0.5215
  820MPD2    C312065   0.116   4.329  15.247  0.6576  0.8218  0.3762
  820MPD2    C412066   0.151   4.410  15.140  0.2486 -0.2686 -0.8438
  820MPD2    C512067   0.065   4.498  15.080  0.1295  0.2592 -0.0231
  820MPD2     H12068   4.677   4.296  15.386  2.5066 -1.0687 -0.5565
  820MPD2    H112069   0.256   4.422  15.113  1.0476 -0.6480  2.1085
  820MPD2    H212070   4.581   4.572  15.080 -1.3608 -1.3349  0.0903
  820MPD2    H312071   0.105   4.568  15.008  0.1761  0.7318  0.4570
  820MPD2     N12072   0.210   4.252  15.319  0.1980 -0.0534 -0.4155
  820MPD2    H512073   0.307   4.275  15.299  0.3363  0.2199  0.5956
  820MPD2    N112074   4.495   4.464  15.298  0.3011 -0.4813  0.4317
  820MPD2    H712075   4.434   4.516  15.235 -1.1055 -1.3008  1.1148
  821MPD2     C12076   0.094   0.918  12.764  0.8068 -0.5394  0.5052
  821MPD2    C112077   0.204   0.859  12.823  0.2844  0.4896 -0.2633
  821MPD2    C212078   0.328   0.886  12.771 -0.4497  0.2030 -0.7757
  821MPD2    C312079   0.357   0.958  12.659  0.6336  0.3620  0.0329
  821MPD2    C412080   0.245   1.022  12.604  0.2620  0.8502  0.2815
  821MPD2    C512081   0.118   1.006  12.659 -0.3453 -0.6570  0.2046
  821MPD2     H12082   0.408   0.832  12.821 -0.5386  0.9289  0.1306
  821MPD2    H112083   0.259   1.083  12.515  2.9892  0.2360  0.3070
  821MPD2    H212084   4.710   0.908  12.792  1.3078 -2.3630  1.7285
  821MPD2    H312085   0.034   1.061  12.620  0.4458  0.6587  0.3618
  821MPD2     N12086   0.481   1.000  12.612  0.6490 -0.8102  0.0846
  821MPD2    H512087   0.485   1.079  12.549 -1.6289 -2.3061 -1.8988
  821MPD2    N112088   0.201   0.766  12.932  0.2935 -0.4913  0.5381
  821MPD2    H712089   0.289   0.726  12.960  0.8689  2.1229  2.4265
  822MPD2     C12090   1.392   1.104  15.754 -0.2953  0.4969  0.0770
  822MPD2    C112091   1.386   1.080  15.894 -0.0011  0.1326 -0.4399
  822MPD2    C212092   1.301   1.162  15.968 -0.0138  0.4154  0.4585
  822MPD2    C312093   1.233   1.269  15.910 -0.3997 -0.0943 -0.3263
  822MPD2    C412094   1.219   1.278  15.772 -0.3516  0.1296  0.3421
  822MPD2    C512095   1.303   1.194  15.699  0.2924  0.5152  0.0173
  822MPD2     H12096   1.306   1.168  16.076  1.3734 -0.2481  0.4253
  822MPD2    H112097   1.158   1.353  15.722 -0.0630  0.4470  0.4696
  822MPD2    H212098   1.449   1.040  15.687 -0.9468 -1.8484  1.7394
  822MPD2    H312099   1.301   1.196  15.591 -1.5411  0.9632  0.0502
  822MPD2     N12100   1.157   1.344  15.998  0.5218 -0.1881 -0.5832
  822MPD2    H512101   1.151   1.316  16.095  1.6257 -2.5277 -1.2009
  822MPD2    N112102   1.466   0.990  15.972 -0.2481 -0.1278 -0.1186
  822MPD2    H712103   1.451   0.996  16.073  2.1035 -1.5827  0.3340
  823MPD2     C12104   0.948   1.585  16.782 -1.5277 -0.5456 -0.4513
  823MPD2    C112105   0.985   1.499  16.679  0.0130  0.3390 -0.5049
  823MPD2    C212106   1.050   1.378  16.709  0.0798 -0.1047 -0.2601
  823MPD2    C312107   1.078   1.344  16.843  0.6296 -0.2161 -0.1959
  823MPD2    C412108   1.022   1.419  16.942 -0.2517  1.0108 -0.4565
  823MPD2    C512109   0.973   1.547  16.913 -0.3600 -0.4433 -0.6241
  823MPD2     H12110   1.072   1.307  16.630  2.7299 -0.2390  0.6064
  823MPD2    H112111   1.033   1.387  17.045  0.7852  2.0088 -0.2606
  823MPD2    H212112   0.894   1.676  16.758  0.2651  0.6800  0.1732
  823MPD2    H312113   0.949   1.610  16.999 -0.8532 -1.6994  0.1570
  823MPD2     N12114   1.160   1.234  16.880 -0.5900  0.2100 -0.1933
  823MPD2    H512115   1.163   1.219  16.981 -0.3470  1.0169 -0.0817
  823MPD2    N112116   0.958   1.541  16.545 -0.1982  0.6039 -0.0489
  823MPD2    H712117   0.917   1.632  16.527 -0.5189  0.6507  0.9417
  824MPD2     C12118   2.235   0.525  16.070  0.0142  0.4951 -0.4366
  824MPD2    C112119   2.123   0.515  15.980 -0.0352  0.6096  0.1894
  824MPD2    C212120   2.137   0.413  15.882 -0.5393 -0.1643  0.1489
  824MPD2    C312121   2.240   0.318  15.879 -0.5794 -0.6474 -0.1536
  824MPD2    C412122   2.346   0.340  15.961 -0.0803 -0.4934 -0.8413
  824MPD2    C512123   2.341   0.438  16.060  0.2624  0.4297 -0.7624
  824MPD2     H12124   2.050   0.402  15.819 -1.3274  1.9232  0.8612
  824MPD2    H112125   2.438   0.282  15.961 -0.0129 -0.3630  2.0182
  824MPD2    H212126   2.237   0.594  16.153 -0.7606  0.0199 -0.0201
  824MPD2    H312127   2.416   0.437  16.138 -0.0998 -0.1487 -0.4255
  824MPD2     N12128   2.237   0.221  15.779 -0.2989 -0.1932 -0.3060
  824MPD2    H512129   2.165   0.226  15.707 -1.4344 -0.2906  0.8240
  824MPD2    N112130   2.004   0.590  15.984 -0.0123 -0.0980 -0.7641
  824MPD2    H712131   1.927   0.549  15.932  0.0752  1.4453 -2.1304
  825MPD2     C12132   2.457   0.019  14.972 -0.0333 -0.2260 -0.4257
  825MPD2    C112133   2.443   0.111  15.070  0.3544  0.3810  0.0125
  825MPD2    C212134   2.455   0.245  15.046 -0.3309 -0.3579 -0.0962
  825MPD2    C312135   2.476   0.285  14.916 -0.7519 -0.0824 -0.7487
  825MPD2    C412136   2.502   0.187  14.822  0.2085  0.4425 -0.7900
  825MPD2    C512137   2.490   0.051  14.843 -0.2635 -0.4575 -0.8158
  825MPD2     H12138   2.436   0.317  15.125  0.4919 -2.1911  1.7767
  825MPD2    H112139   2.530   0.211  14.720  0.4604 -2.0666 -1.3281
  825MPD2    H212140   2.442   4.632  14.989 -4.0079  0.4491  0.3387
  825MPD2    H312141   2.511   4.697  14.766  2.0022 -1.1795  0.4805
  825MPD2     N12142   2.490   0.419  14.866 -0.1039  0.0316 -1.2203
  825MPD2    H512143   2.502   0.423  14.766  1.1875 -0.0878 -1.0636
  825MPD2    N112144   2.407   0.067  15.198 -0.0063 -0.5613 -1.0441
  825MPD2    H712145   2.399   4.689  15.220  0.4778 -0.3672  0.0099
  826MPD2     C12146   2.406   4.627  13.529 -0.3310 -0.3241  0.3577
  826MPD2    C112147   2.293   4.620  13.449 -0.7797  0.7595 -0.7894
  826MPD2    C212148   2.204   0.004  13.462 -0.2567 -0.1149  0.0401
  826MPD2    C312149   2.227   0.120  13.549  0.1610 -0.4866  0.6230
  826MPD2    C412150   2.354   0.129  13.599  0.4606 -1.0899 -0.1422
  826MPD2    C512151   2.446   0.024  13.588 -0.1135 -0.5119  0.3134
  826MPD2     H12152   2.113   4.720  13.404  0.7782  0.4243 -1.6120
  826MPD2    H112153   2.381   0.222  13.649  1.3423  0.4474 -3.4676
  826MPD2    H212154   2.475   4.544  13.527  2.8248  2.3134  0.1939
  826MPD2    H312155   2.546   0.021  13.631 -0.3931  1.0177  1.0610
  826MPD2     N12156   2.131   0.222  13.561  0.5446 -0.1308  0.3158
  826MPD2    H512157   2.173   0.307  13.597 -1.5092  0.5874  0.9951
  826MPD2    N112158   2.252   4.518  13.358  0.4960 -0.0256 -0.4350
  826MPD2    H712159   2.179   4.534  13.289  1.2253 -1.5706 -1.5797
  827MPD2     C12160   2.924   1.573  10.086 -0.0803  0.3385  0.0313
  827MPD2    C112161   2.962   1.445  10.120  0.4562  0.6664  0.3282
  827MPD2    C212162   2.947   1.340  10.029 -0.0649  0.2638  0.7918
  827MPD2    C312163   2.908   1.364   9.895  0.4425 -0.1916 -0.2248
  827MPD2    C412164   2.861   1.489   9.871 -0.3883 -0.9311  0.7029
  827MPD2    C512165   2.863   1.588   9.964 -0.4944 -1.4460  0.4846
  827MPD2     H12166   2.990   1.244  10.054 -3.2497 -1.6605 -1.1764
  827MPD2    H112167   2.798   1.514   9.786 -0.1674 -0.1106  0.7794
  827MPD2    H212168   2.923   1.654  10.157  0.6461 -0.6314  1.1351
  827MPD2    H312169   2.812   1.683   9.951  0.4133 -0.6010  2.9961
  827MPD2     N12170   2.919   1.265   9.799  0.3148 -0.4265  0.2032
  827MPD2    H512171   2.950   1.172   9.825 -0.8431 -1.3042 -1.5461
  827MPD2    N112172   3.014   1.430  10.252  0.0658 -0.2475 -0.4544
  827MPD2    H712173   3.027   1.511  10.313  1.4920 -0.7010 -0.1453
  828MPD2     C12174   1.330   0.841  12.492 -0.0240 -0.7805 -0.1491
  828MPD2    C112175   1.341   0.895  12.368 -0.3366 -0.5333  0.2361
  828MPD2    C212176   1.462   0.927  12.311  0.2783 -0.0926  0.7218
  828MPD2    C312177   1.580   0.883  12.362  0.0163  0.0114 -0.0768
  828MPD2    C412178   1.573   0.816  12.486 -0.0769  0.2541  1.2961
  828MPD2    C512179   1.448   0.784  12.532 -0.1345  0.6480 -0.9557
  828MPD2     H12180   1.459   0.982  12.217  1.5028 -0.6282  0.3574
  828MPD2    H112181   1.664   0.780  12.533 -0.2980 -0.8997  0.8191
  828MPD2    H212182   1.233   0.819  12.535 -0.9623 -1.1111 -2.3937
  828MPD2    H312183   1.449   0.727  12.625 -1.8165  0.8924 -0.7808
  828MPD2     N12184   1.714   0.886  12.303  0.2090 -0.4135 -0.1446
  828MPD2    H512185   1.792   0.835  12.343 -0.3951  0.0487  1.5994
  828MPD2    N112186   1.224   0.946  12.297  0.2814 -0.2118  0.1913
  828MPD2    H712187   1.242   1.001  12.213 -0.1247 -0.5352 -0.1078
  829MPD2     C12188   1.207   1.142  11.461 -0.3689 -0.1578 -0.6180
  829MPD2    C112189   1.084   1.190  11.493  0.6969 -0.0241 -0.0747
  829MPD2    C212190   1.031   1.141  11.613 -0.0981 -0.8214  0.5630
  829MPD2    C312191   1.107   1.065  11.706  0.0909 -0.4108  0.0873
  829MPD2    C412192   1.236   1.031  11.673  0.3625  0.2553 -0.1209
  829MPD2    C512193   1.287   1.070  11.553 -0.1353  0.3939  0.2583
  829MPD2     H12194   0.927   1.160  11.637  0.7726  1.8655  2.2242
  829MPD2    H112195   1.304   0.988  11.745 -0.2683 -0.4033  0.0792
  829MPD2    H212196   1.262   1.173  11.373  2.4138  0.5828  1.4080
  829MPD2    H312197   1.385   1.032  11.526 -0.3213  0.4073 -0.4431
  829MPD2     N12198   1.061   1.029  11.831  0.4481  0.1772  0.2142
  829MPD2    H512199   1.132   0.990  11.893  1.2934  0.3339 -0.6636
  829MPD2    N112200   1.022   1.259  11.390 -0.6623 -0.4517 -0.1966
  829MPD2    H712201   1.071   1.264  11.301  0.7121  0.5052  0.6082
  830MPD2     C12202   1.920   4.303  15.489  0.4430 -0.1097 -0.1356
  830MPD2    C112203   1.821   4.244  15.415  0.3416  0.3685 -0.2307
  830MPD2    C212204   1.787   4.282  15.287 -0.5527 -0.6124  0.4505
  830MPD2    C312205   1.877   4.366  15.223  0.1522  0.6539  0.2944
  830MPD2    C412206   1.982   4.430  15.292  0.1762  0.4774 -0.5153
  830MPD2    C512207   1.993   4.399  15.427 -0.7068  0.3641  0.1162
  830MPD2     H12208   1.700   4.235  15.242 -0.0003  1.3259 -2.6428
  830MPD2    H112209   2.041   4.508  15.245  0.7023  0.3678 -0.0346
  830MPD2    H212210   1.942   4.281  15.592  1.6836  0.2279 -0.3328
  830MPD2    H312211   2.060   4.456  15.491  0.3902  0.4516 -1.0967
  830MPD2     N12212   1.867   4.400  15.088 -0.5175 -0.0749 -0.2861
  830MPD2    H512213   1.930   4.475  15.060 -1.0217  1.2435  2.1045
  830MPD2    N112214   1.739   4.151  15.486  0.7496 -0.3256 -0.0643
  830MPD2    H712215   1.741   4.166  15.586 -1.8613 -2.2865  0.2904
  831MPD2     C12216   1.428   1.529  16.297 -0.3451 -0.2124 -0.2606
  831MPD2    C112217   1.462   1.417  16.229 -0.2682  0.5847 -0.0719
  831MPD2    C212218   1.418   1.291  16.271 -0.1912 -0.5993  0.3043
  831MPD2    C312219   1.325   1.280  16.370  0.2786 -0.1719 -0.4820
  831MPD2    C412220   1.307   1.391  16.443  0.4900  0.3697 -0.0908
  831MPD2    C512221   1.355   1.511  16.410 -0.3219 -0.0930 -0.4751
  831MPD2     H12222   1.447   1.207  16.209 -0.7317  0.0451 -0.8218
  831MPD2    H112223   1.252   1.385  16.536  2.8028 -0.4226  1.2317
  831MPD2    H212224   1.473   1.626  16.279 -2.7629  1.2670  1.6697
  831MPD2    H312225   1.329   1.595  16.473  0.7275 -0.2478  0.1553
  831MPD2     N12226   1.240   1.175  16.389  0.3300  0.6088 -0.1837
  831MPD2    H512227   1.164   1.181  16.455  1.2356  1.7062  0.7629
  831MPD2    N112228   1.541   1.419  16.112  0.0888  0.0588  0.3161
  831MPD2    H712229   1.548   1.500  16.051 -1.3746  1.8870  2.5824
  832MPD2     C12230   4.436   2.046  17.615  0.6060  1.0426 -0.4136
  832MPD2    C112231   4.405   2.177  17.612 -0.7350 -0.1344 -0.2398
  832MPD2    C212232   4.290   2.213  17.540 -0.3658  0.6710 -0.0745
  832MPD2    C312233   4.199   2.111  17.510 -0.7118  0.1283  0.0582
  832MPD2    C412234   4.225   1.979  17.516  0.1673  0.0153  0.2874
  832MPD2    C512235   4.354   1.946  17.566 -0.4372  0.4717 -0.1907
  832MPD2     H12236   4.264   2.316  17.524 -0.3793  0.6009 -0.4845
  832MPD2    H112237   4.152   1.907  17.481 -0.8974  0.2341  2.0506
  832MPD2    H212238   4.536   2.010  17.637  0.8362  2.1955  0.4622
  832MPD2    H312239   4.390   1.845  17.551 -1.8711 -0.0839  0.1077
  832MPD2     N12240   4.070   2.137  17.452  0.0811 -0.5940 -0.4075
  832MPD2    H512241   4.016   2.051  17.455  1.1668 -1.2386  0.9420
  832MPD2    N112242   4.503   2.257  17.672 -0.0329 -0.3986 -0.2112
  832MPD2    H712243   4.576   2.221   0.050  0.5263 -1.3621 -1.4629
  833MPD2     C12244   2.109   3.362  12.614 -0.3534  0.4325 -0.6586
  833MPD2    C112245   2.155   3.441  12.509  0.3878 -0.3576  0.2235
  833MPD2    C212246   2.188   3.373  12.390 -0.5131 -0.2678  0.2955
  833MPD2    C312247   2.167   3.241  12.370 -0.1925 -0.3694 -0.0117
  833MPD2    C412248   2.111   3.168  12.478 -0.7984 -0.1991  0.1724
  833MPD2    C512249   2.082   3.230  12.599  0.1667  0.2275  0.2396
  833MPD2     H12250   2.221   3.436  12.309  0.9659 -1.1341  0.2390
  833MPD2    H112251   2.089   3.062  12.475 -2.4159  0.2467 -3.7575
  833MPD2    H212252   2.087   3.409  12.710  1.7193 -0.4379  0.2476
  833MPD2    H312253   2.025   3.176  12.673 -1.3779  0.7841 -0.5212
  833MPD2     N12254   2.188   3.175  12.241 -0.2815  0.5602 -0.0722
  833MPD2    H512255   2.155   3.079  12.243 -2.1029  1.2260  1.9827
  833MPD2    N112256   2.159   3.582  12.537  0.3641 -0.3144  0.0649
  833MPD2    H712257   2.125   3.616  12.627 -0.4509  0.5640 -0.5717
  834MPD2     C12258   1.443   2.958  11.630 -0.0238  0.6118 -0.3077
  834MPD2    C112259   1.543   2.971  11.531  0.5946  0.2458 -0.4707
  834MPD2    C212260   1.665   3.012  11.578  0.7315 -0.0762 -0.0920
  834MPD2    C312261   1.695   3.056  11.707  0.9166 -0.4202  0.2033
  834MPD2    C412262   1.600   3.027  11.805  0.6475 -0.0444 -0.1940
  834MPD2    C512263   1.474   2.977  11.768  0.5041 -0.0004  0.5269
  834MPD2     H12264   1.744   3.032  11.505 -1.0869 -0.1258 -2.0685
  834MPD2    H112265   1.620   3.038  11.910  0.6276 -0.6830 -0.1195
  834MPD2    H212266   1.341   2.940  11.598  0.3602 -0.5695 -0.8901
  834MPD2    H312267   1.394   2.967  11.840 -0.4366  0.3642 -0.4618
  834MPD2     N12268   1.823   3.093  11.741  0.5642  0.3034  0.1539
  834MPD2    H512269   1.894   3.095  11.668  0.8991 -0.7892  0.4400
  834MPD2    N112270   1.507   2.928  11.399  0.3942  0.4181  0.7593
  834MPD2    H712271   1.411   2.903  11.378  0.5910  0.1356  0.1921
  835MPD2     C12272   2.160   1.399  10.883 -0.1952  0.0329  0.1136
  835MPD2    C112273   2.028   1.414  10.884 -0.8696 -0.4638 -0.2883
  835MPD2    C212274   1.965   1.382  11.002  0.4463  0.1615  0.7395
  835MPD2    C312275   2.033   1.327  11.112 -0.1457 -0.3067  0.0243
  835MPD2    C412276   2.170   1.310  11.106  0.2572  0.2948  0.4687
  835MPD2    C512277   2.228   1.350  10.985 -0.0138 -0.0645 -0.0044
  835MPD2     H12278   1.859   1.400  11.012  0.6607  3.2386 -2.4487
  835MPD2    H112279   2.226   1.260  11.185  1.4724 -1.1268 -1.3135
  835MPD2    H212280   2.209   1.432  10.792  0.2692 -1.4571 -0.1765
  835MPD2    H312281   2.336   1.341  10.974  0.0169 -1.2071  1.3530
  835MPD2     N12282   1.965   1.294  11.236 -0.6104 -0.2195 -0.1930
  835MPD2    H512283   2.015   1.284  11.323 -1.4813 -0.3833  0.2849
  835MPD2    N112284   1.965   1.483  10.777 -0.2225 -0.0515 -0.3256
  835MPD2    H712285   2.008   1.474  10.686  1.7319  1.3477  0.4716
  836MPD2     C12286   1.274   1.565  11.179  1.0495 -0.7673  0.4244
  836MPD2    C112287   1.301   1.541  11.311 -0.4478 -0.4045 -0.0596
  836MPD2    C212288   1.220   1.600  11.400 -0.1532  0.0654  0.2693
  836MPD2    C312289   1.097   1.655  11.357  0.5933 -0.3395  0.0322
  836MPD2    C412290   1.070   1.675  11.219  0.6440 -0.2624  0.1846
  836MPD2    C512291   1.167   1.639  11.131  0.5043 -0.3951  0.3754
  836MPD2     H12292   1.246   1.586  11.504  1.3756  1.4087  0.0743
  836MPD2    H112293   0.977   1.716  11.182  0.5082 -0.2525  0.5380
  836MPD2    H212294   1.340   1.517  11.107  0.4794  1.4082 -1.5277
  836MPD2    H312295   1.150   1.649  11.024  2.1957 -0.4131  0.0948
  836MPD2     N12296   1.001   1.699  11.446  0.6594  0.4506  0.1042
  836MPD2    H512297   0.913   1.723  11.402  0.3880 -1.2190 -0.2516
  836MPD2    N112298   1.427   1.489  11.341 -0.2101  0.0905  0.4063
  836MPD2    H712299   1.499   1.493  11.270  0.2863  0.2385  0.9214
  837MPD2     C12300   0.284   0.810  10.131 -0.1982 -0.0617 -0.0620
  837MPD2    C112301   0.172   0.878  10.101  0.1581 -0.1755  0.2685
  837MPD2    C212302   0.182   1.012  10.064 -0.0675 -0.5411  0.0519
  837MPD2    C312303   0.303   1.070  10.045  0.3398  0.6317 -0.4695
  837MPD2    C412304   0.418   0.997  10.063  0.9530 -0.3817  0.3480
  837MPD2    C512305   0.412   0.871  10.113 -0.1259 -0.9055 -0.0582
  837MPD2     H12306   0.102   1.082  10.045  0.1220 -0.0890  0.8923
  837MPD2    H112307   0.510   1.046  10.031 -0.6430  2.0313 -0.4992
  837MPD2    H212308   0.286   0.708  10.168 -1.5730 -0.0806 -0.0221
  837MPD2    H312309   0.502   0.816  10.138  0.7536 -1.0722 -3.4629
  837MPD2     N12310   0.304   1.206   9.997  0.0042 -0.2869  0.0062
  837MPD2    H512311   0.215   1.255   9.986 -0.5231 -0.5207  3.1046
  837MPD2    N112312   0.042   0.822  10.110 -0.3095  0.8506 -0.0830
  837MPD2    H712313   4.687   0.891  10.111  0.3670  1.5451  1.5239
  838MPD2     C12314   2.838   4.529  11.783 -0.8757 -0.2382  0.0925
  838MPD2    C112315   2.841   4.406  11.722 -0.5583  0.2343 -0.4409
  838MPD2    C212316   2.805   4.294  11.789  0.4370 -0.0240  0.0032
  838MPD2    C312317   2.744   4.305  11.912 -0.0159 -0.2505  0.6920
  838MPD2    C412318   2.719   4.430  11.964  0.2960 -0.0448  0.0567
  838MPD2    C512319   2.761   4.541  11.895  0.5912  0.0766  0.5868
  838MPD2     H12320   2.829   4.201  11.738  3.3027  1.0721 -0.6605
  838MPD2    H112321   2.660   4.435  12.056  0.2406  2.4823 -0.1127
  838MPD2    H212322   2.860   4.628  11.745  0.2124 -0.5463 -0.0768
  838MPD2    H312323   2.745   4.640  11.936  1.9924  0.6755 -0.2927
  838MPD2     N12324   2.703   4.181  11.969  0.8056  0.1864  0.7300
  838MPD2    H512325   2.719   4.102  11.907 -1.1411  2.0825 -2.1667
  838MPD2    N112326   2.906   4.388  11.596 -0.6863  0.2587  0.1071
  838MPD2    H712327   2.915   4.293  11.563 -1.7609  0.1621  0.1046
  839MPD2     C12328   2.853   3.914  10.700 -0.6583 -0.7044 -0.1279
  839MPD2    C112329   2.834   3.881  10.834 -0.0342 -0.6453  0.5129
  839MPD2    C212330   2.833   3.982  10.931  0.6167 -0.0892 -0.5959
  839MPD2    C312331   2.874   4.112  10.895  0.3988 -0.1737 -0.1018
  839MPD2    C412332   2.905   4.137  10.760 -0.4627 -0.5169 -0.3427
  839MPD2    C512333   2.893   4.040  10.664 -0.2739 -0.1782 -0.0349
  839MPD2     H12334   2.802   3.967  11.033  0.3956  0.0275 -0.6449
  839MPD2    H112335   2.936   4.233  10.719  2.8867 -0.5412  2.0911
  839MPD2    H212336   2.856   3.842  10.620 -0.7770 -1.1271  0.2471
  839MPD2    H312337   2.911   4.053  10.557  0.5587 -1.8687 -0.0891
  839MPD2     N12338   2.905   4.215  10.986 -0.0374  0.8570  0.1934
  839MPD2    H512339   2.931   4.307  10.952  1.5218  0.6853  0.9413
  839MPD2    N112340   2.810   3.744  10.869 -0.6270 -0.0175  0.0331
  839MPD2    H712341   2.797   3.675  10.796 -1.0655 -0.0018  0.0949
  840MPD2     C12342   3.389   1.896  10.428 -1.0867  0.2472  0.4028
  840MPD2    C112343   3.381   1.811  10.534  0.6750  1.0359 -0.1671
  840MPD2    C212344   3.453   1.849  10.639 -0.2852  0.1487  0.1964
  840MPD2    C312345   3.525   1.965  10.656  0.5515  0.4059  0.8783
  840MPD2    C412346   3.526   2.048  10.552  0.0539 -0.2350 -0.3041
  840MPD2    C512347   3.452   2.012  10.440 -0.1340 -0.0779 -0.1916
  840MPD2     H12348   3.458   1.794  10.732 -0.7049  1.3124  0.9044
  840MPD2    H112349   3.576   2.145  10.550 -0.3170 -0.0022  1.2250
  840MPD2    H212350   3.326   1.880  10.342  1.1418  0.8801 -1.3226
  840MPD2    H312351   3.445   2.089  10.363  3.3667 -1.0545 -1.4988
  840MPD2     N12352   3.594   2.015  10.772 -0.2450 -0.6024 -0.4000
  840MPD2    H512353   3.629   2.108  10.752 -0.6675  0.1755  2.4552
  840MPD2    N112354   3.309   1.686  10.524  0.0019  0.2767 -0.3529
  840MPD2    H712355   3.257   1.673  10.438  1.7671  1.3502 -1.5617
  841MPD2     C12356   3.074   1.270  14.472 -0.2435 -0.1090 -0.4832
  841MPD2    C112357   3.106   1.160  14.552 -0.2375  0.1607 -0.3765
  841MPD2    C212358   3.221   1.160  14.622 -0.4543 -0.2870  0.2651
  841MPD2    C312359   3.310   1.266  14.622 -0.2435 -0.3863  0.2500
  841MPD2    C412360   3.285   1.374  14.538 -0.6597 -0.4206  0.1035
  841MPD2    C512361   3.168   1.371  14.469 -0.0279  0.1339 -0.7063
  841MPD2     H12362   3.241   1.065  14.672 -0.6850 -1.0336 -1.0722
  841MPD2    H112363   3.350   1.454  14.505 -0.2045 -1.2044 -0.9016
  841MPD2    H212364   2.979   1.275  14.421  0.1826  1.0812 -1.1651
  841MPD2    H312365   3.158   1.447  14.392  2.3105  1.4001  0.2581
  841MPD2     N12366   3.433   1.258  14.690 -0.4706 -0.2620  0.0226
  841MPD2    H512367   3.450   1.169  14.736  0.9669  0.8301  1.5737
  841MPD2    N112368   3.027   1.048  14.587 -0.2181  0.7467 -0.1357
  841MPD2    H712369   3.059   0.972  14.646 -0.4796  0.4743 -0.3462
  842MPD2     C12370   3.262   2.097  16.408 -0.2100  0.0612 -0.2666
  842MPD2    C112371   3.319   2.222  16.441  0.4109 -0.1396  0.5233
  842MPD2    C212372   3.383   2.229  16.565 -0.5799 -0.0757  0.3995
  842MPD2    C312373   3.382   2.127  16.660  0.0542 -0.2568  0.5113
  842MPD2    C412374   3.318   2.012  16.622 -0.3037  0.3397  0.0598
  842MPD2    C512375   3.262   2.000  16.500  0.6698 -0.5174  0.7611
  842MPD2     H12376   3.426   2.324  16.593 -1.9037 -0.1806  2.8153
  842MPD2    H112377   3.311   1.928  16.691 -1.9341 -0.6510 -1.3041
  842MPD2    H212378   3.213   2.088  16.311 -0.2032 -0.4351 -0.2207
  842MPD2    H312379   3.213   1.908  16.468 -2.2729  1.5200 -0.5729
  842MPD2     N12380   3.421   2.136  16.793  0.6327  0.2418 -0.5881
  842MPD2    H512381   3.407   2.054  16.850  1.1847  1.0269  0.6787
  842MPD2    N112382   3.329   2.335  16.359 -0.1111 -0.1995  0.3166
  842MPD2    H712383   3.363   2.418  16.407  0.8177 -1.1267  1.2722
  843MPD2     C12384   0.482   2.544  17.334  0.2908 -0.0612  0.3671
  843MPD2    C112385   0.541   2.511  17.457 -0.0671  0.2216 -0.2883
  843MPD2    C212386   0.677   2.551  17.470 -0.1974  0.6143  0.3370
  843MPD2    C312387   0.734   2.633  17.371  0.2734  0.0404  0.1996
  843MPD2    C412388   0.655   2.677  17.264  0.0279 -0.2717 -0.7001
  843MPD2    C512389   0.536   2.630  17.244 -1.2156  0.2826 -0.2484
  843MPD2     H12390   0.734   2.522  17.558 -1.3459  0.0926  0.9038
  843MPD2    H112391   0.691   2.741  17.184 -3.2283  0.9039 -1.2150
  843MPD2    H212392   0.392   2.496  17.298  0.6807 -0.0008 -0.6881
  843MPD2    H312393   0.481   2.651  17.153 -1.9345 -0.0664  0.1060
  843MPD2     N12394   0.870   2.665  17.376 -0.1256 -0.1295 -0.2037
  843MPD2    H512395   0.899   2.733  17.307 -0.7217 -1.9706 -2.2718
  843MPD2    N112396   0.477   2.421  17.546 -0.1057  0.2492 -0.0538
  843MPD2    H712397   0.389   2.380  17.517 -0.4678  0.9573  0.0396
  844MPD2     C12398   3.933   1.653  17.114  0.3167 -0.2588  0.8904
  844MPD2    C112399   4.018   1.599  17.026  0.2966 -0.0478 -0.5338
  844MPD2    C212400   4.149   1.648  17.029  0.0446 -0.6947 -0.2355
  844MPD2    C312401   4.183   1.761  17.108  0.0854  0.4184 -0.4027
  844MPD2    C412402   4.091   1.817  17.197  0.1984  0.3651  0.0673
  844MPD2    C512403   3.968   1.756  17.202 -0.6124 -0.1098 -0.1035
  844MPD2     H12404   4.223   1.595  16.970  1.6485  0.8255  0.4078
  844MPD2    H112405   4.107   1.896  17.269 -2.2343  1.3499 -0.4636
  844MPD2    H212406   3.832   1.613  17.114  0.8246 -1.5274 -0.1777
  844MPD2    H312407   3.896   1.786  17.277 -0.5260 -1.5655  0.5744
  844MPD2     N12408   4.318   1.810  17.101  0.1155 -0.3703  0.2852
  844MPD2    H512409   4.384   1.757  17.045 -1.1228 -1.2364 -0.3646
  844MPD2    N112410   3.976   1.504  16.926 -0.0172 -0.4004  0.0419
  844MPD2    H712411   4.045   1.478  16.855  0.7584 -0.2309  0.7322
  845MPD2     C12412   0.110   2.613  16.992 -0.3594  0.0067  0.2861
  845MPD2    C112413   0.033   2.595  17.102  0.0581  0.1477 -0.6309
  845MPD2    C212414   0.010   2.471  17.154 -0.0261 -0.1654  0.4823
  845MPD2    C312415   0.065   2.360  17.093  0.4705  0.4822  0.8436
  845MPD2    C412416   0.156   2.378  16.987 -0.1994  0.6538 -0.8524
  845MPD2    C512417   0.180   2.505  16.947  0.1137 -0.3687  0.8218
  845MPD2     H12418   4.659   2.456  17.234 -0.2766 -0.5987  0.1788
  845MPD2    H112419   0.204   2.295  16.936 -0.9737  0.0397 -0.5729
  845MPD2    H212420   0.126   2.714  16.954  0.0591  0.1746  0.9144
  845MPD2    H312421   0.240   2.521  16.859  0.9472 -0.9697  1.2838
  845MPD2     N12422   0.014   2.230  17.134  0.6968  0.4561 -0.5541
  845MPD2    H512423   4.660   2.221  17.203  0.5381 -2.0703 -1.0315
  845MPD2    N112424   4.694   2.714  17.156 -0.1407  0.2449 -0.2110
  845MPD2    H712425   0.005   2.798  17.109 -1.1302  0.8796  0.2705
  846MPD2     C12426   1.596   3.094  13.713 -0.5012 -0.9916 -0.3999
  846MPD2    C112427   1.481   3.169  13.743  0.4029  0.2470  0.8285
  846MPD2    C212428   1.436   3.181  13.874 -0.0876 -0.6258 -0.0136
  846MPD2    C312429   1.492   3.098  13.969  0.1016  0.1296  0.3262
  846MPD2    C412430   1.615   3.032  13.942  0.8994  0.1771 -0.3997
  846MPD2    C512431   1.663   3.032  13.814  0.1698  0.2073 -0.1446
  846MPD2     H12432   1.343   3.235  13.890 -0.6054 -1.2449 -0.9414
  846MPD2    H112433   1.666   2.974  14.018 -0.4352 -0.9158 -0.3268
  846MPD2    H212434   1.648   3.086  13.619  1.5138  1.4683  0.5055
  846MPD2    H312435   1.753   2.974  13.795  0.2196  0.0353  0.6035
  846MPD2     N12436   1.438   3.091  14.103  0.6107  0.2473 -0.0774
  846MPD2    H512437   1.339   3.115  14.109  0.4050 -1.1286  2.3744
  846MPD2    N112438   1.415   3.244  13.640  0.9144 -0.4302  0.1337
  846MPD2    H712439   1.358   3.323  13.666  1.1065 -1.0080  2.3699
  847MPD2     C12440   1.147   3.729  14.222  0.1944  0.3714  0.3129
  847MPD2    C112441   1.263   3.798  14.251 -0.7196 -0.0258 -0.1160
  847MPD2    C212442   1.316   3.796  14.376 -0.0995 -0.1981  0.3616
  847MPD2    C312443   1.248   3.732  14.475  0.1013 -0.0950 -0.5481
  847MPD2    C412444   1.130   3.657  14.446 -0.1859 -0.3874 -0.1176
  847MPD2    C512445   1.083   3.658  14.319 -0.0503 -0.3278  0.6318
  847MPD2     H12446   1.399   3.858  14.407 -1.1254  0.7509  1.2088
  847MPD2    H112447   1.083   3.595  14.521 -1.5045  0.6121 -0.1171
  847MPD2    H212448   1.100   3.736  14.125 -1.2547  2.9345  1.1918
  847MPD2    H312449   1.009   3.585  14.287 -1.4881  2.4654 -2.4247
  847MPD2     N12450   1.304   3.746  14.601 -0.2702 -0.3345 -0.1282
  847MPD2    H512451   1.393   3.795  14.603 -0.7255  0.6033 -2.1336
  847MPD2    N112452   1.326   3.886  14.156  0.3717 -0.1352 -0.5017
  847MPD2    H712453   1.409   3.935  14.188  0.4709 -0.0863 -0.8269
  848MPD2     C12454   3.476   2.756  17.434  0.0311 -0.2685 -0.2071
  848MPD2    C112455   3.581   2.714  17.353 -0.8639  0.0790  0.0828
  848MPD2    C212456   3.629   2.809  17.264 -0.0053 -0.3593 -0.4487
  848MPD2    C312457   3.572   2.939  17.268 -0.4359  0.0031 -1.4951
  848MPD2    C412458   3.492   2.983  17.370  0.2563  0.4076 -0.9621
  848MPD2    C512459   3.436   2.883  17.448  0.5134  0.2949 -0.1518
  848MPD2     H12460   3.708   2.782  17.194 -0.0952 -1.5247 -0.1023
  848MPD2    H112461   3.449   3.078  17.399 -1.3329 -0.1289 -1.5593
  848MPD2    H212462   3.418   2.685  17.494  0.1019 -0.2047 -0.0634
  848MPD2    H312463   3.349   2.893  17.512  1.5379  2.3585  0.9366
  848MPD2     N12464   3.627   3.040  17.183  0.1527  0.1207  0.5921
  848MPD2    H512465   3.603   3.136  17.205  0.7410  0.5203 -0.5036
  848MPD2    N112466   3.635   2.582  17.344 -0.2872  0.5231 -0.2597
  848MPD2    H712467   3.704   2.565  17.271 -0.5160 -0.6891 -0.1942
  849MPD2     C12468   3.645   2.044  14.229 -0.4288  0.3922 -0.4941
  849MPD2    C112469   3.779   2.043  14.191 -0.5261 -0.7631  0.1306
  849MPD2    C212470   3.876   2.075  14.287  0.3055  0.2405 -0.1410
  849MPD2    C312471   3.839   2.120  14.416  0.1172  1.4050  0.0405
  849MPD2    C412472   3.703   2.141  14.445 -0.3028 -0.1832 -0.0042
  849MPD2    C512473   3.610   2.101  14.348  0.4162  0.0794 -0.4322
  849MPD2     H12474   3.980   2.057  14.261 -0.4938 -0.2168 -3.0206
  849MPD2    H112475   3.670   2.168  14.545  0.0646 -0.3323  0.1577
  849MPD2    H212476   3.571   2.021  14.153 -0.5126 -1.4167  0.1497
  849MPD2    H312477   3.505   2.113  14.373  0.8951  1.0781  1.1360
  849MPD2     N12478   3.932   2.141  14.521 -0.6633 -0.1754  0.0344
  849MPD2    H512479   3.902   2.177  14.611  1.1964  0.2021  0.5110
  849MPD2    N112480   3.827   1.993  14.069  1.0404  0.2677  0.2304
  849MPD2    H712481   3.926   1.992  14.046  1.2825 -2.5672  1.4385
  850MPD2     C12482   1.037   0.584  14.504  0.4749  0.1645  0.8106
  850MPD2    C112483   1.025   0.587  14.641 -0.3031  0.2774  0.8248
  850MPD2    C212484   1.141   0.624  14.712 -0.1562  0.0977 -0.1717
  850MPD2    C312485   1.259   0.644  14.641  0.4843 -0.5380 -1.0221
  850MPD2    C412486   1.270   0.620  14.504 -0.3720  0.4695  0.1120
  850MPD2    C512487   1.155   0.594  14.438 -0.6297 -0.8019  0.4771
  850MPD2     H12488   1.138   0.632  14.820 -3.1610 -0.2413 -0.2316
  850MPD2    H112489   1.363   0.615  14.449 -0.6833 -0.5508 -0.3246
  850MPD2    H212490   0.943   0.564  14.455  0.2780 -2.0743  2.0740
  850MPD2    H312491   1.166   0.569  14.333 -0.4649  0.2903  0.2343
  850MPD2     N12492   1.386   0.661  14.709  0.2735  0.5940 -0.2484
  850MPD2    H512493   1.473   0.662  14.658  0.8371 -0.1179  0.6950
  850MPD2    N112494   0.896   0.550  14.706 -0.1404  0.2939  0.4034
  850MPD2    H712495   0.819   0.558  14.641  1.3215  1.2856 -1.1912
  851MPD2     C12496   1.582   0.361  15.127 -0.2219 -0.3825  0.4830
  851MPD2    C112497   1.515   0.315  15.018  0.1883 -0.3273 -0.3962
  851MPD2    C212498   1.570   0.228  14.928  0.1183 -0.0482  0.6019
  851MPD2    C312499   1.700   0.184  14.954  0.2267  0.6103  0.0553
  851MPD2    C412500   1.767   0.230  15.063  0.9040  0.9583  0.4995
  851MPD2    C512501   1.700   0.310  15.145 -0.1556  0.1068 -0.5254
  851MPD2     H12502   1.519   0.182  14.844 -0.6469 -0.7088  1.4448
  851MPD2    H112503   1.865   0.189  15.088  0.7670 -1.6948 -3.3028
  851MPD2    H212504   1.538   0.411  15.213 -0.7610  0.3555 -0.2184
  851MPD2    H312505   1.756   0.317  15.238  1.3304  1.3864 -1.5103
  851MPD2     N12506   1.751   0.093  14.855  0.4020 -0.2354 -0.0254
  851MPD2    H512507   1.711   0.103  14.762 -0.1860  0.0205  0.2531
  851MPD2    N112508   1.374   0.346  15.017 -0.5577  0.3178  0.3821
  851MPD2    H712509   1.342   0.400  15.097  1.7000  0.4879  1.1722
  852MPD2     C12510   1.195   2.294   9.481  0.3047  0.0624 -0.2692
  852MPD2    C112511   1.202   2.286   9.618  0.7708 -0.0496  0.1975
  852MPD2    C212512   1.198   2.402   9.695 -0.0562  0.5049  0.4964
  852MPD2    C312513   1.205   2.528   9.635 -0.2614 -0.1840  0.4264
  852MPD2    C412514   1.211   2.527   9.492  0.0882  0.1089 -0.5378
  852MPD2    C512515   1.203   2.414   9.422  0.7588 -1.0664 -0.2052
  852MPD2     H12516   1.181   2.399   9.802  2.7361  3.1151  1.0076
  852MPD2    H112517   1.221   2.614   9.429 -1.4521  1.5132  1.1862
  852MPD2    H212518   1.193   2.209   9.414  0.5441 -0.3038  0.1839
  852MPD2    H312519   1.211   2.424   9.314 -0.6285  1.1895 -0.0828
  852MPD2     N12520   1.205   2.649   9.710  0.1384  0.9698  0.0837
  852MPD2    H512521   1.210   2.639   9.811 -1.9428 -0.2393  0.0669
  852MPD2    N112522   1.203   2.160   9.684 -0.1498 -0.2172 -0.2151
  852MPD2    H712523   1.176   2.158   9.782 -0.2342 -0.8234 -0.2471
  853MPD2     C12524   2.506   2.858  12.438 -0.3039  0.2066  0.2473
  853MPD2    C112525   2.411   2.865  12.340 -0.0686 -0.1586  0.3970
  853MPD2    C212526   2.457   2.908  12.213 -0.1646  0.6179 -0.2782
  853MPD2    C312527   2.596   2.919  12.182  0.3479  0.3907  0.2882
  853MPD2    C412528   2.677   2.914  12.292  0.0962 -0.0467 -0.0517
  853MPD2    C512529   2.633   2.891  12.414 -0.5934 -0.5123 -0.6497
  853MPD2     H12530   2.390   2.906  12.127  0.5793 -1.4400 -0.8155
  853MPD2    H112531   2.780   2.946  12.298  0.1634 -0.3320  0.3178
  853MPD2    H212532   2.477   2.833  12.540 -3.5447 -0.1557 -0.7793
  853MPD2    H312533   2.708   2.887  12.492 -0.6642  0.2396 -0.5451
  853MPD2     N12534   2.645   2.927  12.053 -0.3991  0.1747 -0.2177
  853MPD2    H512535   2.745   2.908  12.047 -0.5282  0.5078 -3.1728
  853MPD2    N112536   2.285   2.814  12.368 -0.1791  0.6702 -0.0497
  853MPD2    H712537   2.284   2.754  12.450  0.9743 -1.2639 -1.4607
  854MPD2     C12538   0.412   2.939  13.211  0.7029 -0.3878  1.0344
  854MPD2    C112539   0.283   2.911  13.159  0.2286  0.2663 -0.1668
  854MPD2    C212540   0.220   2.793  13.188  0.0080  0.0131  0.1799
  854MPD2    C312541   0.291   2.698  13.263  0.0662  0.1834 -0.3507
  854MPD2    C412542   0.408   2.733  13.322  0.0325  0.0954 -0.2044
  854MPD2    C512543   0.475   2.849  13.281  0.0968 -0.8051 -0.2693
  854MPD2     H12544   0.124   2.763  13.146  0.6311 -2.8517  0.8000
  854MPD2    H112545   0.459   2.656  13.378  2.2171  1.8417  0.2219
  854MPD2    H212546   0.462   3.029  13.176  1.0055 -0.6428  0.8160
  854MPD2    H312547   0.578   2.874  13.305 -0.4659 -0.1152  1.4062
  854MPD2     N12548   0.251   2.564  13.269 -0.9453  0.0083 -0.2381
  854MPD2    H512549   0.304   2.499  13.326  1.8131  1.8524 -0.7412
  854MPD2    N112550   0.217   3.009  13.082  0.2460  0.0352 -0.6933
  854MPD2    H712551   0.267   3.096  13.080 -0.2991  0.4100  1.3992
  855MPD2     C12552   0.460   2.221  13.995  0.2505  0.3131  0.0171
  855MPD2    C112553   0.443   2.109  13.918 -0.0093 -0.7050  0.0310
  855MPD2    C212554   0.409   2.120  13.785  0.1512  0.1762  0.3302
  855MPD2    C312555   0.408   2.243  13.714  0.1666 -0.4520 -0.3512
  855MPD2    C412556   0.413   2.357  13.796  0.3077  0.2576  0.2319
  855MPD2    C512557   0.437   2.343  13.933 -1.2033  0.0793 -0.5182
  855MPD2     H12558   0.392   2.026  13.733 -3.2257  0.2274  1.3947
  855MPD2    H112559   0.408   2.452  13.746  2.1338  0.6166  0.7461
  855MPD2    H212560   0.480   2.213  14.101 -1.2326  1.8336  0.4139
  855MPD2    H312561   0.439   2.434  13.992 -1.1928  0.3719 -0.9689
  855MPD2     N12562   0.381   2.263  13.571 -0.6162 -0.1810  0.1474
  855MPD2    H512563   0.384   2.361  13.545 -0.3992  0.0966  1.1974
  855MPD2    N112564   0.439   1.978  13.971 -0.9697 -0.0742 -0.1453
  855MPD2    H712565   0.417   1.903  13.906 -0.2394 -0.3662 -0.0525
  856MPD2     C12566   2.367   3.395  13.381 -0.0668 -0.5474  1.1758
  856MPD2    C112567   2.468   3.477  13.437  0.0886 -0.7776  1.0584
  856MPD2    C212568   2.442   3.611  13.450 -0.6233  0.0003  0.3401
  856MPD2    C312569   2.320   3.657  13.435 -0.3240  0.1398  1.0848
  856MPD2    C412570   2.219   3.578  13.389  0.0099 -0.5411 -0.4088
  856MPD2    C512571   2.244   3.450  13.359  1.0286  0.0821  0.5630
  856MPD2     H12572   2.525   3.674  13.481 -0.2364  0.1219 -0.9702
  856MPD2    H112573   2.120   3.621  13.381 -0.2784 -1.0572  0.3525
  856MPD2    H212574   2.388   3.294  13.348 -0.6150 -0.0185 -0.8249
  856MPD2    H312575   2.166   3.394  13.308  0.6360 -0.1031  1.3638
  856MPD2     N12576   2.284   3.793  13.470 -0.7258 -0.7545 -0.0648
  856MPD2    H512577   2.187   3.812  13.450 -0.1471  1.6478 -0.4896
  856MPD2    N112578   2.602   3.430  13.458 -0.1149 -0.3356 -0.5642
  856MPD2    H712579   2.677   3.494  13.484 -1.1346 -0.0415  1.6883
  857MPD2     C12580   3.735   1.040  12.217  0.6070 -0.3943 -0.6654
  857MPD2    C112581   3.861   0.997  12.258 -0.0898 -0.0089 -0.4442
  857MPD2    C212582   3.944   1.082  12.331  0.4727 -0.0349 -0.1999
  857MPD2    C312583   3.915   1.215  12.346 -0.5862  0.2541 -0.1804
  857MPD2    C412584   3.790   1.260  12.304  0.2863 -0.1494 -0.5592
  857MPD2    C512585   3.705   1.169  12.243  0.0044  0.0599  0.3712
  857MPD2     H12586   4.038   1.039  12.364  0.1996 -1.1601 -0.9107
  857MPD2    H112587   3.743   1.355  12.323 -1.0874 -1.0695  0.6489
  857MPD2    H212588   3.661   0.980  12.167 -0.1585 -0.1732  0.2036
  857MPD2    H312589   3.606   1.191  12.205  1.5891  2.0443 -2.5987
  857MPD2     N12590   3.997   1.311  12.413 -0.1275  0.3812  0.0639
  857MPD2    H512591   4.089   1.279  12.443 -0.4609 -0.2334  0.4242
  857MPD2    N112592   3.902   0.873  12.209  0.6381  0.6536  0.0799
  857MPD2    H712593   3.834   0.817  12.159  0.2153  0.1065  1.2937
  858MPD2     C12594   0.190   0.046  17.013 -0.4934  0.2488  0.1002
  858MPD2    C112595   0.176   4.642  17.077 -0.6303  0.7456  0.0908
  858MPD2    C212596   0.134   4.639  17.209  0.1181  0.5932  0.3131
  858MPD2    C312597   0.117   0.041  17.276 -0.6695 -0.4143 -0.0288
  858MPD2    C412598   0.156   0.158  17.218  0.2966  0.5803 -0.7809
  858MPD2    C512599   0.185   0.164  17.085  0.6679  0.2225 -0.1954
  858MPD2     H12600   0.115   4.548  17.264 -1.1815 -0.7952 -2.3978
  858MPD2    H112601   0.159   0.255  17.266  0.7801  0.2985 -0.2401
  858MPD2    H212602   0.210   0.051  16.907  2.3017 -0.0038  0.6184
  858MPD2    H312603   0.210   0.263  17.048  0.1574  0.2612 -0.4443
  858MPD2     N12604   0.063   0.056  17.404  0.0157 -0.5060 -0.2066
  858MPD2    H512605   0.041   0.152  17.428  1.2452  0.2264 -1.9843
  858MPD2    N112606   0.195   4.525  16.997 -0.3200  0.4747 -0.2223
  858MPD2    H712607   0.181   4.529  16.897  0.3103 -0.6969 -0.3580
  859MPD2     C12608   3.378   2.113  15.940 -0.1963  0.0201 -0.1951
  859MPD2    C112609   3.359   2.058  15.815 -0.4895 -0.7543  0.0804
  859MPD2    C212610   3.349   1.919  15.804  0.5602  0.4855 -0.7480
  859MPD2    C312611   3.353   1.842  15.917  1.0270 -0.2054  0.7809
  859MPD2    C412612   3.360   1.900  16.047  0.3214 -0.0427  0.1934
  859MPD2    C512613   3.370   2.038  16.050 -0.1220 -0.1060 -0.2849
  859MPD2     H12614   3.336   1.875  15.706 -1.5353  1.5473 -0.9691
  859MPD2    H112615   3.354   1.833  16.131  0.4588  1.6026  1.5205
  859MPD2    H212616   3.376   2.220  15.958  0.0872 -0.3896  2.2378
  859MPD2    H312617   3.365   2.085  16.148  1.3125  2.7751 -1.5919
  859MPD2     N12618   3.361   1.696  15.910  0.6706  0.5063  0.2612
  859MPD2    H512619   3.359   1.639  15.994 -2.3531  0.4095  0.1462
  859MPD2    N112620   3.350   2.139  15.702  0.3334  0.8328  0.8092
  859MPD2    H712621   3.374   2.237  15.715 -2.1026  1.7006 -1.0345
  860MPD2     C12622   0.541   2.275  11.507 -1.0563  0.5558  0.2236
  860MPD2    C112623   0.579   2.371  11.601 -0.5933 -0.3061  0.2732
  860MPD2    C212624   0.503   2.382  11.717  0.2605  0.2283  0.3840
  860MPD2    C312625   0.395   2.307  11.738  0.1100  0.4037  0.6535
  860MPD2    C412626   0.356   2.217  11.646  0.2639 -0.9588  0.3473
  860MPD2    C512627   0.426   2.205  11.533 -0.1274 -0.4793 -0.2248
  860MPD2     H12628   0.536   2.450  11.795 -0.6770  3.0064 -1.6292
  860MPD2    H112629   0.264   2.160  11.653  0.3584 -1.4300 -2.3288
  860MPD2    H212630   0.591   2.268  11.411 -0.5015  0.0364  0.5465
  860MPD2    H312631   0.392   2.125  11.469  1.1424 -0.1848 -1.2691
  860MPD2     N12632   0.337   2.326  11.869  0.0853 -0.2802  0.7736
  860MPD2    H512633   0.375   2.401  11.927  1.1391  0.1849 -0.5330
  860MPD2    N112634   0.693   2.450  11.594 -0.0891  0.3592 -0.0835
  860MPD2    H712635   0.710   2.503  11.679  1.1172 -1.4660  0.8069
  861MPD2     C12636   4.718   0.947  10.914  0.9431 -0.4212 -0.0233
  861MPD2    C112637   4.615   0.968  11.003 -0.4478 -0.9961  0.1509
  861MPD2    C212638   4.502   1.036  10.964 -0.6595 -0.3710  0.2812
  861MPD2    C312639   4.494   1.068  10.829 -0.0489 -1.0799  0.1673
  861MPD2    C412640   4.589   1.043  10.734  0.6906  0.2106  0.5269
  861MPD2    C512641   4.709   0.990  10.782 -0.8306 -0.5826 -0.4772
  861MPD2     H12642   4.411   1.029  11.022 -1.9253  0.5825 -1.6124
  861MPD2    H112643   4.574   1.070  10.630  2.3348  0.3271  0.3345
  861MPD2    H212644   0.092   0.898  10.936  2.2105  2.6336  1.2926
  861MPD2    H312645   0.072   0.965  10.717  0.0238  2.1355 -0.4498
  861MPD2     N12646   4.388   1.138  10.773 -0.2454  0.1601  0.6127
  861MPD2    H512647   4.393   1.150  10.672 -3.6511  1.8558  0.6405
  861MPD2    N112648   4.614   0.915  11.133  0.1878 -0.9476  0.6464
  861MPD2    H712649   4.528   0.924  11.187  1.5540 -0.5335  2.7494
  862MPD2     C12650   3.907   1.455  10.156  0.0005  0.1120 -0.4521
  862MPD2    C112651   4.002   1.379  10.217  0.1562  0.3436  0.2100
  862MPD2    C212652   4.018   1.249  10.171  0.4951 -0.4012 -0.7921
  862MPD2    C312653   3.968   1.210  10.047  0.2179 -0.0635 -0.1806
  862MPD2    C412654   3.866   1.288   9.988 -0.3837 -0.6325 -0.0033
  862MPD2    C512655   3.837   1.409  10.049  0.4163 -0.4492 -0.4689
  862MPD2     H12656   4.067   1.175  10.233  0.7628  0.7222  0.3308
  862MPD2    H112657   3.812   1.269   9.897 -1.7042 -0.4927  0.7469
  862MPD2    H212658   3.876   1.547  10.203 -1.6082 -0.2865 -0.7392
  862MPD2    H312659   3.754   1.469  10.013 -1.6087 -2.3064  1.0548
  862MPD2     N12660   3.994   1.088   9.986  0.1541  0.0034  0.1331
  862MPD2    H512661   3.930   1.049   9.918 -1.7232 -0.0071  1.9278
  862MPD2    N112662   4.063   1.413  10.338  0.3902 -0.7132  0.2834
  862MPD2    H712663   4.007   1.481  10.389  0.8684  0.7452 -1.1331
  863MPD2     C12664   2.614   3.731  17.143 -0.4732 -0.6968  0.1444
  863MPD2    C112665   2.719   3.821  17.115 -0.7226 -0.5875 -0.2105
  863MPD2    C212666   2.821   3.815  17.206  0.1281 -0.7003  0.1590
  863MPD2    C312667   2.807   3.739  17.322 -0.4040 -0.0532  0.6110
  863MPD2    C412668   2.714   3.637  17.338  1.1386  0.7554  0.1377
  863MPD2    C512669   2.618   3.642  17.248  0.1886  0.0799 -0.0211
  863MPD2     H12670   2.903   3.886  17.199 -1.5588  1.3544  1.0431
  863MPD2    H112671   2.725   3.553  17.406 -1.5784 -0.0416 -0.4154
  863MPD2    H212672   2.525   3.732  17.081 -0.3283  0.2999 -0.0358
  863MPD2    H312673   2.535   3.572  17.247  0.1507  0.1983 -3.1117
  863MPD2     N12674   2.907   3.744  17.419 -0.1174  0.1084 -0.1069
  863MPD2    H512675   2.902   3.665  17.483 -1.2781  0.7071  0.5466
  863MPD2    N112676   2.710   3.907  17.009  0.0467  0.0815 -0.1307
  863MPD2    H712677   2.623   3.910  16.957 -0.7979 -0.8668  1.2549
  864MPD2     C12678   3.210   0.541   0.213  0.2098 -0.1058 -0.3973
  864MPD2    C112679   3.202   0.502   0.083  0.3384  0.5923 -0.6753
  864MPD2    C212680   3.246   0.581  17.661  0.5806  0.5491  0.4243
  864MPD2    C312681   3.320   0.691   0.020 -0.2793  0.0554 -0.3204
  864MPD2    C412682   3.338   0.724   0.154  0.0252 -0.1286 -0.2655
  864MPD2    C512683   3.271   0.659   0.249  0.6057 -0.0478  0.7353
  864MPD2     H12684   3.234   0.552  17.557  1.8871  1.3593  0.0397
  864MPD2    H112685   3.391   0.814   0.183 -3.0271  1.3742  0.6343
  864MPD2    H212686   3.173   0.491   0.301  0.7895 -0.1562 -0.1827
  864MPD2    H312687   3.264   0.698   0.350  1.8108  1.5200  0.2053
  864MPD2     N12688   3.394   0.777  17.614 -0.7858 -0.8312 -0.0419
  864MPD2    H512689   3.442   0.856  17.657  0.6457  0.2060 -3.5125
  864MPD2    N112690   3.168   0.364   0.057  0.2573 -0.1871  0.3933
  864MPD2    H712691   3.172   0.312   0.143 -1.5499 -0.4445  0.3062
  865MPD2     C12692   3.279   0.743  16.661  1.0397  0.0319 -0.2887
  865MPD2    C112693   3.325   0.633  16.729  0.2962  0.4308 -1.1470
  865MPD2    C212694   3.379   0.651  16.853 -0.3063  0.5052  0.4658
  865MPD2    C312695   3.383   0.779  16.904  0.2554 -0.5946 -0.3560
  865MPD2    C412696   3.329   0.887  16.840  0.1065  0.4079 -0.0016
  865MPD2    C512697   3.283   0.867  16.714 -0.3441  0.0361 -0.0657
  865MPD2     H12698   3.439   0.574  16.900 -0.2907 -0.6387 -1.4122
  865MPD2    H112699   3.339   0.988  16.878  2.0978  0.7548 -1.4423
  865MPD2    H212700   3.249   0.717  16.560 -0.5993  2.7495 -0.4856
  865MPD2    H312701   3.253   0.949  16.649 -0.5617  0.2381  0.2863
  865MPD2     N12702   3.449   0.804  17.025  0.0871  0.0355 -0.4440
  865MPD2    H512703   3.446   0.900  17.056  0.0540  0.3649 -1.4839
  865MPD2    N112704   3.325   0.510  16.658  0.3606  0.1957 -0.0736
  865MPD2    H712705   3.317   0.507  16.557  0.2718  0.4387 -0.0738
  866MPD2     C12706   0.560   1.089  11.367  0.0119 -0.0183 -0.5627
  866MPD2    C112707   0.514   1.058  11.245  0.0980  0.0167 -0.4917
  866MPD2    C212708   0.383   1.085  11.216  0.0933 -0.3519 -0.1944
  866MPD2    C312709   0.309   1.176  11.293 -0.1506  0.2279 -0.4479
  866MPD2    C412710   0.352   1.186  11.423 -0.3010 -0.0527  0.1531
  866MPD2    C512711   0.475   1.138  11.461 -0.7771  0.8565 -0.1380
  866MPD2     H12712   0.351   1.055  11.116  1.0015  0.7874 -0.8165
  866MPD2    H112713   0.290   1.237  11.495 -0.3716 -2.3502  1.7335
  866MPD2    H212714   0.659   1.050  11.391 -1.3436 -2.4086  1.2035
  866MPD2    H312715   0.514   1.158  11.561 -1.5424  0.1205  0.2992
  866MPD2     N12716   0.186   1.233  11.260 -0.8817 -0.0870 -0.0305
  866MPD2    H512717   0.133   1.279  11.333  0.4196  0.6189  0.4733
  866MPD2    N112718   0.603   0.989  11.168  0.0870 -0.2482 -0.8713
  866MPD2    H712719   0.698   0.993  11.203 -0.2721 -0.9715  0.1640
  867MPD2     C12720   2.133   0.411  16.471 -0.4784 -0.1045  0.2847
  867MPD2    C112721   2.157   0.409  16.606 -0.3266  0.0638  0.5822
  867MPD2    C212722   2.164   0.524  16.684 -0.3498  1.0041  0.1453
  867MPD2    C312723   2.146   0.651  16.625  0.3172 -0.7954  0.2094
  867MPD2    C412724   2.135   0.653  16.492  0.7008  0.2860 -0.3889
  867MPD2    C512725   2.142   0.536  16.418 -0.6734  0.6717 -0.3774
  867MPD2     H12726   2.156   0.510  16.791 -1.0142  0.2206 -0.0073
  867MPD2    H112727   2.144   0.743  16.432  1.3530  1.4416  1.4383
  867MPD2    H212728   2.125   0.320  16.414 -0.3008  0.3776 -0.5054
  867MPD2    H312729   2.129   0.551  16.311  0.5781  0.2846 -0.5851
  867MPD2     N12730   2.144   0.772  16.694  0.0032 -0.3318  0.1920
  867MPD2    H512731   2.148   0.856  16.638 -3.5008 -0.9312 -0.9474
  867MPD2    N112732   2.188   0.279  16.663  0.2055 -0.0325 -0.2775
  867MPD2    H712733   2.170   0.201  16.601 -2.0685  0.3859 -0.1373
  868MPD2     C12734   4.249   4.369  12.900  0.6716 -0.9895  0.1413
  868MPD2    C112735   4.284   4.316  13.027 -0.4611  0.2377  0.1800
  868MPD2    C212736   4.205   4.353  13.135  0.0206  0.1330  0.0862
  868MPD2    C312737   4.087   4.424  13.119  0.3341  0.2627 -0.4835
  868MPD2    C412738   4.061   4.480  12.994  0.3405  0.7222 -0.1281
  868MPD2    C512739   4.146   4.456  12.890 -0.0159  0.2968  1.3582
  868MPD2     H12740   4.239   4.330  13.235 -0.7944  2.6612  0.9363
  868MPD2    H112741   3.985   4.557  12.983 -1.3323 -0.7609  0.9378
  868MPD2    H212742   4.305   4.335  12.813  1.1690 -0.1178  0.1224
  868MPD2    H312743   4.130   4.506  12.796  1.7148 -0.5069  0.6402
  868MPD2     N12744   4.005   4.451  13.230 -0.3396  0.1615 -0.3849
  868MPD2    H512745   4.040   4.418  13.319 -1.3811  0.7064  0.2268
  868MPD2    N112746   4.382   4.220  13.031 -0.6183  0.4879  0.0905
  868MPD2    H712747   4.433   4.212  12.944 -1.2097 -1.7460 -0.0680
  869MPD2     C12748   0.770   1.698   1.522 -0.3058 -0.2187  0.1502
  869MPD2    C112749   0.641   1.660   1.549 -0.1615 -0.2345  0.3862
  869MPD2    C212750   0.532   1.722   1.484 -0.3489 -0.3550 -0.4341
  869MPD2    C312751   0.547   1.828   1.392 -0.1643 -0.8787 -0.4898
  869MPD2    C412752   0.678   1.853   1.358  0.4058 -0.5274 -0.2969
  869MPD2    C512753   0.786   1.798   1.425 -0.5062  0.9334 -0.3116
  869MPD2     H12754   0.433   1.692   1.516 -0.3914  1.7008  1.3150
  869MPD2    H112755   0.702   1.930   1.285  1.3694 -1.1855 -0.6749
  869MPD2    H212756   0.846   1.658   1.587 -0.2516  0.0488  0.2513
  869MPD2    H312757   0.886   1.837   1.413 -1.2649  3.0299  0.2025
  869MPD2     N12758   0.437   1.898   1.327 -0.0692 -0.7571  0.1638
  869MPD2    H512759   0.453   1.963   1.250  4.4224 -0.1090  1.6300
  869MPD2    N112760   0.617   1.550   1.640 -0.5551  0.2520  0.0863
  869MPD2    H712761   0.700   1.512   1.684 -2.1517 -3.0889  0.1515
  870MPD2     C12762   4.153   0.980   1.848  0.3824 -0.0481  0.4420
  870MPD2    C112763   4.268   0.937   1.782  0.0356  0.2491  0.2766
  870MPD2    C212764   4.255   0.903   1.647 -0.2455  0.6504 -0.1847
  870MPD2    C312765   4.128   0.893   1.586 -0.0259 -0.1936  0.2716
  870MPD2    C412766   4.023   0.948   1.649 -0.9881 -0.1905  0.6218
  870MPD2    C512767   4.041   0.993   1.774  0.2588 -0.4177 -0.7237
  870MPD2     H12768   4.336   0.854   1.594  0.6795  0.5020  1.3751
  870MPD2    H112769   3.925   0.966   1.606 -0.3268  0.5138 -0.6035
  870MPD2    H212770   4.154   1.021   1.948  6.7502 -0.3216  0.5232
  870MPD2    H312771   3.952   1.038   1.817  0.5808  1.2766 -1.8404
  870MPD2     N12772   4.121   0.848   1.453  0.1415 -0.2639 -0.2188
  870MPD2    H512773   4.207   0.822   1.406  0.0963  0.3601 -0.6362
  870MPD2    N112774   4.390   0.944   1.855 -0.6228 -1.2252 -0.2966
  870MPD2    H712775   4.376   0.949   1.956  0.8590 -1.2322 -0.0853
  871MPD2     C12776   1.396   0.717  16.324 -0.4513  0.1141 -0.3251
  871MPD2    C112777   1.418   0.664  16.450 -0.2134  0.5712  1.2462
  871MPD2    C212778   1.428   0.525  16.464  0.2057 -0.5524  0.2857
  871MPD2    C312779   1.431   0.442  16.348  0.8226  0.4108  0.7780
  871MPD2    C412780   1.430   0.500  16.226 -0.5763 -0.4982 -0.1909
  871MPD2    C512781   1.413   0.636  16.212 -0.2804  0.2547  0.0862
  871MPD2     H12782   1.443   0.479  16.561  0.5285 -2.3453 -0.6103
  871MPD2    H112783   1.451   0.445  16.135 -1.9766  1.9579 -1.9999
  871MPD2    H212784   1.371   0.822  16.314  0.5887  0.4505  0.6796
  871MPD2    H312785   1.411   0.677  16.112  3.0457 -3.0671 -1.3439
  871MPD2     N12786   1.449   0.299  16.368  0.2323 -0.5154 -0.3739
  871MPD2    H512787   1.452   0.260  16.462 -0.6212 -0.8794 -0.4993
  871MPD2    N112788   1.413   0.752  16.566  0.4251 -0.1482  0.1111
  871MPD2    H712789   1.429   0.851  16.553 -0.9935  0.0397 -0.2715
  872MPD2     C12790   2.371   3.189  14.280 -0.0603 -0.1215  0.3837
  872MPD2    C112791   2.352   3.083  14.208 -0.3704 -0.3029  0.4883
  872MPD2    C212792   2.233   3.024  14.209  0.1320  0.5403  0.4525
  872MPD2    C312793   2.137   3.054  14.306 -0.7257 -0.9548  0.1331
  872MPD2    C412794   2.166   3.157  14.393 -0.0782  0.7299  0.2733
  872MPD2    C512795   2.277   3.227  14.378  0.0063 -0.2002  0.1509
  872MPD2     H12796   2.215   2.937  14.147 -0.9503  0.5177  0.7844
  872MPD2    H112797   2.101   3.205  14.466  1.2925  1.3873  1.0655
  872MPD2    H212798   2.454   3.258  14.283 -0.9601  1.0029 -0.5930
  872MPD2    H312799   2.293   3.315  14.439  1.3477  0.2839 -0.8994
  872MPD2     N12800   2.028   2.972  14.330 -0.1100  0.6168 -0.1410
  872MPD2    H512801   1.976   2.991  14.415  0.9269  0.8753  0.4354
  872MPD2    N112802   2.445   3.044  14.111  0.5927  0.0438  0.7880
  872MPD2    H712803   2.423   2.962  14.056  3.9586 -0.6842  0.5288
  873MPD2     C12804   3.404   2.610   0.579  0.2195  0.1477 -0.0706
  873MPD2    C112805   3.463   2.593   0.701  0.5375  0.4162  0.5812
  873MPD2    C212806   3.522   2.466   0.719  0.7137 -0.1935  0.0372
  873MPD2    C312807   3.537   2.376   0.614  0.0670 -0.3469 -0.0679
  873MPD2    C412808   3.482   2.400   0.491 -0.1396  0.6339  0.4003
  873MPD2    C512809   3.409   2.516   0.474  0.7728  0.0474  0.1518
  873MPD2     H12810   3.549   2.442   0.821 -1.7975  0.4780  0.8653
  873MPD2    H112811   3.475   2.320   0.418 -0.2313  1.6055 -0.6423
  873MPD2    H212812   3.347   2.702   0.563  4.3609  3.0849  2.0559
  873MPD2    H312813   3.350   2.528   0.384 -0.8059 -0.5665  1.0956
  873MPD2     N12814   3.595   2.247   0.639 -0.2163  0.0447 -0.5030
  873MPD2    H512815   3.609   2.194   0.553 -1.5302 -2.8870  1.1062
  873MPD2    N112816   3.452   2.692   0.798 -0.1266 -0.3514  0.0247
  873MPD2    H712817   3.410   2.779   0.766  0.5674  0.8845  2.4144
  874MPD2     C12818   3.463   3.156  16.191  0.0671 -0.4099  0.2083
  874MPD2    C112819   3.479   3.041  16.270  0.8344 -0.2790 -0.1525
  874MPD2    C212820   3.530   3.057  16.397  0.6201 -0.7073 -0.5943
  874MPD2    C312821   3.567   3.184  16.454 -0.2960  0.1684  0.3126
  874MPD2    C412822   3.541   3.296  16.378 -0.4411  0.6736 -0.9834
  874MPD2    C512823   3.502   3.282  16.248 -0.3597 -0.3404 -0.2344
  874MPD2     H12824   3.534   2.974  16.466 -0.0928  0.6665  1.0970
  874MPD2    H112825   3.569   3.396  16.410  0.9936  0.1838 -0.7009
  874MPD2    H212826   3.429   3.143  16.089  0.7914 -2.1604  0.1777
  874MPD2    H312827   3.494   3.375  16.192 -1.0636 -0.8581 -0.9897
  874MPD2     N12828   3.627   3.187  16.581  0.0011  0.3172  0.2893
  874MPD2    H512829   3.655   3.101  16.626  3.0241  0.7513 -0.7411
  874MPD2    N112830   3.438   2.918  16.212  0.4340  0.5356 -0.6887
  874MPD2    H712831   3.410   2.925  16.114  0.4250 -0.5774 -0.7593
  875MPD2     C12832   0.019   0.521  14.732 -0.1324 -0.7238  0.3094
  875MPD2    C112833   0.006   0.653  14.752 -0.1801 -0.1446  0.7165
  875MPD2    C212834   0.063   0.715  14.870 -0.5381 -0.3380  0.1980
  875MPD2    C312835   0.133   0.632  14.951 -1.0026 -0.7893 -0.1481
  875MPD2    C412836   0.160   0.503  14.919 -0.1305  0.0290  0.3708
  875MPD2    C512837   0.104   0.449  14.804  0.7557 -0.2978 -1.1213
  875MPD2     H12838   0.054   0.818  14.901 -1.0592 -0.3721  0.1560
  875MPD2    H112839   0.196   0.434  14.995  1.3844 -0.8164 -1.1248
  875MPD2    H212840   4.690   0.464  14.653 -1.8841  1.3385 -0.0962
  875MPD2    H312841   0.112   0.344  14.778  0.4492 -0.2540 -1.3820
  875MPD2     N12842   0.177   0.677  15.080  0.0285 -0.1085  0.2344
  875MPD2    H512843   0.247   0.617  15.122 -2.0417 -2.5149  0.2367
  875MPD2    N112844   4.647   0.741  14.677 -0.4341 -0.3756 -0.1326
  875MPD2    H712845   4.628   0.831  14.721 -0.9960 -0.7647  0.4402
  876MPD2     C12846   3.712   2.420  16.377 -0.9642  0.2060  0.1219
  876MPD2    C112847   3.709   2.368  16.249  0.7549  0.4092  0.8799
  876MPD2    C212848   3.690   2.229  16.235 -0.9280 -0.1783  0.6112
  876MPD2    C312849   3.673   2.145  16.343 -0.2114  0.1148  0.6416
  876MPD2    C412850   3.674   2.202  16.471  0.1512 -0.4973 -0.4728
  876MPD2    C512851   3.690   2.336  16.490 -0.2639  0.2750  0.0110
  876MPD2     H12852   3.683   2.187  16.135  1.6469 -1.8332  1.1139
  876MPD2    H112853   3.671   2.150  16.566 -0.0083 -1.2019 -0.8656
  876MPD2    H212854   3.722   2.528  16.387 -0.4410 -0.0070  1.9258
  876MPD2    H312855   3.673   2.383  16.586  0.8056  1.6915 -0.4938
  876MPD2     N12856   3.657   2.005  16.324 -0.3886 -0.5854  0.3328
  876MPD2    H512857   3.662   1.972  16.228  0.6424 -1.1055  0.5678
  876MPD2    N112858   3.730   2.454  16.138 -0.1718 -0.1125  0.4824
  876MPD2    H712859   3.729   2.554  16.154  0.8113 -0.2412  1.3548
  877MPD2     C12860   3.351   2.774  15.548  0.0890 -0.1374 -0.1675
  877MPD2    C112861   3.472   2.839  15.557  0.5084 -0.0010  0.4065
  877MPD2    C212862   3.501   2.932  15.461 -0.0955 -0.1890  0.1026
  877MPD2    C312863   3.420   2.937  15.348 -0.0253 -0.1125  0.5375
  877MPD2    C412864   3.302   2.864  15.339  0.0072  0.0509  0.1748
  877MPD2    C512865   3.268   2.781  15.441  0.3114 -0.1493 -0.0140
  877MPD2     H12866   3.596   2.984  15.461  0.0774 -0.4996  4.1457
  877MPD2    H112867   3.239   2.858  15.252  0.4742 -0.8280 -0.1043
  877MPD2    H212868   3.313   2.707  15.624  3.4123  1.1763  2.6668
  877MPD2    H312869   3.176   2.727  15.424  0.4617  0.0107 -1.2816
  877MPD2     N12870   3.444   3.006  15.231 -0.5344  0.3145 -0.0434
  877MPD2    H512871   3.381   2.978  15.157 -0.7711  0.2228  0.1929
  877MPD2    N112872   3.564   2.821  15.659  0.0308 -0.0062  0.3440
  877MPD2    H712873   3.646   2.880  15.668 -1.8531  2.7180 -0.4773
  878MPD2     C12874   3.758   2.116  13.099 -0.3870  0.2176  0.5106
  878MPD2    C112875   3.707   2.215  13.180 -0.4968 -0.0091 -0.1471
  878MPD2    C212876   3.726   2.209  13.320 -0.0525 -0.5164  0.5218
  878MPD2    C312877   3.816   2.112  13.366 -0.4267 -0.3470  0.6891
  878MPD2    C412878   3.877   2.020  13.278 -0.3348  0.0216 -0.2641
  878MPD2    C512879   3.838   2.016  13.150 -0.4838  0.1034  0.3685
  878MPD2     H12880   3.682   2.283  13.386 -0.5893 -2.4558  2.3582
  878MPD2    H112881   3.960   1.950  13.289  0.4433  0.7187 -1.6131
  878MPD2    H212882   3.734   2.121  12.993 -0.7337 -0.4553  0.5549
  878MPD2    H312883   3.898   1.950  13.089 -0.3143  0.6334 -0.0397
  878MPD2     N12884   3.857   2.112  13.495  0.3662 -0.8198  0.0024
  878MPD2    H512885   3.807   2.171  13.560 -0.4885 -0.7278 -0.7369
  878MPD2    N112886   3.636   2.321  13.115  0.2322  0.6758  0.1478
  878MPD2    H712887   3.623   2.308  13.016  0.4045 -1.5935  0.4345
  879MPD2     C12888   3.428   3.959  17.313 -0.4430  0.4314  0.0369
  879MPD2    C112889   3.450   3.840  17.384  0.0842  0.5857  0.3286
  879MPD2    C212890   3.364   3.734  17.352 -0.6135 -0.3914  0.9098
  879MPD2    C312891   3.266   3.741  17.251  0.7439  0.3506 -0.2750
  879MPD2    C412892   3.275   3.852  17.170 -0.6736 -0.0201 -0.6182
  879MPD2    C512893   3.349   3.961  17.201 -0.6929 -0.6351 -0.1567
  879MPD2     H12894   3.375   3.637  17.399  0.7192 -1.1183 -0.8757
  879MPD2    H112895   3.202   3.881  17.095 -0.0506  0.1826 -1.1387
  879MPD2    H212896   3.482   4.049  17.342  1.3254 -0.5337 -0.2844
  879MPD2    H312897   3.343   4.053  17.145 -1.8552 -0.6196 -0.0045
  879MPD2     N12898   3.183   3.636  17.210  0.0964 -0.1647 -0.9748
  879MPD2    H512899   3.131   3.650  17.124  0.2001  1.5390 -0.7615
  879MPD2    N112900   3.561   3.832  17.468 -0.0759 -0.6062 -0.0498
  879MPD2    H712901   3.620   3.914  17.468 -0.2022 -0.5201  2.1110
  880MPD2     C12902   0.507   0.517   0.106  0.7770 -0.0249 -0.5866
  880MPD2    C112903   0.432   0.502   0.215  0.7168  0.2749  0.1746
  880MPD2    C212904   0.449   0.384   0.285 -0.2626 -0.7349 -0.0116
  880MPD2    C312905   0.538   0.288   0.247 -0.5652  0.3591 -0.4442
  880MPD2    C412906   0.601   0.306   0.125  0.2147 -0.8409 -0.0128
  880MPD2    C512907   0.587   0.419   0.057  0.4607  0.7716 -0.4676
  880MPD2     H12908   0.386   0.354   0.368 -2.4884  0.5839 -1.2248
  880MPD2    H112909   0.678   0.242   0.082 -1.2391 -2.5058 -0.1217
  880MPD2    H212910   0.502   0.604   0.040  0.0654  0.9817  0.8041
  880MPD2    H312911   0.635   0.432  17.643 -1.0169  0.2353 -1.2828
  880MPD2     N12912   0.549   0.169   0.320 -0.3897  0.4479  0.7968
  880MPD2    H512913   0.493   0.154   0.404 -0.8396 -0.3651  0.3560
  880MPD2    N112914   0.334   0.597   0.257 -0.4121  0.4153  0.6560
  880MPD2    H712915   0.327   0.678   0.196  1.3071  1.4129  1.7899
  881MPD2     C12916   0.050   1.492   0.036 -0.4501 -0.1261 -0.1670
  881MPD2    C112917   0.124   1.381  17.670  0.4135  0.2134 -0.1281
  881MPD2    C212918   0.109   1.258   0.048 -0.3155  0.3989  0.7232
  881MPD2    C312919   0.049   1.254   0.166  0.1554  0.1695  0.4861
  881MPD2    C412920   4.718   1.365   0.229 -0.0433  0.7266 -0.0727
  881MPD2    C512921   4.716   1.485   0.162 -0.3809 -0.2138 -0.7593
  881MPD2     H12922   0.158   1.172   0.003 -0.1442 -0.5753  2.7671
  881MPD2    H112923   4.674   1.355   0.328  0.3450 -1.0717 -0.0840
  881MPD2    H212924   0.053   1.589  17.670 -0.0046 -0.0576 -0.0063
  881MPD2    H312925   4.681   1.576   0.210  0.6964 -0.4583  0.4825
  881MPD2     N12926   0.050   1.140   0.254 -0.5494 -0.5396  0.5365
  881MPD2    H512927   0.008   1.161   0.344 -2.0092  2.5761 -0.8626
  881MPD2    N112928   0.182   1.396  17.543 -0.1859 -0.3524  0.0539
  881MPD2    H712929   0.169   1.487  17.502  1.2575 -0.0043  0.3815
  882MPD2     C12930   3.572   2.784  14.463  0.0919 -0.1931 -0.1638
  882MPD2    C112931   3.500   2.857  14.545  1.0253  0.6121  0.4030
  882MPD2    C212932   3.369   2.881  14.512 -0.9115  0.0889  0.5111
  882MPD2    C312933   3.306   2.811  14.413  0.7486  0.3836 -0.0515
  882MPD2    C412934   3.386   2.725  14.337 -0.1116  0.7224  0.0282
  882MPD2    C512935   3.520   2.710  14.358  0.1635 -0.5104  0.6855
  882MPD2     H12936   3.315   2.947  14.579  1.3142  2.3190  0.1266
  882MPD2    H112937   3.343   2.664  14.258  1.5259 -1.9603  1.1930
  882MPD2    H212938   3.680   2.776  14.458  0.1209  0.7761 -1.0688
  882MPD2    H312939   3.583   2.642  14.302 -0.0424  0.9141 -1.2847
  882MPD2     N12940   3.167   2.813  14.386  0.3586 -0.0832 -0.3756
  882MPD2    H512941   3.131   2.755  14.311  0.1043 -1.4804  0.8017
  882MPD2    N112942   3.562   2.926  14.657  0.4374 -0.1402  0.2897
  882MPD2    H712943   3.660   2.906  14.677  0.0354 -0.3594  2.0966
  883MPD2     C12944   1.261   2.869  16.675  0.2783  0.0405  0.4129
  883MPD2    C112945   1.333   2.949  16.592 -0.5295  0.2597 -0.6233
  883MPD2    C212946   1.471   2.937  16.597  0.0584 -0.3439 -0.9167
  883MPD2    C312947   1.538   2.821  16.645 -0.7941 -0.3292  0.5758
  883MPD2    C412948   1.463   2.737  16.721  0.0644  0.5521  0.1726
  883MPD2    C512949   1.327   2.763  16.731  0.2169 -0.0144 -0.2559
  883MPD2     H12950   1.521   3.014  16.538 -0.6884 -0.8490 -2.2167
  883MPD2    H112951   1.507   2.655  16.778  1.1297  1.9804  1.4240
  883MPD2    H212952   1.155   2.883  16.697  0.5362  1.7313  0.5609
  883MPD2    H312953   1.272   2.713  16.810 -0.0029  1.1209  0.3187
  883MPD2     N12954   1.677   2.818  16.628  0.2372 -0.1652 -0.4025
  883MPD2    H512955   1.716   2.886  16.564 -0.3888 -1.6636 -2.3509
  883MPD2    N112956   1.280   3.045  16.510 -0.4688  0.0133 -0.2647
  883MPD2    H712957   1.348   3.087  16.447  1.3048  1.3916  2.5431
  884MPD2     C12958   2.405   3.596  15.474 -0.3431  0.1383  0.1201
  884MPD2    C112959   2.385   3.599  15.346  0.5024  0.3602  0.2723
  884MPD2    C212960   2.305   3.696  15.289  0.4969  1.2640 -1.0916
  884MPD2    C312961   2.249   3.800  15.363  0.1072  0.0114 -0.3221
  884MPD2    C412962   2.283   3.794  15.500  0.8235 -0.3880 -0.4471
  884MPD2    C512963   2.354   3.692  15.553 -0.2989 -0.9650  0.3350
  884MPD2     H12964   2.295   3.703  15.181  1.6282 -0.7732 -1.3260
  884MPD2    H112965   2.247   3.875  15.562 -0.5887 -0.7502 -0.8008
  884MPD2    H212966   2.461   3.518  15.525 -0.2887  0.4209  0.4919
  884MPD2    H312967   2.359   3.683  15.661 -0.7960 -1.6477  0.2973
  884MPD2     N12968   2.173   3.901  15.303  0.1130 -0.0471  0.0942
  884MPD2    H512969   2.148   3.885  15.206 -2.5936 -0.6074  0.8655
  884MPD2    N112970   2.462   3.523  15.256 -0.5946 -0.1684  0.5646
  884MPD2    H712971   2.443   3.525  15.157 -0.3278 -1.6362  0.4784
  885MPD2     C12972   0.870   4.020  17.557 -0.2690 -0.7913 -0.3908
  885MPD2    C112973   0.907   3.907  17.486  0.0340 -0.6525  0.3439
  885MPD2    C212974   0.909   3.918  17.347  0.5618 -0.2397 -0.1062
  885MPD2    C312975   0.896   4.040  17.282  0.7142  0.4890 -0.3108
  885MPD2    C412976   0.856   4.152  17.351  0.5537  0.0347 -0.6973
  885MPD2    C512977   0.839   4.132  17.488 -0.0809  0.2685  0.6990
  885MPD2     H12978   0.919   3.828  17.287  0.1890  0.7512 -1.6689
  885MPD2    H112979   0.830   4.251  17.313  2.3110  0.2982 -1.2369
  885MPD2    H212980   0.873   4.021  17.666  2.4718  0.2234 -0.4648
  885MPD2    H312981   0.811   4.222  17.542  0.3484  0.8370 -0.0218
  885MPD2     N12982   0.905   4.041  17.136  0.3865  0.1886  0.1871
  885MPD2    H512983   0.932   3.952  17.097 -2.6159 -0.2086 -1.0114
  885MPD2    N112984   0.942   3.790  17.561 -0.2990 -0.3339  0.2286
  885MPD2    H712985   0.935   3.795  17.662  0.9765  1.3054  0.2244
  886MPD2     C12986   1.958   2.163  15.333  0.1634 -0.5399 -0.3555
  886MPD2    C112987   2.083   2.191  15.385 -0.2164 -0.5300  0.3185
  886MPD2    C212988   2.110   2.310  15.436 -0.3647 -0.5383  0.3379
  886MPD2    C312989   2.012   2.405  15.439  0.7415  0.3107 -0.2517
  886MPD2    C412990   1.885   2.381  15.387  0.1382 -0.2395  0.6556
  886MPD2    C512991   1.857   2.257  15.335 -0.2829 -0.5229 -0.3910
  886MPD2     H12992   2.214   2.337  15.452 -0.8370  0.7046  1.3160
  886MPD2    H112993   1.809   2.456  15.402 -0.0801 -0.3606  0.1539
  886MPD2    H212994   1.937   2.070  15.282  1.5573 -1.8782  1.5010
  886MPD2    H312995   1.763   2.240  15.284 -2.0664 -0.6269  2.9467
  886MPD2     N12996   2.032   2.538  15.487  0.1488 -0.8327 -0.2502
  886MPD2    H512997   1.957   2.602  15.461 -1.1713 -3.0814 -1.8995
  886MPD2    N112998   2.182   2.095  15.391 -0.4066  0.3013  0.0179
  886MPD2    H712999   2.261   2.110  15.452  0.4671 -0.2250 -0.9934
  887MPD2     C13000   2.861   2.100  15.670 -0.1330  0.2788 -0.2441
  887MPD2    C113001   2.746   2.162  15.628 -0.0363  1.1417  0.0609
  887MPD2    C213002   2.747   2.307  15.625 -0.6004 -0.0034 -0.3013
  887MPD2    C313003   2.863   2.379  15.667  0.3913  0.0429  0.6635
  887MPD2    C413004   2.969   2.311  15.703  0.0025  0.1836  0.5158
  887MPD2    C513005   2.967   2.173  15.719  0.2146 -0.1408  0.2956
  887MPD2     H13006   2.660   2.367  15.600  0.4365  0.7252 -2.1729
  887MPD2    H113007   3.052   2.353  15.758  0.3522  3.0335 -2.1831
  887MPD2    H213008   2.875   1.994  15.689 -0.7406 -0.3344 -3.1671
  887MPD2    H313009   3.044   2.126  15.779  1.2314 -0.4832 -1.2992
  887MPD2     N13010   2.862   2.519  15.659  0.0202 -0.2414  0.0898
  887MPD2    H513011   2.774   2.566  15.642 -0.2101 -0.7111 -0.0111
  887MPD2    N113012   2.642   2.087  15.570 -0.8360 -0.1326  0.4171
  887MPD2    H713013   2.565   2.142  15.532 -1.4681  1.5581  4.1708
  888MPD2     C13014   0.223   2.366  15.196 -0.5269 -0.5067 -0.1162
  888MPD2    C113015   0.198   2.418  15.319  1.1243 -0.3131  0.4080
  888MPD2    C213016   0.269   2.538  15.348  0.0461 -0.0813  0.1098
  888MPD2    C313017   0.361   2.592  15.258 -0.4483 -0.0857  0.4050
  888MPD2    C413018   0.393   2.519  15.148 -0.3639 -0.2368 -0.3088
  888MPD2    C513019   0.327   2.404  15.121  0.3319  0.6968 -0.0753
  888MPD2     H13020   0.260   2.596  15.439  3.5462  1.1880 -0.3622
  888MPD2    H113021   0.474   2.556  15.086  1.1750 -0.8155  1.3457
  888MPD2    H213022   0.176   2.273  15.165  2.1499 -3.0368  3.3591
  888MPD2    H313023   0.361   2.338  15.041  0.0047 -0.2172  0.5453
  888MPD2     N13024   0.403   2.728  15.280 -0.5392  0.4235 -0.1250
  888MPD2    H513025   0.343   2.787  15.337  2.4166  1.6051  1.7796
  888MPD2    N113026   0.105   2.370  15.414  0.0972  0.1968  0.9852
  888MPD2    H713027   0.111   2.404  15.509  0.3338  2.7685  0.0549
  889MPD2     C13028   4.058   2.108  12.690  0.4401  0.0676  0.1543
  889MPD2    C113029   4.094   2.018  12.791 -0.2114 -0.3092 -0.1221
  889MPD2    C213030   4.140   2.070  12.918 -0.2663  0.2770 -0.3697
  889MPD2    C313031   4.091   2.194  12.958  0.2812 -0.4605  0.3939
  889MPD2    C413032   4.030   2.269  12.863  0.3875  0.4745  0.0055
  889MPD2    C513033   4.016   2.231  12.728 -1.1050 -1.0317 -1.2634
  889MPD2     H13034   4.172   2.006  12.999  1.6535 -0.1863 -1.4753
  889MPD2    H113035   3.993   2.369  12.882 -2.3497 -0.1075 -2.3673
  889MPD2    H213036   4.030   2.074  12.591  1.4043 -0.5297  0.0846
  889MPD2    H313037   3.984   2.299  12.650 -2.1381 -0.8914 -0.7093
  889MPD2     N13038   4.097   2.238  13.093  0.2516  0.0807  0.5788
  889MPD2    H513039   4.138   2.167  13.153 -1.0556 -0.8590  0.3732
  889MPD2    N113040   4.145   1.889  12.752 -0.8047  0.0569 -0.2455
  889MPD2    H713041   4.177   1.836  12.833  1.4258 -0.6533 -1.6015
  890MPD2     C13042   3.520   3.837  14.630 -0.5921 -0.8808 -0.2414
  890MPD2    C113043   3.581   3.928  14.721  0.3009 -0.4883 -0.2850
  890MPD2    C213044   3.642   3.872  14.830 -0.0141  0.0685  0.0723
  890MPD2    C313045   3.651   3.732  14.851 -0.3957 -0.2307 -0.2981
  890MPD2    C413046   3.594   3.646  14.766 -0.0211 -0.5749 -0.5843
  890MPD2    C513047   3.537   3.705  14.658  0.2141 -0.7559 -0.0735
  890MPD2     H13048   3.690   3.932  14.906  0.1360 -0.9316  0.7782
  890MPD2    H113049   3.594   3.538  14.776  1.2869 -0.3873  1.4262
  890MPD2    H213050   3.468   3.869  14.540 -0.1167 -2.6411 -1.1341
  890MPD2    H313051   3.489   3.642  14.584 -0.4566 -0.5360  0.1743
  890MPD2     N13052   3.720   3.687  14.963  0.3198  0.8550 -0.1194
  890MPD2    H513053   3.781   3.750  15.013 -0.6891 -0.5426  2.9020
  890MPD2    N113054   3.557   4.069  14.717 -0.2637  0.3231  0.4964
  890MPD2    H713055   3.501   4.102  14.640 -1.1716  0.9873  1.4307
  891MPD2     C13056   1.712   2.256  16.783 -0.3294 -0.2439  0.2553
  891MPD2    C113057   1.613   2.178  16.841 -0.2944  0.0340 -0.2419
  891MPD2    C213058   1.650   2.060  16.898 -0.4984  0.3810 -1.0061
  891MPD2    C313059   1.778   2.020  16.901  0.0892  0.0986  0.0999
  891MPD2    C413060   1.879   2.110  16.864  0.0001 -0.2476 -0.0791
  891MPD2    C513061   1.849   2.224  16.798 -0.0039 -0.0982  0.1705
  891MPD2     H13062   1.577   1.993  16.942  2.2696  0.0336  3.0287
  891MPD2    H113063   1.985   2.086  16.867  0.3970  1.2019 -3.2721
  891MPD2    H213064   1.684   2.348  16.733  0.7423 -0.2928 -0.4252
  891MPD2    H313065   1.926   2.291  16.762  0.4001  0.5096  2.1493
  891MPD2     N13066   1.814   1.889  16.956 -0.1843  0.3911 -0.4638
  891MPD2    H513067   1.732   1.834  16.982 -0.1856  0.9313  0.6828
  891MPD2    N113068   1.487   2.227  16.823 -0.0735  0.2443 -0.5788
  891MPD2    H713069   1.477   2.310  16.766 -0.1018  1.3511  1.0336
  892MPD2     C13070   2.526   2.942  15.086  0.3924 -0.3535  0.2360
  892MPD2    C113071   2.458   3.000  14.988 -0.5778  0.0029  1.0517
  892MPD2    C213072   2.499   2.983  14.860 -0.1716  0.2075  0.0100
  892MPD2    C313073   2.617   2.916  14.826 -0.5791 -0.2808 -0.1309
  892MPD2    C413074   2.680   2.846  14.930  0.0598 -0.6379 -0.1611
  892MPD2    C513075   2.637   2.865  15.062  0.7253  0.0974  0.6431
  892MPD2     H13076   2.443   3.044  14.790  1.2158 -1.4946 -2.6023
  892MPD2    H113077   2.771   2.790  14.918  0.7027  0.3334  0.2072
  892MPD2    H213078   2.491   2.949  15.189 -0.5487  0.4756 -0.1432
  892MPD2    H313079   2.695   2.816  15.139  0.3102 -1.0074  0.2531
  892MPD2     N13080   2.684   2.911  14.698  0.5990  0.3262 -0.1659
  892MPD2    H513081   2.778   2.875  14.690  1.2397  1.9608 -0.1024
  892MPD2    N113082   2.352   3.089  15.009 -0.0146 -0.3225 -0.4701
  892MPD2    H713083   2.301   3.125  14.929 -2.5825 -2.1142  0.3512
  893MPD2     C13084   3.802   1.711   2.082 -0.0940  0.2146  0.3362
  893MPD2    C113085   3.766   1.599   2.004 -1.0574  0.3400  0.4792
  893MPD2    C213086   3.629   1.584   1.977  0.3575  0.6008 -0.0151
  893MPD2    C313087   3.536   1.672   2.024 -0.4837 -0.2706  0.5214
  893MPD2    C413088   3.577   1.777   2.107  0.3662  0.3151  0.2767
  893MPD2    C513089   3.711   1.800   2.132  0.1436  1.1773  1.1635
  893MPD2     H13090   3.601   1.501   1.912 -0.7119  0.0031  1.2184
  893MPD2    H113091   3.504   1.850   2.140  2.1838  1.6985  1.2215
  893MPD2    H213092   3.906   1.737   2.100 -0.3629  0.3585  1.7245
  893MPD2    H313093   3.738   1.886   2.192  0.4427  0.5235  1.9504
  893MPD2     N13094   3.400   1.665   2.000 -0.2418  0.3234  0.0909
  893MPD2    H513095   3.339   1.715   2.063 -1.0725  0.5317 -0.8667
  893MPD2    N113096   3.853   1.509   1.944 -0.2074 -0.1280 -0.0305
  893MPD2    H713097   3.816   1.445   1.874  1.6705  0.8915 -1.9634
  894MPD2     C13098   2.615   4.168   0.772  0.8280  0.1396 -0.3027
  894MPD2    C113099   2.627   4.185   0.907 -0.1009  0.1890  0.3503
  894MPD2    C213100   2.717   4.280   0.947  0.9071 -0.2360 -0.1406
  894MPD2    C313101   2.794   4.354   0.860 -0.5877 -0.8113 -0.6402
  894MPD2    C413102   2.778   4.338   0.725  0.1153  0.1923  0.1247
  894MPD2    C513103   2.690   4.241   0.684 -0.1157 -0.0391 -0.0032
  894MPD2     H13104   2.721   4.301   1.053 -0.6494  0.6855 -0.2705
  894MPD2    H113105   2.809   4.397   0.640  0.6056 -1.1155 -0.5901
  894MPD2    H213106   2.541   4.101   0.730  1.3175 -0.4948 -0.1461
  894MPD2    H313107   2.675   4.231   0.577  0.6047  1.2844 -0.2313
  894MPD2     N13108   2.853   4.471   0.907  0.8829 -0.1108 -0.0080
  894MPD2    H513109   2.848   4.487   1.007  1.3754  1.2893 -0.1991
  894MPD2    N113110   2.548   4.129   1.007  0.2272 -0.6703  0.1565
  894MPD2    H713111   2.564   4.140   1.107 -0.7784 -1.2363  0.3925
  895MPD2     C13112   1.687   2.159  13.343 -0.3697 -0.3990  0.7851
  895MPD2    C113113   1.591   2.085  13.284 -0.0703 -0.2144  0.4310
  895MPD2    C213114   1.619   1.978  13.196  0.5675  0.0573  0.3054
  895MPD2    C313115   1.748   1.935  13.191 -0.6428 -0.0720 -0.9792
  895MPD2    C413116   1.848   2.012  13.235  0.4220  0.2647 -0.3223
  895MPD2    C513117   1.817   2.124  13.314  0.1872 -0.5048 -0.1710
  895MPD2     H13118   1.534   1.914  13.177  1.2288 -0.4048 -1.1114
  895MPD2    H113119   1.950   1.983  13.212  0.5009 -0.7699  1.3909
  895MPD2    H213120   1.662   2.240  13.410 -0.8136  0.8030 -0.8489
  895MPD2    H313121   1.896   2.186  13.356  0.3232 -0.3565 -0.6404
  895MPD2     N13122   1.776   1.822  13.114  0.1443  0.0011 -0.0007
  895MPD2    H513123   1.693   1.780  13.072 -0.0567 -0.9144  1.3020
  895MPD2    N113124   1.451   2.122  13.294 -0.0534  0.1669  0.0926
  895MPD2    H713125   1.387   2.065  13.240  1.2252 -1.1485 -0.0261
  896MPD2     C13126   3.964   0.011   2.185 -0.4346  0.5091 -0.3984
  896MPD2    C113127   4.000   4.634   2.087  0.2475 -0.2521  0.2926
  896MPD2    C213128   3.908   4.538   2.052  0.3267 -0.8959 -0.1329
  896MPD2    C313129   3.778   4.542   2.084 -0.1643  0.0616 -0.0871
  896MPD2    C413130   3.743   4.645   2.174 -0.1256  0.3980  0.3419
  896MPD2    C513131   3.833   0.013   2.226  0.1677 -0.1414  0.9253
  896MPD2     H13132   3.937   4.453   1.991 -2.9715 -0.1947 -2.6921
  896MPD2    H113133   3.644   4.647   2.219  1.3926  0.8026  3.6085
  896MPD2    H213134   4.029   0.091   2.217  1.2258 -0.7118 -0.7023
  896MPD2    H313135   3.804   0.086   2.301 -0.0852 -2.7939  3.4208
  896MPD2     N13136   3.692   4.460   2.005 -0.0443 -0.2162 -1.0130
  896MPD2    H513137   3.731   4.421   1.920 -0.2753 -2.6338  0.0001
  896MPD2    N113138   4.132   4.647   2.029 -0.4730  0.6882  0.0525
  896MPD2    H713139   4.188   0.003   2.066 -0.4510  0.9781 -0.5872
  897MPD2     C13140   0.136   1.658  10.212 -0.1771  0.4293 -0.0964
  897MPD2    C113141   0.227   1.683  10.308 -0.1706 -0.1907 -0.3979
  897MPD2    C213142   0.188   1.712  10.434  0.4237 -0.2498 -0.2066
  897MPD2    C313143   0.048   1.736  10.457  0.1775 -0.2843 -0.3081
  897MPD2    C413144   4.677   1.699  10.361  0.3739 -0.2685  0.9927
  897MPD2    C513145   0.005   1.658  10.238 -0.0924  0.1513 -0.7170
  897MPD2     H13146   0.254   1.747  10.513  3.2627 -0.3759 -2.5080
  897MPD2    H113147   4.569   1.702  10.373  0.1349  0.9822 -1.4453
  897MPD2    H213148   0.154   1.642  10.106 -1.2022  1.6154 -0.4558
  897MPD2    H313149   4.658   1.640  10.154 -1.5973  0.7540  0.3618
  897MPD2     N13150   0.017   1.798  10.577 -0.4033 -0.0668  0.5583
  897MPD2    H513151   0.094   1.832  10.635 -0.0760  0.6667 -0.3128
  897MPD2    N113152   0.354   1.700  10.258 -0.1682  0.5119  0.6248
  897MPD2    H713153   0.364   1.706  10.158  0.3323  3.3664  0.8462
  898MPD2     C13154   2.257   2.111  17.533  0.3589  0.1817 -0.6419
  898MPD2    C113155   2.379   2.156  17.491 -0.2763  0.1245  0.2105
  898MPD2    C213156   2.386   2.286  17.449  0.6992 -0.5160 -0.6453
  898MPD2    C313157   2.281   2.375  17.468  0.0517 -0.1749 -0.1097
  898MPD2    C413158   2.159   2.323  17.507 -0.4673 -0.0692  0.2677
  898MPD2    C513159   2.154   2.198  17.545 -0.0746 -0.0766 -0.3523
  898MPD2     H13160   2.485   2.312  17.412 -0.2668 -0.1592 -3.0055
  898MPD2    H113161   2.075   2.391  17.513 -1.1808 -1.0024  0.7208
  898MPD2    H213162   2.248   2.005  17.556  1.3233  0.0804 -0.7286
  898MPD2    H313163   2.060   2.159  17.585 -0.0712  1.3671  1.0752
  898MPD2     N13164   2.292   2.505  17.426  1.0160  0.6867 -0.5607
  898MPD2    H513165   2.382   2.525  17.382  1.2459 -0.7088 -0.7181
  898MPD2    N113166   2.487   2.074  17.474  0.2702  0.2467 -0.4736
  898MPD2    H713167   2.569   2.130  17.456  0.4723  0.4238  0.9646
  899MPD2     C13168   3.175   3.218  17.616 -0.1016 -0.1227 -0.0527
  899MPD2    C113169   3.194   3.313   0.035  0.2533 -0.2490  0.3416
  899MPD2    C213170   3.182   3.271   0.164 -0.3974  0.2128 -0.7045
  899MPD2    C313171   3.172   3.135   0.203 -1.0657  0.8335  0.0625
  899MPD2    C413172   3.157   3.046   0.102  0.2398 -0.2183  0.5483
  899MPD2    C513173   3.174   3.085  17.657  0.0297 -0.0859  0.1944
  899MPD2     H13174   3.194   3.346   0.240 -1.0370 -1.4200  1.0219
  899MPD2    H113175   3.119   2.946   0.116  0.9101 -0.5993 -0.3440
  899MPD2    H213176   3.185   3.248  17.513  0.1651  0.7542  0.2324
  899MPD2    H313177   3.155   3.013  17.578 -1.3073  1.1223 -0.5792
  899MPD2     N13178   3.167   3.076   0.334 -0.0772 -0.2079 -0.6930
  899MPD2    H513179   3.174   2.974   0.335  2.9177  0.0239 -0.9570
  899MPD2    N113180   3.183   3.453  17.681 -0.3900  0.3426  0.0531
  899MPD2    H713181   3.181   3.460  17.580 -0.4427  1.3494  0.1281
  900MPD2     C13182   2.938   0.188  12.559  0.2777 -0.0237  0.2994
  900MPD2    C113183   2.832   0.118  12.504  0.0598  0.7076  0.0537
  900MPD2    C213184   2.740   0.183  12.424 -0.7281 -0.6199 -0.6479
  900MPD2    C313185   2.747   0.327  12.418 -0.4973  0.0380 -0.3020
  900MPD2    C413186   2.852   0.399  12.480  0.6416 -0.3898 -1.4956
  900MPD2    C513187   2.938   0.322  12.553  0.1001  0.6126  0.1283
  900MPD2     H13188   2.655   0.122  12.394 -0.2821 -0.7935 -1.5663
  900MPD2    H113189   2.869   0.504  12.462  1.2129  0.0082  1.3327
  900MPD2    H213190   3.013   0.131  12.612 -3.0725 -1.2818  3.6201
  900MPD2    H313191   3.020   0.386  12.583 -0.3683  0.6601  1.3007
  900MPD2     N13192   2.654   0.402  12.333  0.2942 -0.4221 -0.6678
  900MPD2    H513193   2.582   0.347  12.286 -1.7533  0.6310  1.2487
  900MPD2    N113194   2.830   4.696  12.524  1.4405 -0.2329 -0.3335
  900MPD2    H713195   2.890   4.658  12.597  0.4859  0.6096  0.9086
  901MPD2     C13196   2.969   4.048  13.204  0.5471 -0.2524  0.4027
  901MPD2    C113197   3.014   3.978  13.096 -0.3372 -0.0766 -0.1181
  901MPD2    C213198   2.967   4.012  12.971 -0.7590 -0.9161 -0.0648
  901MPD2    C313199   2.892   4.128  12.957 -0.5653 -0.1143 -0.7007
  901MPD2    C413200   2.845   4.190  13.064  0.2276 -0.0787 -0.2125
  901MPD2    C513201   2.872   4.141  13.187  0.1173 -0.2456 -0.6061
  901MPD2     H13202   2.999   3.957  12.884  1.1277 -0.9987  0.6797
  901MPD2    H113203   2.781   4.277  13.053  1.0096  0.4678 -0.4475
  901MPD2    H213204   2.998   4.022  13.305  0.2073  1.3209  0.9074
  901MPD2    H313205   2.836   4.199  13.271  0.7227 -2.1729  0.9764
  901MPD2     N13206   2.872   4.178  12.825  0.3604  0.2094  0.4755
  901MPD2    H513207   2.911   4.120  12.751 -0.1002 -0.3023  0.6325
  901MPD2    N113208   3.102   3.868  13.109  0.1054  0.0936 -0.4220
  901MPD2    H713209   3.092   3.828  13.202 -1.4323 -0.6373 -0.9008
  902MPD2     C13210   1.040   2.674  12.835 -0.5381  0.4222 -0.1326
  902MPD2    C113211   1.079   2.726  12.714  0.4921 -0.4144  0.3601
  902MPD2    C213212   1.134   2.644  12.618  0.2921 -0.9590  0.1453
  902MPD2    C313213   1.118   2.509  12.625 -0.0966 -0.6587  0.5209
  902MPD2    C413214   1.070   2.456  12.744  0.2852  0.1695  0.3408
  902MPD2    C513215   1.029   2.532  12.849 -0.0572 -0.1220 -0.4706
  902MPD2     H13216   1.179   2.679  12.526 -2.8580  1.2550 -0.5866
  902MPD2    H113217   1.071   2.348  12.751 -1.4540  0.1892  0.8671
  902MPD2    H213218   1.017   2.735  12.921  1.4275 -0.8299  1.2953
  902MPD2    H313219   0.986   2.484  12.936 -0.0138  0.0911 -0.3304
  902MPD2     N13220   1.156   2.424  12.521  0.0580  0.5549  0.3545
  902MPD2    H513221   1.152   2.324  12.539 -1.9563  0.5280 -0.3135
  902MPD2    N113222   1.076   2.865  12.699  0.0059  0.4576  1.0686
  902MPD2    H713223   1.081   2.918  12.785 -0.4015  1.3022  0.5603
  903MPD2     C13224   1.558   2.524  11.807  0.3990 -0.0283  0.3595
  903MPD2    C113225   1.447   2.450  11.830 -0.5020  0.5433  0.2785
  903MPD2    C213226   1.333   2.474  11.748  0.5932  0.5384 -0.3229
  903MPD2    C313227   1.340   2.541  11.627 -0.1562  0.0695  0.1548
  903MPD2    C413228   1.468   2.591  11.604  0.4389 -0.0233  0.3665
  903MPD2    C513229   1.570   2.590  11.688  0.0325 -0.2128 -0.5930
  903MPD2     H13230   1.236   2.439  11.783  0.2511  2.1770  0.3674
  903MPD2    H113231   1.491   2.649  11.516 -0.7623  1.2089  0.8583
  903MPD2    H213232   1.644   2.525  11.873  0.1823 -0.7126  0.6520
  903MPD2    H313233   1.662   2.645  11.669  0.2264 -0.0878  0.7200
  903MPD2     N13234   1.230   2.551  11.543 -0.0283 -0.1329  0.3319
  903MPD2    H513235   1.142   2.505  11.565 -0.6660  1.8214  1.7879
  903MPD2    N113236   1.431   2.369  11.952  0.6733  0.1180  0.4015
  903MPD2    H713237   1.497   2.379  12.029  3.2258  1.5879 -1.9631
  904MPD2     C13238   1.543   1.451  13.909  0.5977 -0.3383  0.3010
  904MPD2    C113239   1.540   1.583  13.867 -0.4871 -0.1423  0.1796
  904MPD2    C213240   1.659   1.658  13.881 -0.3953 -0.2305 -0.1188
  904MPD2    C313241   1.769   1.601  13.942  0.0429  0.3330  0.0168
  904MPD2    C413242   1.771   1.474  13.993  0.5807 -0.5060 -0.3730
  904MPD2    C513243   1.657   1.399  13.969 -0.2710  0.1996  0.2129
  904MPD2     H13244   1.658   1.764  13.858  1.0681  0.1333  1.5059
  904MPD2    H113245   1.849   1.428  14.052  0.8228 -0.2338 -0.4804
  904MPD2    H213246   1.451   1.394  13.900  0.5130 -0.3992  1.5629
  904MPD2    H313247   1.657   1.309  14.029 -2.3487 -0.4256 -0.7438
  904MPD2     N13248   1.878   1.688  13.964 -0.2423 -0.8478 -0.0675
  904MPD2    H513249   1.876   1.784  13.929 -1.6490 -1.0333 -0.4765
  904MPD2    N113250   1.427   1.649  13.811  0.5093 -0.4134  0.7359
  904MPD2    H713251   1.433   1.747  13.787 -0.7138 -0.4293  0.3362
  905MPD2     C13252   1.141   1.417  13.153 -0.2769 -0.2325  0.3807
  905MPD2    C113253   1.222   1.525  13.186 -0.6802  0.7201  1.2496
  905MPD2    C213254   1.338   1.558  13.110 -0.7969 -0.3229  0.2879
  905MPD2    C313255   1.359   1.491  12.994 -0.2581  0.4596 -0.3226
  905MPD2    C413256   1.277   1.383  12.960  0.2799 -0.2465 -0.0160
  905MPD2    C513257   1.170   1.352  13.036 -0.1666  0.4195  0.1014
  905MPD2     H13258   1.407   1.637  13.138 -0.3891 -0.6071  0.0935
  905MPD2    H113259   1.287   1.328  12.867  0.9869 -1.0359  0.5314
  905MPD2    H213260   1.054   1.387  13.210 -2.8590  0.8132 -2.9838
  905MPD2    H313261   1.104   1.268  13.014 -0.1384  0.7568 -1.2660
  905MPD2     N13262   1.470   1.523  12.909 -0.6721  0.4932  0.6787
  905MPD2    H513263   1.482   1.467  12.826  1.2266  1.7408  0.1242
  905MPD2    N113264   1.192   1.605  13.297  0.0489 -0.1971  0.7540
  905MPD2    H713265   1.128   1.558  13.360 -2.6067  0.7698 -1.2639
  906MPD2     C13266   3.786   1.877  11.602  0.8097 -0.6584 -0.2993
  906MPD2    C113267   3.788   1.826  11.474 -0.6979 -0.0703 -1.1480
  906MPD2    C213268   3.804   1.690  11.463  0.3037 -0.0448 -0.1457
  906MPD2    C313269   3.809   1.615  11.578 -0.1793  0.1622  0.0072
  906MPD2    C413270   3.797   1.660  11.701  0.4781 -0.6623 -0.7029
  906MPD2    C513271   3.786   1.799  11.718  0.4426  0.7781 -0.0413
  906MPD2     H13272   3.811   1.639  11.368 -1.4975 -0.3504 -0.1165
  906MPD2    H113273   3.775   1.594  11.784 -4.0343  2.1498  0.3387
  906MPD2    H213274   3.785   1.983  11.623  1.4713 -0.8505  0.7057
  906MPD2    H313275   3.784   1.840  11.819 -1.2670 -0.5536  0.4552
  906MPD2     N13276   3.820   1.474  11.579 -0.0964 -0.1167 -0.6584
  906MPD2    H513277   3.780   1.424  11.658 -2.1949  1.2353 -0.8724
  906MPD2    N113278   3.782   1.902  11.356 -0.3181 -0.1447 -1.0326
  906MPD2    H713279   3.799   1.855  11.267 -2.3532  2.2318 -2.6557
  907MPD2     C13280   2.791   1.165  15.145  0.0969 -0.7179  0.3078
  907MPD2    C113281   2.818   1.027  15.139  0.4024  0.2809  0.6554
  907MPD2    C213282   2.930   0.982  15.212 -0.7606 -0.2153  0.2546
  907MPD2    C313283   3.018   1.067  15.277 -0.0579 -0.0529 -0.0691
  907MPD2    C413284   2.993   1.201  15.275 -0.3999 -0.2287 -0.4758
  907MPD2    C513285   2.885   1.249  15.210 -0.2033 -0.6047  0.2414
  907MPD2     H13286   2.929   0.874  15.225 -2.0840 -0.4694 -1.9794
  907MPD2    H113287   3.056   1.275  15.323 -1.9627 -0.8899  2.5422
  907MPD2    H213288   2.710   1.203  15.083 -0.1868 -0.3274  0.9145
  907MPD2    H313289   2.860   1.355  15.204 -3.9715 -1.5679 -1.0827
  907MPD2     N13290   3.123   1.009  15.356  0.5188  0.1082 -0.2209
  907MPD2    H513291   3.139   0.909  15.349  1.7849  0.3966 -1.5230
  907MPD2    N113292   2.739   0.940  15.064  0.2457 -0.3941  0.4250
  907MPD2    H713293   2.768   0.842  15.064  1.1861 -0.1111 -1.2593
  908MPD2     C13294   0.663   1.662   9.451 -0.2954 -0.3645 -0.5395
  908MPD2    C113295   0.647   1.569   9.552  0.7690  0.4030  0.1239
  908MPD2    C213296   0.654   1.605   9.681  0.4571  0.1010 -0.2193
  908MPD2    C313297   0.657   1.735   9.729  0.6465  0.3516  0.7885
  908MPD2    C413298   0.647   1.829   9.624  0.5981  0.3288  0.3598
  908MPD2    C513299   0.660   1.791   9.493  0.5200  0.3605  0.6964
  908MPD2     H13300   0.643   1.526   9.755  2.2956  1.0956  1.1216
  908MPD2    H113301   0.633   1.935   9.642 -0.5462  0.3797 -0.8215
  908MPD2    H213302   0.659   1.648   9.344  0.4951  0.6656 -0.6984
  908MPD2    H313303   0.675   1.870   9.420  0.3925  0.9399  1.3009
  908MPD2     N13304   0.651   1.767   9.873  0.2303  0.1719 -0.3250
  908MPD2    H513305   0.661   1.690   9.938 -0.8054 -0.4479 -0.8843
  908MPD2    N113306   0.626   1.430   9.511  0.0099  0.5126 -0.3164
  908MPD2    H713307   0.623   1.363   9.586 -0.0978  1.4053  0.4767
  909MPD2     C13308   1.028   4.096  11.509  0.8587 -0.4348  0.3431
  909MPD2    C113309   0.967   4.187  11.426 -0.8242  0.0297 -0.5848
  909MPD2    C213310   0.870   4.270  11.472 -0.5600  0.2859  0.4271
  909MPD2    C313311   0.823   4.249  11.599 -0.5999  1.1015 -0.0199
  909MPD2    C413312   0.875   4.152  11.684  0.7577 -0.3073  0.0627
  909MPD2    C513313   0.978   4.078  11.633 -0.9876 -0.3458 -0.1812
  909MPD2     H13314   0.843   4.357  11.413  0.6497  0.0750 -0.4270
  909MPD2    H113315   0.842   4.138  11.786  1.0511  1.0663  0.3490
  909MPD2    H213316   1.115   4.042  11.473  1.0337 -0.5431  0.9237
  909MPD2    H313317   1.026   4.007  11.700 -0.2888  1.2146  0.9829
  909MPD2     N13318   0.722   4.337  11.640  0.0468 -0.0981 -0.1309
  909MPD2    H513319   0.705   4.415  11.579  1.4437  1.4904  1.5094
  909MPD2    N113320   1.019   4.213  11.300  0.1022  0.7424 -0.0256
  909MPD2    H713321   0.970   4.280  11.243 -1.1165  0.4154  0.6328
  910MPD2     C13322   1.986   1.542  15.870  0.0166 -0.2048  0.8260
  910MPD2    C113323   2.053   1.453  15.791 -0.0969  0.6147 -0.3084
  910MPD2    C213324   2.051   1.464  15.651 -0.2357 -0.6013 -0.0408
  910MPD2    C313325   1.965   1.551  15.584  0.1779 -0.2279  0.3076
  910MPD2    C413326   1.883   1.636  15.665  0.9968 -0.3017 -0.2712
  910MPD2    C513327   1.898   1.628  15.804 -0.4550  0.5224 -0.1558
  910MPD2     H13328   2.108   1.391  15.594 -4.1183 -2.2713 -1.7864
  910MPD2    H113329   1.796   1.690  15.628  1.1079 -0.4144 -0.6966
  910MPD2    H213330   1.987   1.536  15.978  0.1506 -0.2565  0.8212
  910MPD2    H313331   1.817   1.673  15.861 -1.4289  0.4050 -1.4386
  910MPD2     N13332   1.973   1.549  15.441  0.0505 -0.2912  0.1384
  910MPD2    H513333   2.047   1.487  15.406 -0.1632  0.6198 -1.9311
  910MPD2    N113334   2.132   1.351  15.843 -0.1177  0.4367  0.2364
  910MPD2    H713335   2.186   1.294  15.778 -2.0842  0.4779 -1.4090
  911MPD2     C13336   4.532   2.454  16.800 -0.3179  0.3787  0.7835
  911MPD2    C113337   4.552   2.410  16.670 -0.2636 -1.1136 -0.3284
  911MPD2    C213338   4.438   2.400  16.592  0.7276  0.1799  0.2629
  911MPD2    C313339   4.310   2.420  16.638 -0.1244  0.6520  0.5945
  911MPD2    C413340   4.293   2.451  16.770  0.4091  0.3921  0.3380
  911MPD2    C513341   4.403   2.462  16.852  0.2004 -0.6030  0.2328
  911MPD2     H13342   4.452   2.365  16.490  0.1877  0.3726  0.1230
  911MPD2    H113343   4.198   2.469  16.818  0.6264 -0.4715  1.1026
  911MPD2    H213344   4.615   2.470  16.867  0.8775  1.5266 -0.9650
  911MPD2    H313345   4.382   2.494  16.953 -2.5060 -1.7673  0.0382
  911MPD2     N13346   4.188   2.406  16.566  0.2402 -0.1541 -0.8013
  911MPD2    H513347   4.101   2.417  16.617 -0.1844 -2.9810 -0.9431
  911MPD2    N113348   4.676   2.355  16.643 -0.0712 -0.0953 -0.4354
  911MPD2    H713349   0.012   2.328  16.723 -0.6367 -0.4377 -0.1464
  912MPD2     C13350   4.054   1.734  16.084 -0.4560  0.4800 -0.1811
  912MPD2    C113351   4.048   1.787  16.210 -0.0002 -0.0465 -0.4628
  912MPD2    C213352   4.037   1.711  16.315 -0.4572 -0.4730 -0.3575
  912MPD2    C313353   4.014   1.579  16.314 -0.2974 -0.3283 -0.2423
  912MPD2    C413354   4.041   1.521  16.185 -0.1773 -0.2844  0.1183
  912MPD2    C513355   4.052   1.595  16.069  0.0474  0.2465  0.0328
  912MPD2     H13356   4.051   1.759  16.411 -0.1486 -1.6362  0.1787
  912MPD2    H113357   4.028   1.416  16.160 -2.6601 -0.1068  0.6123
  912MPD2    H213358   4.073   1.798  15.998 -1.5708  0.4802 -0.4170
  912MPD2    H313359   4.045   1.556  15.968  1.4373 -2.3386  0.9287
  912MPD2     N13360   3.970   1.510  16.432 -0.0292  0.4082  0.1967
  912MPD2    H513361   3.946   1.571  16.509  1.5551 -0.6908  1.5547
  912MPD2    N113362   4.049   1.928  16.220  0.1245  0.7364  0.2903
  912MPD2    H713363   4.061   1.974  16.131 -1.8119  1.1282  0.2296
  913MPD2     C13364   0.400   3.047  10.940 -0.0832 -0.0393 -0.0799
  913MPD2    C113365   0.422   3.178  10.989  0.1059 -0.0043  0.0259
  913MPD2    C213366   0.397   3.288  10.904 -0.2614 -0.4827  0.4172
  913MPD2    C313367   0.374   3.271  10.769  0.4680 -0.1921  0.9039
  913MPD2    C413368   0.352   3.146  10.720 -0.2896 -0.2782 -0.0590
  913MPD2    C513369   0.362   3.040  10.807 -0.3082  0.1103  0.1629
  913MPD2     H13370   0.406   3.385  10.952  1.7311 -0.9147  0.9118
  913MPD2    H113371   0.320   3.124  10.618 -1.6280 -1.1083  0.5481
  913MPD2    H213372   0.403   2.965  11.012  1.9330 -0.6863 -0.9017
  913MPD2    H313373   0.321   2.945  10.775  2.2608 -0.9193  0.0159
  913MPD2     N13374   0.371   3.384  10.685  0.2512  0.4287 -0.3775
  913MPD2    H513375   0.385   3.475  10.729  0.0226  0.8049 -1.0764
  913MPD2    N113376   0.465   3.197  11.122 -0.4443 -0.0023  0.1951
  913MPD2    H713377   0.480   3.114  11.178 -2.4200  0.3844  1.2672
  914MPD2     C13378   2.823   3.403  12.332  0.3239  0.8959 -0.3801
  914MPD2    C113379   2.835   3.534  12.377  0.2231  0.5245  0.7843
  914MPD2    C213380   2.889   3.561  12.506  0.1690 -0.6450  0.4749
  914MPD2    C313381   2.929   3.461  12.587  0.7409  0.2426 -0.2282
  914MPD2    C413382   2.919   3.328  12.536  0.3663  0.1014 -0.1253
  914MPD2    C513383   2.874   3.306  12.409  0.2145  0.5215 -0.3110
  914MPD2     H13384   2.888   3.661  12.546 -1.5841 -0.7352  0.6596
  914MPD2    H113385   2.931   3.241  12.601 -2.7577  0.0036  0.3277
  914MPD2    H213386   2.779   3.369  12.239  0.0595  0.8789 -0.2471
  914MPD2    H313387   2.871   3.203  12.376  2.0580  0.0961  0.8128
  914MPD2     N13388   2.985   3.494  12.714  0.2264 -0.2830 -0.0943
  914MPD2    H513389   2.989   3.594  12.735 -1.6218 -0.2041 -0.1570
  914MPD2    N113390   2.780   3.630  12.285 -0.4924  0.4995 -0.7437
  914MPD2    H713391   2.715   3.598  12.214  0.1743 -0.3993 -0.9466
  915MPD2     C13392   1.405   3.692  15.841  1.1235  0.1477 -0.3836
  915MPD2    C113393   1.297   3.763  15.785 -0.2895 -0.2139  0.1232
  915MPD2    C213394   1.226   3.849  15.865 -0.5504 -0.5441 -0.5794
  915MPD2    C313395   1.250   3.859  16.001 -0.2037  0.4532 -1.3341
  915MPD2    C413396   1.353   3.794  16.061 -0.2634  0.6957  0.0513
  915MPD2    C513397   1.434   3.714  15.976 -0.5782 -0.1515  0.1426
  915MPD2     H13398   1.135   3.894  15.825  0.4326  2.6844  0.7981
  915MPD2    H113399   1.380   3.801  16.166  1.0193  0.5099 -0.2699
  915MPD2    H213400   1.470   3.621  15.790  0.8382 -0.1623 -0.3154
  915MPD2    H313401   1.524   3.667  16.015 -0.4095  1.2603  1.4387
  915MPD2     N13402   1.153   3.931  16.077  0.3065 -0.4036  0.2782
  915MPD2    H513403   1.080   3.979  16.026 -0.5730 -0.2883  1.6376
  915MPD2    N113404   1.264   3.734  15.651  1.1095 -0.2613 -0.2561
  915MPD2    H713405   1.323   3.670  15.598  0.4929 -1.3593  0.3920
  916MPD2     C13406   3.755   1.694  15.812  0.4391 -0.2106 -0.9751
  916MPD2    C113407   3.755   1.588  15.900  0.1600  0.3984  0.5709
  916MPD2    C213408   3.813   1.465  15.865  0.9698 -0.3866  0.6018
  916MPD2    C313409   3.874   1.454  15.744 -1.1424  0.6760 -0.4173
  916MPD2    C413410   3.884   1.561  15.656 -0.0121 -0.2170  0.2171
  916MPD2    C513411   3.821   1.680  15.692 -0.6488  0.1284  0.4939
  916MPD2     H13412   3.826   1.377  15.925 -0.3522 -2.0609 -1.5546
  916MPD2    H113413   3.938   1.556  15.562  0.2222  0.4637  0.3208
  916MPD2    H213414   3.707   1.789  15.834  3.0821  0.9448 -0.1974
  916MPD2    H313415   3.827   1.759  15.618 -0.8377  1.8749  2.3466
  916MPD2     N13416   3.929   1.322  15.727  0.1841 -0.3635  0.3301
  916MPD2    H513417   3.907   1.249  15.794  1.5048 -0.1347  1.0010
  916MPD2    N113418   3.698   1.622  16.027 -0.2063  0.0991 -0.0938
  916MPD2    H713419   3.666   1.718  16.041 -0.3523  0.3546 -2.1609
  917MPD2     C13420   4.283   4.037  10.715  0.4687 -0.0189 -0.0227
  917MPD2    C113421   4.241   4.113  10.819 -0.0986  0.4109 -0.0828
  917MPD2    C213422   4.260   4.247  10.816  0.4757 -0.2706 -0.2023
  917MPD2    C313423   4.330   4.300  10.713 -0.2948  0.2261  1.1335
  917MPD2    C413424   4.384   4.224  10.618  0.0861  1.2392  0.8250
  917MPD2    C513425   4.368   4.088  10.618  0.0792 -0.0491 -0.7932
  917MPD2     H13426   4.237   4.313  10.899  1.7701  1.2950 -1.0949
  917MPD2    H113427   4.438   4.268  10.534 -0.2510  0.7029  0.3223
  917MPD2    H213428   4.285   3.929  10.717  1.0146 -0.0359 -1.9969
  917MPD2    H313429   4.414   4.018  10.550 -0.7800  1.6568 -3.1226
  917MPD2     N13430   4.366   4.436  10.702 -0.2095  0.2351  0.0399
  917MPD2    H513431   4.434   4.457  10.630  0.1886 -0.5363  0.1927
  917MPD2    N113432   4.198   4.048  10.938 -1.0245 -0.1504  0.4461
  917MPD2    H713433   4.180   3.951  10.917 -1.0041 -0.2546  0.9149
  918MPD2     C13434   4.085   4.316  11.930  0.0546  0.2768 -0.5519
  918MPD2    C113435   4.196   4.315  11.842 -0.3778  0.1409  0.2690
  918MPD2    C213436   4.181   4.278  11.713  0.3723  0.2143  0.2929
  918MPD2    C313437   4.066   4.206  11.671 -0.0552 -0.1819 -0.2281
  918MPD2    C413438   3.966   4.183  11.760  0.8966 -0.0043 -0.6328
  918MPD2    C513439   3.970   4.243  11.884 -0.1526  0.6078 -0.9107
  918MPD2     H13440   4.266   4.304  11.650  0.4013 -0.9999 -0.1723
  918MPD2    H113441   3.889   4.108  11.742 -1.8454  2.5739  0.3561
  918MPD2    H213442   4.091   4.355  12.031  0.9011  1.0728 -0.9128
  918MPD2    H313443   3.885   4.233  11.949  0.5254 -1.5194 -0.3736
  918MPD2     N13444   4.058   4.147  11.538 -0.4376  0.2506  0.0586
  918MPD2    H513445   4.115   4.195  11.470 -0.9751  1.0602  0.1757
  918MPD2    N113446   4.324   4.345  11.896  0.5745 -0.7500  0.0147
  918MPD2    H713447   4.401   4.361  11.831 -0.4597  0.6366 -0.8774
  919MPD2     C13448   0.302   3.420  11.615  0.7393 -0.4689  0.4887
  919MPD2    C113449   0.240   3.301  11.616  0.2383  0.0824  0.2603
  919MPD2    C213450   0.190   3.256  11.494  0.1360 -0.5983 -1.0626
  919MPD2    C313451   0.217   3.308  11.366  0.1889  0.7923 -0.8037
  919MPD2    C413452   0.282   3.431  11.371  0.2637 -0.3594  0.8658
  919MPD2    C513453   0.322   3.480  11.491  0.2962 -0.7485 -0.0174
  919MPD2     H13454   0.118   3.176  11.503 -1.6098  1.1230  0.3833
  919MPD2    H113455   0.314   3.487  11.283 -1.1310 -0.1710  0.4655
  919MPD2    H213456   0.352   3.468  11.699 -0.4114  1.5914  0.0073
  919MPD2    H313457   0.388   3.565  11.485  0.4410 -0.8050  0.7130
  919MPD2     N13458   0.169   3.255  11.245 -0.0010 -0.2482  0.0548
  919MPD2    H513459   0.175   3.317  11.165 -2.3741  1.3053  1.0662
  919MPD2    N113460   0.206   3.222  11.728 -0.1249  0.4810 -0.1555
  919MPD2    H713461   0.137   3.151  11.708 -1.6950  2.2523 -0.9954
  920MPD2     C13462   4.532   3.436  10.372 -0.1591 -0.8673 -0.0924
  920MPD2    C113463   4.491   3.307  10.375  0.1708  0.2659  0.0870
  920MPD2    C213464   4.544   3.229  10.473 -0.1845  0.0762  0.0343
  920MPD2    C313465   4.625   3.281  10.575 -0.6528 -1.1529 -0.0393
  920MPD2    C413466   4.656   3.414  10.564  0.4926  0.0835  0.0298
  920MPD2    C513467   4.612   3.493  10.465  0.1999  0.4767 -0.7406
  920MPD2     H13468   4.535   3.121  10.477  0.7641 -0.0004  0.2367
  920MPD2    H113469   0.008   3.461  10.631 -0.4235  1.2203  0.2157
  920MPD2    H213470   4.504   3.504  10.292  1.0700  0.0785  0.2832
  920MPD2    H313471   4.648   3.593  10.450 -0.4013  0.7890 -0.0994
  920MPD2     N13472   4.682   3.199  10.672 -0.4926  0.0020 -0.1937
  920MPD2    H513473   4.664   3.100  10.657 -1.1448  0.1550 -0.4681
  920MPD2    N113474   4.395   3.258  10.291  0.4472 -0.3123 -0.5259
  920MPD2    H713475   4.358   3.169  10.321  0.7879 -1.3663 -3.2694
  921MPD2     C13476   0.808   1.899  16.938  0.3687 -0.3636 -0.1893
  921MPD2    C113477   0.789   2.021  16.888  1.1539 -0.4157 -0.3234
  921MPD2    C213478   0.663   2.057  16.832  0.7760 -1.1306  0.5639
  921MPD2    C313479   0.566   1.962  16.816 -0.3935 -0.3962  0.0324
  921MPD2    C413480   0.590   1.832  16.859 -0.2641  0.0574  0.5129
  921MPD2    C513481   0.708   1.807  16.922  0.4968 -0.3463 -0.4702
  921MPD2     H13482   0.642   2.161  16.813 -0.1107 -1.4987 -0.4287
  921MPD2    H113483   0.516   1.753  16.849 -0.1622 -0.1905  1.6540
  921MPD2    H213484   0.892   1.879  17.004  0.9141 -0.8694 -1.0459
  921MPD2    H313485   0.738   1.714  16.969  0.6415  0.8333  1.7615
  921MPD2     N13486   0.443   1.985  16.755  0.3556 -0.6073 -0.5865
  921MPD2    H513487   0.402   1.900  16.720 -1.0316 -0.7738  1.4862
  921MPD2    N113488   0.891   2.118  16.917 -0.3125 -0.0686 -0.0974
  921MPD2    H713489   0.967   2.091  16.978 -0.0439  0.1343 -0.3432
  922MPD2     C13490   1.571   4.335  17.461  0.2584 -0.2847 -0.7175
  922MPD2    C113491   1.575   4.439  17.377 -0.1547  0.6977  0.2314
  922MPD2    C213492   1.460   4.506  17.354 -0.0390 -0.3000  0.2189
  922MPD2    C313493   1.341   4.470  17.412  0.1146 -0.2015 -0.5860
  922MPD2    C413494   1.334   4.361  17.490  0.3990  0.0890  0.1352
  922MPD2    C513495   1.453   4.300  17.520  0.0590 -0.2926 -0.3381
  922MPD2     H13496   1.459   4.591  17.287  0.3949  1.2071  2.1067
  922MPD2    H113497   1.244   4.317  17.532  1.5732 -4.4131 -2.1294
  922MPD2    H213498   1.652   4.272  17.494 -1.5607 -1.1562  2.0334
  922MPD2    H313499   1.451   4.209  17.579  1.7058  0.8728  1.5404
  922MPD2     N13500   1.226   4.551  17.377 -0.0722 -0.1340 -0.0890
  922MPD2    H513501   1.249   4.628  17.314  2.2812 -0.5067  0.3061
  922MPD2    N113502   1.689   4.486  17.316 -0.2463  0.1732 -0.1015
  922MPD2    H713503   1.680   4.576  17.272  2.3458  0.7296  0.4646
  923MPD2     C13504   3.134   1.786   8.970 -0.1608  0.4693 -0.0634
  923MPD2    C113505   3.098   1.874   9.069 -0.1841 -0.1862  0.4444
  923MPD2    C213506   3.155   1.864   9.193  0.3560  0.0360  0.0566
  923MPD2    C313507   3.258   1.770   9.215  0.4520  0.1387 -0.2937
  923MPD2    C413508   3.300   1.697   9.109  0.1644  0.3148  0.3748
  923MPD2    C513509   3.232   1.697   8.998 -0.1589 -0.2028  0.5066
  923MPD2     H13510   3.126   1.929   9.275 -0.4210  0.3043 -0.4349
  923MPD2    H113511   3.385   1.631   9.116 -0.9518 -1.4061 -2.1386
  923MPD2    H213512   3.083   1.784   8.874  4.2597  0.6939 -2.4125
  923MPD2    H313513   3.263   1.630   8.918 -0.9373 -0.6891  0.6122
  923MPD2     N13514   3.338   1.749   9.335  0.2247  0.5056 -0.7349
  923MPD2    H513515   3.389   1.661   9.330 -0.0443  0.2223  1.5207
  923MPD2    N113516   3.002   1.972   9.047  1.0935  0.9812 -0.1021
  923MPD2    H713517   2.969   1.980   8.952 -0.1161  1.1970  0.3425
  924MPD2     C13518   3.219   0.226  15.402 -0.2640  0.2278 -0.1879
  924MPD2    C113519   3.205   0.260  15.535 -0.8220  0.0165 -0.0400
  924MPD2    C213520   3.280   0.369  15.581 -1.1178  0.1649  0.2667
  924MPD2    C313521   3.343   0.450  15.489  0.4255  0.1623  1.0057
  924MPD2    C413522   3.362   0.410  15.359 -0.1609 -0.1874  0.6338
  924MPD2    C513523   3.299   0.296  15.314 -0.0077  0.0483  0.1647
  924MPD2     H13524   3.278   0.399  15.685  0.7486 -0.9397  0.6269
  924MPD2    H113525   3.414   0.473  15.289 -2.6330 -0.4042 -1.3987
  924MPD2    H213526   3.159   0.146  15.358  3.6772 -1.5355 -2.2899
  924MPD2    H313527   3.311   0.261  15.212 -0.3880 -0.7834  0.4037
  924MPD2     N13528   3.401   0.570  15.546  0.5943  0.2293  0.1431
  924MPD2    H513529   3.365   0.598  15.636 -0.0182  0.8070 -0.2818
  924MPD2    N113530   3.108   0.187  15.608  0.2988 -0.0720 -0.2604
  924MPD2    H713531   3.064   0.115  15.552 -2.1330 -0.5626  2.2663
  925MPD2     C13532   1.838   2.624  14.921 -0.1384 -0.6697 -0.2872
  925MPD2    C113533   1.733   2.687  14.862  0.1197  0.0612  0.3459
  925MPD2    C213534   1.622   2.713  14.944  0.0290 -0.7016  0.1782
  925MPD2    C313535   1.637   2.712  15.080 -0.3449  0.1379  0.0466
  925MPD2    C413536   1.749   2.656  15.141 -0.5349  0.3416 -0.0081
  925MPD2    C513537   1.847   2.608  15.056 -0.2947  0.4196  0.1609
  925MPD2     H13538   1.530   2.750  14.901 -0.0442  2.0136  2.6741
  925MPD2    H113539   1.770   2.647  15.247 -0.0904  1.2930 -0.0098
  925MPD2    H213540   1.923   2.577  14.873  2.2463  1.9156  1.3534
  925MPD2    H313541   1.937   2.562  15.095 -0.6189  0.8448  1.4286
  925MPD2     N13542   1.528   2.747  15.162 -0.1207  0.2780 -0.6502
  925MPD2    H513543   1.549   2.766  15.259  0.0659 -2.1391 -0.2150
  925MPD2    N113544   1.731   2.705  14.722 -0.4148 -0.3369 -0.5341
  925MPD2    H713545   1.650   2.752  14.683  0.0399  1.4853  0.7252
  926MPD2     C13546   0.305   0.807  13.517  0.4328  0.3342  0.1533
  926MPD2    C113547   0.198   0.879  13.472 -0.3249 -0.6011 -0.1328
  926MPD2    C213548   0.201   0.947  13.353 -0.4947  0.0520  0.3229
  926MPD2    C313549   0.313   0.942  13.264  0.1503 -0.4684 -0.2976
  926MPD2    C413550   0.419   0.870  13.317 -0.1221  0.0148  1.0417
  926MPD2    C513551   0.417   0.805  13.436 -0.4593 -0.1388  0.0158
  926MPD2     H13552   0.116   1.010  13.330 -0.1231 -0.2934 -2.0042
  926MPD2    H113553   0.512   0.881  13.262 -0.3905  1.1617  0.8159
  926MPD2    H213554   0.312   0.759  13.614 -0.9729  0.3061  0.2302
  926MPD2    H313555   0.497   0.739  13.466 -0.6830 -0.5841 -0.3606
  926MPD2     N13556   0.336   1.027  13.153 -0.0089  0.2093 -0.0165
  926MPD2    H513557   0.426   1.020  13.108 -0.4374  0.4411 -0.9280
  926MPD2    N113558   0.076   0.889  13.543  0.0482 -0.0807 -0.1868
  926MPD2    H713559   0.006   0.945  13.495  1.3305  0.9767 -0.8363
  927MPD2     C13560   0.782   3.307   0.681 -0.2109  1.3995  0.2861
  927MPD2    C113561   0.692   3.409   0.659  0.5435  0.9036  0.9142
  927MPD2    C213562   0.659   3.422   0.526 -0.0004 -0.5010 -0.2160
  927MPD2    C313563   0.696   3.339   0.420 -0.0016  0.5695  0.5422
  927MPD2    C413564   0.785   3.240   0.452  0.5789 -0.3598  0.6885
  927MPD2    C513565   0.833   3.229   0.580  0.3512  0.0080  0.3124
  927MPD2     H13566   0.597   3.503   0.491 -0.7058  0.0695  2.3459
  927MPD2    H113567   0.836   3.194   0.369  0.5668  0.3293  0.3009
  927MPD2    H213568   0.822   3.296   0.781  0.0052 -0.3174  0.0197
  927MPD2    H313569   0.919   3.168   0.606  1.5567  0.2629 -3.0952
  927MPD2     N13570   0.649   3.364   0.288  0.3208 -0.0647 -0.0384
  927MPD2    H513571   0.605   3.454   0.273 -0.0037  0.2350  2.6337
  927MPD2    N113572   0.630   3.480   0.762  0.1804  0.2014  0.5692
  927MPD2    H713573   0.658   3.451   0.856  1.3666  0.7252  0.3865
  928MPD2     C13574   2.947   1.305   0.905 -0.5331 -0.7284 -0.2480
  928MPD2    C113575   2.997   1.418   0.967  0.1739  0.7078 -0.3936
  928MPD2    C213576   3.056   1.512   0.886  0.5656  0.4276 -0.0395
  928MPD2    C313577   3.076   1.482   0.751 -0.3291 -0.1671  0.6900
  928MPD2    C413578   3.036   1.357   0.698  0.1795 -0.3238  0.0083
  928MPD2    C513579   2.969   1.271   0.780  0.0058 -0.5652  0.3884
  928MPD2     H13580   3.077   1.609   0.929 -0.0679  0.2526  0.6714
  928MPD2    H113581   3.061   1.331   0.596  2.9076  1.6445  0.1699
  928MPD2    H213582   2.886   1.236   0.962 -0.4599  0.0250  0.7608
  928MPD2    H313583   2.941   1.172   0.746 -0.0748 -0.2827 -0.3758
  928MPD2     N13584   3.139   1.568   0.659 -0.3753  0.3485 -0.1150
  928MPD2    H513585   3.144   1.539   0.561 -0.4922  0.5570 -0.1831
  928MPD2    N113586   2.950   1.450   1.098 -0.4104 -0.2916 -0.2410
  928MPD2    H713587   2.878   1.393   1.139  0.9297 -0.6803  1.5678
  929MPD2     C13588   3.334   1.979  11.112 -0.2295 -0.9162 -0.0671
  929MPD2    C113589   3.281   1.862  11.074 -0.3252  0.2519  0.5444
  929MPD2    C213590   3.214   1.855  10.955 -0.7725 -0.2895  0.3175
  929MPD2    C313591   3.208   1.964  10.869 -0.4474  0.1405 -0.0999
  929MPD2    C413592   3.263   2.088  10.902  0.5075  0.0529  0.0078
  929MPD2    C513593   3.328   2.093  11.023  0.5958  0.3080 -0.1035
  929MPD2     H13594   3.174   1.760  10.920 -2.1000 -0.3262  1.9254
  929MPD2    H113595   3.283   2.171  10.835 -1.1988 -0.5497 -1.2439
  929MPD2    H213596   3.387   1.990  11.206  0.5063 -0.1834 -0.5662
  929MPD2    H313597   3.381   2.180  11.061  0.7112  0.5800 -0.8802
  929MPD2     N13598   3.149   1.944  10.746 -0.8091 -0.1745  0.6768
  929MPD2    H513599   3.113   1.850  10.730  0.2030 -0.3168 -0.7804
  929MPD2    N113600   3.297   1.747  11.161  0.1212 -0.4663  0.0739
  929MPD2    H713601   3.315   1.766  11.259  2.2610 -1.4807 -0.1212
  930MPD2     C13602   4.713   4.079  13.979  0.8649 -0.6733  0.2482
  930MPD2    C113603   4.689   3.993  13.875  0.6102 -0.3041 -0.5534
  930MPD2    C213604   4.650   3.861  13.895  0.0461 -1.1616  0.2278
  930MPD2    C313605   4.616   3.819  14.019 -0.8200 -0.6248  0.5921
  930MPD2    C413606   4.628   3.907  14.125 -0.3086  0.2345 -0.1327
  930MPD2    C513607   4.691   4.028  14.106  0.3765  0.4115  0.8450
  930MPD2     H13608   4.651   3.791  13.813 -0.1848 -0.3586 -0.4566
  930MPD2    H113609   4.599   3.889  14.228 -0.5484 -0.3953 -0.3089
  930MPD2    H213610   0.033   4.179  13.970 -2.3372  0.6302  0.4661
  930MPD2    H313611   4.711   4.097  14.187  0.8753 -0.8775  1.8293
  930MPD2     N13612   4.577   3.683  14.046 -0.0814 -0.1657  0.0435
  930MPD2    H513613   4.577   3.615  13.970  0.5531 -0.1173  0.0012
  930MPD2    N113614   0.000   4.039  13.749  0.1864  0.8521 -0.4564
  930MPD2    H713615   0.017   4.139  13.739 -2.0156  1.4526  1.9026
  931MPD2     C13616   0.525   3.242   1.345 -0.3990  0.0326  0.1236
  931MPD2    C113617   0.417   3.297   1.298 -0.1536 -0.1674  0.3946
  931MPD2    C213618   0.295   3.247   1.342 -0.7872  0.2561  0.4247
  931MPD2    C313619   0.283   3.141   1.425 -0.5249  0.3368  0.5353
  931MPD2    C413620   0.402   3.086   1.476  0.3799 -0.2192  0.0100
  931MPD2    C513621   0.515   3.136   1.427 -0.2272  0.4874 -0.5071
  931MPD2     H13622   0.206   3.286   1.294  0.2118 -0.3361 -1.9393
  931MPD2    H113623   0.406   3.012   1.555 -0.9467 -1.7045 -1.3141
  931MPD2    H213624   0.616   3.289   1.309  0.3199 -0.5869  1.1322
  931MPD2    H313625   0.612   3.097   1.456 -0.1813  1.3254  0.4868
  931MPD2     N13626   0.159   3.081   1.459 -0.0436  0.2294  0.3883
  931MPD2    H513627   0.166   2.992   1.507  2.3897 -0.0045 -0.3906
  931MPD2    N113628   0.441   3.387   1.199  0.3882 -0.6190 -0.0742
  931MPD2    H713629   0.538   3.400   1.169 -0.1138  1.0628 -0.9591
  932MPD2     C13630   1.007   2.770  10.861  0.3580 -0.8779 -0.7069
  932MPD2    C113631   1.090   2.725  10.968  0.7277 -0.8343  0.0963
  932MPD2    C213632   1.077   2.598  11.017  0.8574  0.6859 -0.5561
  932MPD2    C313633   0.974   2.517  10.973  0.2265  0.2756  0.3417
  932MPD2    C413634   0.905   2.560  10.867 -0.1837 -0.4070  0.0610
  932MPD2    C513635   0.919   2.685  10.809 -0.2068  0.0586  0.6023
  932MPD2     H13636   1.128   2.581  11.111 -0.6051  1.6077  0.4035
  932MPD2    H113637   0.843   2.492  10.809  1.9242 -0.9913 -1.4890
  932MPD2    H213638   1.008   2.870  10.819 -1.2294 -0.1291  1.0251
  932MPD2    H313639   0.847   2.715  10.734  0.0602 -2.1842 -0.5301
  932MPD2     N13640   0.941   2.386  11.021  0.0654  0.4285  0.1273
  932MPD2    H513641   0.850   2.356  10.986 -1.1862  2.1403  1.9038
  932MPD2    N113642   1.190   2.813  11.026  0.1834 -0.1714 -1.0334
  932MPD2    H713643   1.257   2.769  11.088 -0.6668 -1.9621 -1.3781
  933MPD2     C13644   2.452   1.877   1.703  0.5582 -0.5025  0.1535
  933MPD2    C113645   2.493   1.850   1.575 -1.3399 -0.4911  0.5056
  933MPD2    C213646   2.409   1.867   1.467 -0.0409 -0.1299 -0.3528
  933MPD2    C313647   2.281   1.922   1.489 -0.1744 -0.9562 -0.2197
  933MPD2    C413648   2.235   1.948   1.618  0.5704 -0.2070  0.8387
  933MPD2    C513649   2.319   1.925   1.728 -0.5177  0.4121  0.2578
  933MPD2     H13650   2.440   1.861   1.363 -1.1566 -1.0937 -0.6307
  933MPD2    H113651   2.138   1.992   1.635  0.6395  0.4173 -0.3700
  933MPD2    H213652   2.519   1.853   1.785  1.0916  1.3980  0.2733
  933MPD2    H313653   2.279   1.929   1.829  1.4422 -1.7591  1.1221
  933MPD2     N13654   2.191   1.933   1.375  0.0269 -0.5100 -0.6803
  933MPD2    H513655   2.232   1.932   1.282  0.2046  1.0060 -0.6083
  933MPD2    N113656   2.619   1.790   1.553  0.1827 -0.2486 -0.1727
  933MPD2    H713657   2.680   1.807   1.632 -0.1976  3.0358 -0.6086
  934MPD2     C13658   3.301   4.476   2.437  0.0811  0.2894  0.0928
  934MPD2    C113659   3.408   4.403   2.388  0.4146  0.1862  0.1433
  934MPD2    C213660   3.390   4.311   2.290 -0.3435 -0.1801  0.3610
  934MPD2    C313661   3.268   4.267   2.258  0.7325  0.2434  0.2028
  934MPD2    C413662   3.160   4.323   2.315  0.7537 -0.8110 -0.7128
  934MPD2    C513663   3.172   4.424   2.402  0.0954  0.0400 -0.4559
  934MPD2     H13664   3.475   4.271   2.235  1.4651  0.0711  2.9461
  934MPD2    H113665   3.059   4.293   2.292  0.7203 -1.2916  0.0541
  934MPD2    H213666   3.320   4.555   2.508 -0.1751 -0.7997  1.3971
  934MPD2    H313667   3.085   4.452   2.459  0.7456  2.7930 -0.8287
  934MPD2     N13668   3.237   4.189   2.138 -0.2333 -0.0695 -0.0213
  934MPD2    H513669   3.142   4.205   2.107 -0.5552 -1.3895  0.2566
  934MPD2    N113670   3.541   4.427   2.423  0.8298 -0.6597 -0.1297
  934MPD2    H713671   3.604   4.349   2.404 -0.7986 -2.1328  0.4695
  935MPD2     C13672   3.909   3.654   1.670 -0.2965 -0.3438  0.8853
  935MPD2    C113673   3.794   3.632   1.596 -0.8737 -0.0486 -0.3549
  935MPD2    C213674   3.683   3.714   1.613 -0.0093  0.0942  0.4548
  935MPD2    C313675   3.687   3.818   1.703  0.3179 -0.4729 -0.1167
  935MPD2    C413676   3.799   3.835   1.778  0.7560 -0.1152 -0.9969
  935MPD2    C513677   3.901   3.747   1.768 -0.3920  0.0673  0.5266
  935MPD2     H13678   3.598   3.695   1.549  1.2537 -0.5209 -1.0379
  935MPD2    H113679   3.807   3.916   1.850 -1.7071 -0.7900  0.0407
  935MPD2    H213680   3.984   3.577   1.659 -1.7833 -1.6668  0.0031
  935MPD2    H313681   3.988   3.767   1.829 -0.0611 -1.6678  0.6308
  935MPD2     N13682   3.578   3.914   1.728  0.6465 -0.0831 -0.4232
  935MPD2    H513683   3.602   3.987   1.794 -0.6102 -0.1973  0.1626
  935MPD2    N113684   3.781   3.525   1.503 -0.2244  0.2211 -0.7745
  935MPD2    H713685   3.695   3.531   1.449 -0.1886 -1.7550 -1.0415
  936MPD2     C13686   2.216   1.233  12.419 -0.0015  0.4698 -1.1414
  936MPD2    C113687   2.217   1.108  12.474  0.6322  0.1827  0.0669
  936MPD2    C213688   2.342   1.052  12.497  0.6144  0.5088 -0.6705
  936MPD2    C313689   2.463   1.114  12.482 -0.1277 -0.0551  0.3809
  936MPD2    C413690   2.455   1.242  12.426 -0.1775 -0.1603 -0.6533
  936MPD2    C513691   2.335   1.298  12.393  1.0624 -0.4649  0.4191
  936MPD2     H13692   2.335   0.949  12.531  0.5142  0.4940 -0.7362
  936MPD2    H113693   2.546   1.298  12.406 -1.5604  1.9219 -1.1062
  936MPD2    H213694   2.123   1.282  12.395 -2.1606 -2.6117  0.9243
  936MPD2    H313695   2.327   1.400  12.355 -0.9635  0.2326  2.7257
  936MPD2     N13696   2.590   1.067  12.504  0.7286  0.1971 -0.6497
  936MPD2    H513697   2.663   1.136  12.488  0.5490  0.4845 -0.2287
  936MPD2    N113698   2.105   1.035  12.518  0.1219  0.5212  0.7019
  936MPD2    H713699   2.131   0.947  12.561 -0.2364  0.1811  0.2259
  937MPD2     C13700   0.110   2.530  11.726 -0.2927 -0.9378  0.2717
  937MPD2    C113701   0.184   2.644  11.709  0.3931 -0.0203 -0.1167
  937MPD2    C213702   0.250   2.671  11.584 -0.2494 -0.0486  1.2855
  937MPD2    C313703   0.271   2.577  11.490 -0.2967 -0.0184  0.0334
  937MPD2    C413704   0.200   2.454  11.506 -0.5874  1.0117 -0.3430
  937MPD2    C513705   0.120   2.439  11.617 -0.0427  0.4338 -0.8943
  937MPD2     H13706   0.298   2.768  11.578 -1.2935  0.3207 -1.3666
  937MPD2    H113707   0.208   2.376  11.431 -0.1051  1.1220 -0.4065
  937MPD2    H213708   0.044   2.506  11.809 -0.7103  2.2358  0.8601
  937MPD2    H313709   0.082   2.339  11.630 -3.3227  1.8477  0.3184
  937MPD2     N13710   0.348   2.615  11.377 -0.0260  0.3252 -0.4332
  937MPD2    H513711   0.391   2.706  11.377 -3.1479  1.7894 -0.3303
  937MPD2    N113712   0.169   2.760  11.783  0.2642  0.0938 -0.0752
  937MPD2    H713713   0.208   2.843  11.740 -1.8277  1.3614  0.4777
  938MPD2     C13714   2.771   3.834   0.715  0.9796 -0.5330 -0.4854
  938MPD2    C113715   2.835   3.897   0.819 -0.5390  0.3749 -0.8559
  938MPD2    C213716   2.804   3.864   0.946 -0.3399  0.3061  0.1571
  938MPD2    C313717   2.715   3.763   0.973  0.7587 -0.2035 -0.0917
  938MPD2    C413718   2.658   3.701   0.864 -0.0692 -0.5918 -0.4940
  938MPD2    C513719   2.676   3.740   0.737  1.3320 -0.6420 -0.0898
  938MPD2     H13720   2.854   3.911   1.029 -2.0711 -0.0980  1.4136
  938MPD2    H113721   2.584   3.623   0.879  0.0313 -0.9628 -1.8868
  938MPD2    H213722   2.781   3.882   0.618 -2.5655 -2.0779 -1.6582
  938MPD2    H313723   2.613   3.699   0.659  4.0956 -0.1096 -2.6384
  938MPD2     N13724   2.695   3.712   1.102 -0.0655 -0.0150  0.4775
  938MPD2    H513725   2.637   3.629   1.101  1.4234 -1.0687  0.9295
  938MPD2    N113726   2.947   3.988   0.801 -0.7409 -0.1387 -0.3736
  938MPD2    H713727   2.985   4.024   0.888  1.8924 -0.9400 -1.1837
  939MPD2     C13728   3.768   0.028   1.742 -0.2633  0.1898  0.2525
  939MPD2    C113729   3.708   0.100   1.643  0.1767  0.0876 -0.1325
  939MPD2    C213730   3.743   0.090   1.511 -0.7790  1.0805 -0.0234
  939MPD2    C313731   3.860   0.023   1.480  0.3524 -0.0095  0.2594
  939MPD2    C413732   3.924   4.672   1.577 -0.1779 -0.5185  0.5239
  939MPD2    C513733   3.875   4.676   1.707 -0.0088 -0.0470  0.1765
  939MPD2     H13734   3.691   0.146   1.434 -0.2378 -0.2651 -1.3843
  939MPD2    H113735   4.010   4.607   1.566  0.4474  0.1300  1.6697
  939MPD2    H213736   3.737   0.046   1.844  1.6522  2.3595  0.4564
  939MPD2    H313737   3.932   4.625   1.784 -0.7506  0.6691  1.2052
  939MPD2     N13738   3.910   0.024   1.348  0.1619  0.0080 -0.0770
  939MPD2    H513739   3.873   0.083   1.274  1.1501  1.3519  0.5132
  939MPD2    N113740   3.609   0.188   1.684  0.1196  0.2353  0.1045
  939MPD2    H713741   3.579   0.189   1.780 -0.2365 -3.2743  0.0021
  940MPD2     C13742   3.144   0.672  13.131 -0.0787 -0.7624  0.1104
  940MPD2    C113743   3.226   0.773  13.167  0.1978 -0.3583 -0.1969
  940MPD2    C213744   3.300   0.847  13.081  0.7637  0.4605 -0.4507
  940MPD2    C313745   3.280   0.820  12.945  0.1058  0.9311 -0.1296
  940MPD2    C413746   3.182   0.735  12.909  0.2140  0.0535  0.3637
  940MPD2    C513747   3.104   0.664  12.996  0.1292  0.2996  0.2371
  940MPD2     H13748   3.381   0.908  13.117  1.7713  1.3519 -4.1902
  940MPD2    H113749   3.150   0.721  12.806  0.2401  0.2307  0.3311
  940MPD2    H213750   3.094   0.614  13.208  1.3207  0.0002  1.5863
  940MPD2    H313751   3.033   0.589  12.962 -1.1769  2.1942 -1.2159
  940MPD2     N13752   3.346   0.892  12.850  0.5121 -0.6437 -0.1678
  940MPD2    H513753   3.311   0.889  12.755 -1.3993  1.1834  0.4822
  940MPD2    N113754   3.242   0.777  13.311 -0.3495 -0.5548 -0.1548
  940MPD2    H713755   3.212   0.688  13.352 -0.0878 -0.9016 -0.7179
  941MPD2     C13756   2.557   0.204   9.466 -0.6004 -0.0566 -0.4187
  941MPD2    C113757   2.551   0.220   9.602  0.5112  0.7516 -0.2931
  941MPD2    C213758   2.434   0.183   9.663 -0.0230  1.0420 -0.4947
  941MPD2    C313759   2.330   0.122   9.600  0.0980 -0.3608  0.2389
  941MPD2    C413760   2.338   0.100   9.467 -0.3730  0.6867 -0.1986
  941MPD2    C513761   2.451   0.141   9.404 -0.0051  0.1367  0.2910
  941MPD2     H13762   2.437   0.209   9.768  0.9709 -0.5909 -0.1062
  941MPD2    H113763   2.265   0.049   9.405 -0.9328  2.5868 -1.1068
  941MPD2    H213764   2.641   0.245   9.410  0.2333 -0.4572  0.5417
  941MPD2    H313765   2.449   0.122   9.298 -3.0464  0.8825  0.2251
  941MPD2     N13766   2.218   0.063   9.668 -0.5728  0.0218  1.0043
  941MPD2    H513767   2.140   0.019   9.620 -2.6638  1.6302  2.8942
  941MPD2    N113768   2.656   0.278   9.678 -0.6153  0.3539  0.3605
  941MPD2    H713769   2.631   0.286   9.776 -1.7199  0.7860  0.0467
  942MPD2     C13770   2.539   2.270   8.662  0.3121 -0.0715  0.3385
  942MPD2    C113771   2.625   2.168   8.714 -0.0765 -0.1919 -0.0690
  942MPD2    C213772   2.594   2.104   8.830 -0.2648  0.3447  0.1225
  942MPD2    C313773   2.487   2.134   8.903 -0.2731  0.0154 -0.7108
  942MPD2    C413774   2.407   2.236   8.860 -0.6924  0.1930 -0.5005
  942MPD2    C513775   2.430   2.304   8.739 -0.6499 -0.5445  0.4250
  942MPD2     H13776   2.661   2.030   8.870 -1.3612  0.9679  3.1248
  942MPD2    H113777   2.324   2.269   8.921  1.1523  1.1760  1.4614
  942MPD2    H213778   2.571   2.339   8.584 -0.1034 -1.9366 -1.4952
  942MPD2    H313779   2.376   2.390   8.703 -0.2579 -0.7875 -0.7515
  942MPD2     N13780   2.445   2.078   9.030  0.1404 -0.5000 -0.2177
  942MPD2    H513781   2.365   2.128   9.068  0.5365  0.3325 -0.4952
  942MPD2    N113782   2.757   2.144   8.661 -0.6181 -0.1823  0.1831
  942MPD2    H713783   2.827   2.081   8.699  0.4707  0.7378 -0.2872
  943MPD2     C13784   1.015   4.539   9.303 -0.6955 -0.0441 -0.0871
  943MPD2    C113785   0.964   4.422   9.353 -0.5844 -0.3637  0.0180
  943MPD2    C213786   0.865   4.354   9.280  0.5110 -0.2617 -0.8672
  943MPD2    C313787   0.827   4.397   9.152  0.2137  0.0751 -0.1908
  943MPD2    C413788   0.879   4.520   9.112 -0.6364  0.4335 -0.0065
  943MPD2    C513789   0.968   4.592   9.181 -0.9199  0.0178 -0.4451
  943MPD2     H13790   0.819   4.265   9.322 -0.7016  0.9488  0.3752
  943MPD2    H113791   0.863   4.564   9.014 -1.3477  1.1930  0.4489
  943MPD2    H213792   1.085   4.593   9.365 -1.4815  0.1606  0.6200
  943MPD2    H313793   1.012   4.676   9.129 -0.5641  0.0451 -0.1001
  943MPD2     N13794   0.738   4.329   9.064 -0.6398 -0.4191  0.5928
  943MPD2    H513795   0.720   4.374   8.975  1.1931 -0.6474  0.1106
  943MPD2    N113796   0.996   4.394   9.490  0.5857  0.5138  0.0714
  943MPD2    H713797   1.058   4.464   9.531  1.9565 -0.8416  0.3283
  944MPD2     C13798   1.022   3.888  10.927  0.8069  0.2675 -0.1740
  944MPD2    C113799   1.041   4.022  10.889  0.4216  0.1103  0.2093
  944MPD2    C213800   0.942   4.116  10.929  0.3518 -0.5632 -0.4641
  944MPD2    C313801   0.838   4.082  11.012  0.3719  0.0922  0.5394
  944MPD2    C413802   0.830   3.949  11.055 -0.2479 -0.2423 -0.0860
  944MPD2    C513803   0.916   3.856  11.014  0.6044  0.3955 -0.1840
  944MPD2     H13804   0.958   4.221  10.905 -0.3250 -0.7042 -1.5664
  944MPD2    H113805   0.753   3.914  11.122 -0.2910 -0.2447 -0.1366
  944MPD2    H213806   1.093   3.814  10.893  0.3145  1.0807 -2.9912
  944MPD2    H313807   0.899   3.761  11.064  0.3135  0.2930 -0.4704
  944MPD2     N13808   0.746   4.185  11.043 -0.0517 -0.5409 -0.5587
  944MPD2    H513809   0.758   4.276  10.998  1.3806 -0.4433  0.0014
  944MPD2    N113810   1.153   4.054  10.815 -0.0159 -0.3190  0.5676
  944MPD2    H713811   1.199   3.973  10.774  1.4999  0.1151  1.3893
    1TCq1    O113812   3.560   4.074  14.130 -0.3997 -0.2530  0.1092
    1TCq1    C113813   3.610   4.189  14.181  0.2071  0.2421  0.2453
    1TCq1    O213814   3.578   4.303  14.152  0.5474  0.3166  0.5151
    1TCq1    C213815   3.711   4.154  14.278  0.2012 -0.2618  0.0111
    1TCq1    C313816   3.766   4.032  14.287 -0.3393 -0.2577  0.5250
    1TCq1    C413817   3.860   4.009  14.390  1.1160 -0.1722  0.2149
    1TCq1    C513818   3.900   4.102  14.479  0.6259  0.6779 -0.0408
    1TCq1    C613819   3.837   4.223  14.469  0.4153 -0.5716  0.2629
    1TCq1    C713820   3.746   4.247  14.376  0.1054  0.7601  0.6893
    1TCq1    C813821   3.881   4.326  14.567 -0.0830 -0.5227 -0.4927
    1TCq1    O413822   3.948   4.280  14.661 -0.7440  0.0311 -0.4043
    1TCq1    C913823   3.929   3.883  14.393 -0.5404  0.1959  0.6429
    1TCq1    O513824   3.892   3.795  14.317  0.0362 -0.0145 -0.0658
    1TCq1    O613825   4.002   3.859  14.496  0.8497  1.2210 -0.0869
    1TCq1    H113826   3.592   3.995  14.179  1.5102  0.9823  0.8779
    1TCq1    H213827   3.752   3.959  14.209 -1.9521 -0.4613  1.0148
    1TCq1    H313828   3.971   4.087  14.560  0.2001 -0.7367  0.0601
    1TCq1    H413829   3.690   4.340  14.374 -2.2967 -0.6670  2.0425
    2MPD2     C13830   3.829   0.060  14.803  0.2062 -0.4002  0.5621
    2MPD2    C113831   3.766   0.066  14.685 -0.2781 -0.0343 -0.2537
    2MPD2    C213832   3.770   4.679  14.597 -0.1119 -0.3865  0.2997
    2MPD2    C313833   3.835   4.561  14.636  1.0499 -0.0689  0.1702
    2MPD2    C413834   3.911   4.560  14.753 -0.2307  1.0032  0.1968
    2MPD2    C513835   3.902   4.669  14.838  0.0661  0.0913 -0.1139
    2MPD2     H13836   3.722   4.684  14.500  0.9680  0.6932 -0.1734
    2MPD2    H113837   3.956   4.465  14.780 -0.8807  0.0672 -1.9849
    2MPD2    H213838   3.815   0.134  14.882  0.8849  0.6686 -0.3145
    2MPD2    H313839   3.952   4.670  14.935  0.4718 -0.1307 -0.3201
    2MPD2     N13840   3.830   4.446  14.552  0.1637 -0.5363  0.1222
    2MPD2    H513841   3.775   4.461  14.468  1.0508  1.7637 -0.0434
    2MPD2    N113842   3.683   0.177  14.653 -0.0921  0.2734  0.3793
    2MPD2    H713843   3.692   0.265  14.704 -1.4235 -0.7635  2.3909
    3TMC2    C113844   3.501   0.298  14.547  0.2044  0.7276 -0.6638
    3TMC2    C213845   3.366   0.284  14.527  0.3852 -0.3538  0.0092
    3TMC2    C313846   3.301   0.395  14.484 -1.0221  0.0782  0.0113
    3TMC2    C413847   3.570   0.418  14.532  0.1213 -0.4640 -0.6749
    3TMC2    C513848   3.494   0.526  14.526 -0.0387  0.0212  0.3642
    3TMC2    C613849   3.361   0.519  14.491  0.1442 -0.0830  0.4916
    3TMC2     C13850   3.572   0.169  14.567 -0.8468 -0.1489 -0.1396
    3TMC2     O13851   3.510   0.070  14.529  0.0669 -0.2907 -0.0714
    3TMC2     H13852   3.316   0.194  14.559  0.1697  0.1437  1.0983
    3TMC2    H113853   3.672   0.431  14.568 -0.1122  1.1142 -0.5780
    3TMC2    H213854   3.302   0.609  14.478 -2.0141 -1.6362 -0.4008
    3TMC2    C713855   3.564   0.655  14.517  0.1552  0.1084  0.1980
    3TMC2    C813856   3.163   0.389  14.440  0.1635 -0.3152  0.6807
    3TMC2    O113857   3.669   0.673  14.580 -0.2767  0.0537 -0.2845
    3TMC2    O213858   3.096   0.290  14.450  0.3783  0.0076 -1.0654
    3TMC2    O513859   3.146   0.482  14.341 -0.0436 -0.4155 -0.1885
    3TMC2    H513860   3.224   0.533  14.312 -0.5610 -0.0976 -1.0218
    4MPD2     C13861   2.560   1.232  13.584  0.4569 -1.0509 -0.4779
    4MPD2    C113862   2.674   1.301  13.550 -0.1570  0.1257 -0.0780
    4MPD2    C213863   2.762   1.313  13.652  0.4740  0.3988  0.5832
    4MPD2    C313864   2.731   1.270  13.779  0.4454  0.5556  0.3575
    4MPD2    C413865   2.612   1.200  13.808  0.5300 -0.1254 -0.0140
    4MPD2    C513866   2.525   1.175  13.709 -0.3663  0.1588  0.6925
    4MPD2     H13867   2.862   1.349  13.630  0.3424  0.4587  0.0857
    4MPD2    H113868   2.586   1.166  13.907  1.1135  0.2113  0.2576
    4MPD2    H213869   2.495   1.210  13.501  1.5518  2.7596 -2.3203
    4MPD2    H313870   2.433   1.121  13.729  0.2847 -1.1328  0.1936
    4MPD2     N13871   2.833   1.299  13.876  0.2639  0.3075  0.2205
    4MPD2    H513872   2.917   1.350  13.850 -0.5544  1.1329 -0.8280
    4MPD2    N113873   2.698   1.327  13.412 -0.0393 -0.0727  0.6150
    4MPD2    H713874   2.627   1.319  13.340  0.0248  1.9107  0.3235
    5TCq2    C113875   2.823   1.288  14.010  0.2903 -0.4004 -0.2564
    5TCq2    O213876   2.749   1.214  14.074 -0.7044  0.1200  0.1754
    5TCq2    C213877   2.952   1.313  14.062  0.3828 -0.3211  0.6480
    5TCq2    C313878   3.024   1.419  14.011  0.6646  0.2444  0.7048
    5TCq2    C413879   3.152   1.433  14.044 -0.1591  0.1137  0.1355
    5TCq2    C513880   3.213   1.336  14.119 -0.3746 -0.6155 -0.1744
    5TCq2    C613881   3.142   1.224  14.154 -0.4365  0.2639 -0.4710
    5TCq2    C713882   3.009   1.207  14.127  0.2038 -0.0561  0.2701
    5TCq2    C813883   3.219   1.111  14.210 -0.0471  0.3819 -0.2075
    5TCq2    O413884   3.165   1.002  14.212  0.0780 -0.8293 -0.3783
    5TCq2    C913885   3.229   1.541  13.991 -0.1233 -0.7723  0.2676
    5TCq2    O513886   3.352   1.539  14.014  0.1054 -0.1707  0.0375
    5TCq2    O613887   3.176   1.610  13.900  0.5078  0.5577 -0.4517
    5TCq2    H213888   2.987   1.497  13.945  0.4857 -1.9353 -1.7875
    5TCq2    H313889   3.314   1.345  14.158 -0.2090 -1.1656 -0.4735
    5TCq2    H413890   2.950   1.119  14.152  1.7116 -0.1180  3.5852
    6MPD1     C13891   1.408   1.735  12.283 -0.3905  0.2882  0.1419
    6MPD1    C113892   1.465   1.854  12.323 -0.6133  1.2590  0.8000
    6MPD1    C213893   1.594   1.847  12.374  1.2991 -0.9058  0.3734
    6MPD1    C313894   1.658   1.724  12.398 -0.3085  0.1901 -0.0326
    6MPD1    C413895   1.588   1.613  12.373 -0.0709 -0.2314  0.1579
    6MPD1    C513896   1.465   1.616  12.309  0.3136 -0.1493 -0.0591
    6MPD1     H13897   1.654   1.934  12.398 -0.1990 -0.0331  0.9620
    6MPD1    H113898   1.631   1.517  12.399 -0.0851 -0.6119 -1.2126
    6MPD1    H213899   1.311   1.727  12.235 -0.4769 -3.8945  1.0145
    6MPD1    H313900   1.406   1.527  12.292 -0.1826  0.1216  0.2553
    6MPD1     N13901   1.790   1.706  12.448 -0.8000 -0.0624  0.6375
    6MPD1    H513902   1.837   1.616  12.445 -2.4058 -0.9309  1.1540
    6MPD1    N113903   1.413   1.972  12.277 -0.6400  0.0115 -0.3001
    6MPD1    H613904   1.417   2.035  12.357 -2.1915 -3.4895  2.5232
    6MPD1    H713905   1.315   1.954  12.257 -0.7192 -0.6757  0.6816
    7MPD2     C13906   2.188   1.215  12.887 -0.2005  0.0209  0.6850
    7MPD2    C113907   2.274   1.299  12.827 -0.3262  0.5821 -0.3307
    7MPD2    C213908   2.405   1.301  12.860 -0.0986  0.1508  0.3396
    7MPD2    C313909   2.454   1.208  12.947 -0.3250  0.2202 -0.3179
    7MPD2    C413910   2.374   1.111  12.998 -0.0382 -0.3304 -0.1936
    7MPD2    C513911   2.238   1.125  12.974 -0.0403 -0.6143 -0.0660
    7MPD2     H13912   2.477   1.371  12.818 -0.8512 -0.9474 -2.7772
    7MPD2    H113913   2.414   1.037  13.067  1.9871  1.1447  0.2201
    7MPD2    H213914   2.085   1.216  12.854 -0.1737  0.8725  0.6465
    7MPD2    H313915   2.173   1.045  13.007  0.9703 -0.9828  1.0580
    7MPD2     N13916   2.583   1.215  12.994 -0.0439  0.0115  0.5878
    7MPD2    H513917   2.599   1.175  13.085  0.5638  0.6272  0.7510
    7MPD2    N113918   2.235   1.402  12.738  0.4926 -0.2253  0.0978
    7MPD2    H713919   2.306   1.465  12.701  1.1849 -2.4835 -2.3910
    8TMC3    C113920   2.793   1.347  13.020  0.4602 -1.0196 -0.0709
    8TMC3    C213921   2.783   1.319  13.152 -0.4215 -0.1011 -1.0880
    8TMC3    C313922   2.824   1.422  13.231  0.1379 -0.3237 -0.1258
    8TMC3    C413923   2.849   1.461  12.972  0.1084  0.6901 -0.4797
    8TMC3    C513924   2.890   1.561  13.048  0.2122  0.1808 -0.3937
    8TMC3    C613925   2.881   1.536  13.182 -1.2612 -0.7304  0.5107
    8TMC3     C13926   2.688   1.292  12.932  0.3056  0.1145  0.0552
    8TMC3     O13927   2.687   1.327  12.814 -0.4964 -0.4469  0.4977
    8TMC3     H13928   2.734   1.228  13.186  0.0170 -0.4103 -1.2922
    8TMC3    H113929   2.845   1.486  12.866  2.7005  0.1196 -0.7103
    8TMC3    H213930   2.884   1.619  13.252  2.1797 -0.8713  0.5138
    8TMC3    C713931   2.834   1.695  13.010  0.0069  0.1936 -0.0403
    8TMC3    C813932   2.813   1.395  13.371  0.0806 -0.1248 -0.4372
    8TMC3    O113933   2.754   1.747  13.090 -0.2260  0.5621  0.2565
    8TMC3    O213934   2.894   1.456  13.439 -0.1999  0.0001 -0.4779
    9TMC3    C113935   1.979   1.754  12.575  0.0295  0.3880  0.5834
    9TMC3    C213936   2.080   1.840  12.588  0.2607  0.2016 -0.3330
    9TMC3    C313937   2.203   1.794  12.628  0.1522 -0.0107 -0.8096
    9TMC3    C413938   1.988   1.624  12.611  0.1969  0.0642 -0.5202
    9TMC3    C513939   2.105   1.582  12.662 -0.6986  0.1316 -0.4458
    9TMC3    C613940   2.219   1.661  12.654 -0.6474  0.2535 -0.2083
    9TMC3     C13941   1.864   1.805  12.511  0.3279  0.5100 -0.0866
    9TMC3     O13942   1.823   1.916  12.534  0.3411 -0.1281 -0.3315
    9TMC3     H13943   2.073   1.945  12.561  1.2124  0.1208 -0.9138
    9TMC3    H113944   1.899   1.562  12.607 -0.0238  0.6578 -4.9756
    9TMC3    H213945   2.312   1.623  12.693  0.2256  1.2001 -1.3992
    9TMC3    C713946   2.109   1.440  12.701  0.3400  0.3113 -0.3315
    9TMC3    C813947   2.324   1.879  12.612 -0.0273  0.1378  0.2607
    9TMC3    O113948   2.001   1.389  12.729  0.0743  0.6001  0.4220
    9TMC3    O213949   2.330   1.939  12.505 -0.0222 -0.0084  0.1023
   10MPD2     C13950   2.832   1.834  12.671 -0.0026 -1.0576 -0.2087
   10MPD2    C113951   2.773   1.788  12.789  0.2253  0.3991  0.6294
   10MPD2    C213952   2.637   1.798  12.805  0.5785 -0.3708  0.1939
   10MPD2    C313953   2.552   1.847  12.699  0.1052 -0.2772  0.4911
   10MPD2    C413954   2.610   1.895  12.586  0.2540  0.2528 -0.0040
   10MPD2    C513955   2.750   1.894  12.575 -0.8750 -0.5657 -0.1972
   10MPD2     H13956   2.591   1.761  12.896  1.0131 -0.2077  0.4793
   10MPD2    H113957   2.557   1.927  12.496 -0.4090 -0.2015  0.2316
   10MPD2    H213958   2.937   1.815  12.652  0.4770 -1.0628  2.4076
   10MPD2    H313959   2.790   1.911  12.476  0.2735 -0.4953  0.2728
   10MPD2     N13960   2.413   1.839  12.709 -0.5753  0.4754 -0.0740
   10MPD2    H513961   2.377   1.790  12.790  1.2911  2.4275  1.9117
   10MPD2    N113962   2.861   1.725  12.878  0.4627 -0.2814  0.0773
   10MPD2    H713963   2.951   1.694  12.843 -0.4012 -1.5946 -0.9619
   11MPD2     C13964   3.634   0.942  14.461  1.3030 -0.6681 -0.4577
   11MPD2    C113965   3.525   0.870  14.409 -0.0455  0.3597  0.1539
   11MPD2    C213966   3.432   0.944  14.334  0.0510  0.2483 -0.5901
   11MPD2    C313967   3.439   1.079  14.321 -0.3031  0.3057 -0.3360
   11MPD2    C413968   3.552   1.145  14.363 -0.1591 -0.6281  0.4932
   11MPD2    C513969   3.648   1.073  14.428 -0.7520  0.5867 -0.1493
   11MPD2     H13970   3.353   0.881  14.294 -0.4862  0.4709  0.1306
   11MPD2    H113971   3.564   1.250  14.337  2.3799 -0.9350  0.4754
   11MPD2    H213972   3.724   0.900  14.505  0.9698 -0.6372  0.2607
   11MPD2    H313973   3.737   1.114  14.474  1.5887 -2.0184 -2.3272
   11MPD2     N13974   3.338   1.151  14.261  0.6947  0.2172  0.0600
   11MPD2    H513975   3.356   1.249  14.239 -0.2826  0.5625  0.8298
   11MPD2    N113976   3.504   0.735  14.420 -0.3346  0.9841 -0.0012
   11MPD2    H713977   3.420   0.704  14.373 -0.6500 -1.4500  2.1315
    1MPD1     C13978   0.690   2.408  17.062  0.1493  0.0561  0.1686
    1MPD1    C113979   0.809   2.477  17.045 -0.1877 -0.2026 -0.2822
    1MPD1    C213980   0.815   2.554  16.932 -0.0728  0.0854 -0.4572
    1MPD1    C313981   0.712   2.565  16.833  0.2285  0.3972  0.7961
    1MPD1    C413982   0.594   2.493  16.853 -0.2026 -0.0576  0.0595
    1MPD1    C513983   0.591   2.427  16.972  0.4407 -0.8750  0.1367
    1MPD1     H13984   0.904   2.615  16.919 -0.9307  1.0096 -1.9899
    1MPD1    H113985   0.502   2.508  16.799  0.3134 -0.0687 -0.8229
    1MPD1    H213986   0.659   2.342  17.143  0.0891  1.4951  1.3107
    1MPD1    H313987   0.496   2.382  17.000  1.6859 -2.0576  2.4650
    1MPD1     N13988   0.726   2.649  16.719  0.4475  0.3759 -0.6750
    1MPD1    H513989   0.648   2.666  16.655 -1.5386 -1.4926  1.2441
    1MPD1    N113990   0.916   2.461  17.130 -0.2571 -1.0643 -0.2076
    1MPD1    H613991   0.975   2.543  17.141  0.3129 -1.4475 -0.3732
    1MPD1    H713992   0.882   2.448  17.225  1.9388 -0.5500  0.6410
    2MPD1     C13993   1.466   2.747  16.087  0.3073 -0.4651  0.1206
    2MPD1    C113994   1.473   2.744  16.221 -0.1000  0.4391  1.4296
    2MPD1    C213995   1.357   2.792  16.283  0.5266 -0.2917 -0.5282
    2MPD1    C313996   1.239   2.819  16.211  0.7409 -0.1450 -0.2915
    2MPD1    C413997   1.234   2.818  16.072  0.7557 -0.3351 -0.2376
    2MPD1    C513998   1.352   2.785  16.012  0.1015  0.2105 -0.0690
    2MPD1     H13999   1.347   2.793  16.391  1.0179 -1.5750 -0.4638
    2MPD1    H114000   1.145   2.831  16.012  0.2101  0.2933  0.7035
    2MPD1    H214001   1.553   2.716  16.030 -0.1082 -0.8039 -0.3313
    2MPD1    H314002   1.361   2.781  15.904  0.5238 -0.3400 -0.0108
    2MPD1     N14003   1.125   2.839  16.298  0.4223 -0.9174  0.4421
    2MPD1    H514004   1.142   2.836  16.398  3.6036  0.5311 -0.0796
    2MPD1    N114005   1.599   2.725  16.281 -0.0646  0.1239 -0.1024
    2MPD1    H614006   1.671   2.678  16.227  1.2548 -0.1514  1.9069
    2MPD1    H714007   1.584   2.671  16.366  1.8152 -1.2503 -0.6402
    3TMC3    C114008   0.893   2.846  16.339 -0.4912  0.5706  0.5916
    3TMC3    C214009   0.771   2.881  16.303 -0.2904 -0.4840  0.6191
    3TMC3    C314010   0.668   2.876  16.394  0.4658  0.2195 -0.4865
    3TMC3    C414011   0.914   2.797  16.463  0.4372  0.1445  0.2820
    3TMC3    C514012   0.808   2.788  16.555  0.6570 -0.5462 -0.1573
    3TMC3    C614013   0.682   2.825  16.519  0.2533  0.4390 -0.0014
    3TMC3     C14014   0.995   2.846  16.244  1.0333 -0.1642 -0.0601
    3TMC3     O14015   0.956   2.853  16.126 -0.3097 -0.1943 -0.0659
    3TMC3     H14016   0.755   2.922  16.204 -0.5441  2.3889  1.8242
    3TMC3    H114017   1.011   2.762  16.498  0.9498  1.8055  0.5744
    3TMC3    H214018   0.605   2.822  16.595 -0.2528 -1.7459 -0.5904
    3TMC3    C714019   0.833   2.706  16.673 -0.0309 -0.2793 -0.4317
    3TMC3    C814020   0.530   2.897  16.354 -0.0784  0.4452 -0.5297
    3TMC3    O114021   0.946   2.701  16.715  0.3261 -0.3267  0.3919
    3TMC3    O214022   0.446   2.848  16.431 -0.0311 -0.1552  0.3491
    4MPD1     C14023   0.193   3.033  15.985  0.1568 -0.1007 -0.4501
    4MPD1    C114024   0.308   3.094  15.959 -0.4149 -0.3703 -0.9032
    4MPD1    C214025   0.417   3.051  16.036 -0.0606 -0.4670 -0.1761
    4MPD1    C314026   0.403   2.981  16.149  0.3588  0.2795 -0.4435
    4MPD1    C414027   0.280   2.927  16.183  0.0798  0.0692 -0.4385
    4MPD1    C514028   0.181   2.950  16.095 -0.0063  0.2438 -0.3460
    4MPD1     H14029   0.513   3.089  16.003 -1.3021  1.8114 -1.1303
    4MPD1    H114030   0.258   2.874  16.275  0.4004  2.4824  1.0489
    4MPD1    H214031   0.104   3.060  15.929  0.2942  1.6526  0.1889
    4MPD1    H314032   0.080   2.917  16.116 -0.2272  1.2960  0.2482
    4MPD1     N14033   0.516   2.963  16.236  0.7306  0.2839  0.3244
    4MPD1    H514034   0.599   3.008  16.200 -1.2138  3.8003  0.1994
    4MPD1    N114035   0.308   3.163  15.833  0.0661  0.4255  0.4272
    4MPD1    H614036   0.362   3.249  15.841  1.9211 -0.6399 -0.6280
    4MPD1    H714037   0.221   3.198  15.794 -0.5397 -1.5109  0.0326
    1TCq1    O114038   3.247   1.900  13.003  0.9336  0.4118  0.1652
    1TCq1    C114039   3.214   1.866  12.877  0.3213  0.3226 -0.1737
    1TCq1    O214040   3.147   1.770  12.839 -0.2156  0.4494 -0.3586
    1TCq1    C214041   3.261   1.970  12.789  0.0846  0.3182 -0.0420
    1TCq1    C314042   3.218   1.956  12.659  0.5754 -0.1376  0.0539
    1TCq1    C414043   3.287   2.010  12.555  0.5980  0.0866  0.3966
    1TCq1    C514044   3.398   2.083  12.587  1.0098  0.0649  0.1186
    1TCq1    C614045   3.449   2.085  12.715  0.3109  0.1198 -0.0308
    1TCq1    C714046   3.389   2.022  12.819  0.6705 -0.7871  0.0021
    1TCq1    C814047   3.531   2.194  12.742 -0.3835  0.2406 -0.5388
    1TCq1    O414048   3.552   2.223  12.857  0.3545  0.4781  0.5877
    1TCq1    C914049   3.222   2.020  12.426 -0.1009  0.1476  0.3877
    1TCq1    O514050   3.127   1.940  12.393 -0.5570  0.5785 -0.0476
    1TCq1    O614051   3.281   2.093  12.339 -0.4412 -0.3267 -0.2906
    1TCq1    H114052   3.275   1.993  13.016 -0.6243  1.0173 -0.7429
    1TCq1    H214053   3.119   1.916  12.640  0.3000 -0.2492  1.6903
    1TCq1    H314054   3.447   2.121  12.498  1.0049 -0.1595  0.0187
    1TCq1    H414055   3.436   2.035  12.916 -0.3975 -0.1531  0.4397
    2MPD1     C14056   3.790   2.602  12.583  0.1519 -0.3077  0.1516
    2MPD1    C114057   3.724   2.546  12.479  0.3418  0.2724 -1.0022
    2MPD1    C214058   3.649   2.435  12.501  0.7433 -0.5339 -0.1597
    2MPD1    C314059   3.644   2.368  12.621  0.1260  0.8377 -0.5240
    2MPD1    C414060   3.720   2.414  12.721 -0.0011 -0.0264  0.5455
    2MPD1    C514061   3.782   2.534  12.705 -0.1197 -0.8956  0.1660
    2MPD1     H14062   3.591   2.394  12.419  0.5935 -0.4897 -0.0755
    2MPD1    H114063   3.736   2.358  12.812 -2.3599 -3.4480 -1.1496
    2MPD1    H214064   3.844   2.696  12.579 -1.5085  0.6563  0.4404
    2MPD1    H314065   3.837   2.559  12.795 -0.1528 -0.3659  0.0386
    2MPD1     N14066   3.562   2.258  12.633 -0.6681 -0.1244  0.6107
    2MPD1    H514067   3.516   2.220  12.551  0.9194 -1.9682  0.5824
    2MPD1    N114068   3.722   2.611  12.354 -0.0687  0.3931 -0.2552
    2MPD1    H614069   3.794   2.683  12.347 -0.1230  0.5536  0.8199
    2MPD1    H714070   3.721   2.549  12.273 -4.3473 -0.6021  0.5704
    1TCq1    O114071   1.986   2.984   0.431 -0.1874  0.0874  0.3707
    1TCq1    C114072   1.937   2.858   0.450  0.3476 -0.1066  0.2615
    1TCq1    O214073   1.830   2.816   0.421 -0.4590  0.7805 -0.5188
    1TCq1    C214074   2.043   2.779   0.500  0.7517 -0.2429 -0.3712
    1TCq1    C314075   2.173   2.817   0.484 -0.3638  0.0232  0.4783
    1TCq1    C414076   2.256   2.768   0.580 -0.3785  0.6744  0.6824
    1TCq1    C514077   2.212   2.705   0.694 -0.6137  0.3565 -0.1347
    1TCq1    C614078   2.079   2.663   0.702 -0.5101  0.2753 -0.5552
    1TCq1    C714079   1.995   2.699   0.596  0.1722  0.1882 -0.2486
    1TCq1    C814080   2.012   2.618   0.824  0.6182  0.2600 -0.2923
    1TCq1    O414081   1.891   2.593   0.813  0.3336 -0.9632  0.3384
    1TCq1    C914082   2.379   2.832   0.600  0.1369  0.3904  0.0977
    1TCq1    O514083   2.425   2.832   0.716 -0.0797 -0.5228 -0.2542
    1TCq1    O614084   2.405   2.921   0.516 -0.1127  0.4825  0.0462
    1TCq1    H114085   2.078   2.992   0.464 -0.3070 -1.4061  1.0907
    1TCq1    H214086   2.210   2.891   0.414  4.0458 -0.7462  2.0288
    1TCq1    H314087   2.285   2.665   0.764  0.2668 -1.4658 -2.1152
    1TCq1    H414088   1.888   2.683   0.601  0.2796 -0.0166  1.4585
    2MPD1     C14089   1.994   2.427   1.296  0.7337 -0.3562 -0.0652
    2MPD1    C114090   1.888   2.444   1.204 -0.2033 -1.0176  0.1223
    2MPD1    C214091   1.924   2.507   1.084 -0.3096  0.3300  0.4939
    2MPD1    C314092   2.055   2.537   1.050  0.1319 -0.2579  0.0547
    2MPD1    C414093   2.159   2.511   1.141 -0.3113  0.4653  0.0898
    2MPD1    C514094   2.128   2.454   1.266 -0.7916 -0.0230 -0.1573
    2MPD1     H14095   1.842   2.544   1.024  0.7561  0.0433 -1.1455
    2MPD1    H114096   2.262   2.541   1.125  0.2634  0.1293  2.9846
    2MPD1    H214097   1.978   2.384   1.394 -1.5114  0.4332 -0.0925
    2MPD1    H314098   2.205   2.430   1.338 -2.1100  1.8200  1.8878
    2MPD1     N14099   2.096   2.598   0.924 -0.0913 -0.0316  0.3428
    2MPD1    H514100   2.193   2.622   0.907 -0.0115 -0.2540  0.4902
    2MPD1    N114101   1.748   2.438   1.246  0.9957  0.4245 -0.5622
    2MPD1    H614102   1.670   2.430   1.182 -1.1197  0.7802  1.9932
    2MPD1    H714103   1.729   2.373   1.322  0.0941  1.8371  0.4017
    1MPD1     C14104   0.296   4.041  11.124  0.0206 -0.1545 -0.1019
    1MPD1    C114105   0.237   3.960  11.035 -0.3149  0.1588 -0.2029
    1MPD1    C214106   0.144   3.870  11.085  0.7472  0.4087 -1.0902
    1MPD1    C314107   0.146   3.834  11.223 -0.1603 -0.3658  0.2710
    1MPD1    C414108   0.207   3.921  11.308  0.0357 -0.0183 -0.3088
    1MPD1    C514109   0.278   4.028  11.260 -0.4183 -0.6109 -0.8305
    1MPD1     H14110   0.097   3.795  11.022  2.3786 -1.8362  0.3547
    1MPD1    H114111   0.190   3.919  11.415 -0.1968 -0.7469 -0.3560
    1MPD1    H214112   0.352   4.128  11.092 -1.2777  0.6043 -0.2987
    1MPD1    H314113   0.319   4.096  11.334 -0.7684 -1.6521  0.3032
    1MPD1     N14114   0.077   3.716  11.256  0.1078  0.0768 -0.1941
    1MPD1    H514115   0.038   3.672  11.173 -0.2727  0.4728 -0.2259
    1MPD1    N114116   0.241   4.004  10.902 -0.0132  0.7528 -0.7340
    1MPD1    H614117   0.216   3.933  10.834 -0.0773  0.3962 -0.3378
    1MPD1    H714118   0.333   4.041  10.877  0.9526  0.1515  1.9149
    2MPD1     C14119   2.835   3.227  11.829 -0.3015  0.1347 -0.2874
    2MPD1    C114120   2.925   3.182  11.924 -0.5632 -0.4698  0.1794
    2MPD1    C214121   3.032   3.098  11.884  0.0992  0.0383 -0.0633
    2MPD1    C314122   3.049   3.062  11.750 -0.5609 -0.1596 -0.1029
    2MPD1    C414123   2.956   3.107  11.659 -0.0431  0.1771 -0.1869
    2MPD1    C514124   2.856   3.185  11.699 -0.1622  0.2340  0.7569
    2MPD1     H14125   3.092   3.058  11.965 -2.4062 -0.0627  1.7483
    2MPD1    H114126   2.955   3.080  11.554  0.6123 -1.2763  0.1820
    2MPD1    H214127   2.746   3.286  11.852 -0.9045 -0.8528 -0.0722
    2MPD1    H314128   2.787   3.215  11.621  1.4957  0.2711 -0.7062
    2MPD1     N14129   3.155   2.980  11.704 -0.1739  0.3940 -0.5646
    2MPD1    H514130   3.152   2.934  11.613 -0.4047 -0.7669  0.0329
    2MPD1    N114131   2.921   3.234  12.057  0.6469  0.0799  0.3376
    2MPD1    H614132   2.824   3.237  12.090  0.6588  2.9795  0.1226
    2MPD1    H714133   2.970   3.170  12.119  0.1375 -1.8894 -1.2811
    3MPD1     C14134   3.286   2.854  10.920 -0.4216  0.8800  0.4440
    3MPD1    C114135   3.185   2.872  11.009  0.3721  0.1900 -0.0174
    3MPD1    C214136   3.206   2.845  11.141 -0.4281 -0.1191 -0.4186
    3MPD1    C314137   3.325   2.800  11.196  1.1980  0.0613  0.7396
    3MPD1    C414138   3.429   2.788  11.105  0.3484 -0.7285 -0.6389
    3MPD1    C514139   3.407   2.810  10.972  0.2959 -0.2030  0.2182
    3MPD1     H14140   3.118   2.858  11.204 -0.7200  3.1319 -1.4775
    3MPD1    H114141   3.520   2.745  11.145 -0.1798 -2.2513 -1.0765
    3MPD1    H214142   3.278   2.855  10.812  0.9041 -1.1992  0.3324
    3MPD1    H314143   3.479   2.781  10.896 -0.2408  0.3858 -0.5122
    3MPD1     N14144   3.329   2.759  11.334 -0.2091  0.5675  0.3198
    3MPD1    H514145   3.244   2.766  11.389  0.2648  0.3446  1.0732
    3MPD1    N114146   3.062   2.947  10.980  0.5514  0.1798  0.3706
    3MPD1    H614147   2.982   2.928  11.040 -0.6445  2.6587 -0.4336
    3MPD1    H714148   3.031   2.957  10.883  3.1924  2.2397 -0.2875
    4MPD2     C14149   4.452   3.088  11.048 -0.2030  0.0358 -0.7219
    4MPD2    C114150   4.491   3.119  11.178  0.8045 -0.6031 -0.1964
    4MPD2    C214151   4.505   3.005  11.261  0.5595 -0.6512 -0.0220
    4MPD2    C314152   4.509   2.870  11.225  0.2810  0.6839 -0.2869
    4MPD2    C414153   4.475   2.846  11.093 -0.1635 -0.1161 -0.2704
    4MPD2    C514154   4.441   2.954  11.012 -1.0073  0.6522  0.1132
    4MPD2     H14155   4.522   3.028  11.366  1.1188  2.0510 -0.7135
    4MPD2    H114156   4.479   2.743  11.058  0.7495  0.7485 -2.7540
    4MPD2    H214157   4.411   3.158  10.976  2.1241  0.6585 -1.4260
    4MPD2    H314158   4.402   2.930  10.914 -1.4192  1.8390 -0.0094
    4MPD2     N14159   4.529   2.769  11.326 -0.3631 -0.1490  0.1277
    4MPD2    H514160   4.558   2.806  11.416  2.6539  0.3303 -1.0311
    4MPD2    N114161   4.488   3.246  11.239 -0.3209  0.7546 -0.1203
    4MPD2    H714162   4.510   3.236  11.337 -0.0062  2.3658 -0.0232
    5TMC3    C114163   4.484   3.463  11.298 -0.4196 -0.3960 -0.4796
    5TMC3    C214164   4.600   3.545  11.282  0.2180  0.0414  0.2192
    5TMC3    C314165   4.678   3.566  11.386  0.7302  0.2780  0.6235
    5TMC3    C414166   4.458   3.412  11.427  0.1870  0.2951  0.1913
    5TMC3    C514167   4.549   3.441  11.533 -0.6530 -0.0924 -0.4815
    5TMC3    C614168   4.660   3.525  11.514 -0.1416  1.1066 -0.3579
    5TMC3     C14169   4.472   3.370  11.185 -0.2823  0.8464  0.0883
    5TMC3     O14170   4.466   3.409  11.069  0.0542  0.3017  0.2166
    5TMC3     H14171   4.610   3.597  11.188 -2.5720  0.5228  0.1834
    5TMC3    H114172   4.375   3.345  11.444  1.6408 -1.1409  1.6324
    5TMC3    H214173   0.016   3.548  11.588  0.1740 -0.4900 -0.2026
    5TMC3    C714174   4.558   3.314  11.598 -0.4676 -0.1368 -0.4324
    5TMC3    C814175   0.045   3.682  11.383  0.8703  0.1132 -0.2490
    5TMC3    O114176   4.580   3.220  11.518 -0.0489  0.4148  0.5246
    5TMC3    O214177   0.096   3.720  11.488 -0.0177  0.1214 -0.4009
    6TMC3    C114178   3.343   2.842  11.736 -0.8329 -0.2468  0.2992
    6TMC3    C214179   3.347   2.830  11.596 -0.1831  0.2457 -0.7995
    6TMC3    C314180   3.421   2.721  11.550 -0.0619  0.4704  0.1634
    6TMC3    C414181   3.404   2.754  11.823  0.6195  0.2115  0.5483
    6TMC3    C514182   3.480   2.658  11.772 -0.2007  0.0747  0.1525
    6TMC3    C614183   3.498   2.642  11.634 -0.6990  0.0258 -0.1314
    6TMC3     C14184   3.260   2.950  11.786 -0.4943  0.2890 -0.1123
    6TMC3     O14185   3.301   3.013  11.885 -0.0055  0.0654  0.4175
    6TMC3     H14186   3.316   2.911  11.531 -0.9033  0.1140 -0.6160
    6TMC3    H114187   3.409   2.785  11.927  1.9126 -0.7423  0.7769
    6TMC3    H214188   3.555   2.567  11.581  0.3386 -0.7668  2.1215
    6TMC3    C714189   3.581   2.615  11.869  0.3255  0.1485  0.4057
    6TMC3    C814190   3.440   2.714  11.409  0.0537 -0.6694 -0.4498
    6TMC3    O114191   3.551   2.611  11.988 -0.2662 -0.1711  0.2452
    6TMC3    O214192   3.551   2.702  11.369  0.3697 -0.1184 -0.0421
    7MPD2     C14193   4.432   2.995  11.972  0.5659 -0.0362  0.3767
    7MPD2    C114194   4.489   2.971  11.846 -0.0255 -0.0247 -0.4272
    7MPD2    C214195   4.534   3.078  11.776 -0.1063 -0.2475 -0.3930
    7MPD2    C314196   4.519   3.211  11.819  0.3157  0.6967 -0.1042
    7MPD2    C414197   4.482   3.229  11.952  0.1253  0.0419  0.9458
    7MPD2    C514198   4.422   3.124  12.014 -1.0829 -0.2941  0.0927
    7MPD2     H14199   4.574   3.060  11.677  1.4828  1.3304 -0.0505
    7MPD2    H114200   4.442   3.322  11.989 -1.0039  0.0591 -0.3303
    7MPD2    H214201   4.378   2.913  12.018  0.9632 -0.4467  0.1080
    7MPD2    H314202   4.368   3.159  12.102 -0.5724  0.9424 -0.0833
    7MPD2     N14203   4.536   3.322  11.734 -0.4734  0.0437  0.1005
    7MPD2    H514204   4.522   3.413  11.777  0.7873 -0.5061  1.7237
    7MPD2    N114205   4.503   2.837  11.800 -0.5846 -0.0567  0.9132
    7MPD2    H714206   4.474   2.763  11.863 -1.7197  0.6416  1.2097
    8TMC3    C114207   4.530   2.650  11.655 -0.3716  0.2615 -0.0812
    8TMC3    C214208   4.420   2.591  11.711  0.5069  0.0751  0.1052
    8TMC3    C314209   4.337   2.522  11.619 -0.3570  0.5476 -0.7945
    8TMC3    C414210   4.576   2.617  11.532 -0.1337  0.0232 -0.3865
    8TMC3    C514211   4.482   2.577  11.451  0.5773  0.0064 -0.6795
    8TMC3    C614212   4.365   2.522  11.487  0.2403  0.0803 -0.4310
    8TMC3     C14213   4.561   2.789  11.684 -0.2439 -0.6933  0.1744
    8TMC3     O14214   4.614   2.848  11.591 -0.0473 -0.0166 -0.1033
    8TMC3     H14215   4.383   2.619  11.809  1.6861  4.0272 -0.5539
    8TMC3    H114216   4.673   2.652  11.496 -0.6463 -0.0914 -1.8992
    8TMC3    H214217   4.284   2.507  11.417  0.2335  1.9679 -0.8181
    8TMC3    C714218   4.482   2.641  11.321 -0.3721  0.3579 -0.0268
    8TMC3    C814219   4.198   2.545  11.657 -0.1463  0.1643  0.0974
    8TMC3    O114220   4.439   2.576  11.224 -0.8122  0.4321  0.3162
    8TMC3    O214221   4.113   2.561  11.568 -0.1744 -0.2007  0.2448
    9MPD2     C14222   4.060   2.508  12.003 -0.1865 -0.4903  0.2005
    9MPD2    C114223   4.054   2.512  11.864  0.6797 -0.1386 -0.4125
    9MPD2    C214224   3.932   2.534  11.797  0.5142  0.0559  0.1910
    9MPD2    C314225   3.819   2.559  11.871  1.1144 -0.0863 -0.1757
    9MPD2    C414226   3.831   2.556  12.012  0.2636  0.2919  0.0737
    9MPD2    C514227   3.944   2.518  12.072 -0.1402 -0.6929  0.3325
    9MPD2     H14228   3.925   2.543  11.690 -4.3333 -0.3665  0.4673
    9MPD2    H114229   3.748   2.568  12.081 -0.1827  1.0939 -0.6075
    9MPD2    H214230   4.148   2.471  12.055 -1.2911 -1.5437  1.3338
    9MPD2    H314231   3.947   2.516  12.180 -1.0430 -1.0427  0.3526
    9MPD2     N14232   3.700   2.585  11.803  0.7128 -0.3575 -0.1112
    9MPD2    H514233   3.711   2.590  11.703 -3.2982 -0.4189 -0.5574
    9MPD2    N114234   4.178   2.513  11.789  0.1191  0.7581  0.4423
    9MPD2    H714235   4.261   2.495  11.844 -0.9803 -1.2561  1.4628
    1MPD1     C14236   2.840   1.481  17.012 -0.2396 -0.6576  0.2226
    1MPD1    C114237   2.832   1.434  16.883  0.4732  0.3849  0.8110
    1MPD1    C214238   2.820   1.297  16.855  0.1981 -0.3151  0.6527
    1MPD1    C314239   2.842   1.208  16.964 -0.4107 -0.3339 -1.0278
    1MPD1    C414240   2.866   1.254  17.090  0.0895 -0.3110 -0.2532
    1MPD1    C514241   2.870   1.388  17.108  0.5096 -0.6690 -0.4783
    1MPD1     H14242   2.813   1.265  16.752 -0.3056 -4.3558  1.9352
    1MPD1    H114243   2.862   1.192  17.179 -1.5584  0.6790  0.3781
    1MPD1    H214244   2.846   1.583  17.046  2.4625 -0.0839 -1.9070
    1MPD1    H314245   2.880   1.419  17.211 -0.3346  1.0416 -0.9225
    1MPD1     N14246   2.839   1.069  16.954 -0.0616  0.2338 -0.4726
    1MPD1    H514247   2.868   1.021  17.038 -3.3019 -0.5708  0.1703
    1MPD1    N114248   2.811   1.523  16.784 -0.2618 -0.9428 -0.2117
    1MPD1    H614249   2.877   1.599  16.799  2.8265 -3.7979  0.5336
    1MPD1    H714250   2.841   1.482  16.696 -1.9965 -0.9955 -0.7869
    2MPD1     C14251   3.180   0.402  16.247  0.0227 -0.5390 -0.0908
    2MPD1    C114252   3.177   0.540  16.254  0.6667  0.5162 -0.8479
    2MPD1    C214253   3.111   0.607  16.358 -0.7435 -0.1754 -0.1184
    2MPD1    C314254   3.041   0.534  16.455  0.4557 -0.2524 -0.4363
    2MPD1    C414255   3.056   0.394  16.445  0.3658  0.2947 -0.3134
    2MPD1    C514256   3.126   0.328  16.346  0.3280  0.2170  0.2545
    2MPD1     H14257   3.104   0.715  16.352  1.3374  0.0283  1.2374
    2MPD1    H114258   3.008   0.325  16.514 -0.4960  0.5110 -0.6893
    2MPD1    H214259   3.222   0.344  16.166 -0.6945  0.7254 -1.3512
    2MPD1    H314260   3.133   0.220  16.340 -0.9180  0.0807  1.3643
    2MPD1     N14261   2.976   0.604  16.559  0.8684 -0.0957 -0.8417
    2MPD1    H514262   2.962   0.702  16.538 -3.8170 -1.0757 -2.2968
    2MPD1    N114263   3.263   0.617  16.175 -0.4089 -0.0415  0.1698
    2MPD1    H614264   3.293   0.580  16.085  4.2621 -0.7112  2.0427
    2MPD1    H714265   3.216   0.707  16.162  2.7943  1.6056  0.0181
    3TCq2    C114266   2.944   0.548  16.681 -0.6994 -0.1817  0.2594
    3TCq2    O214267   2.956   0.431  16.718 -0.0944 -0.2402 -0.8867
    3TCq2    C214268   2.890   0.636  16.787 -0.4622  0.3100  0.5051
    3TCq2    C314269   2.843   0.580  16.902 -0.2850  0.2537 -0.4141
    3TCq2    C414270   2.790   0.666  16.992 -0.5323 -1.1454  0.1764
    3TCq2    C514271   2.784   0.801  16.978  0.1464 -0.7904  0.2343
    3TCq2    C614272   2.842   0.846  16.862 -0.1394 -0.2905 -0.4309
    3TCq2    C714273   2.896   0.768  16.764 -0.3589 -0.6239 -0.1324
    3TCq2    C814274   2.839   0.994  16.836  0.4770  0.3567 -0.6275
    3TCq2    O414275   2.817   1.029  16.722 -0.5809  0.0149 -0.1975
    3TCq2    C914276   2.767   0.616  17.123 -0.3791  0.0687  0.4840
    3TCq2    O514277   2.851   0.532  17.157  0.1098  0.1737  0.2657
    3TCq2    O614278   2.692   0.686  17.193  0.2827  0.7423  0.3064
    3TCq2    H214279   2.842   0.473  16.916 -1.2750  0.4112  0.7316
    3TCq2    H314280   2.751   0.864  17.060  0.6142 -0.4566  0.1655
    3TCq2    H414281   2.932   0.815  16.673  1.5788 -0.5448  0.6935
    1TCq1    O114282   1.118   4.671  13.539 -0.0116 -0.1366 -0.4568
    1TCq1    C114283   1.121   0.066  13.466 -0.5513 -0.1337 -0.1318
    1TCq1    O214284   1.068   0.174  13.489 -0.0059  0.1939  0.2736
    1TCq1    C214285   1.199   0.055  13.357  0.0577  0.1113 -0.0220
    1TCq1    C314286   1.204   4.661  13.282 -0.0922 -0.0241  0.3733
    1TCq1    C414287   1.293   4.648  13.183  0.8854  0.1994  1.3904
    1TCq1    C514288   1.387   0.024  13.166 -0.4030 -0.1518  0.1253
    1TCq1    C614289   1.366   0.146  13.231  0.2976  0.1334 -1.4183
    1TCq1    C714290   1.278   0.162  13.331 -0.2109 -0.2199 -0.2662
    1TCq1    C814291   1.461   0.255  13.215 -0.2402 -0.4677 -0.1958
    1TCq1    O414292   1.413   0.367  13.236 -0.5224 -0.6836  0.2401
    1TCq1    C914293   1.298   4.526  13.100  0.6360  0.3773 -0.0066
    1TCq1    O514294   1.213   4.440  13.133  0.0785 -0.2548 -0.1361
    1TCq1    O614295   1.365   4.542  12.992  0.4309 -0.1215  0.3149
    1TCq1    H114296   1.187   4.611  13.503  1.1299  2.4614 -2.6387
    1TCq1    H214297   1.135   4.582  13.305  0.1654 -0.5299 -0.6075
    1TCq1    H314298   1.462   0.004  13.090 -1.0322 -1.7965 -0.0521
    1TCq1    H414299   1.275   0.248  13.397  0.8049 -1.2703  1.1625
    2MPD2     C14300   1.693   0.436  13.197  0.6619 -0.4638  0.5843
    2MPD2    C114301   1.699   0.297  13.201  1.0171  1.1591 -0.7341
    2MPD2    C214302   1.823   0.242  13.186 -0.4136 -0.4901 -0.3663
    2MPD2    C314303   1.941   0.317  13.184 -0.4754 -0.4959 -0.0275
    2MPD2    C414304   1.938   0.454  13.195  0.2605  0.0709 -0.2493
    2MPD2    C514305   1.809   0.508  13.198 -0.4724  1.0076 -0.2776
    2MPD2     H14306   1.836   0.134  13.176 -1.1850 -0.6637  0.4914
    2MPD2    H114307   2.023   0.520  13.208 -0.0241  0.6596 -1.3206
    2MPD2    H214308   1.599   0.490  13.199 -0.8232 -2.9794 -0.3196
    2MPD2    H314309   1.805   0.616  13.198  1.7276  1.1015  1.0133
    2MPD2     N14310   2.070   0.252  13.174 -0.0816  0.0444  0.6035
    2MPD2    H514311   2.065   0.150  13.179  0.2781 -0.0142 -0.3212
    2MPD2    N114312   1.589   0.207  13.204  0.5802  0.1262  0.4103
    2MPD2    H714313   1.605   0.107  13.197  1.4994  0.5062 -2.8696
    3TCq1    O114314   2.753   0.154  13.301 -0.0860  0.1351 -0.0551
    3TCq1    C114315   2.640   0.222  13.334  0.3714 -0.3593  0.1446
    3TCq1    O214316   2.633   0.314  13.412  0.7866  0.0518  0.0743
    3TCq1    C214317   2.528   0.181  13.248 -0.2083 -0.2147 -0.0524
    3TCq1    C314318   2.515   0.054  13.192  0.1682 -0.3491  0.3242
    3TCq1    C414319   2.407   0.026  13.120 -0.6023  0.0050  0.0646
    3TCq1    C514320   2.299   0.108  13.113 -0.1278  0.3251  0.7686
    3TCq1    C614321   2.303   0.235  13.172  0.3922  0.7749  0.2982
    3TCq1    C714322   2.416   0.267  13.235 -0.0501  0.4686 -0.2239
    3TCq1    C814323   2.192   0.314  13.192  0.4116 -0.4098  0.3045
    3TCq1    O414324   2.227   0.426  13.225 -0.0590  0.1428 -0.4038
    3TCq1    C914325   2.382   4.617  13.061  0.1759 -0.5332  0.3806
    3TCq1    O514326   2.261   4.576  13.046  0.3842 -0.1649  0.2957
    3TCq1    O614327   2.485   4.555  13.024 -0.2251 -0.1139 -0.1014
    3TCq1    H114328   2.743   0.076  13.241 -1.7830  0.2008  0.1349
    3TCq1    H214329   2.572   4.684  13.211  0.3316 -0.1318  0.8690
    3TCq1    H314330   2.219   0.084  13.045  0.9425 -0.1240 -0.3137
    3TCq1    H414331   2.416   0.358  13.295  1.0278  1.3527 -1.5709
    1MPD2     C14332   1.275   1.254  14.146  0.7038 -0.2522 -0.2958
    1MPD2    C114333   1.273   1.347  14.250  0.0400  0.5518  0.1532
    1MPD2    C214334   1.394   1.380  14.320  0.0639  0.0463 -0.3496
    1MPD2    C314335   1.504   1.312  14.283 -0.1213 -0.3274 -0.2208
    1MPD2    C414336   1.493   1.207  14.193 -0.0790 -0.9013 -0.0724
    1MPD2    C514337   1.383   1.181  14.117 -0.3402  0.1376  0.0877
    1MPD2     H14338   1.395   1.460  14.394 -0.7574 -0.4468  0.1854
    1MPD2    H114339   1.583   1.149  14.175 -0.7164 -1.4067 -1.5777
    1MPD2    H214340   1.184   1.233  14.091 -0.4571  0.1429  1.4710
    1MPD2    H314341   1.371   1.100  14.045  0.6356 -0.4987  0.6453
    1MPD2     N14342   1.620   1.340  14.355 -0.6012 -0.4512  0.1010
    1MPD2    H514343   1.607   1.411  14.425  1.0240  1.3010 -1.3660
    1MPD2    N114344   1.149   1.432  14.264  0.1905  0.3426  0.0189
    1MPD2    H714345   1.070   1.416  14.201  0.5031 -1.3489  0.0610
    2TMC3    C114346   1.035   1.627  14.319 -0.5683  0.2272 -0.5141
    2TMC3    C214347   1.025   1.727  14.409  0.6922  0.9022  0.4660
    2TMC3    C314348   1.050   1.856  14.360 -0.3640 -0.2906  0.5245
    2TMC3    C414349   1.015   1.645  14.185  0.7246  0.4803 -0.3342
    2TMC3    C514350   1.015   1.779  14.142  0.2152 -0.3902  0.5485
    2TMC3    C614351   1.045   1.881  14.225 -0.4726  0.0106 -0.3566
    2TMC3     C14352   1.138   1.538  14.355  0.7741  0.2645  0.0957
    2TMC3     O14353   1.213   1.572  14.446 -0.2445 -0.4349  0.0131
    2TMC3     H14354   1.028   1.698  14.514 -0.9432 -2.0529 -0.3167
    2TMC3    H114355   1.004   1.560  14.119 -2.0298 -0.7889  1.7927
    2TMC3    H214356   1.071   1.981  14.194 -1.1698  0.0975 -0.6630
    2TMC3    C714357   0.983   1.805  14.002  0.0025 -0.1127 -0.1785
    2TMC3    C814358   1.139   1.938  14.448  0.1939  0.3800  0.3944
    2TMC3    O114359   0.991   1.713  13.917 -0.4808  0.3326 -0.7784
    2TMC3    O214360   1.139   2.058  14.436 -0.5566 -0.9886  0.1164
    3TCq1    O114361   0.603   2.935  13.601  0.0706 -0.1617  0.0771
    3TCq1    C114362   0.729   2.887  13.573  0.3385 -0.0876  0.2406
    3TCq1    O214363   0.819   2.955  13.526 -0.7385  0.2543 -0.2575
    3TCq1    C214364   0.756   2.770  13.652 -0.2593  0.5100  0.0925
    3TCq1    C314365   0.760   2.801  13.783 -0.0696  0.0388 -0.3430
    3TCq1    C414366   0.741   2.702  13.874 -0.1962 -0.0782  0.3701
    3TCq1    C514367   0.735   2.574  13.835 -0.0564 -0.0942 -0.6080
    3TCq1    C614368   0.734   2.546  13.698  0.0787  0.1578 -0.5135
    3TCq1    C714369   0.737   2.644  13.606  0.3710  1.1382  0.6210
    3TCq1    C814370   0.734   2.407  13.648 -0.3586  0.6103  0.6646
    3TCq1    O414371   0.735   2.384  13.530 -0.1518  0.3982 -0.2523
    3TCq1    C914372   0.751   2.733  14.016 -0.4037  0.2801 -0.0248
    3TCq1    O514373   0.750   2.641  14.101 -0.7815 -0.3824 -0.1178
    3TCq1    O614374   0.740   2.851  14.046  0.4066  0.1042  0.1343
    3TCq1    H114375   0.555   2.871  13.658  2.3583 -1.1834  0.8378
    3TCq1    H214376   0.759   2.907  13.809 -0.0864  0.7566 -3.2498
    3TCq1    H314377   0.721   2.497  13.911  0.0179 -1.5406 -2.0581
    3TCq1    H414378   0.756   2.625  13.501 -2.1302 -0.6355  0.4802
    4MPD2     C14379   0.801   2.117  13.619  0.4336  0.0807  0.6296
    4MPD2    C114380   0.801   2.187  13.744  0.5996 -0.8684 -0.6577
    4MPD2    C214381   0.846   2.115  13.855  0.3311  0.9041 -0.4339
    4MPD2    C314382   0.890   1.986  13.853 -0.2821  0.7603 -0.1879
    4MPD2    C414383   0.883   1.920  13.735  0.3058 -0.1077 -0.6238
    4MPD2    C514384   0.840   1.987  13.620  0.6216  0.6135 -0.1712
    4MPD2     H14385   0.848   2.160  13.953  0.7294  0.4166 -0.2170
    4MPD2    H114386   0.925   1.820  13.730 -0.3186 -0.5496  2.5517
    4MPD2    H214387   0.762   2.168  13.531  0.9721 -0.2928  0.1774
    4MPD2    H314388   0.833   1.941  13.522  2.4793 -0.3520  0.1661
    4MPD2     N14389   0.932   1.931  13.979  0.1758 -0.5047  0.2855
    4MPD2    H514390   0.915   1.993  14.057  2.5897 -0.0806  0.4552
    4MPD2    N114391   0.780   2.326  13.748 -0.3560  0.6356  0.0473
    4MPD2    H714392   0.799   2.366  13.839 -1.1531 -1.0105  0.9527
    5TMC2    C114393   1.796   1.526  14.592 -0.4211 -0.2799 -0.2144
    5TMC2    C214394   1.891   1.609  14.534 -0.2303  0.4731 -0.1926
    5TMC2    C314395   1.957   1.550  14.429  0.1343  0.0643 -0.2293
    5TMC2    C414396   1.776   1.399  14.538 -0.2041 -0.6203  0.3514
    5TMC2    C514397   1.837   1.358  14.425  0.1355  0.4133  0.2130
    5TMC2    C614398   1.932   1.430  14.373  0.2024  0.1546 -0.4233
    5TMC2     C14399   1.668   1.597  14.615 -0.5850 -0.2653 -0.2191
    5TMC2     O14400   1.579   1.534  14.564 -0.4056  0.1834  0.2900
    5TMC2     H14401   1.909   1.713  14.558  0.1750  0.4663 -0.4703
    5TMC2    H114402   1.718   1.331  14.599 -1.4504  0.4030  0.3085
    5TMC2    H214403   1.966   1.410  14.272  1.7525  0.0445  0.1172
    5TMC2    C714404   1.745   1.296  14.323  0.4499  0.7862  0.2751
    5TMC2    C814405   2.064   1.631  14.379  0.4487  0.1204  0.0382
    5TMC2    O114406   1.801   1.247  14.226 -0.0757 -0.0496 -0.0617
    5TMC2    O214407   2.073   1.745  14.427 -0.2150  0.3215 -0.2543
    5TMC2    O514408   2.162   1.543  14.346 -0.6186  0.5522 -0.1657
    5TMC2    H514409   2.127   1.452  14.334 -0.0660  0.2591  0.4052
    6MPD2     C14410   1.374   2.019  14.618 -0.1562 -0.7838 -0.3983
    6MPD2    C114411   1.359   1.892  14.561 -0.6677  0.1302  1.3020
    6MPD2    C214412   1.450   1.794  14.590  0.0697  0.1476  0.3989
    6MPD2    C314413   1.573   1.823  14.641 -0.2810 -0.2562 -0.2302
    6MPD2    C414414   1.599   1.958  14.676 -0.3557  0.1343 -0.0313
    6MPD2    C514415   1.499   2.054  14.662  0.5279 -1.0483  0.2806
    6MPD2     H14416   1.432   1.695  14.549 -2.0669 -1.5743  5.5689
    6MPD2    H114417   1.697   1.984  14.714 -0.3229 -1.4634  0.9704
    6MPD2    H214418   1.295   2.093  14.631 -0.0275 -1.0551  1.8984
    6MPD2    H314419   1.507   2.152  14.706  2.0162 -1.6078  1.2343
    6MPD2     N14420   1.679   1.732  14.651  0.1222  0.3217 -0.2500
    6MPD2    H514421   1.763   1.771  14.694 -0.1395  1.0659 -0.4151
    6MPD2    N114422   1.235   1.852  14.501 -0.1735 -0.7233  0.8034
    6MPD2    H714423   1.231   1.754  14.476 -0.7935 -0.5121  0.0746
  945NH3     N114424   0.837   3.797  11.697  0.3489  0.4184 -0.0734
  945NH3     H214425   0.750   3.787  11.748 -0.7347  0.0835 -1.9955
  945NH3     H314426   0.857   3.723  11.631  1.0714  2.3968 -2.1009
  945NH3     H414427   0.807   3.879  11.645  1.5443  0.4508 -0.7164
  946SOD     NA14428   1.016   2.228  14.524  0.0751  0.4417 -0.3723
  947SOD     NA14429   3.775   0.653  14.782 -1.0795 -0.2043  0.3657
  948SOD     NA14430   0.950   3.342  10.664 -0.5266 -0.1007  0.0216
  949SOD     NA14431   1.543   4.532   9.983  0.4812  0.3346  0.1579
  950SOD     NA14432   1.534   4.186   2.160 -0.3028  0.4060  0.2298
  951SOD     NA14433   3.048   1.634   4.048 -0.1030  0.4202 -0.6419
  952SOD     NA14434   0.729   0.576  12.667  0.1848 -0.3680  0.0093
  953SOD     NA14435   3.102   0.505  10.271  0.2456 -0.1052  0.1143
  954SOD     NA14436   2.574   0.202  10.531 -0.1778  0.4036  0.1237
  955SOD     NA14437   4.347   0.976  12.253 -0.4717 -0.2482  0.0194
  956SOD     NA14438   1.740   1.363   0.858 -0.2359  0.5238  0.0018
  957SOD     NA14439   2.053   1.134  13.830 -0.1446 -0.1383  0.2336
  958SOD     NA14440   0.533   2.900   4.480 -0.5500 -0.4124 -0.1980
  959SOD     NA14441   4.003   3.696  14.176  0.2784  0.0274  0.3000
  960SOD     NA14442   1.522   2.590  10.039  0.0493  0.1014  0.1322
  961SOD     NA14443   1.318   0.396   9.979  0.4343  0.2810 -0.0174
  962SOD     NA14444   0.454   1.062  14.027 -0.0747  0.3572 -0.0072
  963SOD     NA14445   2.157   0.599   9.782  0.1710 -0.4282  0.1216
  964SOD     NA14446   1.620   0.159   9.936 -0.3899  0.2769  0.1848
  965SOD     NA14447   2.115   1.041   4.390 -0.5371  0.0600 -0.5317
  966SOD     NA14448   4.081   4.181   1.491  0.1733  0.4818  0.1223
  967SOD     NA14449   0.540   3.213   9.542 -0.1055 -0.4424  0.4012
  968SOD     NA14450   3.135   0.071   2.066  0.0171  0.0216  0.4554
  969SOD     NA14451   4.215   3.866  14.508 -0.5516 -0.3745 -0.1623
  970SOD     NA14452   2.270   0.335  11.494 -0.0495 -0.0350 -0.7722
  971SOD     NA14453   3.090   0.110  13.711 -0.4174 -0.1321  0.2267
  972SOD     NA14454   3.974   2.764  11.172 -0.1504  0.1973  0.1906
  973SOD     NA14455   3.188   1.665  15.162 -0.6760  0.1096 -0.0694
  974SOD     NA14456   2.320   2.068  12.326 -0.0737 -0.3496  0.3341
  975SOD     NA14457   4.627   3.946   3.222  0.4502  0.1935 -0.4241
  976SOD     NA14458   1.612   0.572   0.920  0.2319  0.0040 -0.1212
  977SOD     NA14459   2.490   0.659  11.548 -0.1629  0.2231 -0.1449
  978SOD     NA14460   2.865   1.739  15.933  0.0568 -0.2189  0.2993
  979SOD     NA14461   0.612   3.014  14.115 -0.3396 -0.3279 -0.1406
  980SOD     NA14462   3.000   0.153  14.621  0.3579 -0.3722 -0.7149
  981SOD     NA14463   1.684   3.569  11.527 -0.3416  0.3054 -0.0719
  982SOD     NA14464   3.384   1.900  12.016  0.4245  0.1881 -0.2491
  983SOD     NA14465   2.043   1.495   5.234  0.0184 -0.0526  0.0730
  984SOD     NA14466   3.885   1.694  12.904 -0.5014 -0.0213 -0.2549
  985SOD     NA14467   2.188   3.870   2.753 -0.3294  0.4895  0.4405
  986SOD     NA14468   2.549   2.490  17.041  0.0823 -0.3006  0.2380
  987SOD     NA14469   1.029   2.294   8.869  0.3281 -0.4359  0.3129
  988SOD     NA14470   3.749   0.348   8.898  0.1928 -0.0002  0.1487
  989SOD     NA14471   2.975   0.354  17.123 -0.8477 -0.2393 -0.2609
  990SOD     NA14472   3.479   0.395   0.494 -0.3202 -0.0764 -0.2827
  991SOD     NA14473   3.980   0.827  16.302 -0.0410  0.0900 -0.1826
  992SOD     NA14474   4.530   3.675  14.495 -0.4395 -0.0523  0.4943
  993SOD     NA14475   1.707   4.444  10.252  0.3956  0.3167 -0.1806
  994SOD     NA14476   2.395   1.060  11.768  0.1745 -0.0132 -0.6279
  995SOD     NA14477   2.428   1.352  14.642  0.2756 -0.1850 -0.6194
  996SOD     NA14478   0.864   4.109   7.023 -0.4156 -0.0755 -0.3680
  997SOD     NA14479   2.890   4.666   0.496  0.2977 -0.1678  0.1352
  998SOD     NA14480   4.327   0.898   0.699  0.0591  0.2878  0.3214
  999SOD     NA14481   0.004   3.855   1.894  0.1980  0.1012  0.2377
 1000SOD     NA14482   3.951   3.338   2.154  0.5480  0.2000 -0.1757
 1001SOD     NA14483   0.634   0.774   2.176  0.0454  0.3821  0.1575
 1002SOD     NA14484   2.872   0.249  10.353 -0.2878 -0.1146  0.2346
 1003SOD     NA14485   1.768   4.531  10.568 -0.2312  0.4126  0.1138
 1004SOD     NA14486   3.398   4.073  12.787  0.3951  0.3459 -0.0155
 1005SOD     NA14487   0.380   3.736  13.992  0.2462 -0.1591  0.0019
 1006SOD     NA14488   0.176   4.067   6.617  0.5020  0.1280 -0.2138
 1007SOD     NA14489   0.107   4.584  10.857 -0.1989 -0.2126 -0.4876
 1008SOD     NA14490   3.537   1.517  13.880 -0.2019 -0.0967 -0.5482
 1009SOD     NA14491   4.297   2.730   0.730 -0.1054 -0.3191 -0.2725
 1010SOD     NA14492   4.459   3.220   0.898 -0.4484 -0.2671 -0.0700
 1011SOD     NA14493   1.050   1.614  14.882  0.0765 -0.1908  0.5420
 1012SOL     OW14494   1.185   0.258   7.356 -0.1670 -0.8975  0.3095
 1012SOL    HW114495   1.195   0.223   7.268 -2.4262 -2.7291  0.7773
 1012SOL    HW214496   1.176   0.176   7.405  0.0519 -1.8133 -1.1695
 1013SOL     OW14497   1.302   2.971   4.138 -0.1326  0.5769 -0.3883
 1013SOL    HW114498   1.347   3.052   4.161 -1.0471  0.5532  1.4659
 1013SOL    HW214499   1.316   2.923   4.220  1.1292  0.0778 -0.8806
 1014SOL     OW14500   3.004   0.043   9.221 -0.3348 -0.5149  0.0575
 1014SOL    HW114501   2.934   0.076   9.165 -0.9038 -1.8464 -0.0398
 1014SOL    HW214502   3.034   4.688   9.169  0.6685  0.3471 -0.6007
 1015SOL     OW14503   0.816   3.364   7.681 -0.3873  0.4045  0.2837
 1015SOL    HW114504   0.847   3.356   7.771  1.7735  3.3664 -0.1835
 1015SOL    HW214505   0.876   3.299   7.643  0.0110 -0.3607  2.2160
 1016SOL     OW14506   1.387   3.707  16.448  0.1349 -0.3309  0.5147
 1016SOL    HW114507   1.352   3.786  16.407  0.7747 -0.1891  0.2465
 1016SOL    HW214508   1.306   3.657  16.450 -0.1942  0.1411 -0.7793
 1017SOL     OW14509   2.232   1.637   9.166 -0.3249 -0.4101 -0.2544
 1017SOL    HW114510   2.280   1.580   9.105 -0.6600 -0.6487 -0.2898
 1017SOL    HW214511   2.143   1.610   9.147 -0.0184 -1.3807 -0.2983
 1018SOL     OW14512   3.743   3.149   7.966 -0.4989  0.3156  0.1833
 1018SOL    HW114513   3.712   3.197   7.889  1.3124 -1.5019 -1.6900
 1018SOL    HW214514   3.750   3.059   7.933 -3.7270  0.5632 -1.1688
 1019SOL     OW14515   1.518   0.108   3.616 -0.3437  0.2755  0.4873
 1019SOL    HW114516   1.610   0.132   3.608  0.6811 -4.2081 -0.7639
 1019SOL    HW214517   1.487   0.110   3.525 -2.4165  1.7741  1.1964
 1020SOL     OW14518   2.655   1.796   2.653 -0.1095 -0.0358  0.2406
 1020SOL    HW114519   2.675   1.809   2.561 -2.1763  0.3603 -0.1568
 1020SOL    HW214520   2.732   1.835   2.695  1.3338 -0.6330 -1.9098
 1021SOL     OW14521   1.570   1.032   0.816  0.0464  0.2676 -0.0643
 1021SOL    HW114522   1.511   1.058   0.745 -0.0626 -2.6813 -1.0857
 1021SOL    HW214523   1.580   1.114   0.864  1.2102 -0.9317  1.7205
 1022SOL     OW14524   0.761   2.727   1.793 -0.0014  0.6309  0.2734
 1022SOL    HW114525   0.749   2.647   1.741 -0.9856 -1.1122  3.1949
 1022SOL    HW214526   0.822   2.694   1.858 -0.3189  0.8539  0.6922
 1023SOL     OW14527   1.815   1.550   8.120  0.2482  0.5121  0.0530
 1023SOL    HW114528   1.869   1.600   8.059  0.8888  3.1709  2.8151
 1023SOL    HW214529   1.772   1.493   8.056 -0.4326  0.7829  0.2659
 1024SOL     OW14530   1.729   2.149   7.337 -0.3408 -0.2616 -0.5748
 1024SOL    HW114531   1.689   2.148   7.250  0.1168  0.0898 -0.7886
 1024SOL    HW214532   1.674   2.085   7.381  0.9026 -1.2818 -0.4814
 1025SOL     OW14533   2.314   4.018   3.531  0.4337  0.0632 -0.8700
 1025SOL    HW114534   2.292   3.953   3.465  0.1027 -0.9727  0.2709
 1025SOL    HW214535   2.357   4.085   3.477  0.2385  0.1604 -0.9054
 1026SOL     OW14536   4.632   0.842   8.683  0.3445 -0.4013 -0.2865
 1026SOL    HW114537   4.585   0.892   8.750  1.8911  2.2031 -1.1832
 1026SOL    HW214538   4.662   0.915   8.630 -1.0489 -0.1279 -0.7085
 1027SOL     OW14539   1.278   2.637   6.177  0.1395 -0.4431  0.2904
 1027SOL    HW114540   1.232   2.716   6.148 -1.2374 -1.6384 -0.8027
 1027SOL    HW214541   1.300   2.589   6.097  3.2387  0.1878  0.7833
 1028SOL     OW14542   2.727   1.730   2.403 -0.1067 -0.1771 -0.3117
 1028SOL    HW114543   2.772   1.684   2.332 -0.2135 -0.4890 -0.1789
 1028SOL    HW214544   2.776   1.812   2.404  1.0560 -0.8330 -2.5364
 1029SOL     OW14545   2.760   2.433  16.657  0.4012 -0.0842  0.9844
 1029SOL    HW114546   2.826   2.457  16.592 -1.4075  1.0953 -0.3883
 1029SOL    HW214547   2.733   2.349  16.621  0.4320  0.8345 -1.2029
 1030SOL     OW14548   2.001   0.629   2.026  0.3907 -0.0718 -0.0423
 1030SOL    HW114549   2.021   0.544   1.986  2.9173  0.6471 -0.2883
 1030SOL    HW214550   2.046   0.698   1.977 -0.6895 -0.6484 -1.8486
 1031SOL     OW14551   3.206   1.053   5.117 -0.0703  0.0271  0.3962
 1031SOL    HW114552   3.231   0.960   5.124  1.0137  0.3155  0.4124
 1031SOL    HW214553   3.258   1.100   5.182 -0.2903 -0.2983  0.8080
 1032SOL     OW14554   2.174   2.805   1.925 -0.3562  0.4150  0.9475
 1032SOL    HW114555   2.218   2.801   1.841 -2.3343  0.0720 -0.0657
 1032SOL    HW214556   2.238   2.761   1.981 -0.9421 -0.4998  0.8914
 1033SOL     OW14557   4.143   3.835   9.724 -0.3755  0.0214 -0.3870
 1033SOL    HW114558   4.070   3.829   9.662 -0.7670 -0.5140  0.1284
 1033SOL    HW214559   4.134   3.908   9.785  0.4760  0.7046 -1.0578
 1034SOL     OW14560   4.529   1.653  16.962  1.1330  0.0787  0.3946
 1034SOL    HW114561   4.556   1.589  17.028  0.7479  1.0539  1.5136
 1034SOL    HW214562   4.562   1.615  16.881  0.8851 -0.6779  0.6547
 1035SOL     OW14563   1.201   0.065   6.812  0.1698  0.5985 -0.1524
 1035SOL    HW114564   1.269   0.053   6.746 -1.7196  0.5602 -2.0816
 1035SOL    HW214565   1.209   0.156   6.840 -0.3344  0.5521  0.1428
 1036SOL     OW14566   0.333   2.283   6.622 -0.2167 -0.1338  0.1099
 1036SOL    HW114567   0.373   2.367   6.600 -0.9015 -0.3793 -1.9883
 1036SOL    HW214568   0.352   2.236   6.541 -0.1692 -0.5026  0.3336
 1037SOL     OW14569   0.344   4.597   1.837 -0.7344  0.4360  0.4446
 1037SOL    HW114570   0.304   4.557   1.915  0.3695  1.2652  1.4475
 1037SOL    HW214571   0.269   4.607   1.779  0.7475  1.3818 -1.2817
 1038SOL     OW14572   3.928   0.695   8.665  0.0982 -0.3206 -0.5990
 1038SOL    HW114573   3.869   0.767   8.687 -1.0788 -2.2942  2.6713
 1038SOL    HW214574   4.011   0.742   8.673 -0.1391  0.4812 -3.0785
 1039SOL     OW14575   2.089   0.992   8.332  0.0205  0.3858  0.0911
 1039SOL    HW114576   2.162   0.941   8.297 -0.6688 -0.8648  0.4586
 1039SOL    HW214577   2.071   1.055   8.263 -0.4440  0.1247 -0.0223
 1040SOL     OW14578   0.598   0.344  10.868  0.5072  0.2630 -0.3845
 1040SOL    HW114579   0.620   0.432  10.838  0.2431  0.8876  1.2798
 1040SOL    HW214580   0.608   0.356  10.962  0.0323  3.1016 -0.6909
 1041SOL     OW14581   4.201   3.553  17.585  0.0054  0.3937  0.1926
 1041SOL    HW114582   4.184   3.571  17.492  2.2103  0.8971 -0.1201
 1041SOL    HW214583   4.118   3.519  17.620  0.1054  1.7878  1.7474
 1042SOL     OW14584   2.646   2.042   7.048 -0.2691 -0.3334  0.2835
 1042SOL    HW114585   2.738   2.032   7.025 -0.5912  1.4572 -1.7232
 1042SOL    HW214586   2.602   1.968   7.005  1.5410 -0.0349 -2.0861
 1043SOL     OW14587   3.056   0.854   1.140 -0.3399 -0.5007 -0.3577
 1043SOL    HW114588   3.087   0.890   1.058 -0.8626  0.1641 -0.2615
 1043SOL    HW214589   3.086   0.924   1.198 -0.1389  0.3555 -1.5125
 1044SOL     OW14590   1.582   2.315   2.794 -0.2703 -0.3101  0.4027
 1044SOL    HW114591   1.588   2.404   2.829 -1.4720  0.1620 -0.5624
 1044SOL    HW214592   1.663   2.310   2.743  0.2541  0.4811  1.1593
 1045SOL     OW14593   0.468   1.529   0.794 -0.1828 -0.2462  0.1425
 1045SOL    HW114594   0.396   1.588   0.817 -0.4341 -1.1125  1.5755
 1045SOL    HW214595   0.463   1.549   0.701  1.6957  1.1196  0.3323
 1046SOL     OW14596   2.545   3.853   7.428  0.1253 -0.4413 -0.1503
 1046SOL    HW114597   2.491   3.894   7.360  1.1776  1.4184  0.1117
 1046SOL    HW214598   2.538   3.936   7.476  0.2427  0.1776 -1.1868
 1047SOL     OW14599   0.871   3.583   8.773 -0.3129 -0.0524 -0.2328
 1047SOL    HW114600   0.825   3.501   8.754 -0.4280 -0.2159  0.7473
 1047SOL    HW214601   0.804   3.651   8.763  0.6420  0.6268 -2.0683
 1048SOL     OW14602   4.585   1.855   8.516 -0.0168 -0.2362 -0.0150
 1048SOL    HW114603   4.497   1.856   8.555 -1.0787  1.5952 -2.4427
 1048SOL    HW214604   4.562   1.903   8.436  2.2189 -0.4301 -0.7792
 1049SOL     OW14605   3.775   1.013   1.076 -0.2692 -0.3248 -0.7040
 1049SOL    HW114606   3.803   1.038   0.988  0.6427  2.4305  0.3855
 1049SOL    HW214607   3.742   0.926   1.053 -2.2271  0.1665  0.2270
 1050SOL     OW14608   3.598   1.113   5.333 -0.0536 -0.6183  0.1119
 1050SOL    HW114609   3.633   1.077   5.415 -0.6365 -0.6703  0.3444
 1050SOL    HW214610   3.625   1.204   5.330  0.8790 -0.9427 -1.0029
 1051SOL     OW14611   3.214   2.823   1.842  0.2642 -0.4514  0.3373
 1051SOL    HW114612   3.277   2.754   1.861  1.0975  0.3762  0.5892
 1051SOL    HW214613   3.248   2.852   1.757  0.4592 -0.3501  0.4505
 1052SOL     OW14614   3.874   0.440   1.394 -0.1583 -0.4183 -0.2027
 1052SOL    HW114615   3.810   0.393   1.447 -1.1834  0.2180 -0.8738
 1052SOL    HW214616   3.833   0.414   1.311 -0.7309  0.6866 -0.2716
 1053SOL     OW14617   3.345   2.268   3.147  0.1316 -0.2189  0.1434
 1053SOL    HW114618   3.362   2.241   3.238 -3.9462 -2.0087  0.3608
 1053SOL    HW214619   3.435   2.258   3.114  0.0930 -2.5538  0.7377
 1054SOL     OW14620   1.886   2.152  16.490 -0.2623 -0.0601 -0.3101
 1054SOL    HW114621   1.970   2.151  16.536  0.3882 -2.1471 -1.5595
 1054SOL    HW214622   1.858   2.243  16.497  1.5077  0.2431  2.6769
 1055SOL     OW14623   0.271   4.239   2.111 -0.1464  0.0768 -0.0919
 1055SOL    HW114624   0.270   4.326   2.070 -4.3307 -0.2198 -0.5561
 1055SOL    HW214625   0.229   4.259   2.195  0.9955 -1.4675  0.8451
 1056SOL     OW14626   1.524   1.838   6.718  0.2200  0.1680  0.1290
 1056SOL    HW114627   1.548   1.799   6.802  0.3805  1.5613  0.7259
 1056SOL    HW214628   1.577   1.917   6.709 -1.6252  1.2434 -1.5156
 1057SOL     OW14629   1.787   2.974   3.878  0.8114  0.0207  0.2689
 1057SOL    HW114630   1.693   2.959   3.884  1.2480 -2.1498  1.5071
 1057SOL    HW214631   1.809   2.915   3.806  2.3580 -1.9061  2.3451
 1058SOL     OW14632   3.300   2.055   5.797 -0.1214 -0.1674  0.0103
 1058SOL    HW114633   3.220   2.099   5.767  0.2602 -0.6603 -1.7259
 1058SOL    HW214634   3.333   2.120   5.860  1.3818 -1.3436  0.4362
 1059SOL     OW14635   3.800   4.446  16.433  0.2098  0.6260 -0.4050
 1059SOL    HW114636   3.840   4.376  16.485  0.3161  1.3685  0.5127
 1059SOL    HW214637   3.776   4.398  16.354 -3.9704  0.2873  1.0850
 1060SOL     OW14638   0.129   0.170   1.704 -0.1110 -0.2752  0.0152
 1060SOL    HW114639   0.099   0.081   1.722 -0.3600  0.1555  1.7883
 1060SOL    HW214640   0.065   0.190   1.636 -1.3131  0.0174  1.2282
 1061SOL     OW14641   1.772   0.101   8.468 -0.8855  0.5665  0.4742
 1061SOL    HW114642   1.764   0.007   8.484 -0.6170  0.4868  0.1235
 1061SOL    HW214643   1.747   0.131   8.556  3.2188 -0.9656  2.1773
 1062SOL     OW14644   4.183   2.165   9.130  0.1388 -0.3208  0.1494
 1062SOL    HW114645   4.138   2.145   9.212  1.5610 -0.6899  0.8426
 1062SOL    HW214646   4.115   2.218   9.089 -0.5541  0.4729  2.3279
 1063SOL     OW14647   2.953   2.494  16.830 -0.0193  0.3235  0.3719
 1063SOL    HW114648   2.878   2.484  16.772  1.3003  0.8648 -1.4669
 1063SOL    HW214649   3.025   2.460  16.776  0.3029 -1.2557  1.7722
 1064SOL     OW14650   2.679   1.930  12.178  0.0114 -0.1322  0.0435
 1064SOL    HW114651   2.740   1.916  12.105  0.9829  0.3795  0.7658
 1064SOL    HW214652   2.738   1.965  12.244  0.0420 -1.1887  0.5880
 1065SOL     OW14653   1.846   0.034   7.644  0.3983  0.3114  0.0206
 1065SOL    HW114654   1.904   0.085   7.701  0.3595  1.7170 -1.1775
 1065SOL    HW214655   1.784   0.001   7.709  1.2399 -0.8731  0.2186
 1066SOL     OW14656   2.096   3.558   7.653  0.2083  0.0477  0.6094
 1066SOL    HW114657   2.004   3.579   7.669 -0.1676  1.0394 -2.9060
 1066SOL    HW214658   2.111   3.626   7.588  0.7530 -1.6620 -1.0725
 1067SOL     OW14659   1.286   4.329   9.071  0.1461 -0.3067 -0.3141
 1067SOL    HW114660   1.312   4.238   9.056 -1.2856 -0.7381 -0.1313
 1067SOL    HW214661   1.208   4.333   9.017  0.1150  0.6689 -0.1904
 1068SOL     OW14662   0.922   0.133  11.601 -0.7567 -0.2252  0.0090
 1068SOL    HW114663   0.937   0.170  11.688 -1.7643 -0.9241  0.4798
 1068SOL    HW214664   0.826   0.135  11.600 -0.7024  1.9236  1.1553
 1069SOL     OW14665   2.721   3.296   8.151 -0.3127  0.0174  0.2534
 1069SOL    HW114666   2.687   3.262   8.233 -1.1395 -2.4101 -1.1010
 1069SOL    HW214667   2.810   3.328   8.167 -0.5106  0.8203 -0.2636
 1070SOL     OW14668   0.567   0.281   9.511 -0.0580  0.2842  0.3706
 1070SOL    HW114669   0.577   0.344   9.440 -0.6855 -1.5801 -1.3551
 1070SOL    HW214670   0.506   0.335   9.563 -0.4633 -0.2644  0.4621
 1071SOL     OW14671   2.747   2.757   3.333  0.0419 -0.1431  0.2215
 1071SOL    HW114672   2.772   2.780   3.422 -1.2027  1.6016  0.1066
 1071SOL    HW214673   2.654   2.740   3.348 -0.0969  0.9552  0.6090
 1072SOL     OW14674   0.058   1.517   5.767 -0.0458 -0.0620 -0.0005
 1072SOL    HW114675   4.697   1.559   5.739  1.1639  3.1074  1.2852
 1072SOL    HW214676   0.100   1.530   5.682 -2.1075  1.4161 -0.8082
 1073SOL     OW14677   3.341   4.477   7.645  0.4944 -0.3650 -0.1595
 1073SOL    HW114678   3.328   4.409   7.710  0.2955  0.1652  0.3582
 1073SOL    HW214679   3.248   4.500   7.635 -0.2003 -1.9518  2.8086
 1074SOL     OW14680   2.017   2.957   2.377 -0.6432  0.3906  0.4812
 1074SOL    HW114681   2.051   2.882   2.425  0.0040  1.3622  1.5558
 1074SOL    HW214682   1.996   2.911   2.296  2.1063 -0.2868  0.1538
 1075SOL     OW14683   0.471   1.402  10.502  0.2466 -0.0485  0.1878
 1075SOL    HW114684   0.461   1.367  10.591  2.0214  0.4318  0.5700
 1075SOL    HW214685   0.464   1.494  10.526 -0.2449 -0.1940  0.6266
 1076SOL     OW14686   2.129   4.064  11.487  0.2727 -0.2474 -0.1732
 1076SOL    HW114687   2.076   3.988  11.463  1.1393 -0.4832 -1.3791
 1076SOL    HW214688   2.078   4.097  11.560 -0.7924 -0.5672 -0.7773
 1077SOL     OW14689   3.000   4.116  11.500  0.5555 -0.0667 -0.3080
 1077SOL    HW114690   3.051   4.041  11.533 -2.6916 -1.3696  1.7443
 1077SOL    HW214691   3.008   4.106  11.405  0.8116  1.9634 -0.4879
 1078SOL     OW14692   0.138   1.209  13.625  0.3289  0.1172  0.5328
 1078SOL    HW114693   0.053   1.250  13.612 -0.4785 -1.3497  1.2253
 1078SOL    HW214694   0.143   1.193  13.719  0.1660 -0.7952  0.3942
 1079SOL     OW14695   2.365   4.181   6.944 -0.4386  0.4432 -0.2485
 1079SOL    HW114696   2.348   4.254   7.004 -1.3239  0.6196 -0.7135
 1079SOL    HW214697   2.299   4.117   6.968  0.5371 -0.0256  1.1810
 1080SOL     OW14698   1.982   3.859   4.091 -0.7307 -0.1529  0.5712
 1080SOL    HW114699   1.973   3.878   3.998  0.6535  0.8510  0.6385
 1080SOL    HW214700   1.981   3.949   4.123  2.1458 -0.6106  1.9350
 1081SOL     OW14701   2.343   1.886   9.818  0.1420  0.8285  0.0672
 1081SOL    HW114702   2.279   1.838   9.765  3.2096 -2.5970 -0.5425
 1081SOL    HW214703   2.301   1.967   9.848  0.8185  2.2874 -2.8742
 1082SOL     OW14704   0.480   0.756   3.602  0.4310 -0.3690 -0.6262
 1082SOL    HW114705   0.531   0.788   3.528  2.4976  0.5356  1.2137
 1082SOL    HW214706   0.390   0.782   3.583  0.8796  0.9380 -0.9666
 1083SOL     OW14707   3.838   0.762   9.094  0.2925  0.1311 -0.3519
 1083SOL    HW114708   3.863   0.853   9.078  1.7188 -0.2795 -0.4571
 1083SOL    HW214709   3.893   0.753   9.171 -1.1848 -0.7084  0.6156
 1084SOL     OW14710   0.808   3.443   4.480  0.0539  0.0599  0.5059
 1084SOL    HW114711   0.762   3.465   4.399  0.7359  4.5642  1.3597
 1084SOL    HW214712   0.799   3.530   4.518 -3.3388 -0.3360  0.5422
 1085SOL     OW14713   0.700   1.993   8.008 -0.2966  0.5282 -0.1774
 1085SOL    HW114714   0.720   1.916   7.955  1.2457 -0.5581  1.9631
 1085SOL    HW214715   0.783   2.036   7.988  0.3340 -0.4458  0.3547
 1086SOL     OW14716   2.468   1.428   6.650 -0.2012  0.1188 -0.0644
 1086SOL    HW114717   2.467   1.464   6.561 -1.2323  1.4020  0.4607
 1086SOL    HW214718   2.446   1.339   6.622  0.6034 -0.1932  0.2870
 1087SOL     OW14719   0.079   3.872   2.358  0.9767  0.8690  0.4116
 1087SOL    HW114720   0.167   3.908   2.351  0.7505  1.6239  1.4182
 1087SOL    HW214721   0.065   3.844   2.449 -0.8515  1.8366  0.4357
 1088SOL     OW14722   3.880   1.646   6.715  0.2729  0.2787 -0.2504
 1088SOL    HW114723   3.813   1.649   6.784 -0.4275  1.6836 -0.9733
 1088SOL    HW214724   3.918   1.733   6.729  0.6859  0.0451  0.0537
 1089SOL     OW14725   0.029   1.282   2.762  0.3488 -1.0620 -0.1445
 1089SOL    HW114726   4.662   1.297   2.727  0.8951 -1.4932 -1.6878
 1089SOL    HW214727   0.078   1.308   2.684 -0.6299  2.9857  0.5822
 1090SOL     OW14728   3.480   2.051  11.864  0.5630 -0.5970  0.6835
 1090SOL    HW114729   3.525   2.117  11.812  0.1353 -1.4018 -0.6990
 1090SOL    HW214730   3.557   2.018  11.911  2.0491  0.7975 -0.7928
 1091SOL     OW14731   0.143   3.579   8.448  0.3496 -0.6876 -0.0029
 1091SOL    HW114732   0.131   3.551   8.357  1.9490 -2.0624  0.2180
 1091SOL    HW214733   0.061   3.548   8.485 -0.1591 -0.0742 -0.5943
 1092SOL     OW14734   3.217   2.240   1.713  0.1185  0.6129 -0.1480
 1092SOL    HW114735   3.232   2.154   1.751 -1.4887 -0.1889 -1.3514
 1092SOL    HW214736   3.310   2.263   1.721 -0.0516  1.7548 -1.5400
 1093SOL     OW14737   3.894   0.987  14.105 -0.0825 -0.0033 -0.6150
 1093SOL    HW114738   3.896   0.991  14.200 -0.3191 -0.5900 -0.5897
 1093SOL    HW214739   3.805   0.960  14.084  0.4639 -0.6680 -2.0991
 1094SOL     OW14740   2.599   2.565   9.848 -0.0363 -0.0684 -0.4094
 1094SOL    HW114741   2.520   2.538   9.802 -1.9600 -0.2264  2.9648
 1094SOL    HW214742   2.567   2.584   9.936 -0.1438 -1.6304 -0.1094
 1095SOL     OW14743   3.358   4.247  16.080 -0.2003 -0.0348  0.2890
 1095SOL    HW114744   3.399   4.187  16.018  0.4691  0.4240  0.2865
 1095SOL    HW214745   3.425   4.247  16.148  2.1449 -3.0387 -2.0288
 1096SOL     OW14746   3.272   3.561  10.985 -0.6122 -0.2508 -0.2457
 1096SOL    HW114747   3.325   3.482  10.981  3.0604  2.2328 -0.2322
 1096SOL    HW214748   3.223   3.557  10.904  0.5362  1.4873 -1.0136
 1097SOL     OW14749   2.724   0.464   3.687  0.5148  0.2929 -0.9604
 1097SOL    HW114750   2.692   0.495   3.602 -2.0744 -0.7177 -0.3666
 1097SOL    HW214751   2.812   0.501   3.680  1.2766 -1.1846  0.7155
 1098SOL     OW14752   1.955   4.260   3.666  0.1061  0.3734  0.4034
 1098SOL    HW114753   2.024   4.256   3.600  1.0123  0.2688  1.3592
 1098SOL    HW214754   1.919   4.346   3.643 -0.9901  0.0926  1.0697
 1099SOL     OW14755   1.784   2.780   8.061  0.1049  0.0862 -0.2349
 1099SOL    HW114756   1.735   2.858   8.034 -1.6422 -1.0531 -0.3214
 1099SOL    HW214757   1.871   2.802   8.028  0.7786 -1.3263  0.6068
 1100SOL     OW14758   2.645   0.510   9.363  0.0219  0.1333  0.1772
 1100SOL    HW114759   2.678   0.451   9.431 -0.3639 -1.5839 -1.1236
 1100SOL    HW214760   2.683   0.590   9.400 -2.2267  1.6017 -0.6748
 1101SOL     OW14761   2.485   0.890   4.924 -0.4733 -0.3779  0.1308
 1101SOL    HW114762   2.547   0.871   4.995  0.2971 -0.1350 -0.4795
 1101SOL    HW214763   2.411   0.931   4.968 -0.0069  0.7996 -0.1937
 1102SOL     OW14764   0.325   3.088   5.780  0.2218 -0.5651  0.3507
 1102SOL    HW114765   0.417   3.104   5.758  0.4492 -2.7494 -0.2982
 1102SOL    HW214766   0.321   3.117   5.871  1.1197 -0.6199  0.4088
 1103SOL     OW14767   3.018   2.982  12.524  0.2823  0.1026  0.3663
 1103SOL    HW114768   3.041   2.892  12.500 -0.3274 -0.1181  0.6103
 1103SOL    HW214769   2.969   2.967  12.604 -0.6348  1.5313  0.0671
 1104SOL     OW14770   4.583   2.971  16.014  0.5016 -0.0998  0.0133
 1104SOL    HW114771   4.571   2.899  16.076  1.2746  1.6511  2.2279
 1104SOL    HW214772   4.558   3.044  16.072 -1.0781 -1.3019  0.8444
 1105SOL     OW14773   4.660   1.821   8.895 -0.3185  0.0924  1.1355
 1105SOL    HW114774   0.003   1.796   8.827 -0.5188 -1.6951  1.6176
 1105SOL    HW214775   4.700   1.763   8.959  0.8659 -0.3838 -0.0231
 1106SOL     OW14776   3.243   0.752   1.441 -0.1726  0.0446  0.1126
 1106SOL    HW114777   3.298   0.735   1.365  0.1442  1.7111 -0.0289
 1106SOL    HW214778   3.313   0.768   1.503  1.3341 -3.3805 -0.6828
 1107SOL     OW14779   2.672   1.711  10.247 -0.0197  0.8594 -0.0972
 1107SOL    HW114780   2.677   1.787  10.189 -3.0038  1.7626  0.8175
 1107SOL    HW214781   2.594   1.669  10.209  1.6199  0.2671 -2.8338
 1108SOL     OW14782   2.911   3.997   3.202  0.3220  0.0340  0.2619
 1108SOL    HW114783   2.873   4.019   3.286 -1.5957 -0.7121 -0.4184
 1108SOL    HW214784   2.830   4.013   3.153  0.3911 -2.5227 -0.6979
 1109SOL     OW14785   4.710   3.380   3.087 -0.0744  0.6428 -0.0604
 1109SOL    HW114786   4.663   3.303   3.055 -0.0222  1.0647 -1.1399
 1109SOL    HW214787   0.061   3.388   3.023 -1.7399 -0.1830 -2.0103
 1110SOL     OW14788   2.538   2.402   4.664  0.0591 -0.0631 -0.6751
 1110SOL    HW114789   2.509   2.312   4.655 -0.2622  0.1509 -1.8011
 1110SOL    HW214790   2.584   2.408   4.748  0.6383  0.8528 -1.0565
 1111SOL     OW14791   3.175   4.703   8.220 -0.2512 -0.1123 -0.0696
 1111SOL    HW114792   3.171   4.675   8.312 -0.6004  0.4311  0.0820
 1111SOL    HW214793   3.143   4.620   8.186  0.7834  0.4888 -2.4672
 1112SOL     OW14794   4.243   0.104  14.068  0.2361 -0.0277  0.5227
 1112SOL    HW114795   4.165   0.152  14.097  0.6651  0.4558  0.8764
 1112SOL    HW214796   4.317   0.157  14.098  1.3336 -1.6179  0.6346
 1113SOL     OW14797   3.683   4.651  12.026 -0.9817 -0.0485  0.0982
 1113SOL    HW114798   3.650   4.582  12.084  1.1763  0.0116  1.3732
 1113SOL    HW214799   3.730   4.694  12.097 -0.7595  0.0408 -0.1029
 1114SOL     OW14800   2.749   0.168  15.272  0.3967 -0.3573  0.0826
 1114SOL    HW114801   2.837   0.192  15.302  1.1800 -0.3920 -2.1185
 1114SOL    HW214802   2.701   0.213  15.341 -0.6217  1.0305 -1.5262
 1115SOL     OW14803   3.399   4.229   9.436  0.2309 -0.5049  0.5002
 1115SOL    HW114804   3.304   4.223   9.448  0.2084  1.5362  1.3648
 1115SOL    HW214805   3.432   4.244   9.525 -0.4743 -0.6834  0.7853
 1116SOL     OW14806   2.234   3.123   2.318 -0.0577  0.1221 -0.2587
 1116SOL    HW114807   2.220   3.194   2.255 -2.4216 -1.2358 -1.2903
 1116SOL    HW214808   2.148   3.080   2.323  1.1354 -1.7471  3.5769
 1117SOL     OW14809   4.473   1.053   4.082 -0.4667  0.2914 -0.4972
 1117SOL    HW114810   4.546   1.108   4.110 -1.9792  1.9058  0.3067
 1117SOL    HW214811   4.448   1.112   4.011  0.9897 -1.3079 -2.3259
 1118SOL     OW14812   3.451   1.634  15.182 -0.3217  0.0834  0.3859
 1118SOL    HW114813   3.456   1.551  15.135  2.4656 -0.3109  1.3893
 1118SOL    HW214814   3.513   1.610  15.251  0.7447 -0.7825 -0.8864
 1119SOL     OW14815   3.130   4.057  15.439  0.0897 -0.8846  0.1066
 1119SOL    HW114816   3.176   3.983  15.399  1.6994  0.0698  0.2370
 1119SOL    HW214817   3.108   4.110  15.362 -0.9247  0.9542  1.6564
 1120SOL     OW14818   4.691   1.501  14.345 -0.5913  0.0802  0.0856
 1120SOL    HW114819   4.622   1.517  14.281 -0.0932 -0.0860 -0.4962
 1120SOL    HW214820   4.637   1.496  14.423 -1.1573  2.2555 -0.1827
 1121SOL     OW14821   4.095   2.639   7.958  0.1499 -0.3167  0.4385
 1121SOL    HW114822   4.172   2.583   7.947 -1.1110 -1.9564 -0.2003
 1121SOL    HW214823   4.063   2.660   7.870 -0.9244 -0.8828  0.6866
 1122SOL     OW14824   3.422   3.822   6.013  0.4599  0.1539  0.1197
 1122SOL    HW114825   3.402   3.732   5.988 -1.1882 -0.3933  3.3017
 1122SOL    HW214826   3.403   3.870   5.933 -0.3661 -0.1788  0.1138
 1123SOL     OW14827   4.471   0.831   4.887  0.1708  0.2170  0.5318
 1123SOL    HW114828   4.468   0.756   4.828  1.5463 -0.8950  1.8892
 1123SOL    HW214829   4.439   0.900   4.828  1.3440 -0.1371 -0.5126
 1124SOL     OW14830   1.007   4.389   7.811  0.3570  0.1130 -0.5980
 1124SOL    HW114831   0.992   4.457   7.877  0.7852 -0.3283 -0.0360
 1124SOL    HW214832   1.060   4.328   7.863  0.8518  0.8985 -0.1740
 1125SOL     OW14833   3.100   0.183   0.271  0.0709 -0.1216 -0.1653
 1125SOL    HW114834   3.035   0.157   0.336 -2.3222  0.9116 -2.1292
 1125SOL    HW214835   3.181   0.140   0.300  0.8938  2.2048  1.0462
 1126SOL     OW14836   4.205   2.881   2.918  0.0568 -0.0679  0.3908
 1126SOL    HW114837   4.279   2.940   2.906  0.0532 -0.0390  0.5045
 1126SOL    HW214838   4.197   2.865   3.013  0.7173  0.8681  0.5969
 1127SOL     OW14839   0.195   0.592   2.544  0.6016 -0.4577  0.1547
 1127SOL    HW114840   0.126   0.549   2.594  1.0170 -1.8400 -0.4486
 1127SOL    HW214841   0.194   0.534   2.468  0.4190 -1.0274  0.5854
 1128SOL     OW14842   4.604   3.814   4.777  0.3353  0.2166 -0.1224
 1128SOL    HW114843   4.547   3.764   4.835 -0.5015  0.1403 -1.0068
 1128SOL    HW214844   4.588   3.773   4.692 -0.5860 -0.2471  0.2702
 1129SOL     OW14845   1.310   1.817   6.931 -0.3611  0.0279  0.0060
 1129SOL    HW114846   1.311   1.858   7.017  0.1749 -0.7516  0.3717
 1129SOL    HW214847   1.320   1.895   6.876 -2.7048 -0.6098 -1.3229
 1130SOL     OW14848   4.195   0.261   2.032 -0.3660 -0.5490  0.3101
 1130SOL    HW114849   4.267   0.315   1.999  1.3836 -1.6650  2.2754
 1130SOL    HW214850   4.178   0.309   2.113 -1.2586 -0.6593  0.1836
 1131SOL     OW14851   1.250   1.788   3.137 -0.1970 -0.2494  0.1748
 1131SOL    HW114852   1.254   1.881   3.114  1.5694 -0.1875  0.7065
 1131SOL    HW214853   1.213   1.778   3.225 -1.1935  1.6408 -0.0355
 1132SOL     OW14854   3.361   1.451   8.175 -0.3361 -0.0217 -0.0909
 1132SOL    HW114855   3.350   1.516   8.105 -0.5468 -2.4458 -2.2879
 1132SOL    HW214856   3.278   1.406   8.185  0.2508 -1.0236  0.2319
 1133SOL     OW14857   0.845   3.118   7.428 -0.4715 -1.1697  0.2918
 1133SOL    HW114858   0.772   3.179   7.437  0.9367  0.6288 -0.6934
 1133SOL    HW214859   0.922   3.163   7.461 -0.7823 -1.1984  1.0740
 1134SOL     OW14860   2.878   3.591   4.910  0.0194 -0.0856 -0.6076
 1134SOL    HW114861   2.940   3.524   4.880 -1.9090 -2.0506 -0.1461
 1134SOL    HW214862   2.902   3.662   4.850 -0.2905  0.1120 -0.5002
 1135SOL     OW14863   2.536   1.504  14.147 -0.3098 -0.1420  0.2225
 1135SOL    HW114864   2.513   1.577  14.090  1.9643  1.1968  0.9765
 1135SOL    HW214865   2.629   1.528  14.158 -0.4335  0.6963 -0.5838
 1136SOL     OW14866   2.300   1.194  14.812  0.3090 -0.1883  0.1840
 1136SOL    HW114867   2.245   1.119  14.790  0.8202  0.0815 -2.1243
 1136SOL    HW214868   2.230   1.253  14.838  1.1420 -0.3858  2.7998
 1137SOL     OW14869   3.674   0.868   7.376  0.4823 -0.0728  0.4791
 1137SOL    HW114870   3.737   0.889   7.308  2.6918 -1.1414  2.2002
 1137SOL    HW214871   3.626   0.804   7.323  1.2256  0.6292 -1.0255
 1138SOL     OW14872   4.520   2.718  12.333  0.1411  0.0820 -0.6510
 1138SOL    HW114873   4.559   2.793  12.377 -1.7444  1.3234 -1.1205
 1138SOL    HW214874   4.433   2.708  12.372  1.1383  1.0751  1.8033
 1139SOL     OW14875   3.620   0.290   0.344 -0.1652 -0.3823 -0.2662
 1139SOL    HW114876   3.594   0.244   0.264 -1.9492  1.7292 -0.8894
 1139SOL    HW214877   3.714   0.294   0.324 -0.5020 -1.7566 -2.1890
 1140SOL     OW14878   4.372   2.947  15.571  0.5082 -0.2883 -0.6202
 1140SOL    HW114879   4.398   2.995  15.492 -3.4442  0.3207 -1.5483
 1140SOL    HW214880   4.368   2.858  15.534 -2.2254 -0.8153  0.9516
 1141SOL     OW14881   3.001   3.476   4.621 -0.7138  0.1344 -0.1125
 1141SOL    HW114882   3.069   3.445   4.562 -2.4715 -2.8721 -0.5789
 1141SOL    HW214883   2.973   3.394   4.663 -2.6486  0.6782 -0.3187
 1142SOL     OW14884   1.204   0.324   3.820  0.4562  0.1595 -0.5396
 1142SOL    HW114885   1.115   0.306   3.851  0.3391  1.3661 -0.1714
 1142SOL    HW214886   1.228   0.235   3.795  1.0745  0.5709 -1.4325
 1143SOL     OW14887   2.525   2.828   4.226  0.6993 -0.0265  0.4257
 1143SOL    HW114888   2.444   2.859   4.267  1.3702 -1.5291  2.8943
 1143SOL    HW214889   2.488   2.779   4.152 -0.0077  0.8770  0.1884
 1144SOL     OW14890   2.770   2.139   8.047 -0.4990  0.0195 -0.3297
 1144SOL    HW114891   2.686   2.104   8.015 -0.0550  0.0098 -1.4764
 1144SOL    HW214892   2.832   2.114   7.979 -0.1298 -0.6278  0.2506
 1145SOL     OW14893   1.441   0.302   5.668 -0.1321  0.1120  0.5880
 1145SOL    HW114894   1.371   0.274   5.609  1.1221  1.0762 -1.3558
 1145SOL    HW214895   1.458   0.390   5.634  0.1103 -0.2140 -0.1410
 1146SOL     OW14896   3.269   4.632  16.291 -0.1719  0.2911 -0.2649
 1146SOL    HW114897   3.184   4.674  16.305 -0.7965 -0.4623 -1.8084
 1146SOL    HW214898   3.280   4.654  16.199 -0.6148  0.9713 -0.1606
 1147SOL     OW14899   2.605   4.535   1.510  0.6956  0.4180  0.1811
 1147SOL    HW114900   2.672   4.526   1.443 -0.3653 -2.3208 -0.5132
 1147SOL    HW214901   2.590   4.630   1.509 -0.2185  0.2817  0.9608
 1148SOL     OW14902   3.312   4.013   3.650  0.5547  0.3801 -0.3194
 1148SOL    HW114903   3.287   4.105   3.652 -0.0384  0.1813  2.3182
 1148SOL    HW214904   3.402   4.018   3.617  1.0066 -0.2493  0.7964
 1149SOL     OW14905   0.162   4.053   3.583 -0.4974 -0.3759 -0.5634
 1149SOL    HW114906   0.246   4.012   3.563 -0.6576 -0.4364 -1.1025
 1149SOL    HW214907   0.167   4.128   3.523 -0.4759  1.1403  1.3372
 1150SOL     OW14908   2.751   1.289   8.021 -0.1075 -0.6525 -0.6476
 1150SOL    HW114909   2.746   1.365   7.963  2.7897 -1.1642 -1.5710
 1150SOL    HW214910   2.664   1.262   8.049  0.1192 -0.4538  0.2327
 1151SOL     OW14911   3.334   1.585   2.919  0.2474  0.1433  0.7521
 1151SOL    HW114912   3.382   1.578   2.837  2.4446  1.5581  1.8905
 1151SOL    HW214913   3.387   1.540   2.986 -1.4979 -1.4734  1.0394
 1152SOL     OW14914   1.457   0.715   8.319  0.0765 -0.4403 -0.2978
 1152SOL    HW114915   1.453   0.665   8.400 -1.0402 -1.0174 -0.7025
 1152SOL    HW214916   1.391   0.660   8.276 -0.5894 -0.3801  0.6535
 1153SOL     OW14917   3.971   1.932   6.728  0.3120  0.4485  1.2334
 1153SOL    HW114918   3.895   1.962   6.779 -1.3750  0.2035 -1.1324
 1153SOL    HW214919   4.044   1.954   6.786  2.3245  2.6387 -2.1543
 1154SOL     OW14920   1.210   1.408   0.486  0.2331 -0.0047  0.3901
 1154SOL    HW114921   1.120   1.398   0.515  0.4589  4.6216  2.6938
 1154SOL    HW214922   1.247   1.333   0.533 -0.7744  0.1809  1.4548
 1155SOL     OW14923   1.851   4.016   5.338  0.7356  0.1282 -0.0662
 1155SOL    HW114924   1.878   3.981   5.423 -1.7193  0.0101  0.6744
 1155SOL    HW214925   1.834   4.106   5.364  3.5634  0.6984 -0.2416
 1156SOL     OW14926   3.876   2.908   4.653 -0.1488  0.3737  0.6029
 1156SOL    HW114927   3.891   2.839   4.589 -2.3024 -1.1631  1.7475
 1156SOL    HW214928   3.958   2.905   4.703  1.0258  2.3112 -1.2443
 1157SOL     OW14929   0.901   3.952   2.436 -0.0525 -0.1477 -0.0283
 1157SOL    HW114930   0.877   3.859   2.439  0.7525 -0.3207  1.2276
 1157SOL    HW214931   0.945   3.968   2.353 -1.7050  0.1392 -0.8536
 1158SOL     OW14932   1.512   3.983   2.253  0.0812  0.1014 -0.4556
 1158SOL    HW114933   1.443   3.983   2.319 -0.1121 -0.1630 -0.6570
 1158SOL    HW214934   1.548   3.901   2.286  0.2817  1.0859  1.8076
 1159SOL     OW14935   4.374   0.647   1.372 -0.2407  0.0775 -0.0815
 1159SOL    HW114936   4.373   0.567   1.425  0.0026  0.9775  1.2859
 1159SOL    HW214937   4.450   0.688   1.412 -1.0470  0.2078  1.3004
 1160SOL     OW14938   0.473   1.359   7.544 -0.5939  0.7018  0.6096
 1160SOL    HW114939   0.523   1.343   7.464  0.3205  1.9357  0.9505
 1160SOL    HW214940   0.541   1.338   7.608  2.0611  2.1255 -1.7666
 1161SOL     OW14941   1.181   0.167   8.316 -0.0592  0.2590 -0.1015
 1161SOL    HW114942   1.215   0.203   8.398 -1.7146 -1.0843  1.1629
 1161SOL    HW214943   1.251   0.112   8.281  0.3389 -0.6546  2.0899
 1162SOL     OW14944   2.856   2.667   2.477  0.4480 -0.1049  0.1551
 1162SOL    HW114945   2.772   2.704   2.450  1.3331  0.5337 -1.7254
 1162SOL    HW214946   2.827   2.625   2.558  1.0561  0.1524  0.5114
 1163SOL     OW14947   3.232   0.852  10.075 -0.5504 -0.1261  0.2564
 1163SOL    HW114948   3.262   0.772  10.118  2.6055  1.4996  1.0713
 1163SOL    HW214949   3.171   0.813  10.012 -0.0629  1.7548 -1.3630
 1164SOL     OW14950   3.344   0.410   6.303  0.0520  0.6589 -0.0624
 1164SOL    HW114951   3.270   0.357   6.332 -1.9461  1.4570 -3.6193
 1164SOL    HW214952   3.304   0.453   6.227  0.5302  1.1441 -0.0357
 1165SOL     OW14953   2.212   2.098  14.357  0.2153  0.0564 -0.0900
 1165SOL    HW114954   2.256   2.027  14.311 -3.4566 -0.6935 -2.4785
 1165SOL    HW214955   2.274   2.169  14.372  0.8133 -0.9288  2.0655
 1166SOL     OW14956   1.501   0.315   0.382  0.5083  0.2462 -0.1621
 1166SOL    HW114957   1.558   0.392   0.381 -1.0732  1.3886 -0.6903
 1166SOL    HW214958   1.442   0.328   0.456 -0.0955  0.1879 -0.6334
 1167SOL     OW14959   4.008   4.701   4.696  0.0354  0.7689 -0.6514
 1167SOL    HW114960   3.939   0.037   4.732 -1.1026 -1.1463  0.1985
 1167SOL    HW214961   4.082   0.038   4.718 -0.0961 -0.1189  2.1410
 1168SOL     OW14962   2.754   4.222   9.742 -0.6280 -0.2229 -0.4673
 1168SOL    HW114963   2.809   4.300   9.743 -0.0467 -0.6473  0.9499
 1168SOL    HW214964   2.674   4.255   9.783  0.9603  1.9817  0.8342
 1169SOL     OW14965   4.663   2.362  10.937  0.1575  0.3911  0.9099
 1169SOL    HW114966   4.719   2.402  11.003 -1.0689  1.3755  1.3678
 1169SOL    HW214967   4.609   2.440  10.918  0.0808  0.1258  0.0561
 1170SOL     OW14968   1.443   0.761   3.911  0.5011 -0.1139 -0.0517
 1170SOL    HW114969   1.374   0.712   3.867  1.2274  1.0509 -2.5148
 1170SOL    HW214970   1.499   0.792   3.839 -0.0408  0.7704 -0.1015
 1171SOL     OW14971   2.506   2.535   2.476 -0.0766  0.6821  0.1413
 1171SOL    HW114972   2.549   2.555   2.393  0.8825  1.8493  0.9296
 1171SOL    HW214973   2.584   2.545   2.530  1.1654 -0.7345 -1.4004
 1172SOL     OW14974   3.404   4.347  17.486  0.7025  0.2642  0.8442
 1172SOL    HW114975   3.387   4.266  17.534 -3.5245  0.1790 -0.7219
 1172SOL    HW214976   3.498   4.338  17.473  0.8539  1.7814  0.9171
 1173SOL     OW14977   2.552   0.795  15.988  0.0779  0.0107  0.7779
 1173SOL    HW114978   2.576   0.886  16.003  0.2072  0.0466  0.3526
 1173SOL    HW214979   2.622   0.759  15.934 -0.7553 -1.1074  0.4301
 1174SOL     OW14980   4.145   2.965   5.169 -0.0817  0.2376 -0.8031
 1174SOL    HW114981   4.052   2.986   5.182 -0.4721 -2.3956  0.7520
 1174SOL    HW214982   4.186   3.040   5.213 -0.8841 -0.1895  0.6767
 1175SOL     OW14983   0.088   4.170  11.491 -0.0497  0.4513  0.3965
 1175SOL    HW114984   0.164   4.222  11.516  0.9570  0.0396 -1.8126
 1175SOL    HW214985   0.089   4.106  11.562 -0.0292  1.9832  1.7643
 1176SOL     OW14986   2.962   0.947   5.625 -0.7219  0.5987 -0.5729
 1176SOL    HW114987   3.000   0.865   5.656 -1.5573  0.8183  1.0806
 1176SOL    HW214988   3.004   0.948   5.540 -0.7213  0.7171 -0.5713
 1177SOL     OW14989   3.937   0.321  11.130 -0.5640 -0.0693  0.2226
 1177SOL    HW114990   3.884   0.343  11.207 -3.1353 -1.7458 -1.0410
 1177SOL    HW214991   3.990   0.399  11.120  1.7467 -1.6869 -0.0633
 1178SOL     OW14992   4.552   2.637  14.424  0.5358  0.3409  0.1902
 1178SOL    HW114993   4.566   2.545  14.443  0.8853  0.6917  1.6446
 1178SOL    HW214994   4.545   2.629  14.329  1.2542  1.8826  0.0042
 1179SOL     OW14995   3.053   4.182   8.793 -0.3695  0.1963 -0.0540
 1179SOL    HW114996   3.081   4.091   8.791  0.7525  0.5291  0.7102
 1179SOL    HW214997   3.024   4.174   8.884 -0.6509  1.3272 -0.0452
 1180SOL     OW14998   1.970   2.962   1.701  0.3191  0.3308 -0.6367
 1180SOL    HW114999   1.995   2.870   1.693 -1.0797  0.1541 -3.1730
 1180SOL    HW215000   1.999   2.995   1.616 -1.6012  1.4151 -0.8707
 1181SOL     OW15001   1.863   4.075   5.065  0.4485 -0.5151  0.3444
 1181SOL    HW115002   1.777   4.039   5.040 -0.7163  2.1759  0.5342
 1181SOL    HW215003   1.868   4.048   5.157  0.7887 -1.6433 -0.0040
 1182SOL     OW15004   1.190   0.066  13.886 -0.0842  0.3159 -0.5581
 1182SOL    HW115005   1.192   4.694  13.911  0.2569  0.4275 -0.1682
 1182SOL    HW215006   1.143   0.096  13.964  0.4798  0.2462 -0.1896
 1183SOL     OW15007   0.833   1.803   7.213 -0.3549 -0.2168  0.0879
 1183SOL    HW115008   0.902   1.763   7.160 -1.0414 -1.7626  0.3551
 1183SOL    HW215009   0.772   1.730   7.229  0.4865 -0.2973  2.7801
 1184SOL     OW15010   0.716   2.875   7.555  0.1285  0.3762 -0.0078
 1184SOL    HW115011   0.755   2.842   7.636 -0.6460 -2.0499 -0.6224
 1184SOL    HW215012   0.769   2.953   7.537 -0.7428  0.5006 -2.0926
 1185SOL     OW15013   2.180   2.642  11.507 -0.8211  0.2170  0.0024
 1185SOL    HW115014   2.161   2.604  11.593 -1.3131 -0.3312 -0.3469
 1185SOL    HW215015   2.100   2.694  11.504 -1.0709 -0.1281  0.6991
 1186SOL     OW15016   2.919   0.345  13.400 -0.4456  0.1821 -0.3477
 1186SOL    HW115017   2.923   0.309  13.311 -1.1137  0.9637 -0.6918
 1186SOL    HW215018   2.830   0.380  13.398 -1.3846 -2.3001 -2.8195
 1187SOL     OW15019   3.393   4.168  11.408 -0.2448  0.1251  0.7125
 1187SOL    HW115020   3.372   4.151  11.316 -2.2308  1.2429  0.9570
 1187SOL    HW215021   3.386   4.078  11.442  3.2760  0.1977  1.6194
 1188SOL     OW15022   2.272   0.148   1.658 -0.1570  0.6384 -0.1932
 1188SOL    HW115023   2.304   0.194   1.736  1.0126  1.3589 -1.1109
 1188SOL    HW215024   2.205   0.204   1.619  0.3955  1.1517 -0.3928
 1189SOL     OW15025   0.538   3.749   3.892 -0.1533 -0.2367 -0.3616
 1189SOL    HW115026   0.527   3.822   3.831  0.4736 -0.7392 -1.0673
 1189SOL    HW215027   0.445   3.743   3.916  0.1099 -0.0649  0.6973
 1190SOL     OW15028   0.179   4.026   7.929 -0.6097  0.2087  0.4917
 1190SOL    HW115029   0.139   3.939   7.917  1.3809 -0.8970  1.9210
 1190SOL    HW215030   0.186   4.036   8.024 -0.0488 -0.1943  0.4920
 1191SOL     OW15031   0.309   0.500   5.190  0.2249  0.1876  0.3414
 1191SOL    HW115032   0.322   0.411   5.158  0.2977  0.4900 -0.4791
 1191SOL    HW215033   0.321   0.496   5.285  0.6488 -2.8649  0.1567
 1192SOL     OW15034   2.157   3.782   7.451  0.0085  0.2596  0.2352
 1192SOL    HW115035   2.195   3.866   7.428  0.6813  0.2960  1.4687
 1192SOL    HW215036   2.169   3.728   7.373  0.0221  1.1495 -0.3673
 1193SOL     OW15037   4.045   0.270   6.083 -0.1509  0.9081  0.7545
 1193SOL    HW115038   3.975   0.307   6.138 -0.3584  2.0419 -0.2760
 1193SOL    HW215039   4.057   0.181   6.115  0.4609  0.9420  0.6195
 1194SOL     OW15040   2.003   3.759   4.613  0.8360 -0.2364  0.3953
 1194SOL    HW115041   2.093   3.758   4.580  0.6724 -0.5154 -0.0254
 1194SOL    HW215042   2.007   3.697   4.685 -1.1955  0.8227  1.4423
 1195SOL     OW15043   4.093   3.642   5.944 -0.0957 -0.5321 -0.1710
 1195SOL    HW115044   4.102   3.557   5.899 -1.6262 -0.6986 -0.1628
 1195SOL    HW215045   4.023   3.680   5.890  0.8610 -0.7798 -1.5948
 1196SOL     OW15046   3.255   2.811   5.859  0.4323 -0.5657  0.1269
 1196SOL    HW115047   3.206   2.877   5.907  1.3174 -0.4360  0.8588
 1196SOL    HW215048   3.196   2.782   5.789  0.4799 -0.6879  0.1379
 1197SOL     OW15049   3.848   1.651   5.548  0.3345  0.0153 -0.2927
 1197SOL    HW115050   3.771   1.646   5.604  0.2424  3.0118 -0.1378
 1197SOL    HW215051   3.922   1.683   5.600  1.1676 -1.4074 -0.5850
 1198SOL     OW15052   4.096   0.821  16.099  0.1603 -0.2096 -0.3649
 1198SOL    HW115053   4.155   0.748  16.079  2.2272  1.2933  0.2455
 1198SOL    HW215054   4.062   0.837  16.011 -0.5111  0.4560  0.0158
 1199SOL     OW15055   4.411   2.496   6.616  0.0775 -0.0080  1.1979
 1199SOL    HW115056   4.489   2.443   6.631 -0.1550 -1.3740 -2.5150
 1199SOL    HW215057   4.368   2.477   6.699  0.8708  1.1445  1.8783
 1200SOL     OW15058   0.917   0.356  11.418  0.0513 -0.5216  0.2851
 1200SOL    HW115059   0.888   0.363  11.509  1.7326 -1.4548  0.9057
 1200SOL    HW215060   1.010   0.381  11.424  1.2053 -4.8656  0.2268
 1201SOL     OW15061   2.208   1.230   4.287  0.3470  0.2485 -0.3662
 1201SOL    HW115062   2.274   1.247   4.220 -0.8660 -0.6546 -1.7952
 1201SOL    HW215063   2.156   1.311   4.281  0.0823  0.0580 -0.6707
 1202SOL     OW15064   2.973   2.060   3.583  0.4635 -0.1590  0.8196
 1202SOL    HW115065   3.065   2.035   3.590  0.9842  1.2165 -1.0655
 1202SOL    HW215066   2.969   2.117   3.659 -3.2454 -1.7807  1.8422
 1203SOL     OW15067   1.082   2.038  17.161 -0.5704  0.0618 -0.3108
 1203SOL    HW115068   1.016   2.091  17.205  0.7679  0.2467  1.4935
 1203SOL    HW215069   1.167   2.068  17.195 -0.3045  0.5800 -1.4237
 1204SOL     OW15070   0.875   0.453   7.987 -0.0841 -0.6879  0.2716
 1204SOL    HW115071   0.949   0.393   7.993  0.4265 -0.3624 -2.5326
 1204SOL    HW215072   0.806   0.391   8.009  0.2222 -0.3684  2.0875
 1205SOL     OW15073   3.026   2.311   8.150 -0.3211 -0.5464  0.0375
 1205SOL    HW115074   3.020   2.406   8.157  2.1535 -0.4264  0.5020
 1205SOL    HW215075   3.110   2.306   8.194 -0.0174 -0.2035 -0.5165
 1206SOL     OW15076   3.399   0.939   8.469 -0.1856 -0.0164  0.0957
 1206SOL    HW115077   3.400   0.914   8.562 -2.5821  3.4534  1.0558
 1206SOL    HW215078   3.404   0.846   8.448  0.7160  0.5549 -2.2469
 1207SOL     OW15079   2.112   2.545  11.748  0.0353 -0.0632 -0.5445
 1207SOL    HW115080   2.103   2.610  11.817  0.2797 -1.7984  1.1187
 1207SOL    HW215081   2.164   2.479  11.794 -0.0066  0.6879  0.5793
 1208SOL     OW15082   0.593   3.733   5.355 -0.7943 -0.5860 -0.2068
 1208SOL    HW115083   0.654   3.704   5.287  1.8070 -1.5414  2.5196
 1208SOL    HW215084   0.592   3.828   5.344 -0.6285 -0.6117 -0.4538
 1209SOL     OW15085   0.306   0.972   7.733  0.2177  0.3087  0.5500
 1209SOL    HW115086   0.360   0.899   7.764 -0.3850 -0.3680  0.0283
 1209SOL    HW215087   0.223   0.930   7.711 -0.7818  1.1195  2.8440
 1210SOL     OW15088   2.649   1.252   5.229  0.3099 -1.0089 -0.6541
 1210SOL    HW115089   2.644   1.286   5.318 -1.8083  2.2255 -1.9698
 1210SOL    HW215090   2.566   1.205   5.222  0.3026 -1.2540  1.1762
 1211SOL     OW15091   3.041   1.762  16.769 -0.1842  0.2984  0.0787
 1211SOL    HW115092   3.062   1.770  16.862  0.1407 -1.5653  0.1701
 1211SOL    HW215093   3.005   1.848  16.748  0.1648  0.4831  0.2373
 1212SOL     OW15094   1.432   4.543   8.950  0.1619  0.0383  0.0920
 1212SOL    HW115095   1.384   4.478   9.001 -0.5155 -0.1351 -0.7723
 1212SOL    HW215096   1.401   4.518   8.863  0.3144  2.1904 -0.5766
 1213SOL     OW15097   0.873   2.675   6.121  0.7794  0.3834 -0.1396
 1213SOL    HW115098   0.955   2.671   6.072  0.1940  1.9181 -1.2617
 1213SOL    HW215099   0.815   2.709   6.052 -1.6180  1.0929  2.2298
 1214SOL     OW15100   3.188   2.235  12.164  0.5083  0.3805 -0.1841
 1214SOL    HW115101   3.171   2.168  12.098  3.1165  0.9446 -1.4536
 1214SOL    HW215102   3.226   2.181  12.234 -0.2142 -1.1079 -0.9472
 1215SOL     OW15103   0.269   4.271   5.386 -0.7962  0.4838  0.3702
 1215SOL    HW115104   0.200   4.232   5.439 -0.6904  2.3401  1.8800
 1215SOL    HW215105   0.244   4.362   5.406 -2.0345  0.5137 -1.2887
 1216SOL     OW15106   3.926   4.084  16.840 -0.2465 -0.3538 -0.0326
 1216SOL    HW115107   3.909   3.992  16.822 -2.2552  0.2732 -1.3078
 1216SOL    HW215108   3.873   4.089  16.920 -0.6791 -0.0190 -0.3428
 1217SOL     OW15109   1.192   4.381  10.190  0.2401  0.3031 -0.1510
 1217SOL    HW115110   1.245   4.380  10.110  0.1834 -2.2581 -0.1641
 1217SOL    HW215111   1.234   4.434  10.257 -0.5559 -0.0458  0.6227
 1218SOL     OW15112   4.376   0.362   6.150  0.0820  0.1706 -0.6813
 1218SOL    HW115113   4.283   0.359   6.176 -0.0124  1.2479 -0.8642
 1218SOL    HW215114   4.426   0.367   6.231 -0.1322 -0.6982 -0.5013
 1219SOL     OW15115   0.819   2.807   2.558  0.1819  0.0343 -0.4989
 1219SOL    HW115116   0.894   2.849   2.517  0.2992 -0.9775 -1.3054
 1219SOL    HW215117   0.821   2.716   2.530  0.4743 -0.7783  2.0928
 1220SOL     OW15118   2.721   4.410   5.694  0.5769  0.2656  0.2847
 1220SOL    HW115119   2.796   4.468   5.681  0.8489 -0.0026  0.6702
 1220SOL    HW215120   2.757   4.329   5.660  1.3606  0.1231  1.4496
 1221SOL     OW15121   0.717   0.231  11.305  0.7269 -0.2428 -0.2091
 1221SOL    HW115122   0.788   0.276  11.350  2.1756 -2.3588 -0.3858
 1221SOL    HW215123   0.768   0.192  11.234 -1.2524 -1.0063 -1.2073
 1222SOL     OW15124   4.515   0.713   5.721 -0.2082 -0.3528 -0.1227
 1222SOL    HW115125   4.538   0.647   5.786  2.9709 -0.1809 -1.0842
 1222SOL    HW215126   4.573   0.680   5.653  0.2300 -1.2117  0.6682
 1223SOL     OW15127   1.043   1.320   1.490 -0.0431 -0.1773  0.2272
 1223SOL    HW115128   1.013   1.294   1.403  1.2225 -2.8600  0.5915
 1223SOL    HW215129   1.093   1.397   1.465 -1.0411  0.3645 -0.0711
 1224SOL     OW15130   3.642   0.240   8.729 -0.1869  0.6358  0.1463
 1224SOL    HW115131   3.551   0.254   8.701 -0.3055 -1.9522 -0.7545
 1224SOL    HW215132   3.667   0.161   8.682  0.1710  1.4894 -1.1051
 1225SOL     OW15133   4.606   2.313   7.106 -0.1368 -0.8092  0.0563
 1225SOL    HW115134   4.676   2.259   7.142 -0.7921 -2.2704 -0.8472
 1225SOL    HW215135   4.599   2.378   7.176 -0.8409 -0.2812 -0.5056
 1226SOL     OW15136   2.008   4.665   3.722  0.3187  0.2431  0.2217
 1226SOL    HW115137   1.950   4.600   3.683  0.2222  0.4703 -0.0180
 1226SOL    HW215138   2.094   4.628   3.703  0.3914 -1.4925  3.8746
 1227SOL     OW15139   1.231   0.824   4.541  0.1809 -0.2653 -0.4815
 1227SOL    HW115140   1.255   0.915   4.524 -0.2487  0.1963  1.3406
 1227SOL    HW215141   1.318   0.796   4.571  0.2036  1.9888  1.6345
 1228SOL     OW15142   0.252   0.790   4.903 -0.8423 -0.0695  0.8770
 1228SOL    HW115143   0.181   0.823   4.958 -1.1346  0.3447  0.2528
 1228SOL    HW215144   0.256   0.866   4.845 -0.1380 -1.1786 -0.5379
 1229SOL     OW15145   0.453   0.835   2.804 -0.1451  0.0881  0.2024
 1229SOL    HW115146   0.445   0.929   2.783  0.4779  0.1473  0.2416
 1229SOL    HW215147   0.403   0.838   2.885  0.6578 -1.4964  0.7350
 1230SOL     OW15148   2.213   4.672   9.020 -0.1886 -0.3750 -0.3629
 1230SOL    HW115149   2.169   4.672   9.105  1.8329 -0.2336  0.6820
 1230SOL    HW215150   2.154   0.006   8.968 -1.0592  0.2577  1.2900
 1231SOL     OW15151   0.705   0.689   2.841  0.1939  0.3540 -0.5415
 1231SOL    HW115152   0.742   0.729   2.920 -2.0185 -0.4525  0.8732
 1231SOL    HW215153   0.613   0.715   2.839 -0.6038 -2.2577  2.7371
 1232SOL     OW15154   0.278   3.460   0.181 -0.3842  0.1709  0.0182
 1232SOL    HW115155   0.302   3.414   0.261  0.6158  2.8965  1.2895
 1232SOL    HW215156   0.205   3.405   0.152  0.5267  0.1494 -2.2742
 1233SOL     OW15157   0.921   1.359   6.829  0.0135 -0.0547 -0.5192
 1233SOL    HW115158   0.900   1.452   6.843 -1.2703 -0.3951 -0.2169
 1233SOL    HW215159   0.999   1.360   6.884  0.2509 -0.5445 -0.8489
 1234SOL     OW15160   2.342   2.690   5.161  0.3773  0.2853  0.5917
 1234SOL    HW115161   2.351   2.759   5.096 -0.8570  0.5560  0.7194
 1234SOL    HW215162   2.372   2.737   5.239 -1.4447  0.1989  1.3511
 1235SOL     OW15163   1.567   3.595  12.664 -0.0260 -0.2731  0.5281
 1235SOL    HW115164   1.514   3.522  12.698 -0.6490  0.6867  1.5936
 1235SOL    HW215165   1.640   3.536  12.643  0.6594  1.0898 -0.8371
 1236SOL     OW15166   4.229   3.906   7.006 -0.6606  0.1771  0.0052
 1236SOL    HW115167   4.209   3.870   7.093 -0.1099  0.1589  0.1222
 1236SOL    HW215168   4.148   3.949   6.980 -1.4153  0.9065  3.5317
 1237SOL     OW15169   2.004   4.567  16.605 -0.4724 -0.0453  0.2205
 1237SOL    HW115170   2.035   4.581  16.695 -2.3721 -0.1832  0.9133
 1237SOL    HW215171   2.070   4.509  16.567 -0.0667  0.4147  0.2255
 1238SOL     OW15172   1.276   0.954   1.987  0.2682  0.4632  0.9531
 1238SOL    HW115173   1.298   1.046   1.972 -1.4405  1.0809  2.2801
 1238SOL    HW215174   1.201   0.948   1.928 -0.8481 -0.3105  2.4464
 1239SOL     OW15175   0.226   4.304   6.607  0.1619  0.1657  0.0894
 1239SOL    HW115176   0.260   4.333   6.522  0.5439  1.1008  0.5689
 1239SOL    HW215177   0.229   4.390   6.648 -0.6537 -0.3480  1.2167
 1240SOL     OW15178   0.692   0.290   4.243 -0.1697  0.0885  0.2304
 1240SOL    HW115179   0.703   0.206   4.197  2.9713 -0.0623  1.2600
 1240SOL    HW215180   0.617   0.320   4.192  0.7048  1.1292 -0.4312
 1241SOL     OW15181   0.522   0.361   3.236  0.3273 -0.3536 -0.3961
 1241SOL    HW115182   0.508   0.355   3.331  2.3653  1.1096 -0.0274
 1241SOL    HW215183   0.472   0.442   3.221 -0.1057 -1.0226 -2.5910
 1242SOL     OW15184   3.185   2.126   2.330  0.3736 -0.3881  0.3278
 1242SOL    HW115185   3.206   2.078   2.410  2.0844 -2.2005 -1.2131
 1242SOL    HW215186   3.276   2.156   2.327 -0.3017  1.5950  0.0540
 1243SOL     OW15187   3.070   2.275   5.766  0.1988 -0.5472 -0.1873
 1243SOL    HW115188   3.103   2.329   5.837 -2.8359  1.5674 -0.3735
 1243SOL    HW215189   3.003   2.226   5.813 -0.5127 -0.2361 -0.8723
 1244SOL     OW15190   3.891   1.357   7.023 -0.0948  0.2647  0.1823
 1244SOL    HW115191   3.953   1.384   6.956 -2.0223  0.6200 -1.4696
 1244SOL    HW215192   3.938   1.389   7.101  0.7263  0.6199 -0.4607
 1245SOL     OW15193   2.946   3.023  12.959  0.0163 -0.2886  0.6782
 1245SOL    HW115194   2.893   3.004  12.881 -0.0415  2.4046  0.0586
 1245SOL    HW215195   3.032   3.024  12.916 -0.7676  0.3533 -0.9069
 1246SOL     OW15196   4.475   1.225   3.046  0.2623 -0.1889 -0.1146
 1246SOL    HW115197   4.569   1.242   3.045  0.3510 -0.7453 -1.3130
 1246SOL    HW215198   4.469   1.143   3.095  0.9942 -1.2400 -1.7944
 1247SOL     OW15199   4.465   2.813   2.728  0.4654  0.1223 -0.1132
 1247SOL    HW115200   4.518   2.891   2.713  0.1376  0.5714  1.0805
 1247SOL    HW215201   4.430   2.843   2.811 -0.1852  1.7615 -0.9883
 1248SOL     OW15202   3.500   3.466   1.773  0.2847 -0.0546  0.5920
 1248SOL    HW115203   3.522   3.417   1.693  0.8139 -0.6779  1.1139
 1248SOL    HW215204   3.590   3.470   1.806  0.2860 -1.8408  0.8032
 1249SOL     OW15205   0.083   2.176  10.790  0.8268  0.3340  0.0287
 1249SOL    HW115206   0.147   2.185  10.861  0.8495  1.0312 -0.0822
 1249SOL    HW215207   0.020   2.237  10.830  1.4078  0.8837  0.1055
 1250SOL     OW15208   0.451   3.490   5.392 -0.0025 -0.2558  0.2171
 1250SOL    HW115209   0.529   3.539   5.370 -1.1326  1.6650  0.4716
 1250SOL    HW215210   0.464   3.419   5.330  0.8939 -0.7469  0.9742
 1251SOL     OW15211   1.081   1.835  10.740  0.0581  0.2963 -0.2250
 1251SOL    HW115212   1.176   1.847  10.740  0.1720 -0.6894  0.9267
 1251SOL    HW215213   1.053   1.815  10.829  0.4513 -0.6594 -0.3146
 1252SOL     OW15214   1.444   0.467   4.573  0.1367 -0.1122  0.2285
 1252SOL    HW115215   1.391   0.402   4.527  1.8247 -0.1652 -1.6167
 1252SOL    HW215216   1.429   0.432   4.661  1.0760 -0.2420  0.3337
 1253SOL     OW15217   0.548   2.651  16.006  0.1233  0.2253 -0.4203
 1253SOL    HW115218   0.631   2.696  15.991  1.0403 -0.7046  1.8498
 1253SOL    HW215219   0.486   2.718  15.979 -0.7051 -0.0327  0.8379
 1254SOL     OW15220   1.976   3.994   7.940 -0.3214 -0.4459 -0.1571
 1254SOL    HW115221   1.921   3.949   7.876  0.6520  0.5840 -1.6881
 1254SOL    HW215222   1.918   4.068   7.959 -0.6930 -0.8263  0.2245
 1255SOL     OW15223   1.786   0.792   4.796  0.2365  0.8837 -0.0700
 1255SOL    HW115224   1.805   0.770   4.704 -0.8374 -0.0728 -0.0581
 1255SOL    HW215225   1.716   0.856   4.785  0.2060  1.0630  1.2147
 1256SOL     OW15226   4.062   0.942  10.480  0.0429  0.3461  0.3949
 1256SOL    HW115227   4.034   0.853  10.459  0.6492  0.6437 -1.6574
 1256SOL    HW215228   4.138   0.920  10.533 -0.7966 -1.1784  0.9578
 1257SOL     OW15229   0.704   2.886   6.750 -0.2613  0.8657 -0.2453
 1257SOL    HW115230   0.766   2.953   6.721 -0.6299  1.6380  0.7479
 1257SOL    HW215231   0.752   2.846   6.822  0.6112 -0.2755 -1.4440
 1258SOL     OW15232   3.070   4.193   6.844 -0.1550  0.2355 -0.0952
 1258SOL    HW115233   3.164   4.187   6.865 -0.0219 -1.2936 -1.1403
 1258SOL    HW215234   3.033   4.105   6.856 -1.3205  0.7065 -0.2886
 1259SOL     OW15235   2.432   4.533   5.585 -0.1696 -0.7772  0.3402
 1259SOL    HW115236   2.466   4.476   5.654  0.5964 -1.6029 -0.7215
 1259SOL    HW215237   2.389   4.478   5.520 -0.5933  0.6250 -0.5513
 1260SOL     OW15238   4.278   3.478   9.328 -0.3088  0.4340  0.4375
 1260SOL    HW115239   4.263   3.560   9.281  0.9327  0.6495  0.4117
 1260SOL    HW215240   4.204   3.422   9.303  0.3033  0.2786 -1.0501
 1261SOL     OW15241   1.366   0.859   7.506  0.3837  0.6119 -0.0730
 1261SOL    HW115242   1.386   0.766   7.515  0.7065  0.7713  0.8920
 1261SOL    HW215243   1.435   0.894   7.562 -1.3310  0.1801  2.3040
 1262SOL     OW15244   0.910   2.341   1.220  0.1246 -0.7771  0.4113
 1262SOL    HW115245   0.977   2.409   1.213  0.2930 -1.0904 -1.0274
 1262SOL    HW215246   0.861   2.352   1.138  3.3144  4.1882 -0.8085
 1263SOL     OW15247   3.554   3.928   4.463  0.0239 -0.4296  0.5071
 1263SOL    HW115248   3.649   3.931   4.452 -0.1146 -0.7785 -0.7098
 1263SOL    HW215249   3.527   3.868   4.394  1.5260 -0.9970  0.4057
 1264SOL     OW15250   2.828   1.431   5.505 -0.7062 -0.0156 -0.6290
 1264SOL    HW115251   2.854   1.513   5.462  0.2189  0.5137  0.9131
 1264SOL    HW215252   2.865   1.360   5.453 -0.2244  0.8870 -1.5327
 1265SOL     OW15253   3.347   3.839   9.776 -0.3545  0.2310 -0.1149
 1265SOL    HW115254   3.299   3.921   9.790 -0.2543  0.4797 -1.3000
 1265SOL    HW215255   3.370   3.809   9.864 -0.7105 -3.6152 -1.3222
 1266SOL     OW15256   3.319   4.710   2.195 -0.4220  0.3374  0.2273
 1266SOL    HW115257   3.363   0.044   2.261  0.3256  1.1155 -0.9124
 1266SOL    HW215258   3.368   4.628   2.192  0.0237  0.6164 -0.0506
 1267SOL     OW15259   3.182   3.110  14.272 -0.2397 -0.3557 -0.8652
 1267SOL    HW115260   3.270   3.141  14.248 -1.1953  1.8636 -1.5100
 1267SOL    HW215261   3.146   3.072  14.192 -1.1126 -1.4321  0.0356
 1268SOL     OW15262   2.953   3.691   8.053  0.6275 -0.3565  0.1757
 1268SOL    HW115263   2.928   3.653   8.137  0.4828 -0.3812  0.1212
 1268SOL    HW215264   3.048   3.702   8.059  0.4407  2.1280 -1.1542
 1269SOL     OW15265   4.574   3.322   9.739 -0.1220  0.1924  0.4285
 1269SOL    HW115266   4.496   3.317   9.684 -1.0053 -0.4537  1.7340
 1269SOL    HW215267   4.575   3.405   9.786  1.5398  0.0930  0.5528
 1270SOL     OW15268   2.553   0.239   6.271 -0.2680  0.3595 -0.2111
 1270SOL    HW115269   2.601   0.249   6.352  0.8741  1.2227 -0.9890
 1270SOL    HW215270   2.573   0.317   6.218 -2.6394 -0.3778 -2.2448
 1271SOL     OW15271   1.775   3.106   1.431 -0.1693  0.4827  0.2992
 1271SOL    HW115272   1.865   3.080   1.450  0.3945  1.4470 -1.1344
 1271SOL    HW215273   1.743   3.018   1.453 -2.6306  1.1590 -0.6607
 1272SOL     OW15274   3.618   1.247   0.955  0.2774  0.7082  0.5096
 1272SOL    HW115275   3.630   1.165   1.003  2.8573 -0.1565 -1.6339
 1272SOL    HW215276   3.528   1.267   0.979  0.5825  2.0141  0.5390
 1273SOL     OW15277   3.143   3.876   4.009 -0.8557 -0.1305 -0.0228
 1273SOL    HW115278   3.125   3.886   4.103 -2.1304  0.4524 -0.3245
 1273SOL    HW215279   3.143   3.780   4.006 -0.8607 -0.0967 -1.0455
 1274SOL     OW15280   3.041   1.129   3.176 -0.3512 -0.2253  0.1371
 1274SOL    HW115281   3.079   1.173   3.100  0.0043 -0.7602  0.0011
 1274SOL    HW215282   2.982   1.193   3.213 -2.3761 -2.2784  0.4783
 1275SOL     OW15283   2.593   0.001   8.400  0.2106  0.4821 -0.6158
 1275SOL    HW115284   2.580   0.006   8.306 -1.1434 -0.0878 -0.4566
 1275SOL    HW215285   2.509   4.691   8.433  1.4644 -2.7361 -0.3363
 1276SOL     OW15286   1.538   4.473   4.206 -0.0269  0.7638  0.4279
 1276SOL    HW115287   1.453   4.517   4.197 -0.8579 -0.8981  0.2590
 1276SOL    HW215288   1.591   4.484   4.127  1.5541 -0.7972  1.2553
 1277SOL     OW15289   1.013   0.689   3.472  0.0804  0.4266 -0.2397
 1277SOL    HW115290   1.001   0.684   3.377 -0.0994 -2.5644 -0.0727
 1277SOL    HW215291   1.101   0.654   3.483  0.1750  0.6329 -0.3446
 1278SOL     OW15292   3.566   0.726   5.921  0.4296 -0.6691  0.2724
 1278SOL    HW115293   3.575   0.807   5.972 -1.2758 -0.0658 -0.3871
 1278SOL    HW215294   3.660   0.708   5.915  0.0401 -2.4180 -0.6356
 1279SOL     OW15295   2.767   0.492   4.892 -0.3425  0.7291  0.1948
 1279SOL    HW115296   2.693   0.539   4.928  0.3788  1.4639  0.7234
 1279SOL    HW215297   2.717   0.426   4.843  1.4935 -0.8788  0.4389
 1280SOL     OW15298   0.664   3.034   4.638  0.1109 -0.2199  0.1257
 1280SOL    HW115299   0.749   3.001   4.665 -0.7762 -0.7161  2.3238
 1280SOL    HW215300   0.685   3.127   4.642 -0.3096 -0.0632 -1.3009
 1281SOL     OW15301   0.437   4.389   6.419  0.2606  0.2420 -0.0384
 1281SOL    HW115302   0.456   4.475   6.382  0.8178  0.4901  0.8320
 1281SOL    HW215303   0.463   4.339   6.342  0.3687  1.3870 -0.7369
 1282SOL     OW15304   3.654   0.843   4.118  0.0618 -0.2761 -0.7320
 1282SOL    HW115305   3.574   0.867   4.165  0.6221  0.2419 -0.0400
 1282SOL    HW215306   3.671   0.929   4.080 -1.3890  2.0295  3.7468
 1283SOL     OW15307   4.323   4.600   6.559  0.6758  0.2176 -0.1193
 1283SOL    HW115308   4.379   4.656   6.505 -1.4042  0.2984 -2.2126
 1283SOL    HW215309   4.266   4.663   6.602 -0.2981  0.3979 -1.6520
 1284SOL     OW15310   0.732   0.536   7.258 -1.0092 -0.0880  0.0778
 1284SOL    HW115311   0.820   0.508   7.280 -0.5685 -1.0456 -2.9462
 1284SOL    HW215312   0.678   0.488   7.321 -0.7192  0.6546  0.8910
 1285SOL     OW15313   0.215   0.791   8.869 -0.3298 -0.1820  0.1659
 1285SOL    HW115314   0.223   0.765   8.961  2.9702 -0.1241 -0.0894
 1285SOL    HW215315   0.122   0.779   8.851 -0.2295 -0.1927 -0.3410
 1286SOL     OW15316   0.722   2.336   1.460 -0.2086  0.3738 -0.9551
 1286SOL    HW115317   0.771   2.418   1.470  1.7208 -0.6726 -1.7541
 1286SOL    HW215318   0.764   2.301   1.381  1.9385  1.0216 -0.1239
 1287SOL     OW15319   2.100   3.412  10.156  0.2268  0.3195  0.4712
 1287SOL    HW115320   2.029   3.355  10.129  1.5325 -1.3963  0.6651
 1287SOL    HW215321   2.097   3.401  10.251 -2.1175  0.2903  0.3987
 1288SOL     OW15322   2.715   0.261   1.896  0.0509 -0.2879 -0.2189
 1288SOL    HW115323   2.682   0.186   1.846  1.2589 -0.4273 -0.8131
 1288SOL    HW215324   2.630   0.292   1.926  0.2542 -1.1955  1.3038
 1289SOL     OW15325   2.629   3.944   2.977  0.0908  0.2986  0.5622
 1289SOL    HW115326   2.560   4.006   2.998  0.0346  0.4797 -0.1651
 1289SOL    HW215327   2.612   3.889   3.053 -1.6193 -1.0290 -0.7885
 1290SOL     OW15328   3.433   3.704  15.548  0.1332  0.0674  0.7287
 1290SOL    HW115329   3.445   3.679  15.456  1.5829  2.4109  0.2537
 1290SOL    HW215330   3.422   3.799  15.543  0.2228 -0.1512 -3.5897
 1291SOL     OW15331   4.021   4.128   4.890 -0.4820  0.1830  0.8684
 1291SOL    HW115332   3.970   4.060   4.933 -3.1128  0.0809 -2.4050
 1291SOL    HW215333   3.968   4.207   4.902 -0.4519  0.6349 -2.1019
 1292SOL     OW15334   1.370   4.090   4.025  0.8947 -0.0727  0.3889
 1292SOL    HW115335   1.342   4.084   4.117  0.8325 -3.3099  0.1690
 1292SOL    HW215336   1.302   4.034   3.990 -0.5926  1.3767  0.9650
 1293SOL     OW15337   1.433   2.830   8.096 -0.0721 -0.6214  0.4223
 1293SOL    HW115338   1.408   2.922   8.080  0.3574 -0.1708  2.3606
 1293SOL    HW215339   1.496   2.818   8.026  0.2095  0.8954  0.4113
 1294SOL     OW15340   1.486   0.363   0.912  0.0171  0.3804 -0.2151
 1294SOL    HW115341   1.560   0.316   0.873 -1.4687 -2.4984  0.4028
 1294SOL    HW215342   1.440   0.292   0.957  3.7623 -0.4438  2.2829
 1295SOL     OW15343   1.830   3.823   7.746  0.2621  0.1150 -0.0951
 1295SOL    HW115344   1.800   3.904   7.705  4.3325  0.4574 -2.4527
 1295SOL    HW215345   1.805   3.760   7.680 -1.9086  1.1352 -0.2313
 1296SOL     OW15346   1.773   0.235   5.030 -0.2772 -0.3607 -0.1860
 1296SOL    HW115347   1.790   0.313   5.084  0.5687  0.6720 -1.9304
 1296SOL    HW215348   1.786   0.267   4.941 -1.5682  0.5620 -0.0467
 1297SOL     OW15349   2.034   0.330   3.963  0.0996 -0.0541  0.2754
 1297SOL    HW115350   2.047   0.313   3.869 -1.2261  2.0182 -0.2889
 1297SOL    HW215351   2.093   0.405   3.975  2.7451 -2.0481 -0.1374
 1298SOL     OW15352   2.909   1.968   2.497  0.2829  0.3843  0.5230
 1298SOL    HW115353   2.967   2.041   2.519  0.0760  0.6399  0.2174
 1298SOL    HW215354   2.826   2.012   2.478 -0.9048 -1.8422  0.5839
 1299SOL     OW15355   1.072   0.614  16.947  0.0315 -0.2620  0.5409
 1299SOL    HW115356   1.046   0.681  16.885  0.1768  0.4841  1.2775
 1299SOL    HW215357   0.989   0.574  16.970 -1.1244  1.9476  0.2096
 1300SOL     OW15358   2.791   1.833   7.454 -0.1216 -0.3089 -0.4207
 1300SOL    HW115359   2.704   1.827   7.415 -0.5334  2.5024  0.0542
 1300SOL    HW215360   2.765   1.868   7.539 -1.5204  2.1882 -1.8537
 1301SOL     OW15361   0.369   3.244  13.091 -0.3085 -0.1302  0.0486
 1301SOL    HW115362   0.357   3.269  13.182 -3.5549 -0.7326 -0.2085
 1301SOL    HW215363   0.461   3.217  13.087 -0.4228 -0.4566 -0.3448
 1302SOL     OW15364   0.815   4.189   4.330  0.2425 -0.0036  0.3431
 1302SOL    HW115365   0.780   4.255   4.390 -0.2970  0.8229 -0.8915
 1302SOL    HW215366   0.753   4.118   4.345  2.2418 -1.8060 -0.0077
 1303SOL     OW15367   4.404   0.664   4.471  0.4964 -0.2943  0.0687
 1303SOL    HW115368   4.356   0.581   4.471  0.4495 -0.2662 -1.6132
 1303SOL    HW215369   4.490   0.623   4.463  0.1267 -1.1675  0.4848
 1304SOL     OW15370   1.316   0.472  15.456  0.3339  0.4035 -0.1270
 1304SOL    HW115371   1.243   0.425  15.417 -0.6513 -0.4828  2.8003
 1304SOL    HW215372   1.346   0.524  15.381  0.5063  1.7752  0.8957
 1305SOL     OW15373   0.321   2.276  17.248  0.5127 -0.0090 -0.4888
 1305SOL    HW115374   0.294   2.250  17.160  2.8053 -0.4476 -1.0797
 1305SOL    HW215375   0.332   2.184  17.275  4.4922  0.4686 -0.4012
 1306SOL     OW15376   0.171   3.533   9.574  0.1597 -0.4474  0.1160
 1306SOL    HW115377   0.129   3.599   9.629  0.3370 -0.5761  0.4051
 1306SOL    HW215378   0.108   3.526   9.502 -1.3846  0.2202  1.3875
 1307SOL     OW15379   0.527   4.305   1.369 -0.2792  0.1497  0.3351
 1307SOL    HW115380   0.578   4.353   1.304 -1.5211  1.5546  0.4059
 1307SOL    HW215381   0.451   4.284   1.315 -0.6145 -0.5955  1.0849
 1308SOL     OW15382   2.816   3.960   5.829 -0.1277  0.5421  0.0369
 1308SOL    HW115383   2.738   3.928   5.875 -0.4948  0.0289 -0.9354
 1308SOL    HW215384   2.815   3.906   5.750  1.9463 -0.0338  0.4079
 1309SOL     OW15385   1.316   1.860   2.618 -0.1404 -0.6310 -0.0896
 1309SOL    HW115386   1.401   1.903   2.631 -0.5212 -0.1484  0.8337
 1309SOL    HW215387   1.318   1.871   2.523  1.0285  0.1967  0.0213
 1310SOL     OW15388   2.573   3.461  12.004 -0.8154  0.1653  0.0421
 1310SOL    HW115389   2.526   3.478  12.086  0.9163  0.9995  0.8507
 1310SOL    HW215390   2.622   3.383  12.031 -1.5622 -0.3843 -0.1724
 1311SOL     OW15391   0.214   0.828   8.256 -0.2631 -0.0610  0.8789
 1311SOL    HW115392   0.171   0.816   8.341 -0.1899  1.3283  1.1100
 1311SOL    HW215393   0.306   0.812   8.280 -0.7291 -1.8054  1.5479
 1312SOL     OW15394   0.138   3.391   5.178 -0.3392 -0.2584  0.0072
 1312SOL    HW115395   0.231   3.374   5.161  0.3705  1.1155  2.5872
 1312SOL    HW215396   0.102   3.348   5.101 -0.4935 -2.9244  1.5504
 1313SOL     OW15397   1.671   0.034   9.732  0.3873  0.3308 -0.0720
 1313SOL    HW115398   1.720   0.063   9.655 -0.4539 -0.6137 -0.9596
 1313SOL    HW215399   1.628   4.674   9.702 -0.7110  1.0455 -0.3786
 1314SOL     OW15400   1.150   0.615   7.717 -0.1342 -0.1131  0.6255
 1314SOL    HW115401   1.170   0.642   7.807  1.5840  0.8417 -0.0598
 1314SOL    HW215402   1.241   0.621   7.689 -0.4645 -0.8122 -0.5978
 1315SOL     OW15403   4.072   0.027   7.347  0.6083 -0.0925 -0.3074
 1315SOL    HW115404   4.150   4.720   7.395  0.7977 -1.4882 -1.3892
 1315SOL    HW215405   4.026   0.063   7.422  3.5505  1.7461  0.6079
 1316SOL     OW15406   0.176   1.895   2.543  0.1124 -0.3186  0.1665
 1316SOL    HW115407   0.201   1.877   2.634  0.2228 -1.2928 -0.0547
 1316SOL    HW215408   0.148   1.985   2.557  1.2610  0.3860 -2.1066
 1317SOL     OW15409   2.344   1.636  17.629  0.4865 -0.2783 -0.1323
 1317SOL    HW115410   2.407   1.705  17.607 -1.7873  1.5194 -0.9580
 1317SOL    HW215411   2.257   1.673  17.639  0.7109  1.3119 -3.9356
 1318SOL     OW15412   0.107   2.400   3.316  0.1342  0.3653  0.3748
 1318SOL    HW115413   0.055   2.451   3.253  0.6179 -0.3585 -0.6045
 1318SOL    HW215414   0.112   2.468   3.384 -0.4840  1.2390 -0.4471
 1319SOL     OW15415   4.476   3.700   7.177  0.1301 -0.1120 -0.5269
 1319SOL    HW115416   4.568   3.675   7.182  0.5530  1.5789  0.2871
 1319SOL    HW215417   4.483   3.763   7.105  0.5693 -0.2775 -0.6272
 1320SOL     OW15418   1.299   1.440   6.282  0.4128  0.0762  0.3217
 1320SOL    HW115419   1.220   1.479   6.318  0.2200 -1.4586  1.5302
 1320SOL    HW215420   1.279   1.429   6.189  1.0357  2.2193 -0.0455
 1321SOL     OW15421   3.045   0.056  13.238 -0.5522  0.2434  0.1210
 1321SOL    HW115422   3.038   4.692  13.283  4.3439 -0.1476  0.2151
 1321SOL    HW215423   2.997   0.033  13.159  0.0216  1.4832 -0.5901
 1322SOL     OW15424   3.179   1.488   5.501  0.3060 -0.2102 -0.6420
 1322SOL    HW115425   3.253   1.429   5.482  2.9616  2.8012  0.2862
 1322SOL    HW215426   3.122   1.433   5.555  0.3557  1.5978  1.2626
 1323SOL     OW15427   3.593   0.746  14.877  0.0298  0.0553 -0.4411
 1323SOL    HW115428   3.529   0.743  14.948 -0.1051 -1.8632 -0.6476
 1323SOL    HW215429   3.577   0.833  14.842  0.0830  0.1492 -0.2303
 1324SOL     OW15430   4.018   0.670  10.446  0.1708 -0.7668  0.4456
 1324SOL    HW115431   3.937   0.691  10.399  0.7103  0.8992  0.2721
 1324SOL    HW215432   4.058   0.614  10.380  1.9037  2.0641 -0.8823
 1325SOL     OW15433   0.316   1.753   0.717 -0.5379  0.1153  0.6967
 1325SOL    HW115434   0.221   1.743   0.718 -0.6305  0.9586 -1.5998
 1325SOL    HW215435   0.335   1.833   0.767  1.3197 -0.1920  0.5012
 1326SOL     OW15436   1.961   3.077   7.622  0.1426 -0.0910  0.2753
 1326SOL    HW115437   2.006   3.016   7.563  0.7458 -0.0651  0.7057
 1326SOL    HW215438   2.031   3.099   7.684 -0.5684  1.4573  0.5084
 1327SOL     OW15439   0.403   1.285   6.265 -0.0413 -0.4769 -0.1267
 1327SOL    HW115440   0.418   1.315   6.355 -0.7470 -1.8758  0.4463
 1327SOL    HW215441   0.355   1.205   6.283  0.2580 -0.7967 -0.7573
 1328SOL     OW15442   4.285   2.446  15.564  0.1545 -0.1869 -0.1969
 1328SOL    HW115443   4.258   2.481  15.479  1.6572 -0.2388 -0.6792
 1328SOL    HW215444   4.250   2.513  15.622 -0.1950 -1.0453  0.5994
 1329SOL     OW15445   0.438   0.746   7.793  0.5009 -0.3103  0.2186
 1329SOL    HW115446   0.496   0.714   7.863  0.2581 -0.7300  0.2291
 1329SOL    HW215447   0.503   0.770   7.727  0.7869 -0.3397  0.4868
 1330SOL     OW15448   2.368   3.939  15.046 -0.2557 -0.4586  0.0317
 1330SOL    HW115449   2.435   3.875  15.023 -0.2450 -0.7774  0.9533
 1330SOL    HW215450   2.404   4.020  15.011  0.8044 -0.5727  0.8422
 1331SOL     OW15451   1.374   0.526   1.804 -0.6568 -0.4560  0.3343
 1331SOL    HW115452   1.373   0.466   1.879 -0.2729 -1.6374 -0.6074
 1331SOL    HW215453   1.301   0.582   1.829  0.4131  0.0720  2.2196
 1332SOL     OW15454   3.220   3.868   6.209  0.4645  0.0026 -0.2100
 1332SOL    HW115455   3.214   3.843   6.117  2.3145 -0.9823 -0.0635
 1332SOL    HW215456   3.155   3.938   6.217  0.6538  0.2933 -1.2028
 1333SOL     OW15457   1.905   0.527   5.599  0.0170 -0.1755  0.3655
 1333SOL    HW115458   1.967   0.516   5.671  0.7982 -0.2118 -0.2997
 1333SOL    HW215459   1.883   0.437   5.576 -0.5190  0.2454 -0.7543
 1334SOL     OW15460   1.041   0.894   4.724  0.0485 -0.3730 -0.2048
 1334SOL    HW115461   1.004   0.813   4.758 -0.5536  0.2808  0.6874
 1334SOL    HW215462   1.116   0.855   4.678 -0.5335  1.0897 -2.4071
 1335SOL     OW15463   2.744   4.624   5.070  0.0114  0.0642 -0.1500
 1335SOL    HW115464   2.661   4.629   5.116 -0.1149 -3.1762  0.0052
 1335SOL    HW215465   2.777   4.559   5.133 -0.2789 -0.1768 -0.2464
 1336SOL     OW15466   2.298   0.815  10.758  0.3562  0.1428  0.2212
 1336SOL    HW115467   2.366   0.804  10.824 -0.3771 -0.8830  0.8128
 1336SOL    HW215468   2.325   0.900  10.725  1.4363 -0.2496  0.0801
 1337SOL     OW15469   2.230   2.385   6.928  0.1447  0.2180 -0.0415
 1337SOL    HW115470   2.226   2.447   7.001 -0.1589 -0.4468  0.5152
 1337SOL    HW215471   2.152   2.332   6.947  0.5840  0.3152  2.0718
 1338SOL     OW15472   3.708   3.434   8.904  0.7370 -0.4182 -0.4965
 1338SOL    HW115473   3.678   3.523   8.884 -1.0491 -0.9547 -0.1873
 1338SOL    HW215474   3.643   3.388   8.957  0.0713 -0.4490 -1.3210
 1339SOL     OW15475   3.951   2.243   2.254 -0.2329 -0.6979 -0.2327
 1339SOL    HW115476   4.031   2.275   2.295  0.2406 -0.0642 -1.6593
 1339SOL    HW215477   3.965   2.148   2.249 -1.1664 -0.8269 -0.3377
 1340SOL     OW15478   4.365   0.326  13.025  0.0708 -0.4339 -0.4290
 1340SOL    HW115479   4.385   0.420  13.021 -0.4038 -0.3465 -0.7628
 1340SOL    HW215480   4.371   0.310  12.931  0.1103 -0.6493 -0.3900
 1341SOL     OW15481   0.895   2.642  15.674 -0.0775 -0.2201  0.5520
 1341SOL    HW115482   0.799   2.649  15.674 -0.0874 -0.3870 -0.9874
 1341SOL    HW215483   0.922   2.729  15.703  2.3969 -0.0002 -2.3885
 1342SOL     OW15484   3.957   1.062   7.002  0.3708 -0.1358  0.1821
 1342SOL    HW115485   3.998   1.062   7.088 -1.1622 -0.0409  0.9030
 1342SOL    HW215486   3.924   1.152   6.997  0.9414  0.0803  0.3720
 1343SOL     OW15487   1.475   3.561  15.530 -0.1550  0.5243 -0.5850
 1343SOL    HW115488   1.426   3.502  15.586 -0.2488  2.4949  1.4117
 1343SOL    HW215489   1.559   3.515  15.523 -0.7157 -0.4475 -0.9542
 1344SOL     OW15490   1.107   0.173   7.680 -0.1669  0.1324 -0.0032
 1344SOL    HW115491   1.064   0.226   7.613 -0.8196 -1.5783 -0.9410
 1344SOL    HW215492   1.186   0.130   7.645 -0.9419 -0.0987 -1.4565
 1345SOL     OW15493   2.409   1.453   8.063  0.1344  0.1806  0.2595
 1345SOL    HW115494   2.487   1.401   8.082  0.1379 -1.0014 -3.0547
 1345SOL    HW215495   2.446   1.523   8.010 -2.3107 -1.8900 -4.1495
 1346SOL     OW15496   0.655   4.703   7.155  0.3908 -0.6326  0.1883
 1346SOL    HW115497   0.699   4.638   7.101  0.4475 -1.1733  0.8845
 1346SOL    HW215498   0.729   0.043   7.166 -0.9492  0.7853  1.5427
 1347SOL     OW15499   3.087   3.253  14.476  0.4585  0.1995  0.5679
 1347SOL    HW115500   3.142   3.237  14.552  0.5306  4.1127  1.3221
 1347SOL    HW215501   3.134   3.188  14.424  0.6495  0.5118  0.3447
 1348SOL     OW15502   0.773   3.542   3.448  0.1798 -0.0394  0.8797
 1348SOL    HW115503   0.693   3.591   3.463 -0.4556 -1.3104  1.5929
 1348SOL    HW215504   0.763   3.528   3.353 -0.4246  0.6632  0.8426
 1349SOL     OW15505   3.959   2.271   5.809 -0.8968  0.3411  0.7436
 1349SOL    HW115506   4.040   2.255   5.857 -0.2202  1.0753 -0.1510
 1349SOL    HW215507   3.992   2.281   5.720 -1.6570 -0.1787  0.4059
 1350SOL     OW15508   3.143   0.540   9.470 -0.1034  0.3491  0.5208
 1350SOL    HW115509   3.205   0.468   9.474  1.5961  1.8261  0.9114
 1350SOL    HW215510   3.069   0.494   9.429 -0.8458  1.2792  0.8124
 1351SOL     OW15511   1.030   3.288   6.559  0.3083 -0.8584 -0.9278
 1351SOL    HW115512   1.110   3.327   6.522  0.5870  1.6526  2.3453
 1351SOL    HW215513   1.069   3.243   6.634  1.0181  1.5461  0.1396
 1352SOL     OW15514   4.234   0.741   5.010 -0.0476  1.1764 -0.1558
 1352SOL    HW115515   4.317   0.747   4.962  0.1867  0.8241  0.2084
 1352SOL    HW215516   4.258   0.694   5.090  1.2412  1.6857 -0.2421
 1353SOL     OW15517   0.062   0.427   3.955 -0.1337  0.2423  0.2853
 1353SOL    HW115518   0.039   0.473   4.035 -2.6141 -0.5919  0.0691
 1353SOL    HW215519   0.100   0.495   3.899 -1.2979 -0.7379 -1.7313
 1354SOL     OW15520   3.952   1.913  15.113  0.4357 -0.1275 -0.1125
 1354SOL    HW115521   3.963   1.917  15.208 -1.2439 -1.0900  0.1325
 1354SOL    HW215522   3.880   1.849  15.111 -0.2400  0.6161  0.1270
 1355SOL     OW15523   4.160   2.900  11.110 -0.0298  0.0200  0.1574
 1355SOL    HW115524   4.253   2.920  11.106  0.3350 -2.1944 -2.4419
 1355SOL    HW215525   4.143   2.972  11.171 -1.3792  0.1775 -0.3989
 1356SOL     OW15526   1.949   2.232  11.221 -0.0934 -0.5487  0.4458
 1356SOL    HW115527   1.906   2.317  11.215 -1.3286 -1.2274 -0.1957
 1356SOL    HW215528   1.883   2.172  11.255  0.2359 -1.4376 -0.4782
 1357SOL     OW15529   4.257   2.906   8.947 -0.2826 -0.1198 -0.0461
 1357SOL    HW115530   4.258   2.811   8.949  0.4871 -0.1177 -0.5959
 1357SOL    HW215531   4.347   2.925   8.919 -0.2956 -0.0189 -0.0211
 1358SOL     OW15532   4.215   2.685  10.899  0.2709 -0.1448  0.2954
 1358SOL    HW115533   4.120   2.679  10.902  0.3496 -1.7656 -0.0815
 1358SOL    HW215534   4.231   2.685  10.994  4.1969 -0.7084 -0.3634
 1359SOL     OW15535   1.635   4.001   9.101 -0.4158 -0.2019  0.4081
 1359SOL    HW115536   1.682   3.938   9.047 -0.1762  0.9302 -0.7019
 1359SOL    HW215537   1.554   4.019   9.053  0.9437  1.8477 -1.1167
 1360SOL     OW15538   0.584   2.216  14.930 -0.1404 -0.4493  0.3155
 1360SOL    HW115539   0.633   2.293  14.958  1.1283  0.0116 -3.0985
 1360SOL    HW215540   0.528   2.258  14.865 -0.4669  1.0515  1.5630
 1361SOL     OW15541   3.430   0.343   5.676 -0.2550 -0.4253 -0.0727
 1361SOL    HW115542   3.406   0.324   5.767  0.2849  3.8953  0.9722
 1361SOL    HW215543   3.351   0.389   5.649  0.0992  0.0766 -0.2349
 1362SOL     OW15544   4.467   1.534  17.640 -0.1950 -0.0385 -0.4123
 1362SOL    HW115545   4.490   1.499   0.043  0.9576 -1.4893 -1.3010
 1362SOL    HW215546   4.484   1.460  17.582  0.0456  0.5062 -1.0378
 1363SOL     OW15547   2.927   3.720   8.652 -0.1839 -0.5140  0.2128
 1363SOL    HW115548   2.882   3.655   8.705  0.5710 -1.9092 -0.8346
 1363SOL    HW215549   2.885   3.801   8.680 -1.8466 -0.7744 -1.5771
 1364SOL     OW15550   3.703   0.752  12.042 -0.2328  0.9675  0.2274
 1364SOL    HW115551   3.735   0.776  11.956 -0.2491 -0.6406 -0.2266
 1364SOL    HW215552   3.652   0.673  12.025  2.4530 -0.6141 -0.4587
 1365SOL     OW15553   3.428   3.071   3.382  0.1267 -0.0241  0.2637
 1365SOL    HW115554   3.400   3.083   3.472  1.1007  0.9064  0.4352
 1365SOL    HW215555   3.346   3.093   3.337 -1.4846  0.2553  3.3386
 1366SOL     OW15556   2.864   2.380  17.310 -0.2474 -0.3558  0.7327
 1366SOL    HW115557   2.848   2.350  17.221  2.5552 -1.1949  0.5141
 1366SOL    HW215558   2.936   2.319  17.327 -1.7795 -2.4099 -0.1804
 1367SOL     OW15559   3.523   1.967   1.531  0.0992 -0.4423 -0.1078
 1367SOL    HW115560   3.613   1.998   1.534  0.0587 -0.1967 -1.3260
 1367SOL    HW215561   3.507   1.970   1.436 -1.9592  0.3281  0.2519
 1368SOL     OW15562   0.958   3.250   1.456  0.4169 -0.2395  0.1461
 1368SOL    HW115563   1.027   3.245   1.522  1.7664 -2.2254 -1.3976
 1368SOL    HW215564   0.918   3.163   1.464 -0.4202  0.4012  2.7905
 1369SOL     OW15565   1.054   3.455  17.176  0.5511  0.2020  0.1177
 1369SOL    HW115566   0.991   3.392  17.210  1.2568 -0.4670  0.1815
 1369SOL    HW215567   1.033   3.536  17.222  1.0564 -0.6489  1.8198
 1370SOL     OW15568   4.714   2.858  10.184  0.1346 -0.0385  0.0871
 1370SOL    HW115569   4.708   2.936  10.129 -1.4626 -0.3867 -0.2261
 1370SOL    HW215570   4.656   2.802  10.133 -2.2959  1.6741  0.9556
 1371SOL     OW15571   1.722   3.212   6.770  0.4385 -0.0597 -0.1919
 1371SOL    HW115572   1.767   3.159   6.704  0.7905 -0.4497  0.3639
 1371SOL    HW215573   1.797   3.232   6.825  0.6496 -1.1486 -0.0861
 1372SOL     OW15574   0.592   3.779  12.059 -0.3860 -0.3873 -0.0824
 1372SOL    HW115575   0.516   3.752  12.007  0.8900  0.6030 -2.4541
 1372SOL    HW215576   0.600   3.860  12.010 -1.0911  0.5610  1.3756
 1373SOL     OW15577   2.691   0.168  11.281 -0.5730 -0.2129  0.2854
 1373SOL    HW115578   2.609   0.203  11.246 -1.4773 -2.4476  0.1690
 1373SOL    HW215579   2.697   0.199  11.372  0.1256  2.4252 -0.6579
 1374SOL     OW15580   4.081   0.110  11.680  0.3703 -0.4064  0.1962
 1374SOL    HW115581   4.174   0.126  11.668  0.5059 -0.6243  0.9283
 1374SOL    HW215582   4.080   0.058  11.760  0.8321 -0.0683  0.4175
 1375SOL     OW15583   0.774   3.274   5.975  0.1591  0.8467  0.7126
 1375SOL    HW115584   0.806   3.303   6.060  0.5642  0.7860  0.5801
 1375SOL    HW215585   0.834   3.205   5.948 -0.5789 -0.5663  2.7246
 1376SOL     OW15586   4.387   3.450   1.986 -0.4627 -0.6045  0.8322
 1376SOL    HW115587   4.363   3.359   1.973  1.3777 -0.8627 -0.7609
 1376SOL    HW215588   4.377   3.466   2.080 -2.0483 -1.2472  0.7664
 1377SOL     OW15589   3.138   1.280   8.214 -0.6110 -0.2682 -0.7382
 1377SOL    HW115590   3.054   1.322   8.230 -0.7227 -0.1074 -1.7381
 1377SOL    HW215591   3.108   1.191   8.194  0.9328 -1.8854  4.2214
 1378SOL     OW15592   3.438   1.965   2.817 -0.5177 -0.5276 -0.4780
 1378SOL    HW115593   3.489   2.043   2.794  0.0886 -0.0867  2.3406
 1378SOL    HW215594   3.505   1.901   2.838  1.4386  2.1357  1.4090
 1379SOL     OW15595   1.868   2.141  12.369 -0.3585  0.1758 -0.2160
 1379SOL    HW115596   1.866   2.070  12.432  1.9378  0.0548 -0.2996
 1379SOL    HW215597   1.901   2.099  12.289  1.6009 -0.9058  1.1826
 1380SOL     OW15598   0.688   2.460   1.771 -0.0535 -0.1480  0.0227
 1380SOL    HW115599   0.597   2.438   1.791 -0.6945 -0.3689 -3.1428
 1380SOL    HW215600   0.729   2.377   1.795  1.3485  0.1987 -1.1572
 1381SOL     OW15601   2.850   0.117  15.000 -0.0835 -0.3265  0.0199
 1381SOL    HW115602   2.880   0.208  14.992  0.2744 -0.4864 -0.4932
 1381SOL    HW215603   2.771   0.137  15.050  0.2956 -0.9297  0.8412
 1382SOL     OW15604   3.391   1.298   5.948  0.7112 -0.0249 -0.0566
 1382SOL    HW115605   3.465   1.324   5.893  2.4118 -1.5671  1.5034
 1382SOL    HW215606   3.322   1.341   5.898 -0.1716 -2.0126 -0.5626
 1383SOL     OW15607   1.952   2.434  10.664 -0.2048  0.1096 -0.4532
 1383SOL    HW115608   1.956   2.529  10.677 -0.0113  0.0872 -0.3514
 1383SOL    HW215609   1.919   2.406  10.749 -2.7100 -0.1620 -1.4945
 1384SOL     OW15610   3.864   2.476   0.732 -0.1211  0.0417 -0.3839
 1384SOL    HW115611   3.779   2.512   0.754 -0.4699 -0.0494 -1.5557
 1384SOL    HW215612   3.877   2.412   0.802 -1.2835 -0.0360 -0.2455
 1385SOL     OW15613   0.737   1.457   3.650  0.5754  0.4227  0.0654
 1385SOL    HW115614   0.818   1.458   3.701 -1.2679 -0.7683  3.0492
 1385SOL    HW215615   0.747   1.383   3.591 -0.6296  2.4307 -2.6648
 1386SOL     OW15616   2.915   3.758  14.625  0.2672  0.0913 -0.3476
 1386SOL    HW115617   2.885   3.672  14.596 -0.7834  1.0385 -2.0775
 1386SOL    HW215618   2.848   3.819  14.594  0.0411 -1.0057 -1.9884
 1387SOL     OW15619   0.437   3.341   7.124 -0.3237  0.2282  0.5165
 1387SOL    HW115620   0.416   3.299   7.208  1.0361  0.0297  0.7623
 1387SOL    HW215621   0.374   3.306   7.062  0.0196  0.9577 -0.2412
 1388SOL     OW15622   3.892   3.449   3.126  0.4013 -0.4304 -0.4127
 1388SOL    HW115623   3.798   3.436   3.118 -0.1533  3.8711 -0.9811
 1388SOL    HW215624   3.904   3.525   3.183  2.1164 -0.1525 -1.1441
 1389SOL     OW15625   2.862   3.725   6.068 -0.0004  0.3081  0.0594
 1389SOL    HW115626   2.879   3.714   6.162  1.0849 -2.4090 -0.4568
 1389SOL    HW215627   2.768   3.741   6.069 -0.1800 -0.7993  1.3991
 1390SOL     OW15628   2.840   4.180   1.846 -0.0198  0.3674  0.0991
 1390SOL    HW115629   2.857   4.125   1.769 -1.7343  0.4369 -0.3237
 1390SOL    HW215630   2.772   4.232   1.804  1.1984  1.1897 -0.8459
 1391SOL     OW15631   1.395   2.500  14.832  0.2078  0.5360 -0.2078
 1391SOL    HW115632   1.304   2.475  14.823 -0.3551  2.6810 -0.4352
 1391SOL    HW215633   1.395   2.581  14.884 -2.2145  2.8380 -3.7796
 1392SOL     OW15634   2.391   2.803   9.797 -0.4991 -0.2018  0.4873
 1392SOL    HW115635   2.469   2.774   9.751 -0.6902 -2.5189  1.6138
 1392SOL    HW215636   2.367   2.730   9.854 -0.3403  1.4022  2.5887
 1393SOL     OW15637   2.068   4.591  15.797 -0.0133 -0.2371  0.1121
 1393SOL    HW115638   2.099   4.616  15.884 -1.0041  1.0842  0.0814
 1393SOL    HW215639   2.042   4.670  15.751  0.0236 -0.1293  0.2774
 1394SOL     OW15640   1.232   4.063   5.790  0.3460 -0.0160 -0.1762
 1394SOL    HW115641   1.138   4.055   5.780  0.3861  0.3648 -0.9084
 1394SOL    HW215642   1.237   4.043   5.884 -2.7691  0.3591  0.0462
 1395SOL     OW15643   0.880   3.549   1.647  0.1636 -0.3981  0.3154
 1395SOL    HW115644   0.971   3.553   1.620  0.0797 -0.8125 -0.0277
 1395SOL    HW215645   0.879   3.471   1.703 -1.7146 -1.0392 -0.6126
 1396SOL     OW15646   0.190   3.575   4.524  0.0367 -0.5165 -0.2754
 1396SOL    HW115647   0.178   3.490   4.483 -0.8298  0.2719 -1.6739
 1396SOL    HW215648   0.174   3.641   4.456 -3.9955  0.1448  1.3215
 1397SOL     OW15649   3.439   0.199  10.205 -0.2260 -1.0049  0.1798
 1397SOL    HW115650   3.435   0.239  10.292  0.3822  1.8142 -1.0862
 1397SOL    HW215651   3.474   0.112  10.225  0.7345 -0.6185  0.2052
 1398SOL     OW15652   1.449   3.561  10.570 -0.5184  0.5462 -0.5556
 1398SOL    HW115653   1.523   3.595  10.620  1.8743 -0.1636 -3.6882
 1398SOL    HW215654   1.501   3.510  10.508  2.1896 -0.0781  2.2503
 1399SOL     OW15655   1.054   1.848  14.821  0.1754  0.0174 -0.3334
 1399SOL    HW115656   0.983   1.880  14.766 -1.7827  0.0591  2.2233
 1399SOL    HW215657   1.115   1.922  14.812  1.4820 -1.0174  0.0110
 1400SOL     OW15658   0.978   1.407   7.689 -0.1252  0.0400 -0.3938
 1400SOL    HW115659   1.014   1.398   7.777 -2.2359 -2.5840  0.1992
 1400SOL    HW215660   1.003   1.319   7.662 -0.9296  0.0537 -1.1908
 1401SOL     OW15661   0.932   0.392   0.050  0.0190 -0.0294  0.0516
 1401SOL    HW115662   0.956   0.420   0.138  1.3793  1.3575 -0.7595
 1401SOL    HW215663   0.941   0.477   0.007 -0.4620  0.3355  0.6747
 1402SOL     OW15664   2.562   3.797   4.760  0.1352 -0.0696  0.2931
 1402SOL    HW115665   2.499   3.729   4.783 -1.6526  1.0428 -1.3188
 1402SOL    HW215666   2.541   3.801   4.667  1.9546  1.1348 -0.0761
 1403SOL     OW15667   2.023   1.768   6.669 -0.1288 -0.0408 -0.2099
 1403SOL    HW115668   2.094   1.715   6.633 -2.0629 -3.3483  0.8494
 1403SOL    HW215669   1.954   1.725   6.619 -0.3536  0.1462 -0.0616
 1404SOL     OW15670   4.062   3.954   1.568  0.2964 -0.1606  0.0957
 1404SOL    HW115671   4.058   3.884   1.503  0.1322  0.3596 -0.4480
 1404SOL    HW215672   3.971   3.949   1.597  0.2561 -2.1926 -0.3903
 1405SOL     OW15673   3.908   4.294  16.185  0.1860 -0.0762 -0.2060
 1405SOL    HW115674   3.957   4.368  16.151  0.8168  0.6348  2.2704
 1405SOL    HW215675   3.940   4.224  16.128  0.1637  0.6872 -1.1361
 1406SOL     OW15676   4.570   1.272   5.936 -0.3630 -0.8843 -0.3531
 1406SOL    HW115677   4.622   1.347   5.965 -1.0458 -0.3430 -0.5418
 1406SOL    HW215678   4.480   1.298   5.956  0.8510  1.4308  2.1729
 1407SOL     OW15679   1.878   3.177   5.732  0.3255 -0.0593 -0.2152
 1407SOL    HW115680   1.811   3.231   5.691  0.2300 -0.9915 -1.2678
 1407SOL    HW215681   1.851   3.184   5.824 -2.0724 -0.9182 -0.8745
 1408SOL     OW15682   1.470   3.547  11.478  0.7909 -0.3256 -0.4446
 1408SOL    HW115683   1.433   3.473  11.431  0.2040 -1.5887  2.0052
 1408SOL    HW215684   1.399   3.589  11.528  0.3505 -1.0770 -0.4320
 1409SOL     OW15685   0.080   4.658   1.479  0.1739  0.4283 -0.0393
 1409SOL    HW115686   0.067   4.670   1.573  1.7169  0.7769  0.1257
 1409SOL    HW215687   0.175   4.651   1.473  0.2381 -0.1327  1.6544
 1410SOL     OW15688   1.437   1.594   0.579 -0.3268 -0.9980  0.1847
 1410SOL    HW115689   1.482   1.555   0.504 -3.0668  0.0463 -2.0175
 1410SOL    HW215690   1.371   1.648   0.535  0.1117 -0.3709  0.3091
 1411SOL     OW15691   2.590   4.351  17.178 -0.1291 -0.0156 -0.5133
 1411SOL    HW115692   2.614   4.388  17.262  1.3441 -0.1076 -0.8821
 1411SOL    HW215693   2.596   4.424  17.116 -0.0240 -1.8303 -2.6733
 1412SOL     OW15694   2.394   3.916  17.030 -0.0503 -0.2509  0.0305
 1412SOL    HW115695   2.351   3.843  17.074 -1.4564 -0.6246 -1.9695
 1412SOL    HW215696   2.423   3.969  17.105 -3.4585  1.8245 -0.1296
 1413SOL     OW15697   2.430   2.960   4.756  0.5001  0.1098 -0.8101
 1413SOL    HW115698   2.416   3.054   4.749  0.3394  0.0505 -1.2715
 1413SOL    HW215699   2.367   2.922   4.696  0.9087 -1.2220 -0.4043
 1414SOL     OW15700   1.952   0.786   5.245 -0.1102 -0.5937  0.0402
 1414SOL    HW115701   1.860   0.808   5.259  0.0288  1.0737 -1.6315
 1414SOL    HW215702   1.965   0.761   5.153 -2.2090  2.7472 -1.1590
 1415SOL     OW15703   1.689   1.923   7.891  0.0773 -0.7006 -0.4015
 1415SOL    HW115704   1.779   1.945   7.867 -0.0684  1.6650  1.2341
 1415SOL    HW215705   1.631   1.971   7.833  0.1542  0.1935  0.2645
 1416SOL     OW15706   0.517   1.342   3.211 -0.2092 -0.5526 -0.2133
 1416SOL    HW115707   0.566   1.424   3.201  0.0126 -0.7525 -0.7978
 1416SOL    HW215708   0.447   1.351   3.145 -0.0265  0.0633 -0.3290
 1417SOL     OW15709   4.016   3.439   4.246  0.4248  0.2022 -0.1187
 1417SOL    HW115710   4.073   3.378   4.293 -1.6698 -0.6626  1.3436
 1417SOL    HW215711   4.083   3.495   4.209  1.1428  0.4947  1.6101
 1418SOL     OW15712   2.625   3.368   4.675  0.6320 -0.8043  0.2415
 1418SOL    HW115713   2.718   3.356   4.691  0.5072 -0.6322  1.1225
 1418SOL    HW215714   2.598   3.336   4.762 -2.0010  0.4834 -0.0934
 1419SOL     OW15715   3.210   2.507   1.925  0.5797 -0.1333  0.1393
 1419SOL    HW115716   3.204   2.554   2.008 -1.0095 -1.3563  0.7112
 1419SOL    HW215717   3.284   2.448   1.941  2.2693  1.6200 -1.1143
 1420SOL     OW15718   0.860   1.312   6.188 -0.0587 -0.2172 -0.0306
 1420SOL    HW115719   0.767   1.337   6.183 -0.3288 -1.0657  0.7375
 1420SOL    HW215720   0.876   1.325   6.281  0.6198 -0.3023 -0.1354
 1421SOL     OW15721   3.178   3.199   3.982 -0.1567  0.2891 -0.2160
 1421SOL    HW115722   3.234   3.239   3.915  2.5110 -1.8290  0.7600
 1421SOL    HW215723   3.211   3.240   4.061  2.0432  0.5269 -1.2537
 1422SOL     OW15724   0.629   1.849   8.692  0.0885  0.2203 -0.4420
 1422SOL    HW115725   0.630   1.812   8.780  0.0724  0.5045 -0.3225
 1422SOL    HW215726   0.705   1.906   8.678 -0.6731  1.0955 -0.9564
 1423SOL     OW15727   1.934   0.616   9.789 -0.6931 -0.1225 -0.2029
 1423SOL    HW115728   1.869   0.573   9.845 -0.0136 -1.1001 -0.1642
 1423SOL    HW215729   1.888   0.610   9.706 -1.8229 -0.7415  0.4772
 1424SOL     OW15730   1.982   0.241   9.126 -0.4227 -0.0209 -0.2237
 1424SOL    HW115731   1.945   0.326   9.149 -0.8469 -0.3283  0.2541
 1424SOL    HW215732   2.036   0.263   9.051 -1.7823  1.3838 -0.7951
 1425SOL     OW15733   2.916   3.615   7.586  0.3392  0.3679  0.1272
 1425SOL    HW115734   2.893   3.577   7.671 -0.4575 -2.1079 -1.1982
 1425SOL    HW215735   2.834   3.656   7.558 -1.7180 -0.6252  4.5609
 1426SOL     OW15736   0.966   1.479   9.376  0.1162 -0.0738 -0.1715
 1426SOL    HW115737   0.890   1.526   9.342 -0.5100 -0.4097  0.7478
 1426SOL    HW215738   0.988   1.534   9.452 -1.1117 -1.4102  1.1589
 1427SOL     OW15739   4.524   0.452   3.302  0.1109  0.0317 -0.6210
 1427SOL    HW115740   4.456   0.463   3.368  0.4889 -1.8399  0.0584
 1427SOL    HW215741   4.596   0.484   3.356 -0.0962  0.5237 -0.6321
 1428SOL     OW15742   0.890   1.562   0.219  0.4886 -0.0359 -0.4642
 1428SOL    HW115743   0.890   1.656   0.237  1.4428  0.1364 -1.3692
 1428SOL    HW215744   0.985   1.552   0.228  0.4505 -0.3858 -0.4451
 1429SOL     OW15745   0.915   2.970  14.241 -0.1542  0.4388 -0.0157
 1429SOL    HW115746   0.876   2.905  14.183 -0.2728  2.4140 -2.1210
 1429SOL    HW215747   1.004   2.986  14.209  0.0274  0.1512  0.3441
 1430SOL     OW15748   0.759   3.689   8.450  0.1759  0.5379  0.2705
 1430SOL    HW115749   0.701   3.625   8.492  0.4763  1.9615  2.8338
 1430SOL    HW215750   0.731   3.771   8.491 -0.8633 -1.0677  2.8097
 1431SOL     OW15751   3.660   3.684   2.243 -0.7586 -0.0461  0.1447
 1431SOL    HW115752   3.597   3.737   2.196 -2.1124 -1.7005  0.1147
 1431SOL    HW215753   3.604   3.632   2.299 -2.8849  1.1284 -0.9107
 1432SOL     OW15754   3.863   3.544   2.144 -0.0407  0.1649 -0.3042
 1432SOL    HW115755   3.929   3.609   2.118  0.2675  0.2069  0.5880
 1432SOL    HW215756   3.791   3.596   2.178  0.0174 -0.1583  0.3005
 1433SOL     OW15757   0.260   2.463   2.858  0.2809 -0.1532  0.8183
 1433SOL    HW115758   0.295   2.528   2.798  0.0531 -1.8800 -1.1542
 1433SOL    HW215759   0.202   2.510   2.919  0.9864  1.5665  0.1859
 1434SOL     OW15760   4.271   0.886   2.139  0.1472 -0.0425 -0.1215
 1434SOL    HW115761   4.310   0.854   2.220  0.4916  1.7862  0.4254
 1434SOL    HW215762   4.212   0.812   2.121 -1.4921  0.8457  1.5245
 1435SOL     OW15763   0.586   1.161   3.623  0.3097  0.1164 -0.0218
 1435SOL    HW115764   0.604   1.169   3.529  0.4717 -1.2314 -0.1012
 1435SOL    HW215765   0.675   1.136   3.646 -0.4180 -2.9012 -0.5504
 1436SOL     OW15766   3.935   2.548   3.420 -0.0992 -0.3218 -0.2706
 1436SOL    HW115767   3.873   2.619   3.406 -0.6595 -0.5678  1.0080
 1436SOL    HW215768   3.870   2.483   3.444  0.6734 -0.6846  0.8383
 1437SOL     OW15769   2.065   2.711   1.576 -0.4292 -0.0964  0.2158
 1437SOL    HW115770   2.000   2.683   1.512 -0.8225  0.6557  0.2805
 1437SOL    HW215771   2.132   2.725   1.510 -0.2907 -0.7223  0.2277
 1438SOL     OW15772   1.557   0.732   3.461  0.1965 -0.3235 -0.2114
 1438SOL    HW115773   1.575   0.756   3.552 -1.0808  2.1686 -0.6089
 1438SOL    HW215774   1.620   0.662   3.446  1.3671  0.9288 -1.1476
 1439SOL     OW15775   2.246   3.725  13.998 -0.8795  0.7242 -0.0569
 1439SOL    HW115776   2.248   3.672  13.918  0.0572 -0.6968  0.8956
 1439SOL    HW215777   2.260   3.817  13.976  0.2251  0.5860  0.0310
 1440SOL     OW15778   4.149   4.644   8.236  0.3496  0.0314  0.1580
 1440SOL    HW115779   4.154   4.573   8.172  1.8118 -0.5526  0.9249
 1440SOL    HW215780   4.063   4.628   8.275  1.2587 -1.3940  1.5551
 1441SOL     OW15781   0.120   0.276   4.977  0.2347 -0.0018 -0.1866
 1441SOL    HW115782   0.197   0.328   4.958  0.3865 -0.3647 -0.5572
 1441SOL    HW215783   0.063   0.352   4.990 -0.4643 -0.3962 -0.9096
 1442SOL     OW15784   1.007   4.692   1.748  0.3171  0.1510 -0.0314
 1442SOL    HW115785   1.100   4.701   1.729 -0.1032  3.8397 -0.2583
 1442SOL    HW215786   1.016   4.678   1.842 -3.3172  2.9457  0.7234
 1443SOL     OW15787   3.070   3.033   4.754 -0.1966 -0.1878 -0.0724
 1443SOL    HW115788   3.074   3.035   4.658 -1.9221 -1.6532 -0.1835
 1443SOL    HW215789   3.048   2.940   4.763 -1.2124  0.0438 -0.2567
 1444SOL     OW15790   0.918   2.511   3.709 -0.5511 -0.4636 -0.3819
 1444SOL    HW115791   0.976   2.558   3.770 -1.6472  0.7475 -0.2726
 1444SOL    HW215792   0.974   2.491   3.634  0.5521 -0.8280  0.5482
 1445SOL     OW15793   0.700   2.815   9.194 -0.2101 -0.2717  0.4308
 1445SOL    HW115794   0.790   2.793   9.170 -0.4595 -0.9964  0.1680
 1445SOL    HW215795   0.719   2.899   9.236  1.1777 -0.5143  0.2702
 1446SOL     OW15796   0.476   3.752   7.718 -0.0580 -0.2221 -0.3214
 1446SOL    HW115797   0.462   3.839   7.755 -0.0338 -0.8385  1.1468
 1446SOL    HW215798   0.509   3.768   7.629  0.7350  0.3253  0.0737
 1447SOL     OW15799   4.719   1.727   8.268 -0.6104 -0.1546 -0.7349
 1447SOL    HW115800   4.662   1.693   8.337 -1.1389 -0.4011 -1.2887
 1447SOL    HW215801   0.076   1.672   8.277 -0.5768 -0.4739 -2.8404
 1448SOL     OW15802   3.678   3.630   3.447 -0.0681 -0.1614 -0.6690
 1448SOL    HW115803   3.629   3.674   3.377  0.1071  0.0655 -0.6459
 1448SOL    HW215804   3.757   3.617   3.395  1.2634  1.0183  1.0783
 1449SOL     OW15805   1.372   0.962  13.613  0.2366  0.0398 -0.2485
 1449SOL    HW115806   1.404   1.021  13.681 -0.8705 -0.1755  0.4643
 1449SOL    HW215807   1.450   0.908  13.595  0.6033  0.6986 -0.6188
 1450SOL     OW15808   2.871   2.645  12.969  0.1356 -0.1088 -0.2288
 1450SOL    HW115809   2.877   2.564  13.020  0.0569  0.4925  0.7417
 1450SOL    HW215810   2.963   2.650  12.945  0.4424  0.6919  1.0772
 1451SOL     OW15811   3.305   3.426   1.471  0.5661 -0.1928 -0.1224
 1451SOL    HW115812   3.241   3.485   1.431  0.7440 -1.8667 -2.8903
 1451SOL    HW215813   3.272   3.346   1.430 -0.8852  0.2179  0.2360
 1452SOL     OW15814   0.854   3.876   3.407 -0.1603 -0.6330 -0.0424
 1452SOL    HW115815   0.911   3.832   3.344 -0.3600 -1.2845  0.2396
 1452SOL    HW215816   0.917   3.878   3.479  0.3583 -2.2611 -0.4521
 1453SOL     OW15817   0.365   1.691   1.916  0.3765  0.0191 -0.5256
 1453SOL    HW115818   0.376   1.647   1.832  1.4427  0.1034 -0.4219
 1453SOL    HW215819   0.453   1.726   1.931  1.2143 -2.2084 -0.3838
 1454SOL     OW15820   0.585   2.597   0.392  0.1003  0.0800  0.2167
 1454SOL    HW115821   0.675   2.627   0.408  0.6570 -1.9216  0.8836
 1454SOL    HW215822   0.579   2.620   0.300  0.2546 -0.9358 -0.0449
 1455SOL     OW15823   3.944   1.776   6.466  0.0965 -0.4375 -0.4684
 1455SOL    HW115824   3.952   1.872   6.470  1.9579 -0.5709 -1.3542
 1455SOL    HW215825   3.914   1.747   6.553  1.9031 -1.4219 -0.1885
 1456SOL     OW15826   4.515   0.915  13.005 -0.1503  0.3405 -0.2454
 1456SOL    HW115827   4.552   0.975  12.940 -2.4996  1.6982 -0.3199
 1456SOL    HW215828   4.588   0.859  13.030 -0.7399 -0.3821 -0.1624
 1457SOL     OW15829   2.409   1.096   0.901 -0.2111 -0.3361  0.0458
 1457SOL    HW115830   2.335   1.153   0.922  0.1538 -0.0123  0.4529
 1457SOL    HW215831   2.464   1.151   0.846 -0.1026 -2.1592 -1.6608
 1458SOL     OW15832   1.238   4.081   6.959  0.1542  0.5431  0.3539
 1458SOL    HW115833   1.215   4.174   6.962  0.4243  0.5748  1.7363
 1458SOL    HW215834   1.290   4.080   6.879 -3.6292 -1.0733 -2.1161
 1459SOL     OW15835   2.638   1.843  17.119  0.7735  0.7395  0.5549
 1459SOL    HW115836   2.609   1.820  17.031 -0.6613 -2.3735  1.8260
 1459SOL    HW215837   2.616   1.755  17.150 -0.2871  0.3656 -1.2639
 1460SOL     OW15838   3.631   3.413   3.124 -0.2687  0.3047 -0.7715
 1460SOL    HW115839   3.593   3.374   3.045 -1.8954 -1.4725  0.8766
 1460SOL    HW215840   3.565   3.394   3.191  1.6764  3.2855  2.0428
 1461SOL     OW15841   1.997   4.161  11.690 -0.0199 -0.0979 -0.5484
 1461SOL    HW115842   1.911   4.123  11.673  0.7220 -1.1008 -2.0444
 1461SOL    HW215843   2.002   4.165  11.786  2.3472  0.5261 -0.6970
 1462SOL     OW15844   1.905   3.322  15.808 -0.2496  0.1503 -0.3137
 1462SOL    HW115845   1.978   3.380  15.830  0.1057 -0.4052 -0.0296
 1462SOL    HW215846   1.956   3.248  15.775 -0.7863 -1.4561  2.4987
 1463SOL     OW15847   1.491   2.824   3.724 -0.4206  0.0661 -0.2773
 1463SOL    HW115848   1.503   2.734   3.755  1.1073 -0.1353 -1.4170
 1463SOL    HW215849   1.439   2.818   3.644  0.7131  0.6714 -1.0540
 1464SOL     OW15850   1.031   0.954   0.006 -0.0693 -0.7342 -0.2805
 1464SOL    HW115851   1.127   0.957   0.005 -0.0722 -0.9531 -1.2360
 1464SOL    HW215852   1.018   0.868   0.046 -0.1141  0.2109  1.7210
 1465SOL     OW15853   0.977   1.383   8.577 -0.1910  0.1308  0.1250
 1465SOL    HW115854   1.022   1.337   8.506  1.5064  0.6769  0.8251
 1465SOL    HW215855   0.932   1.447   8.523 -1.3356 -0.9695 -0.2234
 1466SOL     OW15856   4.381   0.583   5.239 -0.7279 -0.2044  0.5884
 1466SOL    HW115857   4.381   0.679   5.243 -0.1328 -0.0957 -1.7707
 1466SOL    HW215858   4.464   0.565   5.284  0.3401  1.1416 -0.8284
 1467SOL     OW15859   1.698   1.506   7.602 -0.1819  0.4836  0.0809
 1467SOL    HW115860   1.623   1.499   7.542  1.1002 -1.2317 -1.3108
 1467SOL    HW215861   1.744   1.424   7.587 -0.1597  0.2285  1.5109
 1468SOL     OW15862   3.023   2.907   5.958 -0.4117 -0.0586 -0.6668
 1468SOL    HW115863   2.952   2.929   5.899 -0.1651  0.3719 -0.8027
 1468SOL    HW215864   3.030   2.982   6.017  0.1168 -1.1839  0.7152
 1469SOL     OW15865   4.681   2.821   4.132  0.5885  0.2251 -0.0627
 1469SOL    HW115866   4.681   2.894   4.194  0.7002  1.3518 -1.4093
 1469SOL    HW215867   4.593   2.834   4.097  0.6018 -2.9201 -1.2929
 1470SOL     OW15868   3.403   3.315   2.689  0.2963  0.2435  0.4074
 1470SOL    HW115869   3.425   3.384   2.752 -2.4355  0.8304  0.7448
 1470SOL    HW215870   3.322   3.349   2.651  1.1772 -0.3099 -1.9606
 1471SOL     OW15871   1.887   2.575   2.630  0.1611  0.3108 -0.6356
 1471SOL    HW115872   1.909   2.482   2.624 -2.8641 -0.4084 -0.6157
 1471SOL    HW215873   1.822   2.572   2.700  1.5240  0.7911  0.6222
 1472SOL     OW15874   3.968   2.372   9.124 -0.2140  0.5568  0.0818
 1472SOL    HW115875   3.921   2.455   9.124  0.5545  0.9874 -3.7189
 1472SOL    HW215876   4.048   2.400   9.169 -0.7026 -0.5761  1.6657
 1473SOL     OW15877   0.696   0.103   0.789 -0.3176  0.0582 -0.3781
 1473SOL    HW115878   0.784   0.117   0.754 -0.4071  2.6291  0.4901
 1473SOL    HW215879   0.636   0.139   0.723 -0.6872 -2.2810 -1.3325
 1474SOL     OW15880   1.025   1.339   0.014 -0.1525 -0.3317 -0.2527
 1474SOL    HW115881   0.964   1.334   0.087 -2.4662  1.1419 -2.0876
 1474SOL    HW215882   1.110   1.307   0.045 -0.1427 -0.1650 -0.1075
 1475SOL     OW15883   4.263   3.549   7.202  0.1970  0.2806 -0.3405
 1475SOL    HW115884   4.339   3.607   7.194  1.1956 -1.0294 -0.3731
 1475SOL    HW215885   4.239   3.532   7.111  3.2206  0.2702 -1.1489
 1476SOL     OW15886   2.952   3.449   3.201 -0.2381 -0.0698 -0.2708
 1476SOL    HW115887   2.972   3.543   3.202  1.8817 -0.5161 -1.5783
 1476SOL    HW215888   3.017   3.407   3.257 -0.5696 -0.5916 -0.2811
 1477SOL     OW15889   0.154   3.303   4.472  0.4001 -0.2438  0.3791
 1477SOL    HW115890   0.083   3.272   4.528  0.8575  0.1648  1.1790
 1477SOL    HW215891   0.219   3.237   4.494  0.3940 -0.8179 -1.2812
 1478SOL     OW15892   0.051   4.086   5.520 -0.0935  0.4363  0.2220
 1478SOL    HW115893   0.117   4.018   5.513 -0.0214  0.4917  0.3471
 1478SOL    HW215894   0.041   4.088   5.616 -2.0424 -0.5523  0.0407
 1479SOL     OW15895   0.257   1.694  17.574 -0.3909 -0.0893 -0.2035
 1479SOL    HW115896   0.301   1.660  17.652  0.2820 -2.5418 -1.6529
 1479SOL    HW215897   0.282   1.785  17.588 -1.0191 -0.1753  1.4298
 1480SOL     OW15898   4.455   1.511   7.729 -0.1605  0.4308  0.3056
 1480SOL    HW115899   4.376   1.514   7.782 -0.0688  0.7062  0.4276
 1480SOL    HW215900   4.492   1.598   7.741 -0.2589  0.5812 -0.5071
 1481SOL     OW15901   1.050   0.560   9.071  0.1411 -0.8960 -0.2167
 1481SOL    HW115902   1.059   0.582   9.164 -0.0991  1.1193 -0.6769
 1481SOL    HW215903   1.050   0.646   9.029 -1.3735 -0.5819  0.4170
 1482SOL     OW15904   2.547   2.295  15.317  0.4091  0.0986  0.3255
 1482SOL    HW115905   2.505   2.276  15.233  1.4426  1.1224 -0.4332
 1482SOL    HW215906   2.552   2.390  15.310 -0.2449  0.1526  0.6392
 1483SOL     OW15907   1.564   2.647   7.837 -0.1252 -0.0617  0.2043
 1483SOL    HW115908   1.566   2.555   7.810  1.4242  0.4158 -1.3500
 1483SOL    HW215909   1.658   2.667   7.834 -0.0310 -0.6407 -0.7253
 1484SOL     OW15910   1.845   3.614   0.493 -0.4067 -0.5273  0.4014
 1484SOL    HW115911   1.823   3.653   0.578  0.1679  1.5256 -0.3832
 1484SOL    HW215912   1.799   3.530   0.494 -2.4741  0.5893 -0.3040
 1485SOL     OW15913   2.218   0.904  11.074  0.0607  0.1474  0.1391
 1485SOL    HW115914   2.238   0.811  11.085 -1.2337  0.0826  1.9106
 1485SOL    HW215915   2.128   0.899  11.042  0.6472 -1.9129 -1.2483
 1486SOL     OW15916   1.874   1.921   4.586  0.4208  0.9288 -0.2840
 1486SOL    HW115917   1.911   1.890   4.669 -1.7159 -2.1550 -0.4606
 1486SOL    HW215918   1.788   1.951   4.614  1.1918  2.4212  0.5064
 1487SOL     OW15919   4.064   3.774  10.798 -0.1358  0.7803  0.1260
 1487SOL    HW115920   3.982   3.797  10.843 -0.7036  1.5249 -1.2917
 1487SOL    HW215921   4.046   3.777  10.704 -0.4812 -0.9492  0.1262
 1488SOL     OW15922   0.512   1.023   8.045  0.1949  0.0363  0.1439
 1488SOL    HW115923   0.565   1.034   8.124 -0.4640 -0.4596  0.6579
 1488SOL    HW215924   0.435   1.075   8.068  0.4861 -0.2440  1.7093
 1489SOL     OW15925   1.352   2.825   5.048 -0.5478 -0.1273  0.1046
 1489SOL    HW115926   1.428   2.804   5.102  0.9215 -0.1942 -1.9873
 1489SOL    HW215927   1.312   2.904   5.085 -0.4382 -0.0916  0.1450
 1490SOL     OW15928   3.381   3.169   7.259 -0.0643 -0.4816  0.8007
 1490SOL    HW115929   3.306   3.112   7.243 -0.1296  0.3109 -1.7426
 1490SOL    HW215930   3.342   3.236   7.316 -2.7592  0.0209 -1.6511
 1491SOL     OW15931   1.021   0.272  12.853 -0.4431  0.4276 -1.1911
 1491SOL    HW115932   1.104   0.243  12.890 -1.7673 -3.1501 -1.0215
 1491SOL    HW215933   0.958   0.201  12.861 -0.3447  0.6272  1.4107
 1492SOL     OW15934   3.529   1.775   3.670 -0.2558  0.2822  0.0292
 1492SOL    HW115935   3.510   1.753   3.579  1.4980  0.2355 -0.3413
 1492SOL    HW215936   3.622   1.754   3.678 -0.8154 -2.2422  0.0636
 1493SOL     OW15937   2.088   2.141   7.301 -0.0730  0.9106  0.8393
 1493SOL    HW115938   2.036   2.064   7.323 -0.7721  1.6950  1.9107
 1493SOL    HW215939   2.024   2.211   7.289 -0.3519  0.2317 -1.5304
 1494SOL     OW15940   2.191   2.202  16.234 -0.1451  0.0931 -0.6490
 1494SOL    HW115941   2.124   2.158  16.181 -1.9455  1.3612  0.5381
 1494SOL    HW215942   2.235   2.129  16.277  2.7741  1.8320 -0.7083
 1495SOL     OW15943   2.266   3.573   6.832  0.0949  0.1935  0.2526
 1495SOL    HW115944   2.217   3.491   6.823 -0.2284  0.2297  1.8064
 1495SOL    HW215945   2.194   3.636   6.836 -1.0154 -1.1237  0.7016
 1496SOL     OW15946   0.706   4.494  10.056 -0.3328  0.1708 -0.4525
 1496SOL    HW115947   0.620   4.486  10.096  1.3455 -1.7494  2.8141
 1496SOL    HW215948   0.761   4.470  10.131  0.5852  1.8849 -0.5710
 1497SOL     OW15949   0.224   1.455   7.631  0.6343 -0.0801 -0.0564
 1497SOL    HW115950   0.181   1.402   7.698  0.1728 -1.0619 -1.1135
 1497SOL    HW215951   0.286   1.390   7.597 -0.9770 -0.7760 -1.6566
 1498SOL     OW15952   0.693   3.393  10.909  0.5705 -0.0328 -0.1340
 1498SOL    HW115953   0.712   3.485  10.893  2.5511 -0.4500 -0.1991
 1498SOL    HW215954   0.661   3.398  10.999  1.8130  4.0884  0.0802
 1499SOL     OW15955   1.981   2.868   3.068 -0.0875 -0.4811  0.5467
 1499SOL    HW115956   2.024   2.874   2.983 -1.0360 -1.1419  0.0133
 1499SOL    HW215957   1.903   2.923   3.056 -0.0481 -1.2478 -3.2735
 1500SOL     OW15958   3.037   1.405   8.734 -0.3138 -0.0524  0.4905
 1500SOL    HW115959   3.099   1.375   8.669  2.2833  1.9099  2.0623
 1500SOL    HW215960   3.064   1.357   8.812  0.3156 -0.8777 -0.2444
 1501SOL     OW15961   1.203   3.652   9.205  0.1513  0.1933  0.4311
 1501SOL    HW115962   1.169   3.628   9.118  2.3378 -0.8239 -0.1423
 1501SOL    HW215963   1.138   3.623   9.269 -2.1552  2.3078 -0.9707
 1502SOL     OW15964   1.159   1.396   6.978  0.2967  0.0805  0.0003
 1502SOL    HW115965   1.193   1.472   7.025  1.1226 -1.2629  1.5893
 1502SOL    HW215966   1.225   1.330   7.000  1.4716  1.4026  0.4759
 1503SOL     OW15967   3.827   1.977   4.900  0.1720  0.7025 -0.1366
 1503SOL    HW115968   3.789   2.065   4.903 -0.1016  0.5384  1.3874
 1503SOL    HW215969   3.820   1.946   4.990 -0.9771  1.3669  0.0004
 1504SOL     OW15970   2.773   0.746   2.626 -0.0326 -0.0380  0.0528
 1504SOL    HW115971   2.807   0.834   2.643 -0.8842  0.4095 -0.5157
 1504SOL    HW215972   2.782   0.735   2.531  2.9350  0.5643  0.2563
 1505SOL     OW15973   0.229   3.019   8.031 -0.6559 -0.0488 -0.2112
 1505SOL    HW115974   0.137   3.044   8.031 -0.7688 -0.4873 -1.0576
 1505SOL    HW215975   0.260   3.067   7.954 -0.5939  0.4591  0.1245
 1506SOL     OW15976   1.382   4.434   8.707 -0.1988  0.1620  0.4930
 1506SOL    HW115977   1.459   4.438   8.651  0.2549 -1.9341  0.9501
 1506SOL    HW215978   1.385   4.339   8.719 -0.4283  0.1659  0.6002
 1507SOL     OW15979   2.528   0.511  11.144 -0.3187  0.1692  0.6299
 1507SOL    HW115980   2.574   0.551  11.218 -1.8564  1.5417  0.8521
 1507SOL    HW215981   2.513   0.424  11.178 -0.0927  0.8023  2.3427
 1508SOL     OW15982   1.982   2.065   4.012  0.2880 -0.3270 -0.1307
 1508SOL    HW115983   1.994   2.058   4.106 -0.4204  1.2281  0.0569
 1508SOL    HW215984   2.045   2.134   3.991  0.1371 -0.2488 -0.3248
 1509SOL     OW15985   1.393   0.711   7.245  0.4962  0.4149 -0.0876
 1509SOL    HW115986   1.459   0.727   7.313  0.1265  2.5323 -0.2232
 1509SOL    HW215987   1.347   0.795   7.241  0.6081  0.4932  0.2368
 1510SOL     OW15988   2.417   3.145   6.004 -0.3172  0.4606  0.0321
 1510SOL    HW115989   2.480   3.165   5.935 -0.6997 -1.6684 -0.9515
 1510SOL    HW215990   2.445   3.058   6.032  0.7564  0.0984 -2.1878
 1511SOL     OW15991   0.855   4.619   5.316 -0.0640 -0.3935  0.5820
 1511SOL    HW115992   0.812   4.535   5.333 -0.1450 -0.2310  1.1647
 1511SOL    HW215993   0.823   4.674   5.387  1.6597 -0.2263  1.2243
 1512SOL     OW15994   1.165   1.789   1.575  0.2328  0.9189 -0.0652
 1512SOL    HW115995   1.141   1.878   1.598  2.6408  1.8023 -0.9807
 1512SOL    HW215996   1.259   1.808   1.567  0.0828  1.9183  0.6186
 1513SOL     OW15997   3.204   0.450   8.740 -0.0157 -0.4556 -0.0038
 1513SOL    HW115998   3.166   0.398   8.811 -0.3039  2.1831  1.7618
 1513SOL    HW215999   3.136   0.517   8.737 -2.0668 -2.4893  0.7136
 1514SOL     OW16000   4.052   1.462   7.698 -0.3877 -0.2426  0.3666
 1514SOL    HW116001   4.059   1.405   7.774  1.4211 -0.1381  0.2732
 1514SOL    HW216002   4.079   1.548   7.731  1.6398 -1.4633  1.8844
 1515SOL     OW16003   4.156   0.659   3.454 -0.2475  0.1626 -0.0620
 1515SOL    HW116004   4.204   0.692   3.378 -1.3339  0.6991 -0.5061
 1515SOL    HW216005   4.066   0.658   3.422 -0.2839 -2.1965  0.1152
 1516SOL     OW16006   1.092   4.139   7.535 -0.1476 -0.3086  0.2990
 1516SOL    HW116007   1.085   4.094   7.619 -1.6380 -0.4320  0.1133
 1516SOL    HW216008   0.999   4.135   7.512 -0.5220  2.9585  1.2462
 1517SOL     OW16009   4.354   0.159  16.551  0.3274  0.3017  0.6938
 1517SOL    HW116010   4.375   0.071  16.583 -0.7859 -0.4649 -0.6979
 1517SOL    HW216011   4.296   0.187  16.622 -1.0493 -0.5226 -0.1205
 1518SOL     OW16012   4.604   3.284   4.575 -0.7172 -0.2282 -0.0915
 1518SOL    HW116013   4.599   3.274   4.670  2.1145  1.4487  0.2227
 1518SOL    HW216014   4.556   3.366   4.577 -0.4780 -0.1199  1.6983
 1519SOL     OW16015   2.487   4.577   2.990  0.1280 -0.1846 -0.5173
 1519SOL    HW116016   2.567   4.552   2.943  0.2363 -2.1409  0.7370
 1519SOL    HW216017   2.489   4.524   3.069  1.2331 -2.0244 -1.7647
 1520SOL     OW16018   0.257   4.571   6.689 -0.0827 -0.0147 -0.5485
 1520SOL    HW116019   0.331   4.628   6.669 -1.0777  1.4448 -0.0463
 1520SOL    HW216020   0.185   4.633   6.678 -1.3620 -1.3685  0.0628
 1521SOL     OW16021   4.195   4.505   7.216 -0.5438 -0.0184 -0.5299
 1521SOL    HW116022   4.121   4.451   7.245 -0.8850  1.2356  0.9319
 1521SOL    HW216023   4.264   4.487   7.281 -0.2894  0.5459 -0.6471
 1522SOL     OW16024   3.860   2.409   7.506  0.2970  0.6091  0.1044
 1522SOL    HW116025   3.877   2.427   7.598  0.6385  0.1000  0.1370
 1522SOL    HW216026   3.945   2.441   7.474  0.7709 -0.5183  0.2498
 1523SOL     OW16027   3.747   0.898   3.539  0.0408 -0.7910 -0.1255
 1523SOL    HW116028   3.792   0.895   3.454  0.3385  2.0700 -0.0683
 1523SOL    HW216029   3.819   0.855   3.586  0.6662 -0.0494 -0.3978
 1524SOL     OW16030   1.605   0.670   5.047  0.7428  0.3903  0.5042
 1524SOL    HW116031   1.523   0.715   5.029  0.6840  0.1690  0.2018
 1524SOL    HW216032   1.609   0.613   4.970 -0.8099  1.6663 -0.5192
 1525SOL     OW16033   3.824   1.976   8.670 -0.1704  0.6605 -0.2490
 1525SOL    HW116034   3.789   1.887   8.665  0.4480  0.4649 -1.1289
 1525SOL    HW216035   3.909   1.969   8.714 -0.0170 -0.1587 -0.6825
 1526SOL     OW16036   0.387   4.046   4.493 -0.1776  0.8329 -0.3356
 1526SOL    HW116037   0.325   4.118   4.506 -1.3759 -0.5000  1.2164
 1526SOL    HW216038   0.339   3.977   4.539 -1.2819  0.5493 -1.9244
 1527SOL     OW16039   1.593   0.844  11.870 -0.0572 -0.4327 -0.2030
 1527SOL    HW116040   1.589   0.896  11.950  0.2616 -0.6746 -0.0274
 1527SOL    HW216041   1.624   0.910  11.807 -0.2632  1.3565  1.5752
 1528SOL     OW16042   0.279   1.885   8.885  0.5298  0.1240  0.0101
 1528SOL    HW116043   0.365   1.890   8.927  2.1149 -0.5166 -3.2259
 1528SOL    HW216044   0.257   1.977   8.899 -1.2772 -0.4484  1.0379
 1529SOL     OW16045   1.742   0.526   3.449 -0.1460 -0.1790  0.2690
 1529SOL    HW116046   1.744   0.435   3.420 -0.7815 -0.3904  0.8971
 1529SOL    HW216047   1.836   0.545   3.449 -0.3130  0.5728  2.1919
 1530SOL     OW16048   0.916   2.358   6.425 -0.0504 -0.1983  0.3242
 1530SOL    HW116049   0.975   2.291   6.390 -2.9633 -1.7115 -1.7416
 1530SOL    HW216050   0.953   2.433   6.378  2.9845 -0.9891  1.4764
 1531SOL     OW16051   3.086   4.098  17.167  0.3348  0.4384  0.7956
 1531SOL    HW116052   3.031   4.055  17.101 -0.3446  1.3830  0.7419
 1531SOL    HW216053   3.078   4.041  17.243 -3.0449  1.9416  1.5784
 1532SOL     OW16054   1.045   1.360   5.994 -0.5877  0.1598 -0.1957
 1532SOL    HW116055   1.021   1.301   5.922  0.4415 -0.6180  0.0892
 1532SOL    HW216056   0.971   1.364   6.053 -0.7743  0.8494 -0.4785
 1533SOL     OW16057   2.941   4.520   5.332 -0.3405  0.3165 -0.5534
 1533SOL    HW116058   2.905   4.544   5.418 -1.9348 -1.4387 -0.7191
 1533SOL    HW216059   2.939   4.424   5.340 -0.2795  0.3580 -0.0054
 1534SOL     OW16060   4.581   1.186   5.456 -0.2657 -0.7126  0.1185
 1534SOL    HW116061   4.499   1.235   5.456  0.8564  1.1765  1.3958
 1534SOL    HW216062   4.575   1.145   5.542 -2.5828 -0.2249  0.1796
 1535SOL     OW16063   3.223   1.217   3.722  0.0600  0.5254  0.1312
 1535SOL    HW116064   3.266   1.302   3.729 -1.9775  1.5342  0.4398
 1535SOL    HW216065   3.238   1.174   3.806  1.7433  2.0238  0.6033
 1536SOL     OW16066   0.901   3.736   3.144 -0.4343  0.0653 -0.2494
 1536SOL    HW116067   0.941   3.793   3.079 -1.8706 -1.4209 -2.4196
 1536SOL    HW216068   0.980   3.706   3.188 -0.2562  0.2297 -0.4550
 1537SOL     OW16069   0.111   2.592   4.297 -0.5817  0.5305  0.2224
 1537SOL    HW116070   0.087   2.500   4.286  0.8212  0.0698  1.0187
 1537SOL    HW216071   0.056   2.632   4.229  1.1726  0.7697 -1.0637
 1538SOL     OW16072   2.620   1.845  14.270  0.8223  0.7815  0.2468
 1538SOL    HW116073   2.645   1.918  14.214  0.6119 -0.3058 -1.2700
 1538SOL    HW216074   2.677   1.773  14.244  0.7398 -0.4734  3.4590
 1539SOL     OW16075   0.767   4.145   1.503  0.1085 -0.5040  0.3830
 1539SOL    HW116076   0.751   4.235   1.475  0.0479  0.4029  3.3369
 1539SOL    HW216077   0.717   4.105   1.432 -1.4222  0.3822  0.9726
 1540SOL     OW16078   3.637   1.132  16.171 -0.0415  0.3662 -0.4700
 1540SOL    HW116079   3.545   1.132  16.198  1.0710 -1.6766  3.4405
 1540SOL    HW216080   3.641   1.228  16.167 -0.2940  0.5458  3.2763
 1541SOL     OW16081   2.848   0.970   9.942  0.4208  0.4970 -0.4084
 1541SOL    HW116082   2.918   0.905   9.940 -1.2748 -1.3312 -0.6933
 1541SOL    HW216083   2.851   0.984  10.037 -0.0110  2.0953 -0.6385
 1542SOL     OW16084   3.179   2.722   6.594  0.1960 -0.1609  0.2396
 1542SOL    HW116085   3.250   2.663   6.619 -0.5431 -0.9652  0.4640
 1542SOL    HW216086   3.182   2.738   6.500  1.2970 -1.1929  0.1040
 1543SOL     OW16087   0.627   0.594   3.777  0.0805 -0.7131  0.2216
 1543SOL    HW116088   0.680   0.637   3.843  2.5026 -1.2252 -1.4102
 1543SOL    HW216089   0.582   0.669   3.736 -0.8239 -1.0366  0.6077
 1544SOL     OW16090   3.172   3.439   2.283  0.4108  0.2928  0.3901
 1544SOL    HW116091   3.244   3.464   2.225 -1.2086 -0.0952 -1.7815
 1544SOL    HW216092   3.115   3.409   2.212 -2.0567  0.5085  2.2788
 1545SOL     OW16093   3.495   3.216   6.475 -0.1747 -0.3122 -0.1928
 1545SOL    HW116094   3.524   3.217   6.567 -0.7957 -1.8865  0.0084
 1545SOL    HW216095   3.432   3.145   6.479 -1.5292  0.9191  0.2107
 1546SOL     OW16096   4.083   2.640  17.436  0.2072 -0.3900  0.4882
 1546SOL    HW116097   4.096   2.550  17.466  0.1283 -0.9177 -1.0455
 1546SOL    HW216098   4.035   2.629  17.354  0.1500  0.8548  0.3451
 1547SOL     OW16099   0.721   3.698  16.165 -0.1364 -0.0554  0.3707
 1547SOL    HW116100   0.730   3.616  16.116  1.6887  0.9260 -0.9002
 1547SOL    HW216101   0.779   3.758  16.119 -1.5163 -0.0006 -1.2805
 1548SOL     OW16102   3.644   1.494   4.261 -0.3171 -0.1918  0.2366
 1548SOL    HW116103   3.671   1.423   4.318 -0.4282 -0.0813  0.4285
 1548SOL    HW216104   3.622   1.551   4.335  1.8042  0.2034  0.5600
 1549SOL     OW16105   2.680   3.594   1.772  0.0781  0.1077 -0.0946
 1549SOL    HW116106   2.646   3.511   1.739  2.5228 -0.7927 -0.3701
 1549SOL    HW216107   2.773   3.580   1.753  0.2859  2.6633 -0.9018
 1550SOL     OW16108   0.110   0.050   2.065  0.1812 -0.3462 -0.1799
 1550SOL    HW116109   0.048   0.003   2.011  2.4341 -0.5674 -2.5613
 1550SOL    HW216110   0.095   0.137   2.030 -3.0284 -1.7175 -2.1890
 1551SOL     OW16111   2.995   3.224   8.542 -0.2290  0.2732  0.0117
 1551SOL    HW116112   3.034   3.309   8.563  0.3234  0.2279 -0.8267
 1551SOL    HW216113   2.913   3.245   8.498 -0.8683  1.7319  1.8879
 1552SOL     OW16114   1.181   2.509   3.261 -0.5210 -0.0274 -0.2102
 1552SOL    HW116115   1.176   2.535   3.353  0.7386 -1.3468  0.2543
 1552SOL    HW216116   1.092   2.521   3.229 -0.6577 -1.4057 -0.3644
 1553SOL     OW16117   4.714   3.255   2.365 -0.8077  0.3059  0.2000
 1553SOL    HW116118   0.054   3.191   2.403 -0.8738  1.2116  1.8245
 1553SOL    HW216119   4.679   3.203   2.293  0.3824  1.4553 -1.1971
 1554SOL     OW16120   3.952   0.829   4.952  0.0631 -0.4378 -0.7548
 1554SOL    HW116121   3.986   0.896   4.893  0.4532  1.5211  1.6966
 1554SOL    HW216122   4.030   0.791   4.991 -0.4381  0.6508  1.2699
 1555SOL     OW16123   0.449   1.246   2.419  0.4269  0.2495 -0.1347
 1555SOL    HW116124   0.469   1.197   2.339 -0.3100  1.8028 -1.2704
 1555SOL    HW216125   0.503   1.202   2.485 -2.9004  0.1487  2.4665
 1556SOL     OW16126   1.967   0.031   8.821 -0.1878  0.1815  0.4238
 1556SOL    HW116127   1.872   0.026   8.809 -0.0947  0.3186 -0.3869
 1556SOL    HW216128   1.974   4.657   8.838  1.7823  0.5707  1.6136
 1557SOL     OW16129   0.620   0.473  16.027  0.3732 -0.4492  0.3109
 1557SOL    HW116130   0.646   0.387  15.994  2.6141  0.5481 -0.5452
 1557SOL    HW216131   0.692   0.493  16.087 -0.7855  2.5753  0.6798
 1558SOL     OW16132   3.816   3.362   5.322  0.2507  0.0809  0.8629
 1558SOL    HW116133   3.723   3.351   5.338  1.0030 -3.9139  2.5686
 1558SOL    HW216134   3.844   3.354   5.414  0.2365  1.1680  0.9661
 1559SOL     OW16135   3.431   3.812   5.263 -0.0222  0.2533 -0.2050
 1559SOL    HW116136   3.372   3.884   5.287 -0.1299 -0.5760  1.9666
 1559SOL    HW216137   3.480   3.813   5.345 -1.3951 -0.3727  0.6253
 1560SOL     OW16138   2.297   4.498  15.183  0.1561  0.2269 -0.4133
 1560SOL    HW116139   2.366   4.432  15.188  1.4902  1.6787  0.4431
 1560SOL    HW216140   2.231   4.458  15.126  0.8219 -2.4386  0.7059
 1561SOL     OW16141   1.180   3.781   1.828  0.4088 -0.1229 -0.7317
 1561SOL    HW116142   1.098   3.828   1.818 -0.5255 -1.5673  0.0218
 1561SOL    HW216143   1.227   3.830   1.895  2.3682 -0.3042 -1.9696
 1562SOL     OW16144   3.925   1.060   7.763 -0.4378 -0.2676  0.1720
 1562SOL    HW116145   3.942   1.043   7.670  1.0769  0.7393  0.2664
 1562SOL    HW216146   3.830   1.058   7.776 -0.4459 -1.1227 -0.0528
 1563SOL     OW16147   0.155   2.405   4.010  0.2671 -0.0534  0.4672
 1563SOL    HW116148   0.091   2.474   4.029 -1.4357 -1.2844 -0.8154
 1563SOL    HW216149   0.121   2.323   4.046  1.7461 -0.6657  0.4598
 1564SOL     OW16150   2.777   2.361  17.008  0.2964 -0.0353  0.5921
 1564SOL    HW116151   2.837   2.409  16.952 -0.5643 -0.8041 -1.0108
 1564SOL    HW216152   2.787   2.272  16.975  0.5510  0.8245 -1.6111
 1565SOL     OW16153   0.388   4.002  13.080 -0.3896 -0.0733 -0.7959
 1565SOL    HW116154   0.440   3.952  13.016  2.9894  0.6757  1.3462
 1565SOL    HW216155   0.453   4.063  13.115 -1.0206 -0.8994  1.7398
 1566SOL     OW16156   3.651   2.202  11.721  0.3196 -0.0662  0.0688
 1566SOL    HW116157   3.694   2.210  11.636 -0.5745  0.8682 -0.2901
 1566SOL    HW216158   3.714   2.249  11.776 -0.1422 -0.8809  1.3107
 1567SOL     OW16159   2.472   2.175  13.731  0.1842 -0.0013 -0.1894
 1567SOL    HW116160   2.436   2.260  13.706  1.2318  0.4388 -0.1989
 1567SOL    HW216161   2.395   2.118  13.727 -0.3442  0.6889  0.2656
 1568SOL     OW16162   2.058   2.670   7.387  0.0144 -0.5903  0.2744
 1568SOL    HW116163   2.092   2.618   7.459  0.2645 -0.5114  0.2146
 1568SOL    HW216164   1.971   2.685   7.423  0.2663 -1.4168  1.1977
 1569SOL     OW16165   4.423   3.337   4.927  0.2765 -0.3142 -0.3123
 1569SOL    HW116166   4.431   3.419   4.879  0.1058 -0.3983 -0.4815
 1569SOL    HW216167   4.331   3.339   4.955  0.4326  1.4153  0.1084
 1570SOL     OW16168   3.730   2.007   5.541  0.2516 -0.2040  0.7874
 1570SOL    HW116169   3.722   2.045   5.628  0.2509  2.3671 -0.3375
 1570SOL    HW216170   3.815   1.964   5.532  0.9642  1.3565  0.0347
 1571SOL     OW16171   1.510   2.468   1.726 -0.0213 -0.0376 -0.4987
 1571SOL    HW116172   1.464   2.551   1.736 -1.4898 -0.9269  0.1436
 1571SOL    HW216173   1.593   2.487   1.770  0.0552 -0.7773 -0.3261
 1572SOL     OW16174   2.171   0.248   7.414 -0.1227 -0.1526 -0.1794
 1572SOL    HW116175   2.154   0.256   7.320 -2.2759 -0.0046  0.2369
 1572SOL    HW216176   2.186   0.154   7.427 -1.0201 -0.2953 -0.2224
 1573SOL     OW16177   3.083   1.802  14.969  0.1005  0.5388 -0.7376
 1573SOL    HW116178   2.992   1.801  14.996  1.0184 -1.4327  2.3097
 1573SOL    HW216179   3.076   1.769  14.879  2.1476  2.6447 -1.6767
 1574SOL     OW16180   0.357   2.838   4.983  0.4248  0.7953  0.2502
 1574SOL    HW116181   0.372   2.877   5.069  1.3582  0.1390  0.3887
 1574SOL    HW216182   0.438   2.792   4.961  1.2725  3.5230 -2.4473
 1575SOL     OW16183   2.516   0.847   0.727 -0.1422  0.4159  0.1457
 1575SOL    HW116184   2.467   0.773   0.693  1.8202 -1.1914  0.8331
 1575SOL    HW216185   2.474   0.864   0.812  1.6725  0.1742  1.0870
 1576SOL     OW16186   0.249   1.804   7.259  0.6113 -0.6793  0.4072
 1576SOL    HW116187   0.231   1.726   7.312 -2.2859 -0.1968  0.0790
 1576SOL    HW216188   0.307   1.767   7.192 -1.4366 -1.5038 -0.8849
 1577SOL     OW16189   4.081   4.600   3.306 -0.6047  0.0738 -0.0647
 1577SOL    HW116190   4.176   4.598   3.309 -0.6162 -0.4410 -0.1945
 1577SOL    HW216191   4.067   4.545   3.229  1.8125 -3.7628  2.2441
 1578SOL     OW16192   3.302   2.507   4.544 -0.5811  0.0179  0.3858
 1578SOL    HW116193   3.387   2.474   4.514  0.1143  2.4558 -0.2602
 1578SOL    HW216194   3.295   2.469   4.632  2.6432 -0.7927  0.3040
 1579SOL     OW16195   3.570   2.188   6.813  0.6140 -0.3838 -0.0902
 1579SOL    HW116196   3.500   2.124   6.810 -0.0374  0.3876 -1.4478
 1579SOL    HW216197   3.591   2.196   6.906 -1.1071  0.6911  0.1981
 1580SOL     OW16198   3.070   0.280   7.035 -0.4442  0.1628 -0.0208
 1580SOL    HW116199   3.061   0.189   7.063  1.1403  0.0683  0.1616
 1580SOL    HW216200   3.030   0.321   7.111 -1.0702  0.2321 -0.3861
 1581SOL     OW16201   1.934   2.984   0.951 -0.0631 -0.0468  0.8014
 1581SOL    HW116202   1.995   3.027   0.891 -1.8590 -0.0295 -1.0071
 1581SOL    HW216203   1.896   3.057   1.000 -0.6091  0.1437  0.0855
 1582SOL     OW16204   1.736   4.116   7.998 -0.4608 -0.4763  0.6330
 1582SOL    HW116205   1.724   4.109   8.093 -0.0445 -2.6290  0.5332
 1582SOL    HW216206   1.651   4.085   7.968 -0.1035 -0.6469 -0.2127
 1583SOL     OW16207   1.371   2.460   8.972 -0.7428 -0.1938 -0.2851
 1583SOL    HW116208   1.424   2.473   8.893 -1.4937  0.8246 -0.6151
 1583SOL    HW216209   1.381   2.365   8.981  0.2178 -0.0786 -0.1506
 1584SOL     OW16210   2.454   4.391  15.962 -0.0847  0.4636  0.1668
 1584SOL    HW116211   2.388   4.333  15.999 -1.1259  2.0527  0.8107
 1584SOL    HW216212   2.413   4.398  15.875 -0.7970  1.5843  0.5863
 1585SOL     OW16213   1.778   0.214   0.493 -0.0753 -0.1182 -0.2650
 1585SOL    HW116214   1.719   0.252   0.428  0.0647  0.4602 -0.0554
 1585SOL    HW216215   1.789   0.130   0.448  2.6047 -0.7169  1.5062
 1586SOL     OW16216   4.586   2.004   4.083  0.0887  0.4457 -0.5519
 1586SOL    HW116217   4.509   1.958   4.051 -0.1724  0.3148  0.2651
 1586SOL    HW216218   4.579   2.084   4.032 -1.3846  1.1386  0.7528
 1587SOL     OW16219   2.726   3.612  15.509 -0.5674 -0.4617 -0.4497
 1587SOL    HW116220   2.760   3.645  15.426 -0.2866 -0.8087 -0.4737
 1587SOL    HW216221   2.665   3.543  15.483 -0.1824 -0.5538 -1.1023
 1588SOL     OW16222   1.888   1.083   2.125 -0.0568 -0.1067 -0.5350
 1588SOL    HW116223   1.933   1.147   2.071  1.6081 -2.7243 -2.2499
 1588SOL    HW216224   1.806   1.077   2.075 -0.4577 -0.7780  0.1960
 1589SOL     OW16225   2.423   2.703  11.663  0.1596  0.2130  0.8401
 1589SOL    HW116226   2.381   2.637  11.608  0.5085 -0.3423  1.2391
 1589SOL    HW216227   2.505   2.656  11.678  1.9681  2.1105 -3.1079
 1590SOL     OW16228   0.660   2.827   2.973 -0.5584  0.2091  0.1165
 1590SOL    HW116229   0.673   2.742   3.016  0.9413  0.0615 -0.6227
 1590SOL    HW216230   0.722   2.823   2.900 -0.9166  0.3123 -0.1880
 1591SOL     OW16231   3.672   3.004   3.452  0.7211 -0.4116  0.2021
 1591SOL    HW116232   3.588   3.019   3.408  0.2133 -0.4751  1.1596
 1591SOL    HW216233   3.683   3.092   3.488 -0.1432  0.9692 -2.9069
 1592SOL     OW16234   2.573   3.174   5.448  0.0942  0.2768 -0.1897
 1592SOL    HW116235   2.487   3.210   5.424  0.3965  2.9751  2.8468
 1592SOL    HW216236   2.625   3.174   5.367  2.0518 -2.2341  1.0707
 1593SOL     OW16237   1.478   2.252  12.972 -0.2130  0.6165  0.2044
 1593SOL    HW116238   1.490   2.157  12.969  0.7658  0.8009 -1.6808
 1593SOL    HW216239   1.486   2.265  12.878 -0.2627 -2.2631 -0.1813
 1594SOL     OW16240   1.763   1.216  10.761  0.2356 -0.3189  0.1985
 1594SOL    HW116241   1.835   1.239  10.819  1.1180 -1.2449 -0.5230
 1594SOL    HW216242   1.795   1.138  10.715  2.1030 -1.3613  3.2595
 1595SOL     OW16243   2.375   1.195  15.089  0.3041 -0.1281 -0.3728
 1595SOL    HW116244   2.395   1.161  15.002  0.0447  0.9673 -0.8642
 1595SOL    HW216245   2.281   1.213  15.088  0.2052 -0.6320  0.1428
 1596SOL     OW16246   1.733   0.114   9.058 -0.2537  0.4464  0.1268
 1596SOL    HW116247   1.804   0.175   9.039 -0.0562 -0.3828 -1.8647
 1596SOL    HW216248   1.668   0.140   8.993  0.8635  1.5571 -0.5440
 1597SOL     OW16249   2.129   3.858   3.737 -0.7711 -0.7417 -0.1555
 1597SOL    HW116250   2.153   3.892   3.823 -1.2490  3.0140 -1.5086
 1597SOL    HW216251   2.207   3.804   3.726 -0.5169 -0.3729 -0.1560
 1598SOL     OW16252   1.860   3.105  12.949 -0.4397 -0.0192 -0.1141
 1598SOL    HW116253   1.945   3.145  12.969 -0.1789  0.1347 -1.5655
 1598SOL    HW216254   1.815   3.113  13.034  1.4060  1.0599  0.7529
 1599SOL     OW16255   3.993   2.905   8.086 -0.1543  0.1078 -0.4376
 1599SOL    HW116256   3.897   2.907   8.078  0.0288 -0.6485 -2.9007
 1599SOL    HW216257   4.004   2.823   8.037 -1.9166  0.7291 -1.9051
 1600SOL     OW16258   1.920   4.101  13.869  0.3442 -0.7028 -0.2550
 1600SOL    HW116259   1.847   4.151  13.832  0.2009 -1.0377 -0.4322
 1600SOL    HW216260   1.898   4.093  13.962  0.3981  0.4035 -0.1453
 1601SOL     OW16261   1.357   2.616  10.815 -0.2092 -0.3124 -0.2516
 1601SOL    HW116262   1.452   2.625  10.812 -0.3591  1.0379 -1.0017
 1601SOL    HW216263   1.352   2.555  10.889  1.2075  0.5628  0.5602
 1602SOL     OW16264   1.986   1.311   8.881 -0.4900 -0.1324 -0.1497
 1602SOL    HW116265   1.930   1.272   8.814  0.1734  1.2797 -1.5261
 1602SOL    HW216266   2.066   1.262   8.862  0.6988  1.4707  0.6486
 1603SOL     OW16267   2.096   1.009   1.585 -0.3217 -0.0931  0.7427
 1603SOL    HW116268   2.040   0.950   1.635 -2.2798  0.2873 -0.9650
 1603SOL    HW216269   2.123   1.072   1.652  1.7467 -2.3679  2.0373
 1604SOL     OW16270   0.633   4.290  10.335 -0.0490 -0.0134  0.4752
 1604SOL    HW116271   0.713   4.337  10.312  0.4715 -0.5251  1.2684
 1604SOL    HW216272   0.627   4.209  10.284 -0.2947 -0.3673  1.0668
 1605SOL     OW16273   1.457   0.781   6.797  0.1831  0.4172 -0.6403
 1605SOL    HW116274   1.377   0.796   6.747 -0.9480 -2.2395  0.3326
 1605SOL    HW216275   1.448   0.828   6.879  1.0721  1.5173 -1.1839
 1606SOL     OW16276   1.936   4.440  12.121  0.2096  0.0158  0.4816
 1606SOL    HW116277   1.929   4.390  12.203 -3.0495 -2.9958 -1.6442
 1606SOL    HW216278   2.025   4.475  12.125  0.5008 -0.7373  0.5735
 1607SOL     OW16279   0.468   1.317  14.380 -0.2054 -0.7471 -0.2517
 1607SOL    HW116280   0.376   1.310  14.352 -0.6924  1.2908  0.8114
 1607SOL    HW216281   0.454   1.322  14.475  1.1054  0.1608 -0.1046
 1608SOL     OW16282   3.010   3.865   2.706  0.3299  0.3575  0.4800
 1608SOL    HW116283   3.019   3.866   2.611 -0.8714  2.3072  0.3679
 1608SOL    HW216284   3.047   3.779   2.726  1.0978  0.7994  0.9446
 1609SOL     OW16285   4.461   1.866   3.661 -0.2692 -0.1492 -0.4057
 1609SOL    HW116286   4.499   1.932   3.603 -0.7860  2.3374  2.0791
 1609SOL    HW216287   4.422   1.814   3.591 -0.1871  0.0193 -0.5766
 1610SOL     OW16288   3.665   1.720   3.254 -0.4655  0.4087  0.3475
 1610SOL    HW116289   3.657   1.764   3.338  1.4450  3.2303 -0.9212
 1610SOL    HW216290   3.588   1.664   3.254 -2.0168  2.5416 -0.8281
 1611SOL     OW16291   3.659   3.402   7.776  0.2946  0.5808 -0.2967
 1611SOL    HW116292   3.632   3.328   7.721 -0.9426 -0.1616  1.3269
 1611SOL    HW216293   3.582   3.405   7.833 -0.4882  0.1503 -1.3325
 1612SOL     OW16294   2.037   3.676   0.132 -0.4229  0.1212  0.5134
 1612SOL    HW116295   2.064   3.585   0.119 -0.4125  0.0481  1.0516
 1612SOL    HW216296   2.064   3.680   0.224  1.5069 -1.8087  0.0111
 1613SOL     OW16297   2.077   3.036   7.917 -0.2417 -0.0898  0.0252
 1613SOL    HW116298   2.044   3.071   7.999  0.1918  0.4220 -0.0148
 1613SOL    HW216299   2.164   3.018   7.954 -0.5432 -3.2427 -0.8222
 1614SOL     OW16300   2.846   2.664  14.635 -0.2177 -0.0627 -0.3508
 1614SOL    HW116301   2.925   2.689  14.682 -1.5712  0.3341  1.7114
 1614SOL    HW216302   2.879   2.601  14.571 -0.3149 -0.5343  0.0562
 1615SOL     OW16303   3.001   0.834   1.817 -0.3396  0.1482 -0.0461
 1615SOL    HW116304   3.060   0.815   1.743 -1.7581  0.4320 -1.2627
 1615SOL    HW216305   2.991   0.929   1.814 -2.1426  0.0265  2.2560
 1616SOL     OW16306   2.446   3.597   5.582 -0.0396  0.0852 -0.3434
 1616SOL    HW116307   2.514   3.529   5.574  0.1085  0.0980  0.8024
 1616SOL    HW216308   2.465   3.660   5.513 -0.7977  0.5991 -0.0765
 1617SOL     OW16309   4.327   0.780   8.184 -0.0731  0.4742  0.6329
 1617SOL    HW116310   4.319   0.724   8.261  2.7631 -2.2107 -1.0226
 1617SOL    HW216311   4.265   0.848   8.211 -1.0139 -0.5344  1.0033
 1618SOL     OW16312   1.070   0.820   3.199 -0.0716 -0.1550 -0.2756
 1618SOL    HW116313   1.087   0.912   3.181  1.1575 -0.0275  1.5532
 1618SOL    HW216314   1.144   0.782   3.151  0.0559  0.1696 -0.3355
 1619SOL     OW16315   0.815   0.790  15.850 -0.2040  0.4136 -0.6270
 1619SOL    HW116316   0.848   0.825  15.933 -0.0536  0.9970 -0.9346
 1619SOL    HW216317   0.878   0.829  15.790  0.8052  1.4532  1.0938
 1620SOL     OW16318   3.010   4.079   6.232 -0.4069  0.4309  0.6238
 1620SOL    HW116319   3.055   4.137   6.293 -0.5063  0.4491  0.6797
 1620SOL    HW216320   2.919   4.099   6.256 -0.8965 -0.9395 -0.1021
 1621SOL     OW16321   4.680   2.146   7.976  0.4890  0.1886 -0.5210
 1621SOL    HW116322   4.638   2.115   7.895  1.5027 -2.7481  0.0807
 1621SOL    HW216323   0.033   2.084   7.979 -1.1167 -1.6285  1.2039
 1622SOL     OW16324   3.612   1.336   8.590  0.5960 -0.2236 -0.3269
 1622SOL    HW116325   3.619   1.393   8.514  1.3633 -2.1361 -1.6914
 1622SOL    HW216326   3.583   1.250   8.560  0.0616  0.1430 -0.8582
 1623SOL     OW16327   1.828   3.713   5.036  0.3978 -0.1302 -0.1591
 1623SOL    HW116328   1.822   3.629   5.082  0.2638  0.9114  1.7445
 1623SOL    HW216329   1.901   3.749   5.087 -0.2082  1.3756 -0.3650
 1624SOL     OW16330   2.624   1.476   7.811 -0.3412  0.6534 -0.0045
 1624SOL    HW116331   2.691   1.543   7.793  1.3245 -0.9658  0.1337
 1624SOL    HW216332   2.663   1.411   7.753 -0.5606 -1.4294  2.2108
 1625SOL     OW16333   0.409   2.749   7.997  0.0017 -0.1681 -0.1649
 1625SOL    HW116334   0.358   2.823   8.030  1.6488  2.4331 -3.4344
 1625SOL    HW216335   0.351   2.674   8.011 -0.4759 -0.2898 -2.6432
 1626SOL     OW16336   0.100   0.286   1.942 -0.2884 -0.1281  0.5982
 1626SOL    HW116337   0.129   0.251   1.858 -1.6053 -1.3553  0.6627
 1626SOL    HW216338   0.011   0.316   1.928 -0.6457 -0.5829  1.8395
 1627SOL     OW16339   3.027   2.055  15.241 -0.4194  0.0325 -0.1930
 1627SOL    HW116340   2.958   2.105  15.286  2.2847  3.4205  0.2072
 1627SOL    HW216341   3.030   2.100  15.157  1.6118 -1.5421 -0.9525
 1628SOL     OW16342   0.726   3.256  16.872  0.4439  0.5747  0.4847
 1628SOL    HW116343   0.715   3.323  16.805 -0.3038  0.0457  0.0775
 1628SOL    HW216344   0.694   3.178  16.827 -0.6824  1.4201 -0.1743
 1629SOL     OW16345   0.658   0.681   6.005 -0.0913  0.1827 -0.0803
 1629SOL    HW116346   0.673   0.595   5.966 -0.7027  0.1315 -0.2003
 1629SOL    HW216347   0.592   0.660   6.071 -1.2292  1.8932 -0.6492
 1630SOL     OW16348   1.887   1.825   4.332 -0.4181  0.6806 -0.1799
 1630SOL    HW116349   1.899   1.917   4.311  0.4729  0.5547 -0.2350
 1630SOL    HW216350   1.857   1.840   4.421  1.6388  0.7328  0.5189
 1631SOL     OW16351   1.045   3.746   7.305 -0.3497 -0.0128 -0.6624
 1631SOL    HW116352   1.082   3.713   7.223  0.9513  1.7543 -0.7814
 1631SOL    HW216353   0.969   3.790   7.266  0.1712  0.3734 -1.2304
 1632SOL     OW16354   2.170   3.484   3.301 -0.0917 -0.3918  0.4394
 1632SOL    HW116355   2.118   3.453   3.226  0.3943 -0.7622  0.2586
 1632SOL    HW216356   2.215   3.562   3.268 -1.9789  0.3108 -0.4944
 1633SOL     OW16357   1.476   2.118   2.217 -0.1482  0.1118 -0.1501
 1633SOL    HW116358   1.474   2.208   2.250  0.0151 -0.1109  0.4820
 1633SOL    HW216359   1.515   2.132   2.130  0.2658 -3.3013 -0.4899
 1634SOL     OW16360   3.214   1.501   6.876  0.6263  0.3055 -0.0529
 1634SOL    HW116361   3.120   1.486   6.870  0.7137 -0.4865  0.6739
 1634SOL    HW216362   3.229   1.471   6.966 -0.8562 -1.6321 -0.4737
 1635SOL     OW16363   1.086   3.421   8.232  0.5299  0.2481 -0.5036
 1635SOL    HW116364   1.059   3.334   8.201  0.6813 -0.0292  0.1429
 1635SOL    HW216365   1.160   3.445   8.176 -1.2245  1.5940 -2.2353
 1636SOL     OW16366   1.816   0.431  15.847  0.0014 -0.1371 -0.7650
 1636SOL    HW116367   1.800   0.417  15.754 -2.7214 -0.6969 -0.1926
 1636SOL    HW216368   1.754   0.373  15.890  1.2821 -1.8228 -1.1830
 1637SOL     OW16369   4.377   0.486   3.514  0.2983 -0.5204  0.7024
 1637SOL    HW116370   4.309   0.551   3.497  1.7447  0.4340 -1.4647
 1637SOL    HW216371   4.417   0.501   3.600 -3.1234 -0.4604  2.2669
 1638SOL     OW16372   1.917   2.462   6.783  0.2686 -0.4303 -0.4481
 1638SOL    HW116373   1.945   2.518   6.856  1.6431 -1.8822  0.1469
 1638SOL    HW216374   1.953   2.379   6.814 -0.5743 -0.7889 -0.4168
 1639SOL     OW16375   1.332   3.338  11.170  0.6116  0.7295  0.2169
 1639SOL    HW116376   1.292   3.313  11.253  0.5836  0.5247  0.1420
 1639SOL    HW216377   1.425   3.322  11.187  0.7754 -0.7042 -1.9781
 1640SOL     OW16378   4.160   1.432   8.163 -0.2371 -0.0562 -0.4123
 1640SOL    HW116379   4.247   1.396   8.182 -1.0518 -1.3811  0.9128
 1640SOL    HW216380   4.135   1.472   8.246  0.5481  0.9450 -0.6627
 1641SOL     OW16381   3.384   0.718   6.548  0.0132  0.3273  0.2517
 1641SOL    HW116382   3.307   0.667   6.524 -0.0344  0.2093  0.6577
 1641SOL    HW216383   3.360   0.802   6.508  0.6632  1.6580  2.6191
 1642SOL     OW16384   1.503   4.487   1.876 -0.0263 -0.2979 -0.1465
 1642SOL    HW116385   1.582   4.446   1.910 -1.1060 -3.6110 -1.6389
 1642SOL    HW216386   1.482   4.556   1.939  3.2921  0.8398 -0.3066
 1643SOL     OW16387   3.668   0.925   1.712  0.1646 -0.5840  0.1694
 1643SOL    HW116388   3.583   0.898   1.679 -0.8605  2.2985  0.4315
 1643SOL    HW216389   3.691   0.990   1.645  3.1080  1.7543  3.4295
 1644SOL     OW16390   0.279   4.430   2.956 -0.1312  0.5401 -0.3840
 1644SOL    HW116391   0.287   4.475   3.040 -1.1628  0.6205 -0.3219
 1644SOL    HW216392   0.184   4.434   2.946 -0.2399 -0.6201  0.2189
 1645SOL     OW16393   1.958   2.750   5.157  0.5829  0.1606 -0.6166
 1645SOL    HW116394   1.896   2.788   5.219 -0.5087 -1.0812 -0.9189
 1645SOL    HW216395   1.973   2.821   5.095  1.7309 -0.2138 -0.7712
 1646SOL     OW16396   2.245   1.760   4.860  0.3297  0.4590 -0.1724
 1646SOL    HW116397   2.161   1.799   4.833  0.0071  0.4190  0.8066
 1646SOL    HW216398   2.282   1.827   4.917  2.2090 -2.2715  1.7925
 1647SOL     OW16399   3.481   0.939  14.739 -0.2221  0.1096  0.1772
 1647SOL    HW116400   3.399   0.889  14.741 -0.3613  0.3450  0.4236
 1647SOL    HW216401   3.506   0.934  14.646 -1.1919 -1.3969 -0.0107
 1648SOL     OW16402   2.171   3.792   2.011  0.4733  0.4568  0.4818
 1648SOL    HW116403   2.167   3.857   1.940  1.4938 -0.8007 -0.7127
 1648SOL    HW216404   2.238   3.733   1.977 -0.5927 -0.1564 -0.5708
 1649SOL     OW16405   1.489   4.615   1.136  0.0544 -0.6613  1.0042
 1649SOL    HW116406   1.417   4.656   1.088  0.5689 -0.5936  0.2826
 1649SOL    HW216407   1.540   4.566   1.071  1.0580  0.2432  1.1187
 1650SOL     OW16408   2.025   3.197  13.388  0.0972  0.3336 -0.2105
 1650SOL    HW116409   2.030   3.166  13.297  0.9811 -1.4537  0.4357
 1650SOL    HW216410   1.949   3.141  13.402 -0.1698  0.8335  0.3570
 1651SOL     OW16411   2.615   4.545   0.493  0.3134 -0.0395 -0.4620
 1651SOL    HW116412   2.612   4.562   0.587 -4.3961 -0.4760 -0.5649
 1651SOL    HW216413   2.534   4.495   0.495  0.4115 -0.1779  0.0113
 1652SOL     OW16414   1.128   3.046   3.942  0.4098 -0.1095  0.0092
 1652SOL    HW116415   1.061   3.029   4.008  1.8255  1.4247  1.8596
 1652SOL    HW216416   1.198   3.010   3.997 -1.1799  0.8626  2.6686
 1653SOL     OW16417   2.737   1.291   8.537 -0.0226 -0.1810  0.3557
 1653SOL    HW116418   2.658   1.311   8.587  0.1280 -0.8145  0.8531
 1653SOL    HW216419   2.805   1.330   8.591  0.5213  0.1974 -0.6052
 1654SOL     OW16420   1.127   3.128  14.073 -0.3617 -0.0208  0.0114
 1654SOL    HW116421   1.092   3.098  13.988 -0.0941  0.7871 -0.3804
 1654SOL    HW216422   1.100   3.219  14.075 -0.3488  0.0119 -1.0015
 1655SOL     OW16423   1.326   3.241   5.632 -0.6990 -0.2701  0.0045
 1655SOL    HW116424   1.354   3.272   5.718  1.4455  0.4781 -0.9563
 1655SOL    HW216425   1.386   3.167   5.618  0.3695  0.3845  1.1426
 1656SOL     OW16426   1.584   1.962   4.237 -0.1203  0.1348  0.9358
 1656SOL    HW116427   1.612   1.887   4.184 -0.6749 -1.0490  2.3228
 1656SOL    HW216428   1.635   2.037   4.206 -0.9556  0.7554  1.0614
 1657SOL     OW16429   3.521   2.960   8.358 -0.1026  0.1994  0.1375
 1657SOL    HW116430   3.585   3.019   8.316 -1.2007 -1.3013 -3.6849
 1657SOL    HW216431   3.450   3.019   8.382 -0.9445 -1.6321  2.1008
 1658SOL     OW16432   1.972   0.451   3.184  0.0373 -0.5657 -0.4523
 1658SOL    HW116433   2.046   0.410   3.138  1.5000  0.2619  1.2042
 1658SOL    HW216434   1.982   0.545   3.171 -1.3836 -0.5541 -1.4989
 1659SOL     OW16435   1.536   0.707   9.952 -0.6161  0.1600  0.1033
 1659SOL    HW116436   1.505   0.638  10.011 -1.5431 -0.3504 -0.9885
 1659SOL    HW216437   1.517   0.790   9.997 -0.4470  0.1632  0.1700
 1660SOL     OW16438   1.662   4.448   9.791 -0.2700  0.6161 -0.4005
 1660SOL    HW116439   1.719   4.401   9.731  0.1478  1.8936 -1.0083
 1660SOL    HW216440   1.581   4.399   9.776  0.7698 -1.8769  2.0966
 1661SOL     OW16441   3.097   0.499   3.991 -0.1774 -0.2001 -0.7415
 1661SOL    HW116442   3.179   0.449   3.984 -0.4017 -0.6176 -0.4261
 1661SOL    HW216443   3.054   0.416   4.012  0.9319 -0.9921 -1.5549
 1662SOL     OW16444   2.813   3.116   1.815 -0.3673 -0.1718 -1.0137
 1662SOL    HW116445   2.876   3.058   1.858 -1.1913  2.0732  3.2080
 1662SOL    HW216446   2.829   3.105   1.721 -0.2850 -2.7404 -0.7207
 1663SOL     OW16447   2.563   4.625  15.986  0.2840  0.6719 -0.4457
 1663SOL    HW116448   2.531   4.535  15.981  0.5950  0.6403 -1.7872
 1663SOL    HW216449   2.512   4.684  15.931 -2.3549 -0.7136  0.5415
 1664SOL     OW16450   2.560   1.674   2.176 -0.0461  0.4072  0.0178
 1664SOL    HW116451   2.648   1.654   2.143 -0.1434  0.5855 -0.3480
 1664SOL    HW216452   2.511   1.607   2.130  2.3355  0.0272 -1.9867
 1665SOL     OW16453   1.786   3.988   6.971  0.9714 -0.1506  0.1041
 1665SOL    HW116454   1.737   3.907   6.969  1.1399 -0.3061  2.2567
 1665SOL    HW216455   1.878   3.963   6.980  0.2054 -2.8973  0.2088
 1666SOL     OW16456   4.348   2.753   4.376 -0.1469 -0.0824  0.0258
 1666SOL    HW116457   4.414   2.804   4.423 -1.2203  0.7262  0.6629
 1666SOL    HW216458   4.377   2.669   4.411  0.1393  0.1593  0.3811
 1667SOL     OW16459   1.773   0.782   5.857 -0.7123 -0.1412  0.6177
 1667SOL    HW116460   1.833   0.728   5.805 -0.5755 -0.9787  1.6467
 1667SOL    HW216461   1.700   0.720   5.856 -1.2068  0.4390  0.5962
 1668SOL     OW16462   1.099   2.597   7.893  0.3816 -0.2258  0.1508
 1668SOL    HW116463   1.046   2.542   7.951 -0.7199  1.4016  0.6893
 1668SOL    HW216464   1.187   2.592   7.932  0.9553 -0.3240 -1.1519
 1669SOL     OW16465   1.225   0.001  14.785  0.1153 -0.8474  0.1780
 1669SOL    HW116466   1.244   0.092  14.805  0.8368 -0.6984 -1.2135
 1669SOL    HW216467   1.266   4.717  14.699  2.4787  0.0326  1.2775
 1670SOL     OW16468   4.059   2.079   6.154 -0.2508  0.8830 -0.0638
 1670SOL    HW116469   4.117   2.141   6.110  0.1145 -0.6329 -1.7471
 1670SOL    HW216470   4.032   2.020   6.083 -0.2503  0.7628  0.0371
 1671SOL     OW16471   1.921   3.151   8.419 -0.1489 -0.0938  0.2912
 1671SOL    HW116472   1.837   3.161   8.464  0.4981  0.4886  1.3745
 1671SOL    HW216473   1.957   3.232   8.454 -2.0808  0.6795  0.4898
 1672SOL     OW16474   4.437   1.505   7.467 -0.3505  0.6037  0.5123
 1672SOL    HW116475   4.448   1.495   7.561 -0.5764 -3.1556  0.1469
 1672SOL    HW216476   4.354   1.459   7.459 -1.4516  2.4987  1.0621
 1673SOL     OW16477   3.345   3.449   4.040  0.0232  0.1285  0.0202
 1673SOL    HW116478   3.399   3.497   3.977  0.7164  1.1994  1.4623
 1673SOL    HW216479   3.268   3.505   4.044  0.3480  0.7490 -2.0753
 1674SOL     OW16480   4.032   1.248   6.589  0.5524 -0.0793  0.2944
 1674SOL    HW116481   3.949   1.216   6.624 -0.0714  0.8780 -0.3021
 1674SOL    HW216482   4.097   1.211   6.649 -0.5494 -0.3507  1.3224
 1675SOL     OW16483   1.821   1.433   8.561  0.7948 -0.9903  0.9105
 1675SOL    HW116484   1.830   1.342   8.589  1.2850 -1.2357 -0.0525
 1675SOL    HW216485   1.911   1.462   8.548  0.1022  0.0755 -1.5877
 1676SOL     OW16486   2.255   2.342   7.946  0.1236 -0.2770  0.5551
 1676SOL    HW116487   2.305   2.318   7.868  2.0494 -0.5954  1.8684
 1676SOL    HW216488   2.169   2.362   7.912  1.6521  2.5109 -1.6479
 1677SOL     OW16489   1.106   2.333  10.173  0.3292 -0.3911 -0.4811
 1677SOL    HW116490   1.025   2.384  10.172  1.5121  1.5243 -0.2016
 1677SOL    HW216491   1.076   2.263  10.231  0.1718  0.3778  0.3622
 1678SOL     OW16492   3.996   1.632   9.005  0.1880  0.0437  0.9719
 1678SOL    HW116493   4.004   1.718   9.047  0.5705 -0.1539  1.3113
 1678SOL    HW216494   4.016   1.589   9.089 -0.7331 -0.4776  0.9246
 1679SOL     OW16495   3.447   4.613   4.934  0.0853  0.0298 -0.4731
 1679SOL    HW116496   3.475   4.523   4.920  1.1514  0.4406 -0.9300
 1679SOL    HW216497   3.424   4.635   4.844 -0.9220 -0.8964 -0.4435
 1680SOL     OW16498   4.020   0.936   3.059 -0.2169 -0.2801  0.7964
 1680SOL    HW116499   3.997   0.957   2.968 -0.3195  0.6521  1.0361
 1680SOL    HW216500   4.004   0.842   3.052 -1.6038  0.1248 -1.6268
 1681SOL     OW16501   1.503   1.141  13.802  0.3224 -0.5544 -0.5972
 1681SOL    HW116502   1.562   1.079  13.844  1.6370  1.9950  1.2656
 1681SOL    HW216503   1.447   1.174  13.872  2.4023 -1.2123  1.3505
 1682SOL     OW16504   2.564   3.382   6.584 -0.7060  0.2501  0.1416
 1682SOL    HW116505   2.511   3.342   6.653  0.5559  1.9710  2.1093
 1682SOL    HW216506   2.504   3.450   6.554 -1.6115  0.4272  2.3571
 1683SOL     OW16507   1.234   2.063   6.784  0.2487  0.0027 -0.2286
 1683SOL    HW116508   1.148   2.033   6.814 -0.1803  0.4068 -1.0425
 1683SOL    HW216509   1.250   2.137   6.843 -1.1337  1.0923 -1.1947
 1684SOL     OW16510   0.118   0.756   8.018 -0.6909  0.7249  0.4806
 1684SOL    HW116511   0.164   0.767   8.101  0.9654 -0.6051 -0.2731
 1684SOL    HW216512   0.033   0.739   8.060 -1.6702  2.0660 -0.9579
 1685SOL     OW16513   0.203   1.568   2.979  0.0135 -0.0018  0.0239
 1685SOL    HW116514   0.250   1.524   2.908  0.2779  0.5537 -0.1458
 1685SOL    HW216515   0.280   1.604   3.023 -0.3038 -1.9993  2.2568
 1686SOL     OW16516   3.120   0.271   8.448 -0.1074  0.2559  0.0746
 1686SOL    HW116517   3.143   0.209   8.518  2.2645  2.1554  0.9797
 1686SOL    HW216518   3.189   0.336   8.460 -0.6301  0.9446 -0.6817
 1687SOL     OW16519   3.325   2.330   7.971  0.4765  0.0749  0.0533
 1687SOL    HW116520   3.361   2.401   8.025  3.3116 -0.6645 -0.8574
 1687SOL    HW216521   3.394   2.264   7.981 -0.6619 -0.9394  1.1731
 1688SOL     OW16522   3.157   1.699   5.362  0.0948  0.1626  0.6556
 1688SOL    HW116523   3.159   1.630   5.427 -0.3758 -0.4838 -0.0133
 1688SOL    HW216524   3.171   1.775   5.418  1.4285 -0.8363  1.6636
 1689SOL     OW16525   2.069   2.961  15.752 -0.1878  0.3650 -0.0722
 1689SOL    HW116526   2.013   3.023  15.704  0.3714  0.1849 -0.9559
 1689SOL    HW216527   2.003   2.895  15.772  0.0883  0.2850  0.5780
 1690SOL     OW16528   3.117   4.450   1.176  0.2598  0.9659 -0.2729
 1690SOL    HW116529   3.110   4.359   1.205 -2.1663  0.3716 -2.7125
 1690SOL    HW216530   3.185   4.447   1.109  0.7028  0.5195  0.2055
 1691SOL     OW16531   3.570   3.132   0.796 -0.5037 -0.8209 -0.2788
 1691SOL    HW116532   3.555   3.202   0.860 -0.4190 -0.2674 -0.8745
 1691SOL    HW216533   3.503   3.128   0.728 -1.1999  2.3103  0.2125
 1692SOL     OW16534   3.983   3.003  14.444 -0.0151 -0.1127  0.1872
 1692SOL    HW116535   3.998   3.056  14.365  0.1727 -0.1521  0.1969
 1692SOL    HW216536   3.963   3.077  14.502 -2.0203 -0.4104 -0.1328
 1693SOL     OW16537   2.987   1.715  17.315 -0.4380  0.7861  0.0646
 1693SOL    HW116538   3.061   1.767  17.345 -0.8945  1.8870 -0.6911
 1693SOL    HW216539   3.006   1.626  17.342  0.0456  0.5717 -0.9718
 1694SOL     OW16540   3.627   2.383   6.193 -0.2207  0.2924 -0.7147
 1694SOL    HW116541   3.697   2.444   6.217  0.0814 -0.4030  0.1724
 1694SOL    HW216542   3.639   2.328   6.270  0.5347 -1.7908 -2.3092
 1695SOL     OW16543   4.450   2.423  14.871  0.0441  0.1952  0.3797
 1695SOL    HW116544   4.489   2.339  14.845  3.7184  1.6335  1.1697
 1695SOL    HW216545   4.515   2.486  14.840 -0.4424  0.0309 -0.9717
 1696SOL     OW16546   4.689   0.239  16.372  0.3014 -0.4675  0.3609
 1696SOL    HW116547   4.644   0.302  16.428  1.7550  1.8233 -1.0247
 1696SOL    HW216548   0.053   0.285  16.368 -0.6501  1.3118  0.6921
 1697SOL     OW16549   1.517   2.163   4.427  0.4279  0.0204 -0.0936
 1697SOL    HW116550   1.559   2.186   4.344 -1.3678 -0.6016 -1.1887
 1697SOL    HW216551   1.479   2.246   4.454  1.1280 -0.0260  1.0067
 1698SOL     OW16552   4.400   2.177   3.636  0.2168 -0.1093  0.2272
 1698SOL    HW116553   4.493   2.188   3.658  0.6867 -0.1452 -1.6852
 1698SOL    HW216554   4.363   2.171   3.724 -2.5052 -0.3241 -0.9253
 1699SOL     OW16555   2.228   3.119   0.521  0.0093 -0.3358  0.1868
 1699SOL    HW116556   2.308   3.067   0.526  1.4273  1.6735 -1.5237
 1699SOL    HW216557   2.236   3.186   0.453  3.8493 -0.9501  0.0074
 1700SOL     OW16558   2.353   4.668   3.440  0.1925  0.3739 -0.0708
 1700SOL    HW116559   2.331   4.636   3.528 -1.2364 -0.1084 -0.6054
 1700SOL    HW216560   2.399   0.028   3.465  0.1588  0.3753 -0.0119
 1701SOL     OW16561   2.667   4.443  13.215  0.3091 -0.0078  0.8261
 1701SOL    HW116562   2.582   4.405  13.238 -1.1296  2.1232 -0.9827
 1701SOL    HW216563   2.647   4.470  13.126  0.9076  0.9639  0.9919
 1702SOL     OW16564   3.184   1.723   3.673 -0.4432 -0.0872  0.1412
 1702SOL    HW116565   3.244   1.649   3.683 -1.2200 -0.6417  0.6781
 1702SOL    HW216566   3.120   1.679   3.616 -0.0086  0.9736 -1.1751
 1703SOL     OW16567   2.291   3.895   5.596  0.4999  0.1792 -0.1660
 1703SOL    HW116568   2.371   3.947   5.586 -0.4632  1.6521 -0.1378
 1703SOL    HW216569   2.250   3.934   5.673 -0.1683  0.5713 -0.7170
 1704SOL     OW16570   2.802   4.502   9.717  0.0797  0.0531  0.5115
 1704SOL    HW116571   2.708   4.518   9.724  0.1162  0.4134  0.1783
 1704SOL    HW216572   2.829   4.553   9.794 -3.8290  3.3174 -0.3030
 1705SOL     OW16573   4.362   1.322   8.829 -0.0437 -0.2034  0.3221
 1705SOL    HW116574   4.363   1.299   8.922  0.0376 -0.0049  0.3708
 1705SOL    HW216575   4.277   1.291   8.798  0.1073 -0.4461  0.1510
 1706SOL     OW16576   4.630   0.795   5.965  0.0079  0.5168 -0.0494
 1706SOL    HW116577   4.719   0.786   5.931  0.3924  0.4473  0.9546
 1706SOL    HW216578   4.572   0.806   5.890 -0.1450 -1.0399 -0.1614
 1707SOL     OW16579   2.509   2.776   6.314 -0.0177 -1.0643 -0.2292
 1707SOL    HW116580   2.449   2.848   6.331  0.2965 -0.9660  0.4435
 1707SOL    HW216581   2.568   2.789   6.388  0.1466 -3.0459 -0.0072
 1708SOL     OW16582   0.353   3.858   3.478  0.3761  1.0650  0.2506
 1708SOL    HW116583   0.299   3.783   3.503  1.6426  0.0580 -0.0079
 1708SOL    HW216584   0.439   3.816   3.473 -1.6423 -2.9932 -0.1673
 1709SOL     OW16585   3.809   4.316   4.987 -0.4563 -0.8413  0.0393
 1709SOL    HW116586   3.723   4.291   4.954 -1.1319  2.9877 -1.0954
 1709SOL    HW216587   3.786   4.400   5.028 -1.1080 -0.8899 -0.2276
 1710SOL     OW16588   3.515   0.781   8.728 -0.6062 -0.0122  0.5862
 1710SOL    HW116589   3.435   0.774   8.779 -0.3708 -2.4582  0.5910
 1710SOL    HW216590   3.516   0.700   8.677 -0.9780  2.0579 -2.6909
 1711SOL     OW16591   4.636   4.494  16.088 -0.4286  0.5332 -0.6055
 1711SOL    HW116592   4.595   4.419  16.046 -0.1945 -0.0856  0.2806
 1711SOL    HW216593   4.669   4.553  16.020  1.1899 -0.4463 -0.6739
 1712SOL     OW16594   2.354   3.688  16.291 -0.3017  0.3508  0.0492
 1712SOL    HW116595   2.450   3.694  16.288 -0.2656  0.1838  0.7228
 1712SOL    HW216596   2.336   3.637  16.370 -0.6802  2.5450  1.3888
 1713SOL     OW16597   4.438   3.063   1.096  0.1807 -0.3763 -0.1224
 1713SOL    HW116598   4.385   2.992   1.133 -2.3883  2.2003  1.1669
 1713SOL    HW216599   4.398   3.128   1.155 -0.9874  0.5704 -1.9589
 1714SOL     OW16600   4.501   3.824   1.207 -0.5201 -0.7442  0.3192
 1714SOL    HW116601   4.437   3.879   1.161  2.7140  1.9486 -0.9238
 1714SOL    HW216602   4.490   3.847   1.299  0.7725  0.0407  0.2746
 1715SOL     OW16603   2.738   0.743   4.573  0.5114 -0.0554  0.1304
 1715SOL    HW116604   2.791   0.822   4.575  0.9159 -0.3822  2.9167
 1715SOL    HW216605   2.674   0.774   4.509  0.4594 -1.7678 -0.6576
 1716SOL     OW16606   1.439   3.650   5.713 -0.1969 -0.1617 -0.3698
 1716SOL    HW116607   1.504   3.715   5.739  0.3111 -0.8476  0.0694
 1716SOL    HW216608   1.492   3.608   5.645  1.0024  2.6966 -1.2181
 1717SOL     OW16609   0.315   3.119   7.797  0.0702 -0.3683  0.5619
 1717SOL    HW116610   0.251   3.174   7.752  1.8000 -1.1639 -2.8991
 1717SOL    HW216611   0.389   3.127   7.736  0.5873  0.2511  1.2665
 1718SOL     OW16612   2.754   1.921   8.272  0.0436 -0.2929  0.2143
 1718SOL    HW116613   2.669   1.947   8.236  1.0140  0.5210 -1.4894
 1718SOL    HW216614   2.727   1.883   8.356  0.4349 -1.1619 -0.0477
 1719SOL     OW16615   1.015   0.854  15.688 -0.8216  0.3797  0.0008
 1719SOL    HW116616   1.026   0.923  15.623  0.2687 -1.1212 -1.4143
 1719SOL    HW216617   1.084   0.793  15.662  0.2130  0.8366  1.6818
 1720SOL     OW16618   4.500   1.391  12.662 -0.1159 -0.6894 -0.4797
 1720SOL    HW116619   4.575   1.346  12.622  1.1635  0.4757  0.5951
 1720SOL    HW216620   4.530   1.482  12.652  0.5946 -0.7449  1.1250
 1721SOL     OW16621   1.652   1.210   3.203  0.4267 -0.5477 -0.2155
 1721SOL    HW116622   1.685   1.294   3.173 -1.6342 -0.1516 -1.3980
 1721SOL    HW216623   1.572   1.238   3.248  0.5333  0.3144 -0.5695
 1722SOL     OW16624   1.514   1.802   4.428 -0.4665  0.0447  0.5473
 1722SOL    HW116625   1.529   1.870   4.362 -0.3078 -0.3647  0.1634
 1722SOL    HW216626   1.422   1.788   4.405 -0.9433  1.0252  1.8772
 1723SOL     OW16627   1.120   3.476  14.939 -0.2408 -0.0016  0.4067
 1723SOL    HW116628   1.109   3.546  14.875 -1.3815  1.6075  2.3596
 1723SOL    HW216629   1.191   3.432  14.893  0.0287  1.1154 -0.2396
 1724SOL     OW16630   2.803   3.285  14.324 -0.1785  0.0886 -0.2379
 1724SOL    HW116631   2.887   3.284  14.280 -0.4792 -0.7804 -0.7966
 1724SOL    HW216632   2.747   3.249  14.255  2.2028 -2.9126 -0.6129
 1725SOL     OW16633   1.173   4.392   7.388  0.0336  0.2015 -0.5241
 1725SOL    HW116634   1.135   4.317   7.433  0.2266  0.3872 -0.0597
 1725SOL    HW216635   1.115   4.456   7.428 -0.9907 -1.2700  0.3645
 1726SOL     OW16636   2.453   0.789   7.342 -0.1361 -0.2567 -0.6126
 1726SOL    HW116637   2.516   0.736   7.390 -1.8555  0.1373  2.0968
 1726SOL    HW216638   2.378   0.731   7.351 -2.0301  2.1695 -0.7151
 1727SOL     OW16639   1.588   1.409   2.322  0.7804 -0.5419  0.4893
 1727SOL    HW116640   1.525   1.482   2.314  2.6313  0.7892 -1.8319
 1727SOL    HW216641   1.605   1.409   2.416  0.3822 -2.1843  0.5619
 1728SOL     OW16642   1.002   0.580  13.951  0.6996 -0.5551 -0.8384
 1728SOL    HW116643   1.027   0.587  13.859  0.4368  3.4719 -0.5622
 1728SOL    HW216644   1.083   0.533  13.974  2.6317  2.3827 -1.6928
 1729SOL     OW16645   2.964   0.728  15.577  0.1291  0.4530  0.6933
 1729SOL    HW116646   3.022   0.729  15.501 -0.0808  1.5715  0.5483
 1729SOL    HW216647   2.919   0.643  15.566  0.9232  0.0802  0.3464
 1730SOL     OW16648   0.929   0.732   8.076  0.1052  0.5233 -0.1797
 1730SOL    HW116649   0.836   0.751   8.089 -0.1954 -0.8575 -0.2459
 1730SOL    HW216650   0.909   0.649   8.031 -1.7248  1.2921 -0.7735
 1731SOL     OW16651   3.030   4.604  17.157 -0.3326 -0.4376 -0.3076
 1731SOL    HW116652   2.955   4.549  17.177 -2.1975  1.7354 -1.3905
 1731SOL    HW216653   3.093   4.539  17.124  1.2947  0.0775  1.7760
 1732SOL     OW16654   1.319   1.468  12.573  0.4908  0.2965  0.1098
 1732SOL    HW116655   1.396   1.421  12.606  0.7865  0.7470  0.0626
 1732SOL    HW216656   1.289   1.387  12.532 -0.8982  1.0822 -0.4377
 1733SOL     OW16657   1.972   0.696  13.830 -0.0585 -0.0797 -0.3429
 1733SOL    HW116658   1.990   0.603  13.845  0.4918 -0.0752 -0.9836
 1733SOL    HW216659   1.881   0.692  13.799  0.3888  1.3329 -1.8476
 1734SOL     OW16660   0.157   0.836   2.688 -0.6981  0.3634 -0.1029
 1734SOL    HW116661   0.166   0.745   2.662  0.1806  0.7307 -1.1013
 1734SOL    HW216662   0.081   0.858   2.633 -2.5883 -0.5556  2.1630
 1735SOL     OW16663   3.415   3.187  14.173  0.6408 -0.0292 -0.3870
 1735SOL    HW116664   3.414   3.272  14.130 -1.6851  0.1925  0.1552
 1735SOL    HW216665   3.483   3.200  14.240  1.8956 -0.9048 -1.4796
 1736SOL     OW16666   3.701   4.613   3.471 -0.4064 -0.4286  0.0417
 1736SOL    HW116667   3.760   4.556   3.423 -0.2565 -0.6699  0.5196
 1736SOL    HW216668   3.704   4.689   3.412  0.0987  0.3068  1.0263
 1737SOL     OW16669   4.194   4.147   8.538 -0.2952  0.2420  0.5703
 1737SOL    HW116670   4.120   4.136   8.599 -0.7743 -1.2129 -0.2764
 1737SOL    HW216671   4.165   4.228   8.496  0.9973  0.8866  0.9246
 1738SOL     OW16672   0.937   0.133   6.029  0.1364 -0.0869  0.0973
 1738SOL    HW116673   0.910   0.171   6.112 -1.8884 -0.1731 -0.5286
 1738SOL    HW216674   0.985   0.057   6.063  0.9977  0.6334  0.4998
 1739SOL     OW16675   1.620   4.658   6.641  0.3139  0.2774  0.8398
 1739SOL    HW116676   1.652   4.574   6.674 -1.1447 -0.7534 -0.3967
 1739SOL    HW216677   1.691   4.716   6.668 -0.4416  1.0847  1.0875
 1740SOL     OW16678   2.944   2.801   5.012 -0.2845  0.1176  0.1918
 1740SOL    HW116679   2.877   2.735   5.032 -0.6339  0.4120 -0.0105
 1740SOL    HW216680   2.883   2.873   4.994 -0.8899 -0.1411  1.1506
 1741SOL     OW16681   2.877   0.751   0.139 -0.2341 -0.6568 -0.1977
 1741SOL    HW116682   2.838   0.782   0.057  2.9202  0.0601 -1.4220
 1741SOL    HW216683   2.959   0.800   0.135 -1.6504  1.6113 -2.2485
 1742SOL     OW16684   3.575   0.354   9.782 -0.2491  0.2048 -0.1562
 1742SOL    HW116685   3.538   0.405   9.709 -2.5481  0.7884  1.4104
 1742SOL    HW216686   3.615   0.282   9.733 -0.6737 -1.1225  1.4543
 1743SOL     OW16687   0.124   4.016   5.806  0.0798  0.3953 -0.4427
 1743SOL    HW116688   0.092   3.926   5.815  1.4307  0.0850  1.1857
 1743SOL    HW216689   0.044   4.059   5.837 -0.8222 -1.5875  0.0102
 1744SOL     OW16690   2.559   3.104  17.159 -0.2794  0.1864  0.0973
 1744SOL    HW116691   2.533   3.181  17.209 -0.1241 -0.0837  0.5971
 1744SOL    HW216692   2.577   3.045  17.232  1.2169 -1.1770 -1.3825
 1745SOL     OW16693   3.971   1.146  14.382 -0.5936  0.0865 -0.4282
 1745SOL    HW116694   4.022   1.226  14.399  0.3880 -0.0540 -2.8125
 1745SOL    HW216695   3.938   1.167  14.295  0.8570  0.7958 -0.8088
 1746SOL     OW16696   4.335   3.456  14.760 -0.3468  0.2160 -0.0672
 1746SOL    HW116697   4.257   3.426  14.807 -0.9343  0.2216 -1.0145
 1746SOL    HW216698   4.365   3.378  14.714  1.9324 -0.1097  2.0168
 1747SOL     OW16699   0.666   2.351   2.139 -0.1061 -0.0298 -0.2473
 1747SOL    HW116700   0.612   2.308   2.205 -0.8421 -0.3670 -1.0772
 1747SOL    HW216701   0.685   2.275   2.083  2.9083  1.3626 -1.0951
 1748SOL     OW16702   0.418   1.337  11.871  0.0530 -0.4403  0.3867
 1748SOL    HW116703   0.496   1.332  11.816 -1.3710  1.0851 -1.7506
 1748SOL    HW216704   0.457   1.392  11.939 -0.3852  2.8816 -2.0406
 1749SOL     OW16705   4.290   3.060   6.039 -0.1308 -0.0268 -0.4629
 1749SOL    HW116706   4.237   3.139   6.046 -0.0499  0.0313 -0.4977
 1749SOL    HW216707   4.239   3.011   5.975 -0.2894  0.8260 -0.9968
 1750SOL     OW16708   2.622   2.313  12.631 -0.5940 -0.1075 -0.1907
 1750SOL    HW116709   2.542   2.302  12.682 -1.2671  4.6429 -0.2370
 1750SOL    HW216710   2.680   2.365  12.686 -2.2898  1.7043 -0.1335
 1751SOL     OW16711   1.184   4.509   0.926  0.6201 -0.5695 -0.2689
 1751SOL    HW116712   1.263   4.562   0.915 -0.0224  0.4229 -0.0985
 1751SOL    HW216713   1.212   4.445   0.860  1.7427 -2.1640  1.7267
 1752SOL     OW16714   3.545   1.479   5.516  0.2362  0.7597  0.4422
 1752SOL    HW116715   3.565   1.491   5.423  0.2534 -1.3703  0.1817
 1752SOL    HW216716   3.511   1.565   5.543 -0.2890  1.3017 -2.0033
 1753SOL     OW16717   2.400   0.991   7.988  0.4000 -0.1741 -0.0168
 1753SOL    HW116718   2.470   0.939   7.949  0.0067 -1.3508  0.8745
 1753SOL    HW216719   2.321   0.949   7.954 -0.4114  0.8099  0.6295
 1754SOL     OW16720   1.481   2.755   6.336 -0.1901 -0.2041  0.3341
 1754SOL    HW116721   1.535   2.712   6.269 -0.3778 -1.4673  0.9755
 1754SOL    HW216722   1.399   2.713   6.311  0.7045 -1.1730 -0.9913
 1755SOL     OW16723   4.203   2.414   2.268  0.1099  0.0806  0.5686
 1755SOL    HW116724   4.286   2.368   2.255 -1.0709 -0.8482 -3.6212
 1755SOL    HW216725   4.228   2.500   2.233  0.1153 -0.2385 -0.2158
 1756SOL     OW16726   3.855   3.056   7.039 -0.0022 -0.4640  0.0242
 1756SOL    HW116727   3.919   2.987   7.022  1.3326  1.1691 -1.5827
 1756SOL    HW216728   3.833   3.050   7.132  1.4084 -0.6172  0.3365
 1757SOL     OW16729   2.177   1.829   6.379  0.3254 -0.4620  0.3667
 1757SOL    HW116730   2.220   1.819   6.294 -1.7866 -0.5210 -0.6962
 1757SOL    HW216731   2.089   1.796   6.360  0.9462 -1.7576 -0.2290
 1758SOL     OW16732   1.992   0.789   2.802  0.2646 -0.2936 -0.0550
 1758SOL    HW116733   2.021   0.869   2.758  2.1109  0.5455  2.7117
 1758SOL    HW216734   1.897   0.798   2.791  0.0887  1.0471  2.5337
 1759SOL     OW16735   0.374   3.270   8.120  0.3447  0.4795  0.6269
 1759SOL    HW116736   0.333   3.201   8.068 -0.2390  1.3690 -0.0979
 1759SOL    HW216737   0.354   3.244   8.210  2.8797 -1.0589  0.7554
 1760SOL     OW16738   1.595   0.422   1.671 -0.0092  0.1031 -0.7083
 1760SOL    HW116739   1.556   0.393   1.754  1.2533  0.5532  0.0353
 1760SOL    HW216740   1.521   0.470   1.633 -0.4690  1.1632  1.4922
 1761SOL     OW16741   3.293   1.556   7.781 -0.6333 -0.5018 -0.1747
 1761SOL    HW116742   3.271   1.479   7.728  0.1238  0.0354 -1.2652
 1761SOL    HW216743   3.240   1.537   7.858  0.8642  1.4527  1.3172
 1762SOL     OW16744   1.156   2.124   9.185  0.1366  0.6952  0.1815
 1762SOL    HW116745   1.105   2.203   9.204  0.6473  1.1772 -0.4601
 1762SOL    HW216746   1.231   2.168   9.146 -0.5755  1.0996 -0.7268
 1763SOL     OW16747   4.318   3.145   7.010 -0.5981  0.6897 -0.1841
 1763SOL    HW116748   4.373   3.222   6.994  0.7767 -0.3096 -0.2392
 1763SOL    HW216749   4.393   3.090   7.033 -0.4998  1.0148  0.2760
 1764SOL     OW16750   3.664   2.467   6.886  0.6398 -0.2130 -0.2387
 1764SOL    HW116751   3.735   2.445   6.946 -0.9872  2.6969  2.7757
 1764SOL    HW216752   3.648   2.387   6.837 -0.5283 -0.8114  1.1362
 1765SOL     OW16753   0.586   1.971  13.000  0.8247  0.1108  0.1207
 1765SOL    HW116754   0.665   1.958  12.948  0.3524  1.5778 -0.9719
 1765SOL    HW216755   0.607   1.966  13.093 -1.2121 -0.4981  0.5610
 1766SOL     OW16756   2.261   2.116   6.381  0.4701 -0.2447  0.1660
 1766SOL    HW116757   2.346   2.127   6.339  0.6122 -2.1511 -0.0216
 1766SOL    HW216758   2.251   2.021   6.386 -4.5318  0.2512 -0.6965
 1767SOL     OW16759   2.143   0.531  12.419  0.4594  0.3659  0.1469
 1767SOL    HW116760   2.237   0.550  12.416  0.7568 -0.9608  1.1416
 1767SOL    HW216761   2.127   0.501  12.330  2.2981  3.3711 -1.2171
 1768SOL     OW16762   2.285   0.070   0.262  0.1538  0.1976  0.1618
 1768SOL    HW116763   2.272   0.161   0.288  0.8129 -0.3630  2.4153
 1768SOL    HW216764   2.314   0.036   0.347 -1.8631 -0.5874  0.5159
 1769SOL     OW16765   1.144   2.428  14.845  0.1644  0.0242 -0.3965
 1769SOL    HW116766   1.066   2.428  14.791  0.7515 -2.0511 -1.2522
 1769SOL    HW216767   1.102   2.434  14.931 -0.2356  1.0988 -0.6777
 1770SOL     OW16768   0.411   2.951   7.496 -0.0309  0.2627 -0.5052
 1770SOL    HW116769   0.322   2.937   7.529 -0.5642  0.2357 -1.9181
 1770SOL    HW216770   0.456   2.869   7.516  0.1756  0.0385 -1.8503
 1771SOL     OW16771   1.235   3.483   8.506  0.1832 -0.3057  0.4241
 1771SOL    HW116772   1.191   3.450   8.427  0.0468  1.5355 -0.2723
 1771SOL    HW216773   1.245   3.573   8.474  0.7320 -0.6597 -0.4069
 1772SOL     OW16774   0.858   2.686  15.198  0.7157 -0.3602 -0.3408
 1772SOL    HW116775   0.809   2.625  15.254 -0.1028  2.8082  2.4065
 1772SOL    HW216776   0.833   2.770  15.236  0.8939 -1.0460  1.3294
 1773SOL     OW16777   4.270   4.708   7.533 -0.0912  0.6309 -0.8311
 1773SOL    HW116778   4.228   4.707   7.619 -1.6992  0.1918 -1.6429
 1773SOL    HW216779   4.362   4.711   7.561 -0.6955 -3.0433  1.4818
 1774SOL     OW16780   2.851   2.581   8.345  0.0706 -0.5218  0.0398
 1774SOL    HW116781   2.814   2.569   8.432  2.0216  1.1085  1.0670
 1774SOL    HW216782   2.807   2.508   8.300 -1.8475  0.1743  0.7854
 1775SOL     OW16783   0.255   3.687   3.857 -0.8152  0.5121  0.3122
 1775SOL    HW116784   0.250   3.605   3.808  0.7541  0.4589  0.2627
 1775SOL    HW216785   0.203   3.755   3.815 -1.9540  0.4159  1.5680
 1776SOL     OW16786   0.139   0.015  11.056 -0.2307 -0.0529 -0.0657
 1776SOL    HW116787   0.152   0.099  11.010 -0.1870  0.9962  1.8608
 1776SOL    HW216788   0.048   0.007  11.083 -0.3604  0.6610 -0.2702
 1777SOL     OW16789   0.268   4.293   3.460  0.0937  0.6820 -0.1755
 1777SOL    HW116790   0.301   4.380   3.438 -0.0593  0.2180 -2.3256
 1777SOL    HW216791   0.326   4.231   3.416 -1.3357  0.1310 -1.3008
 1778SOL     OW16792   0.115   2.422  14.846  0.0444  0.6607 -0.1288
 1778SOL    HW116793   0.057   2.441  14.772  2.3582  0.5916 -1.9554
 1778SOL    HW216794   0.075   2.372  14.917  1.4630 -2.4582 -1.5349
 1779SOL     OW16795   1.895   2.132   1.583  0.3478  0.1443 -0.2474
 1779SOL    HW116796   1.954   2.157   1.654  0.9471 -0.0757 -0.6675
 1779SOL    HW216797   1.931   2.052   1.544  3.5040 -0.1707  3.3156
 1780SOL     OW16798   3.227   3.215  12.520 -0.3731 -0.2636  0.0264
 1780SOL    HW116799   3.152   3.159  12.500 -0.5980 -1.4129  4.0543
 1780SOL    HW216800   3.202   3.252  12.604  1.1772 -0.2901  0.4875
 1781SOL     OW16801   4.628   1.396   4.823 -0.1528  0.0260  0.1358
 1781SOL    HW116802   4.674   1.332   4.876 -3.3422 -1.7513  0.7485
 1781SOL    HW216803   4.543   1.384   4.866 -0.6741 -0.5657 -1.0694
 1782SOL     OW16804   2.545   4.111   5.546  0.6240 -0.3372 -0.5014
 1782SOL    HW116805   2.494   4.176   5.497  0.1746  0.9371  1.6651
 1782SOL    HW216806   2.548   4.152   5.632 -2.8028  1.3132 -1.1778
 1783SOL     OW16807   2.904   1.929   8.782  0.0709  0.1921 -0.6106
 1783SOL    HW116808   2.947   1.862   8.729 -1.9446 -0.1033 -1.8745
 1783SOL    HW216809   2.844   1.867   8.822  0.5785  0.2271  0.1964
 1784SOL     OW16810   2.305   1.740  15.021 -0.0145  0.3503 -0.5743
 1784SOL    HW116811   2.325   1.653  15.054  1.0490  0.4286 -1.0198
 1784SOL    HW216812   2.215   1.756  15.049 -0.4309 -0.5754 -1.4025
 1785SOL     OW16813   2.552   2.434  16.325  0.6621  0.2200 -0.5131
 1785SOL    HW116814   2.529   2.401  16.238  0.0857 -0.6468 -0.0325
 1785SOL    HW216815   2.554   2.527  16.301 -1.5132  0.5100  0.4023
 1786SOL     OW16816   4.562   1.264  15.603 -0.0395  0.0551 -0.7177
 1786SOL    HW116817   4.520   1.193  15.555 -0.2975  1.2069 -2.1742
 1786SOL    HW216818   4.651   1.265  15.568  0.2301  1.4802  0.0001
 1787SOL     OW16819   0.465   3.319   4.289 -0.5736  0.6112 -0.5288
 1787SOL    HW116820   0.424   3.308   4.374 -3.0329 -0.5018 -1.8752
 1787SOL    HW216821   0.415   3.394   4.258  0.3693  0.5177 -2.2825
 1788SOL     OW16822   2.035   1.362   3.467 -0.0377 -0.0805 -0.0705
 1788SOL    HW116823   1.996   1.402   3.389  2.5091 -0.8699 -1.7473
 1788SOL    HW216824   2.095   1.299   3.427 -1.1119 -0.6907 -0.7158
 1789SOL     OW16825   1.085   4.709   3.377  0.0723 -0.5744  0.0273
 1789SOL    HW116826   1.101   4.702   3.283  0.3894  0.1790  0.0272
 1789SOL    HW216827   1.173   0.006   3.411  0.4128  2.0592 -2.1836
 1790SOL     OW16828   0.355   1.944  11.308 -0.0352  0.3849 -0.5733
 1790SOL    HW116829   0.366   1.854  11.340 -0.9929  1.0145  1.5048
 1790SOL    HW216830   0.421   1.946  11.238  1.4662 -1.6976  0.7864
 1791SOL     OW16831   1.554   4.701   4.830 -0.1984 -0.5304 -0.0976
 1791SOL    HW116832   1.555   0.008   4.922  0.5261 -1.8057  0.2691
 1791SOL    HW216833   1.460   4.694   4.820 -0.2497 -1.1984  0.8661
 1792SOL     OW16834   0.830   3.019   2.779 -0.3197 -0.5022  0.3552
 1792SOL    HW116835   0.846   2.925   2.771 -1.7839 -0.4943 -2.8455
 1792SOL    HW216836   0.826   3.040   2.872 -1.5821  0.1633  0.1555
 1793SOL     OW16837   1.580   1.483   2.643 -1.0444  0.0790  0.2674
 1793SOL    HW116838   1.604   1.557   2.700  0.5546  0.7545 -1.2845
 1793SOL    HW216839   1.654   1.426   2.667 -1.7861 -0.7727  0.5358
 1794SOL     OW16840   1.487   0.158   9.521 -0.0389 -0.4547  0.3961
 1794SOL    HW116841   1.498   0.141   9.428 -1.6049 -2.0588  0.5018
 1794SOL    HW216842   1.476   0.069   9.554  0.0894 -0.9558 -0.9230
 1795SOL     OW16843   1.701   2.610   6.982 -0.0586  0.1028 -0.1754
 1795SOL    HW116844   1.796   2.623   6.978 -0.0503  0.4867  1.2507
 1795SOL    HW216845   1.698   2.515   6.993 -0.7561 -0.0133 -1.3553
 1796SOL     OW16846   4.432   1.898   8.798  0.1656  0.3986 -0.3841
 1796SOL    HW116847   4.521   1.880   8.827  0.4289  1.7726 -0.3313
 1796SOL    HW216848   4.386   1.824   8.837  1.2156 -0.0598 -0.0121
 1797SOL     OW16849   1.333   2.332   6.889 -0.2807  0.0064 -0.1737
 1797SOL    HW116850   1.331   2.382   6.970  1.8243 -1.0275  0.5351
 1797SOL    HW216851   1.385   2.387   6.830 -0.7433  1.5371  0.8694
 1798SOL     OW16852   4.537   4.498   7.061  0.4889 -0.0436 -0.7599
 1798SOL    HW116853   4.450   4.462   7.047  0.2683  0.8382 -1.6367
 1798SOL    HW216854   4.592   4.475   6.986 -1.4396  3.1129 -3.1030
 1799SOL     OW16855   4.004   3.768   2.747  0.3008 -0.3062  0.0439
 1799SOL    HW116856   4.074   3.740   2.806  0.0448 -0.0789  0.4636
 1799SOL    HW216857   3.951   3.689   2.743  0.9477 -0.8005  1.2572
 1800SOL     OW16858   3.459   3.574  11.546 -0.4148  0.4176 -0.7101
 1800SOL    HW116859   3.497   3.651  11.588  0.2805 -0.2134 -0.1813
 1800SOL    HW216860   3.375   3.603  11.512 -0.1113  0.3945 -1.4985
 1801SOL     OW16861   0.700   3.842  13.136 -0.0000 -0.3629 -0.0880
 1801SOL    HW116862   0.699   3.817  13.228  1.6846 -0.9706 -0.2344
 1801SOL    HW216863   0.781   3.800  13.108 -0.0771 -0.9375  0.5688
 1802SOL     OW16864   2.842   3.443   4.011 -0.1971 -0.3305 -0.1345
 1802SOL    HW116865   2.810   3.467   4.098  0.3769 -1.0380  0.2831
 1802SOL    HW216866   2.834   3.347   4.012 -0.5040 -0.3068 -0.7950
 1803SOL     OW16867   4.569   3.732  10.208 -0.3786  0.6132  0.3978
 1803SOL    HW116868   4.523   3.749  10.126 -4.2272  3.0264  3.0482
 1803SOL    HW216869   4.641   3.676  10.179 -0.6912  1.1555 -1.4674
 1804SOL     OW16870   3.582   4.021  12.942  0.2635  0.0558  0.0744
 1804SOL    HW116871   3.626   4.085  12.998 -1.4513  0.5699  0.8340
 1804SOL    HW216872   3.606   3.944  12.994  2.3378 -0.1205 -1.1336
 1805SOL     OW16873   1.248   0.914   7.150  0.6424 -0.3703  0.2218
 1805SOL    HW116874   1.215   0.872   7.071 -0.9096 -0.3097  0.8397
 1805SOL    HW216875   1.172   0.933   7.205  0.1179  0.9266 -0.9679
 1806SOL     OW16876   3.274   0.954  16.317 -0.9190 -0.4059  0.3134
 1806SOL    HW116877   3.200   1.002  16.356 -1.2353 -0.7313  0.1184
 1806SOL    HW216878   3.319   1.015  16.259 -0.2955  1.7305  3.0524
 1807SOL     OW16879   1.288   0.923   0.206  0.4615 -0.4370 -0.2517
 1807SOL    HW116880   1.306   0.833   0.232  0.9896 -0.8273 -1.9562
 1807SOL    HW216881   1.327   0.925   0.119  1.7001 -1.2333  0.2795
 1808SOL     OW16882   0.291   3.614  10.816  0.0671  0.3479  0.4105
 1808SOL    HW116883   0.351   3.657  10.878 -1.5392  0.2958  1.9943
 1808SOL    HW216884   0.244   3.693  10.788  0.0466  0.8857  1.9600
 1809SOL     OW16885   2.961   1.623  15.163 -0.1174 -0.0611 -0.0814
 1809SOL    HW116886   2.926   1.605  15.250  0.0189 -0.4283 -0.1009
 1809SOL    HW216887   2.891   1.580  15.114 -0.6136  0.9807 -0.2806
 1810SOL     OW16888   0.954   2.103   3.279 -0.2066 -0.4776 -0.5245
 1810SOL    HW116889   0.867   2.129   3.248 -1.0313 -0.1495  2.1007
 1810SOL    HW216890   1.007   2.097   3.199 -0.2074  1.0390 -0.6403
 1811SOL     OW16891   3.674   1.201   7.555 -0.3330 -0.6457  0.0674
 1811SOL    HW116892   3.709   1.288   7.534 -1.6997  0.0232  0.5494
 1811SOL    HW216893   3.589   1.219   7.597 -0.6107 -3.0472  0.5193
 1812SOL     OW16894   3.454   0.731   1.271 -0.8866 -0.0143  0.4037
 1812SOL    HW116895   3.508   0.656   1.296 -0.5289  0.0557 -0.1743
 1812SOL    HW216896   3.513   0.796   1.309 -1.9667  2.3214 -1.9123
 1813SOL     OW16897   3.139   2.980   5.569  0.5540  0.0106 -0.0164
 1813SOL    HW116898   3.127   2.980   5.474  0.5813 -2.2222 -0.0090
 1813SOL    HW216899   3.134   2.886   5.582  0.3499  0.1563  0.9471
 1814SOL     OW16900   2.821   2.628  12.169 -0.0038  0.1005 -0.3957
 1814SOL    HW116901   2.730   2.606  12.148 -0.2393  0.3779  0.3477
 1814SOL    HW216902   2.870   2.546  12.176  0.2358  0.3013  0.2331
 1815SOL     OW16903   3.360   3.572   2.791 -0.5391  0.7384 -0.3002
 1815SOL    HW116904   3.341   3.558   2.699 -1.0619 -1.6324  0.1707
 1815SOL    HW216905   3.298   3.638   2.822 -0.7245 -0.2292  1.3691
 1816SOL     OW16906   4.224   0.432   4.826  0.2330  0.8692  0.4811
 1816SOL    HW116907   4.190   0.410   4.913 -2.7033 -0.6463 -1.0765
 1816SOL    HW216908   4.145   0.466   4.785  0.5645  2.2870  1.0012
 1817SOL     OW16909   3.729   3.164  17.670 -0.3496 -0.1653 -0.1181
 1817SOL    HW116910   3.641   3.133   0.008  0.0488 -0.2283  1.4684
 1817SOL    HW216911   3.712   3.235  17.608 -0.3803  0.5576  0.7271
 1818SOL     OW16912   4.710   3.750   2.110  0.5953  0.0879 -0.4573
 1818SOL    HW116913   0.021   3.804   2.182 -0.9236 -2.6028  2.2179
 1818SOL    HW216914   4.654   3.683   2.149 -1.4489  1.0510 -1.7312
 1819SOL     OW16915   3.844   3.182   2.721  0.0376  0.7719  0.4060
 1819SOL    HW116916   3.869   3.098   2.759  0.1255  0.7083  0.2080
 1819SOL    HW216917   3.877   3.243   2.787  1.9128 -0.4506  0.6269
 1820SOL     OW16918   2.247   3.946   5.300 -0.0855  0.6901 -0.5537
 1820SOL    HW116919   2.256   3.909   5.388  1.8091  1.8224 -0.2444
 1820SOL    HW216920   2.340   3.965   5.282 -0.0024 -1.2899 -2.2698
 1821SOL     OW16921   1.144   2.760   7.296  0.3161  0.3616  0.9781
 1821SOL    HW116922   1.149   2.779   7.389 -1.2252  0.5953  1.0082
 1821SOL    HW216923   1.058   2.722   7.277  1.7626 -1.2897 -2.2620
 1822SOL     OW16924   2.713   2.062  14.556 -0.2509 -0.1632  0.5664
 1822SOL    HW116925   2.787   2.006  14.532  0.6636  0.7892  1.1675
 1822SOL    HW216926   2.650   2.032  14.490  2.6005 -0.0318 -2.2117
 1823SOL     OW16927   4.636   4.067   2.010  0.4926 -0.2187 -0.0316
 1823SOL    HW116928   4.706   4.125   1.981 -0.0370  0.1734 -0.5198
 1823SOL    HW216929   4.610   4.097   2.097 -0.8736 -0.1598 -0.4505
 1824SOL     OW16930   4.374   2.904   5.389  0.6173 -0.0675  0.5628
 1824SOL    HW116931   4.287   2.866   5.399  1.5771 -1.9345  1.7875
 1824SOL    HW216932   4.428   2.831   5.419  2.2236  0.9101  0.0443
 1825SOL     OW16933   4.340   1.793  16.443  0.1197  0.0958 -0.0698
 1825SOL    HW116934   4.384   1.875  16.421 -0.3521  0.1303 -0.9092
 1825SOL    HW216935   4.389   1.733  16.388  0.4748 -0.7445  1.1611
 1826SOL     OW16936   3.704   0.820   8.258  0.5434 -0.4475 -0.7180
 1826SOL    HW116937   3.764   0.749   8.233  1.1498 -0.6205  1.2222
 1826SOL    HW216938   3.618   0.779   8.271  0.9309 -0.5245  1.6425
 1827SOL     OW16939   0.873   3.299   6.216 -0.2442 -0.0484  0.1626
 1827SOL    HW116940   0.957   3.344   6.230 -0.2906  0.4596 -1.2469
 1827SOL    HW216941   0.828   3.296   6.301 -1.4945 -0.8125 -0.5381
 1828SOL     OW16942   2.455   1.179   0.122  0.2837 -0.1890  0.0026
 1828SOL    HW116943   2.493   1.114   0.064  0.4293 -0.1529  0.0557
 1828SOL    HW216944   2.459   1.253   0.062  0.2987  0.3168  0.6197
 1829SOL     OW16945   2.702   2.983  16.961  0.1459  0.3263 -0.4434
 1829SOL    HW116946   2.629   3.019  17.012 -0.6341 -1.1070 -0.5472
 1829SOL    HW216947   2.704   3.038  16.883  1.8573 -0.9886 -1.3271
 1830SOL     OW16948   3.150   3.363   4.246  0.4458 -0.2138  0.2282
 1830SOL    HW116949   3.234   3.374   4.290  0.0457  1.0203  0.6769
 1830SOL    HW216950   3.097   3.294   4.286  1.4196 -0.4436  1.1326
 1831SOL     OW16951   1.975   1.455   2.104 -0.2994 -0.2500 -0.2645
 1831SOL    HW116952   2.016   1.535   2.072 -1.0877  0.1051 -0.3878
 1831SOL    HW216953   2.030   1.391   2.060  0.3739 -1.2013  1.9840
 1832SOL     OW16954   1.618   2.511  10.852  0.1479  0.4931  0.6563
 1832SOL    HW116955   1.635   2.489  10.944  1.4893 -1.4056 -0.0521
 1832SOL    HW216956   1.657   2.598  10.853  1.9686 -0.3278  0.2366
 1833SOL     OW16957   4.565   1.851   8.069  0.0585 -0.0469 -0.4362
 1833SOL    HW116958   4.594   1.783   8.131  2.5021  0.5031 -0.9806
 1833SOL    HW216959   4.645   1.896   8.043  0.4929  1.7845  4.0817
 1834SOL     OW16960   2.480   0.042   6.495 -0.5621  0.2948  0.1697
 1834SOL    HW116961   2.449   0.075   6.579 -0.7418 -0.5213  0.4219
 1834SOL    HW216962   2.545   0.112   6.484  0.5624 -0.8379 -0.3675
 1835SOL     OW16963   2.445   0.831   6.713 -0.5932 -0.3723  0.2109
 1835SOL    HW116964   2.460   0.790   6.628 -2.0763  1.5247 -0.9981
 1835SOL    HW216965   2.466   0.766   6.779 -0.2763  0.1630  0.6332
 1836SOL     OW16966   0.753   4.179   0.230 -0.2381  0.0344  0.0378
 1836SOL    HW116967   0.747   4.087   0.257 -1.3861 -0.3198 -1.4413
 1836SOL    HW216968   0.772   4.233   0.307  0.7966  0.1151 -0.2831
 1837SOL     OW16969   0.203   3.875   4.622 -0.2898 -0.1505  0.3378
 1837SOL    HW116970   0.134   3.853   4.684 -0.6412 -0.5050 -0.1815
 1837SOL    HW216971   0.277   3.827   4.659  1.2678  2.1101  0.2115
 1838SOL     OW16972   2.714   3.878   1.834 -0.0696 -0.4736  0.3871
 1838SOL    HW116973   2.779   3.917   1.775 -0.5477  1.1390  0.9316
 1838SOL    HW216974   2.750   3.790   1.829  0.1762 -0.2905 -1.0938
 1839SOL     OW16975   1.816   1.155   0.778 -0.5549  0.5372 -0.0991
 1839SOL    HW116976   1.866   1.099   0.719  2.9845  0.4301  2.9442
 1839SOL    HW216977   1.745   1.092   0.791 -0.0105  0.1216  0.8982
 1840SOL     OW16978   0.611   2.375   3.822 -0.2349 -0.4167 -0.4641
 1840SOL    HW116979   0.522   2.350   3.797 -0.4442  0.5355 -0.7011
 1840SOL    HW216980   0.625   2.452   3.767  0.2416  0.0741  0.3329
 1841SOL     OW16981   3.946   3.187  17.440 -0.1341 -0.6264  0.0129
 1841SOL    HW116982   3.953   3.176  17.535  0.9133  0.5499  0.0730
 1841SOL    HW216983   3.929   3.096  17.416  0.6786 -1.6439  3.3683
 1842SOL     OW16984   3.440   4.051   3.085  0.2549 -0.0316 -0.0111
 1842SOL    HW116985   3.350   4.079   3.068  0.0227  1.0624  3.1092
 1842SOL    HW216986   3.471   4.059   2.994  1.6157 -0.5534  0.4085
 1843SOL     OW16987   0.952   3.713   6.263 -0.3216  0.5071 -0.2088
 1843SOL    HW116988   0.938   3.799   6.304  1.2724  1.2751 -1.2591
 1843SOL    HW216989   0.982   3.665   6.340 -0.2334 -0.5243 -0.8822
 1844SOL     OW16990   1.939   2.300   8.710  0.1529 -0.4710 -0.3644
 1844SOL    HW116991   1.945   2.223   8.767  1.6006  1.0834  1.5635
 1844SOL    HW216992   1.881   2.354   8.764  1.1850  0.4691 -0.2033
 1845SOL     OW16993   4.098   1.457   6.827  0.2461 -0.5323 -0.8534
 1845SOL    HW116994   4.057   1.508   6.757  0.4726  1.0987  0.1971
 1845SOL    HW216995   4.193   1.454   6.813 -0.0037 -0.6654 -2.4447
 1846SOL     OW16996   0.437   4.310   6.169 -0.2052  0.0217 -0.1875
 1846SOL    HW116997   0.472   4.369   6.102  1.0153 -1.5748 -0.9430
 1846SOL    HW216998   0.344   4.307   6.144  0.0674 -2.1057 -0.8920
 1847SOL     OW16999   2.269   0.459   1.808  0.5625  0.0594 -0.1547
 1847SOL    HW117000   2.179   0.425   1.814  1.0977 -1.6950 -2.2822
 1847SOL    HW217001   2.291   0.474   1.716 -0.7998 -0.2052 -0.5245
 1848SOL     OW17002   3.339   3.587  16.777 -0.4106 -0.0685  0.4748
 1848SOL    HW117003   3.287   3.509  16.759 -1.5739  1.0208 -0.9488
 1848SOL    HW217004   3.266   3.633  16.820  0.0396  1.2856 -0.2028
 1849SOL     OW17005   3.147   4.598   8.463  0.2322 -0.2135 -0.0178
 1849SOL    HW117006   3.055   4.578   8.483  0.7541 -1.2512  1.3508
 1849SOL    HW217007   3.188   4.514   8.486 -0.7131 -0.4891  0.6505
 1850SOL     OW17008   4.042   4.175   3.728  0.3961 -0.1853  0.0514
 1850SOL    HW117009   4.052   4.146   3.638 -0.4594 -1.1484  0.2705
 1850SOL    HW217010   4.013   4.090   3.761  0.3846 -1.2160 -2.6758
 1851SOL     OW17011   1.258   3.681   2.194 -0.0627  0.6727 -0.1949
 1851SOL    HW117012   1.165   3.667   2.176 -0.4882  2.0858  0.8975
 1851SOL    HW217013   1.265   3.771   2.163 -1.8081  0.6666 -0.5813
 1852SOL     OW17014   0.322   2.070   6.403  0.1588  0.5038 -0.6132
 1852SOL    HW117015   0.251   2.024   6.358  0.5817 -0.7353 -0.0412
 1852SOL    HW217016   0.355   2.134   6.341 -0.3322 -0.2563 -1.6720
 1853SOL     OW17017   1.219   0.792   6.680 -0.4025  0.4781  0.0060
 1853SOL    HW117018   1.163   0.769   6.606 -1.9211  3.4499  0.2247
 1853SOL    HW217019   1.280   0.850   6.634  0.9584 -0.4274  0.6578
 1854SOL     OW17020   2.064   4.071   9.521  0.0918  0.1672 -0.5000
 1854SOL    HW117021   2.010   4.034   9.452 -1.5090  0.5168  0.5404
 1854SOL    HW217022   1.999   4.060   9.591  1.6731 -1.7513  0.6608
 1855SOL     OW17023   1.161   0.005   2.258 -0.8754 -0.0721 -0.0356
 1855SOL    HW117024   1.193   4.706   2.169 -1.1246  1.9288 -0.5621
 1855SOL    HW217025   1.221   0.061   2.307  2.2221 -2.6944 -0.8251
 1856SOL     OW17026   2.924   0.113   5.766  0.1100  0.1496 -0.3332
 1856SOL    HW117027   2.973   0.173   5.823 -1.9734  0.9075  0.6681
 1856SOL    HW217028   2.836   0.139   5.794 -0.7338 -2.0699 -0.9365
 1857SOL     OW17029   2.333   0.098   7.659 -0.8465  0.9890  0.5749
 1857SOL    HW117030   2.306   0.072   7.571  0.3577 -0.3384  0.5913
 1857SOL    HW217031   2.426   0.110   7.640 -1.0359 -0.9615 -1.5940
 1858SOL     OW17032   3.218   3.705   3.207 -0.6001  0.4604 -0.2338
 1858SOL    HW117033   3.127   3.693   3.235 -0.6762 -1.2932 -1.2093
 1858SOL    HW217034   3.239   3.775   3.268 -1.6015  1.3470 -0.9077
 1859SOL     OW17035   1.101   2.711   5.970  0.0356  0.2918 -0.4858
 1859SOL    HW117036   1.050   2.741   5.894 -0.2040 -1.7294 -1.1211
 1859SOL    HW217037   1.173   2.769   5.945  1.6294 -1.3241  0.4372
 1860SOL     OW17038   4.152   4.396   8.422  0.1613 -0.4690 -0.5009
 1860SOL    HW117039   4.239   4.398   8.381 -0.0814 -0.7763 -1.0305
 1860SOL    HW217040   4.157   4.465   8.488  1.7585  0.4741 -1.6237
 1861SOL     OW17041   0.096   2.144   4.137  0.2145 -0.1072 -0.2646
 1861SOL    HW117042   0.020   2.085   4.130  1.6215 -1.9460 -0.0475
 1861SOL    HW217043   0.164   2.097   4.089 -0.9933 -1.9868 -0.1594
 1862SOL     OW17044   4.132   0.308  11.404  0.3520 -0.0828 -0.0748
 1862SOL    HW117045   4.122   0.253  11.481  0.4671 -1.8147 -1.2876
 1862SOL    HW217046   4.088   0.389  11.428 -2.2378 -2.0488  1.8680
 1863SOL     OW17047   2.650   0.809  11.582 -0.6195  0.5030  0.0074
 1863SOL    HW117048   2.685   0.886  11.628  0.1345 -0.5269  1.1515
 1863SOL    HW217049   2.665   0.740  11.646 -0.2691  1.1151  0.5956
 1864SOL     OW17050   4.203   2.105   7.835  0.3655 -0.1197  0.3899
 1864SOL    HW117051   4.257   2.025   7.834  0.8379  0.2107 -1.7267
 1864SOL    HW217052   4.257   2.157   7.894 -1.3602  1.5879  0.4349
 1865SOL     OW17053   0.717   3.333  10.648 -0.3177 -0.0969  0.4225
 1865SOL    HW117054   0.668   3.257  10.618 -1.1047 -0.6227  3.0103
 1865SOL    HW217055   0.690   3.345  10.739  1.8872 -0.9380  1.1960
 1866SOL     OW17056   0.220   2.234   5.116 -0.1091  0.2194 -0.2056
 1866SOL    HW117057   0.237   2.231   5.210 -1.6624 -1.7250  0.0225
 1866SOL    HW217058   0.228   2.330   5.115 -3.4370  0.5066 -0.2232
 1867SOL     OW17059   4.369   1.632   2.126  0.1993 -0.2483 -0.6078
 1867SOL    HW117060   4.274   1.640   2.134  0.2420 -0.9996  0.5297
 1867SOL    HW217061   4.398   1.721   2.150 -1.1835 -0.2618  1.1076
 1868SOL     OW17062   4.285   3.680   5.672  0.4109 -0.4099 -0.5305
 1868SOL    HW117063   4.321   3.612   5.729  1.7990  1.1748  0.4898
 1868SOL    HW217064   4.301   3.761   5.721 -0.2920 -1.4559  1.4274
 1869SOL     OW17065   0.167   2.350   5.570 -0.1202 -0.0552 -0.0423
 1869SOL    HW117066   0.136   2.439   5.590 -0.6788 -0.3040  0.1866
 1869SOL    HW217067   0.086   2.302   5.587  0.2871 -0.7709 -0.1193
 1870SOL     OW17068   1.011   4.215   6.565  0.1868 -0.1922  0.2335
 1870SOL    HW117069   1.042   4.130   6.599  1.0553  0.2670  0.5899
 1870SOL    HW217070   0.921   4.192   6.542  0.1126 -0.9207  1.2142
 1871SOL     OW17071   1.324   1.057   1.415 -1.1390 -0.1899 -0.0018
 1871SOL    HW117072   1.280   1.114   1.352  2.3642  3.2948  0.7091
 1871SOL    HW217073   1.271   0.980   1.392 -0.7077 -0.4203 -0.2170
 1872SOL     OW17074   2.332   2.906   3.434 -0.0086  0.1886  0.0338
 1872SOL    HW117075   2.284   2.948   3.363 -0.3015 -0.3172 -0.0686
 1872SOL    HW217076   2.397   2.974   3.453  0.7513 -0.2100 -1.1508
 1873SOL     OW17077   0.652   3.050   6.167  0.2486 -0.2761 -0.2698
 1873SOL    HW117078   0.622   3.136   6.136 -0.0598 -0.0736  0.5605
 1873SOL    HW217079   0.672   3.013   6.082  0.8025 -1.9799  0.6005
 1874SOL     OW17080   4.474   0.757   8.475  0.7505  0.2156  0.2460
 1874SOL    HW117081   4.544   0.780   8.414  0.4493 -3.6384 -1.5527
 1874SOL    HW217082   4.511   0.787   8.558  2.0510 -1.2848  0.1997
 1875SOL     OW17083   3.709   3.715  15.685  0.4979 -0.2189 -0.0427
 1875SOL    HW117084   3.630   3.742  15.638  0.4783 -3.3265 -1.7395
 1875SOL    HW217085   3.725   3.635  15.635  0.1463 -0.1855 -0.2055
 1876SOL     OW17086   2.119   2.001   4.465  0.2558 -0.0929 -0.5484
 1876SOL    HW117087   2.175   2.054   4.521 -0.7268  1.0185 -0.6288
 1876SOL    HW217088   2.039   1.987   4.515 -0.1265  1.2302 -0.7845
 1877SOL     OW17089   4.182   0.878   6.591 -0.7749  0.1538 -0.4059
 1877SOL    HW117090   4.120   0.848   6.657  0.7299 -1.5120  0.2508
 1877SOL    HW217091   4.184   0.968   6.624  2.5579  0.0675 -0.3517
 1878SOL     OW17092   2.909   2.790   5.416  0.0875  0.1774  0.6019
 1878SOL    HW117093   2.828   2.789   5.365  2.5209 -1.3461 -3.2884
 1878SOL    HW217094   2.869   2.750   5.493  1.6875  1.3322  2.0374
 1879SOL     OW17095   2.343   4.389   0.805  0.1214  0.3065  0.7323
 1879SOL    HW117096   2.332   4.370   0.898  0.0760  1.4972  0.9710
 1879SOL    HW217097   2.307   4.307   0.772  0.8853  0.2977 -0.0831
 1880SOL     OW17098   1.792   2.486  11.336  0.3441 -0.0982 -0.2104
 1880SOL    HW117099   1.832   2.571  11.353  1.0269 -0.1313 -1.6349
 1880SOL    HW217100   1.837   2.430  11.399  0.3862 -1.0607 -1.0890
 1881SOL     OW17101   2.158   3.704   4.197  0.0722  0.1481 -0.3182
 1881SOL    HW117102   2.229   3.767   4.195  0.9958 -0.8772  0.2960
 1881SOL    HW217103   2.090   3.765   4.168 -0.5347 -0.6421 -0.5533
 1882SOL     OW17104   2.589   2.541   0.401  0.8831 -0.1023 -0.4534
 1882SOL    HW117105   2.614   2.631   0.384  1.6829 -0.2750 -0.1947
 1882SOL    HW217106   2.544   2.518   0.319  0.2909 -1.0422  0.1188
 1883SOL     OW17107   1.926   3.865   5.546 -0.0846  0.4470 -0.1813
 1883SOL    HW117108   1.873   3.836   5.620 -0.5612  2.1908  0.1460
 1883SOL    HW217109   1.930   3.786   5.491  1.4790 -0.3515  1.0781
 1884SOL     OW17110   3.236   0.793   3.797 -0.1169  0.9337  0.3778
 1884SOL    HW117111   3.234   0.708   3.755  0.1203  0.3820  1.4656
 1884SOL    HW217112   3.231   0.845   3.717 -2.6506 -0.3536 -0.2726
 1885SOL     OW17113   0.192   4.135   8.483 -0.0586 -0.2674  0.4607
 1885SOL    HW117114   0.251   4.206   8.510 -0.7884  0.7402 -0.5602
 1885SOL    HW217115   0.110   4.169   8.520  0.3216  0.6682  0.4491
 1886SOL     OW17116   1.476   0.236  16.654 -0.8646  0.1632  0.3369
 1886SOL    HW117117   1.530   0.282  16.717 -1.9120 -0.7269  1.9078
 1886SOL    HW217118   1.399   0.219  16.709 -0.7403  1.1152  0.7901
 1887SOL     OW17119   4.139   4.056  16.238 -0.1351 -0.2270 -0.0743
 1887SOL    HW117120   4.159   4.079  16.328  1.3918 -0.1587 -0.4337
 1887SOL    HW217121   4.046   4.075  16.227  0.1392  0.2341 -1.6852
 1888SOL     OW17122   0.041   3.613   0.322 -0.3836 -0.0542  0.2623
 1888SOL    HW117123   0.131   3.625   0.352 -0.2737 -0.0490 -0.0766
 1888SOL    HW217124   0.057   3.629   0.230 -2.7527  0.5265 -0.0633
 1889SOL     OW17125   3.783   3.946   8.912  0.2456  0.1566 -0.4279
 1889SOL    HW117126   3.729   3.976   8.839 -0.2803 -3.3106 -1.4657
 1889SOL    HW217127   3.855   4.009   8.915 -0.3792  0.7964  1.5039
 1890SOL     OW17128   2.524   3.310  17.353  0.2527  0.4944  0.3425
 1890SOL    HW117129   2.441   3.357  17.357 -0.5701 -0.8614 -1.1076
 1890SOL    HW217130   2.552   3.286  17.441  1.2089 -0.0844 -0.1099
 1891SOL     OW17131   2.359   3.287   5.343  0.5398  0.3020 -0.2221
 1891SOL    HW117132   2.279   3.327   5.377 -0.0473 -0.2350 -0.9813
 1891SOL    HW217133   2.395   3.363   5.297  0.9897  1.2131  1.6351
 1892SOL     OW17134   2.168   2.995   5.989  0.0389 -0.5922 -0.1828
 1892SOL    HW117135   2.106   3.031   6.052 -0.7401  0.0179 -1.3001
 1892SOL    HW217136   2.238   3.060   5.997 -1.2006  0.9424 -1.7462
 1893SOL     OW17137   3.052   2.715  14.811 -0.0838  0.4422  0.5864
 1893SOL    HW117138   3.076   2.808  14.808 -2.9353  1.1718 -0.0964
 1893SOL    HW217139   3.108   2.684  14.882  0.4489 -1.1012 -0.5072
 1894SOL     OW17140   3.725   4.301   8.352 -0.2633  0.0919 -0.2962
 1894SOL    HW117141   3.746   4.218   8.395  2.2540  0.6126 -0.5300
 1894SOL    HW217142   3.735   4.278   8.259 -2.3819 -0.3104 -0.4388
 1895SOL     OW17143   4.350   2.931   8.124  0.1515 -0.1983  0.3030
 1895SOL    HW117144   4.366   2.881   8.204 -1.4227  1.2066  1.4787
 1895SOL    HW217145   4.413   3.003   8.133 -1.1251  0.8163  1.0035
 1896SOL     OW17146   4.025   3.000   5.479  0.9046 -0.0342  0.1462
 1896SOL    HW117147   4.060   3.087   5.498 -2.7186  1.1433  1.3520
 1896SOL    HW217148   3.932   3.020   5.471  0.5773 -1.2684  0.8496
 1897SOL     OW17149   3.650   4.474  13.963  0.7237  0.2854  0.4689
 1897SOL    HW117150   3.586   4.412  13.997  1.8623 -0.1272  1.8674
 1897SOL    HW217151   3.729   4.428  13.990 -0.4746 -2.7986 -1.2996
 1898SOL     OW17152   2.168   3.612  10.558  0.5192 -0.0625  0.2012
 1898SOL    HW117153   2.242   3.612  10.618  1.5008  0.8155 -1.0277
 1898SOL    HW217154   2.201   3.549  10.494 -2.2878 -0.4496 -0.9100
 1899SOL     OW17155   3.552   4.532   9.891  0.3802 -0.1290  0.5318
 1899SOL    HW117156   3.625   4.477   9.919 -0.0398 -0.1571  1.5782
 1899SOL    HW217157   3.580   4.618   9.921  2.0793 -1.6507  3.3257
 1900SOL     OW17158   3.973   3.692  13.516  0.0774 -0.2868 -0.1025
 1900SOL    HW117159   3.963   3.783  13.541  0.1859 -0.3831  0.2862
 1900SOL    HW217160   4.063   3.670  13.541  1.3758  0.6006 -3.9662
 1901SOL     OW17161   4.489   3.871   8.190  0.0254  0.0257 -0.2170
 1901SOL    HW117162   4.441   3.815   8.251 -1.4360  2.0902  0.5280
 1901SOL    HW217163   4.541   3.926   8.248  1.1521 -1.4726  0.2042
 1902SOL     OW17164   0.614   2.249   4.662  0.0621  0.3883 -0.0622
 1902SOL    HW117165   0.559   2.171   4.658  0.1143  0.3882 -0.7642
 1902SOL    HW217166   0.549   2.312   4.634 -0.6612  0.3084  1.4231
 1903SOL     OW17167   2.839   3.184   4.060  0.1078 -0.3237 -0.2152
 1903SOL    HW117168   2.794   3.100   4.065  2.0266 -1.2493  1.5747
 1903SOL    HW217169   2.924   3.168   4.102  0.9721  1.8859 -1.1475
 1904SOL     OW17170   0.094   2.739   3.914  0.1886 -0.3102 -0.3689
 1904SOL    HW117171   0.052   2.772   3.994  1.7723 -0.8586  0.6775
 1904SOL    HW217172   0.095   2.824   3.871  0.9505 -0.4519 -0.6329
 1905SOL     OW17173   1.288   4.117   5.068  0.3758  0.1338  0.6301
 1905SOL    HW117174   1.202   4.115   5.026  0.5278 -2.8745  0.4644
 1905SOL    HW217175   1.309   4.024   5.061  0.0825  0.1532 -0.4858
 1906SOL     OW17176   2.962   2.149   6.160  0.2032 -0.3760 -0.1059
 1906SOL    HW117177   3.057   2.138   6.169  0.1561 -0.3219  0.4441
 1906SOL    HW217178   2.966   2.227   6.214 -0.4479 -0.1042 -0.4541
 1907SOL     OW17179   3.420   1.900   4.017 -0.7233  0.1478 -0.1697
 1907SOL    HW117180   3.507   1.937   4.002 -1.0031  0.1306 -1.8306
 1907SOL    HW217181   3.451   1.834   4.080  0.7656  0.5495 -0.5011
 1908SOL     OW17182   0.250   0.334   1.379  0.3517  0.1794  0.3021
 1908SOL    HW117183   0.289   0.277   1.444 -0.4608  1.9321  2.3169
 1908SOL    HW217184   0.217   0.401   1.439 -0.1979 -0.6191  0.8798
 1909SOL     OW17185   1.733   0.500  16.423 -0.1176 -0.1074  0.1213
 1909SOL    HW117186   1.774   0.415  16.405  0.6459 -0.3654  2.9894
 1909SOL    HW217187   1.651   0.490  16.374  1.3473  0.8190 -2.4919
 1910SOL     OW17188   1.686   4.319  16.769 -0.6189 -0.0114  0.2986
 1910SOL    HW117189   1.738   4.248  16.733  2.0049  0.3869  3.3391
 1910SOL    HW217190   1.711   4.385  16.705 -0.5359 -0.4042 -0.0706
 1911SOL     OW17191   1.710   4.344   0.121  0.4419 -0.3465 -0.5264
 1911SOL    HW117192   1.703   4.413   0.187  2.7571 -0.0453 -0.5970
 1911SOL    HW217193   1.723   4.412   0.054  0.2452  1.4891  1.2866
 1912SOL     OW17194   0.412   2.021  12.691  0.1289  0.2084 -0.5792
 1912SOL    HW117195   0.432   2.076  12.766  0.3243  1.4541 -1.5281
 1912SOL    HW217196   0.319   1.998  12.696  0.0170  0.4143 -1.6446
 1913SOL     OW17197   2.225   1.439   2.494  0.3505 -0.4462 -0.5791
 1913SOL    HW117198   2.275   1.398   2.565  0.1288  0.8536  0.3335
 1913SOL    HW217199   2.291   1.489   2.447 -0.2100  1.0485  0.2025
 1914SOL     OW17200   4.500   1.296   8.353 -0.0869 -0.6192  0.2625
 1914SOL    HW117201   4.532   1.321   8.266 -0.4060 -0.3459  0.2246
 1914SOL    HW217202   4.492   1.380   8.398 -0.0546 -0.1652 -0.5890
 1915SOL     OW17203   4.641   0.504   4.506  0.1956 -0.2328 -0.1528
 1915SOL    HW117204   4.710   0.470   4.563  0.5719 -0.6314 -0.8602
 1915SOL    HW217205   4.626   0.436   4.441  1.2094  0.3082 -0.9663
 1916SOL     OW17206   4.676   3.010   8.955 -0.5946 -0.2536 -0.3624
 1916SOL    HW117207   0.010   3.002   9.033 -1.3680  2.4786  0.4879
 1916SOL    HW217208   4.700   2.932   8.906  0.4696 -0.5945  0.7382
 1917SOL     OW17209   3.985   2.920   0.200  0.2851 -0.2742  0.6186
 1917SOL    HW117210   3.972   2.910   0.106  1.6884 -0.7588  0.4796
 1917SOL    HW217211   3.954   2.842   0.247 -0.9067  1.5399  2.8631
 1918SOL     OW17212   1.239   0.463  13.003 -0.6163  0.4672  0.4051
 1918SOL    HW117213   1.249   0.369  12.987  0.8665  0.5646  0.7943
 1918SOL    HW217214   1.312   0.492  13.058 -0.5222  0.9354  0.0337
 1919SOL     OW17215   3.149   1.662  14.522 -0.3692 -0.1765 -0.3426
 1919SOL    HW117216   3.235   1.636  14.554 -0.6852 -2.1618 -1.1037
 1919SOL    HW217217   3.164   1.719  14.446  0.6307  0.0668  0.0386
 1920SOL     OW17218   0.436   1.340  12.443 -0.1546  0.0692  0.0538
 1920SOL    HW117219   0.439   1.434  12.429  2.0442  0.1702  1.3004
 1920SOL    HW217220   0.480   1.311  12.362 -1.5606 -1.3663 -0.2123
 1921SOL     OW17221   1.970   1.751   4.775  0.4974  0.2347  0.2534
 1921SOL    HW117222   1.908   1.709   4.834 -0.9032  0.0287 -1.3651
 1921SOL    HW217223   1.967   1.692   4.699 -1.6210  1.6283 -0.7454
 1922SOL     OW17224   2.025   1.521  12.265 -0.3030  0.7546 -0.1240
 1922SOL    HW117225   2.036   1.613  12.288 -0.7479  1.1755 -1.6217
 1922SOL    HW217226   1.969   1.527  12.188 -1.1216  1.0436  0.4980
 1923SOL     OW17227   1.775   2.361   0.817  0.6863  0.4337  0.5681
 1923SOL    HW117228   1.728   2.394   0.894 -1.2006  0.7972 -0.7123
 1923SOL    HW217229   1.826   2.440   0.799  0.4515  0.2850 -0.7822
 1924SOL     OW17230   1.555   2.230   3.484 -0.1684 -0.3712 -0.3059
 1924SOL    HW117231   1.569   2.205   3.392 -0.8407  0.4029 -0.6225
 1924SOL    HW217232   1.473   2.185   3.502 -0.9732  0.6580 -1.3578
 1925SOL     OW17233   2.491   2.039  16.672  0.7492  0.7862  0.5589
 1925SOL    HW117234   2.516   2.125  16.638 -0.8786  0.7588 -0.7373
 1925SOL    HW217235   2.435   2.065  16.745 -0.5074  2.3317 -0.9537
 1926SOL     OW17236   0.196   3.112   8.367 -0.3196 -0.4303 -1.1712
 1926SOL    HW117237   0.171   3.039   8.310  0.9619  0.3381 -2.7367
 1926SOL    HW217238   0.286   3.086   8.390  0.2271  3.2722  0.7964
 1927SOL     OW17239   2.355   2.364   9.678 -0.0039 -0.2877  0.3924
 1927SOL    HW117240   2.437   2.318   9.657  0.4241  1.0282 -0.8605
 1927SOL    HW217241   2.297   2.288   9.682 -0.9619  0.4793  0.9630
 1928SOL     OW17242   0.621   3.773   3.513 -0.1953  0.3161 -0.3168
 1928SOL    HW117243   0.656   3.803   3.597 -0.8402 -3.4766  1.2930
 1928SOL    HW217244   0.677   3.815   3.449 -0.2915  0.1828 -0.4881
 1929SOL     OW17245   4.715   3.419   0.518  0.7949 -0.5790  0.2151
 1929SOL    HW117246   4.703   3.460   0.433  0.8738  2.0778  1.5028
 1929SOL    HW217247   0.089   3.407   0.507  1.0039 -0.3992  1.7646
 1930SOL     OW17248   3.332   0.268   2.344 -0.1707 -0.9425 -0.7446
 1930SOL    HW117249   3.244   0.264   2.307 -0.1819 -0.6795 -0.7520
 1930SOL    HW217250   3.356   0.361   2.335 -2.6497 -0.0915  1.3467
 1931SOL     OW17251   4.565   4.646   5.553  0.8549 -0.5525 -0.0318
 1931SOL    HW117252   4.583   0.019   5.540  0.6061 -0.5294 -0.2123
 1931SOL    HW217253   4.522   4.632   5.469 -0.9226  3.7916  0.1312
 1932SOL     OW17254   3.592   0.642   6.712  0.2012 -0.1025 -0.3676
 1932SOL    HW117255   3.573   0.556   6.750 -1.5481 -0.3486 -1.7902
 1932SOL    HW217256   3.511   0.667   6.668 -0.0059 -0.7037 -0.3395
 1933SOL     OW17257   3.454   1.585   7.522  0.2963 -0.6574 -0.6259
 1933SOL    HW117258   3.543   1.587   7.487  0.1138  1.6834 -0.9475
 1933SOL    HW217259   3.466   1.552   7.611 -1.2820 -0.9387 -0.5157
 1934SOL     OW17260   0.658   3.600   2.959 -0.5290 -0.2313  0.0440
 1934SOL    HW117261   0.575   3.621   2.915  1.1063  1.6363 -2.1413
 1934SOL    HW217262   0.723   3.654   2.914 -2.6689 -1.1435 -4.1549
 1935SOL     OW17263   0.497   4.077   4.087  0.4066  0.6324 -0.6144
 1935SOL    HW117264   0.516   4.170   4.094 -0.0053  0.8600 -2.5368
 1935SOL    HW217265   0.407   4.084   4.056  0.6911  0.3231 -1.5240
 1936SOL     OW17266   0.143   1.579   7.389 -0.3141  0.3721 -0.0226
 1936SOL    HW117267   0.157   1.547   7.478  0.3170 -1.5575 -0.8079
 1936SOL    HW217268   0.136   1.490   7.352  0.2758 -0.4795  1.9138
 1937SOL     OW17269   1.696   0.515   9.833 -0.1401  0.0821  0.4129
 1937SOL    HW117270   1.636   0.587   9.856  1.2860  1.4976 -0.2879
 1937SOL    HW217271   1.672   0.459   9.906 -0.5486 -1.0217 -0.5681
 1938SOL     OW17272   0.421   0.337   9.140 -0.1626  0.0831 -0.0227
 1938SOL    HW117273   0.466   0.252   9.147  0.0887  0.1132 -1.2747
 1938SOL    HW217274   0.492   0.393   9.171  0.6241 -1.0495  0.2301
 1939SOL     OW17275   3.045   1.064   1.331  0.5033  0.2247  0.6197
 1939SOL    HW117276   2.972   1.021   1.374  2.7256 -0.6664  3.4558
 1939SOL    HW217277   3.110   1.073   1.400  0.0511 -0.2175  1.0997
 1940SOL     OW17278   3.225   3.720   8.099  0.7675  0.5429  0.3584
 1940SOL    HW117279   3.268   3.778   8.036  1.3232 -0.8056 -0.5163
 1940SOL    HW217280   3.272   3.638   8.081 -2.5344 -0.9055 -1.6773
 1941SOL     OW17281   0.424   0.652  15.968 -0.5403 -0.0821 -0.1825
 1941SOL    HW117282   0.485   0.585  15.999  1.2641  2.4423  1.7725
 1941SOL    HW217283   0.485   0.711  15.924 -0.0276 -0.4365  0.0489
 1942SOL     OW17284   4.241   1.190   2.200  0.0071  0.3622 -0.2517
 1942SOL    HW117285   4.261   1.104   2.236 -1.1075 -0.0242 -0.5449
 1942SOL    HW217286   4.145   1.196   2.207  0.1345  1.3615  0.7487
 1943SOL     OW17287   3.192   1.260  14.963  0.0796 -0.1933 -0.1152
 1943SOL    HW117288   3.107   1.217  14.951 -0.5682  0.6829  1.2682
 1943SOL    HW217289   3.248   1.186  14.987  2.7578  2.0337  0.5379
 1944SOL     OW17290   2.882   4.110   2.235 -0.1933  0.1914  0.0522
 1944SOL    HW117291   2.853   4.020   2.246 -1.1067  0.3820 -0.8089
 1944SOL    HW217292   2.868   4.139   2.326 -2.0646  2.0659 -0.8384
 1945SOL     OW17293   3.244   1.870  13.317 -0.1846 -0.2576  0.0841
 1945SOL    HW117294   3.307   1.904  13.253  1.2794 -0.8774  1.2036
 1945SOL    HW217295   3.220   1.794  13.264  1.3358  0.0234 -1.0110
 1946SOL     OW17296   1.299   0.583   8.142  0.1023 -0.3157 -0.0735
 1946SOL    HW117297   1.242   0.518   8.182 -0.4803  0.6271  0.6125
 1946SOL    HW217298   1.240   0.633   8.085 -0.5178 -0.8392  0.1055
 1947SOL     OW17299   4.568   0.153   6.127  0.1785  0.0900 -0.2959
 1947SOL    HW117300   4.570   0.116   6.215  1.0465  0.6795 -0.0697
 1947SOL    HW217301   4.505   0.226   6.131  0.0070 -0.1104  0.4571
 1948SOL     OW17302   3.987   1.211   8.795 -0.0492  0.4659 -0.2877
 1948SOL    HW117303   3.973   1.305   8.785  2.8333  0.9796  0.4915
 1948SOL    HW217304   4.060   1.179   8.742  0.3534 -0.0620  0.5920
 1949SOL     OW17305   1.650   3.226  10.166 -0.3029  0.2538 -0.3987
 1949SOL    HW117306   1.642   3.273  10.083  1.6692  0.0519 -0.6955
 1949SOL    HW217307   1.744   3.207  10.164 -0.1859  0.8722 -0.7438
 1950SOL     OW17308   1.422   3.419   4.670 -0.2142 -0.1122 -0.1810
 1950SOL    HW117309   1.465   3.352   4.616 -1.1603 -0.3850 -0.5890
 1950SOL    HW217310   1.384   3.361   4.736 -1.2484 -1.4519 -1.9413
 1951SOL     OW17311   0.289   4.387   6.972 -0.2827  0.0086  0.5253
 1951SOL    HW117312   0.254   4.330   7.041 -1.3563  1.1832  0.9542
 1951SOL    HW217313   0.341   4.314   6.939 -1.1540  0.4108 -1.7417
 1952SOL     OW17314   0.253   1.058   7.349  0.3083  0.6550  0.2534
 1952SOL    HW117315   0.164   1.029   7.328  0.8159 -0.5387 -0.2340
 1952SOL    HW217316   0.243   1.063   7.444  2.0778  0.6812  0.4371
 1953SOL     OW17317   3.880   3.716   3.285 -0.0487 -0.0224  0.2867
 1953SOL    HW117318   3.838   3.778   3.225  0.6806  1.3885  1.2316
 1953SOL    HW217319   3.972   3.712   3.260 -0.3941  0.4244 -1.0304
 1954SOL     OW17320   2.603   3.776   3.196  0.1225  0.0520 -0.3491
 1954SOL    HW117321   2.622   3.810   3.283  1.8213 -2.1054  0.1342
 1954SOL    HW217322   2.644   3.689   3.196  0.0487  0.0184  0.0891
 1955SOL     OW17323   2.509   2.565   3.231 -1.1434  0.4996 -0.3649
 1955SOL    HW117324   2.567   2.512   3.176 -1.3294  0.5994 -0.6636
 1955SOL    HW217325   2.444   2.504   3.265 -0.4896  0.1706  0.2833
 1956SOL     OW17326   4.138   3.371   1.718 -0.3962  0.4441 -0.1151
 1956SOL    HW117327   4.078   3.394   1.647 -0.9590 -2.6421 -0.6310
 1956SOL    HW217328   4.185   3.300   1.674  0.7157 -1.0532  3.4562
 1957SOL     OW17329   1.656   4.478   2.453 -0.3134  0.1295 -0.6405
 1957SOL    HW117330   1.686   4.568   2.437 -1.9732  1.0578  1.3964
 1957SOL    HW217331   1.612   4.483   2.538 -0.1421  3.0044 -0.7137
 1958SOL     OW17332   1.212   2.248   8.747 -0.1056 -0.2978  0.3094
 1958SOL    HW117333   1.265   2.324   8.721  1.0069 -0.9182  0.7283
 1958SOL    HW217334   1.268   2.178   8.713  0.6146 -0.1763  1.2527
 1959SOL     OW17335   2.278   2.468  13.362  0.5443  0.5798  0.0980
 1959SOL    HW117336   2.340   2.508  13.301  2.0569 -1.5716  0.2511
 1959SOL    HW217337   2.224   2.539  13.399 -3.0739 -2.2553  0.3050
 1960SOL     OW17338   1.967   3.156   4.575  0.5242 -0.2511 -0.2796
 1960SOL    HW117339   1.911   3.079   4.564 -0.1610  0.0033  1.3736
 1960SOL    HW217340   1.991   3.173   4.484  3.7195  2.2266  1.0363
 1961SOL     OW17341   4.460   2.478   5.156 -0.3618  0.0593  0.4332
 1961SOL    HW117342   4.389   2.494   5.218  2.2751 -1.5111  3.8643
 1961SOL    HW217343   4.533   2.480   5.218 -0.0697 -4.3015  0.2489
 1962SOL     OW17344   1.605   2.184   3.202  0.0031 -0.7126 -0.1824
 1962SOL    HW117345   1.605   2.273   3.166  1.3006 -0.6968 -0.1381
 1962SOL    HW217346   1.562   2.140   3.128 -0.8990 -2.2087  1.2153
 1963SOL     OW17347   4.365   3.281  16.342  0.4738  0.4076  0.3119
 1963SOL    HW117348   4.425   3.340  16.296  1.5753  1.4424  3.0603
 1963SOL    HW217349   4.420   3.206  16.366  0.5550  0.5087  0.4462
 1964SOL     OW17350   1.270   2.118   3.289  0.0469  0.0659 -0.0886
 1964SOL    HW117351   1.227   2.184   3.343  0.4414  0.1758  0.0846
 1964SOL    HW217352   1.293   2.160   3.206 -0.5722  0.2648 -0.1575
 1965SOL     OW17353   4.644   4.285   2.390  0.2595  0.5815  1.0558
 1965SOL    HW117354   0.018   4.274   2.379  0.0649  0.3710 -0.3877
 1965SOL    HW217355   4.642   4.357   2.453  1.3086  2.4528 -1.0835
 1966SOL     OW17356   2.322   3.892   6.149  0.1735  0.0837  0.0910
 1966SOL    HW117357   2.296   3.984   6.153 -0.7190 -0.2451  2.2194
 1966SOL    HW217358   2.253   3.849   6.099 -0.0894  2.1432 -1.3141
 1967SOL     OW17359   3.116   3.001  14.818  0.0029 -0.6533 -0.1790
 1967SOL    HW117360   3.102   2.988  14.724  3.4151  0.5862 -0.8387
 1967SOL    HW217361   3.211   3.012  14.822 -0.1498  0.0389  1.5956
 1968SOL     OW17362   3.301   2.138  13.088 -0.1269 -0.2742  0.2747
 1968SOL    HW117363   3.343   2.139  13.174  1.5330 -0.4269 -0.5354
 1968SOL    HW217364   3.254   2.221  13.092 -1.0078 -0.7772  0.2206
 1969SOL     OW17365   2.810   2.770  10.067  0.1943 -0.7366  0.2158
 1969SOL    HW117366   2.723   2.753  10.030  1.0646 -1.0164 -1.7179
 1969SOL    HW217367   2.853   2.699  10.020  0.2222  0.4931 -1.6384
 1970SOL     OW17368   0.013   2.539   8.401  0.5491 -0.6120 -0.2483
 1970SOL    HW117369   4.650   2.499   8.428 -0.7664  1.4823 -1.1312
 1970SOL    HW217370   0.077   2.469   8.394  0.8838 -0.4312  0.9991
 1971SOL     OW17371   2.651   1.505   4.288 -0.4216 -0.3932  0.1634
 1971SOL    HW117372   2.559   1.532   4.279 -0.4276 -1.0494 -1.6642
 1971SOL    HW217373   2.659   1.467   4.375  0.9695  1.1153  0.6858
 1972SOL     OW17374   3.031   0.957  17.157  0.2570  0.1958 -0.1678
 1972SOL    HW117375   3.077   1.012  17.220  1.0039 -1.4468  0.7304
 1972SOL    HW217376   3.083   0.877  17.151 -0.8181 -0.5660  0.6225
 1973SOL     OW17377   4.099   3.389   4.675  0.1930  0.1334  0.8471
 1973SOL    HW117378   4.053   3.438   4.743  0.0628  1.5730 -0.2842
 1973SOL    HW217379   4.191   3.415   4.672  0.0153  0.6568 -0.1450
 1974SOL     OW17380   1.008   0.923   3.787 -0.0675  0.1178 -0.3070
 1974SOL    HW117381   1.021   0.836   3.825  0.7358  1.0914  1.6406
 1974SOL    HW217382   1.063   0.978   3.842 -1.2613  2.1504 -1.1582
 1975SOL     OW17383   2.471   0.008  12.646 -0.2710 -0.1890  0.1435
 1975SOL    HW117384   2.431   4.693  12.566 -1.2176  2.9067 -0.7472
 1975SOL    HW217385   2.394   4.713  12.700 -0.7051 -0.3365 -0.5096
 1976SOL     OW17386   1.816   2.070   3.359  0.3218  0.0942  0.4409
 1976SOL    HW117387   1.738   2.108   3.317 -0.0333  0.1857  1.1697
 1976SOL    HW217388   1.827   1.997   3.299  0.7788 -0.9574  1.8169
 1977SOL     OW17389   1.976   0.067   3.140 -0.3363  0.1442 -0.0768
 1977SOL    HW117390   2.061   0.023   3.130 -0.4987 -0.1756 -0.0308
 1977SOL    HW217391   1.924   0.021   3.074 -0.6263 -1.9495  1.6455
 1978SOL     OW17392   3.651   0.719   3.230 -0.1505 -0.6138  0.0030
 1978SOL    HW117393   3.572   0.769   3.214  0.7818  0.3835 -1.5085
 1978SOL    HW217394   3.616   0.639   3.191 -1.0966 -1.4489  2.5962
 1979SOL     OW17395   4.322   1.295   2.451  0.2237 -0.3234 -0.3769
 1979SOL    HW117396   4.340   1.202   2.439  1.4381 -0.0228 -0.8511
 1979SOL    HW217397   4.269   1.303   2.372  1.8363 -0.1641 -1.4349
 1980SOL     OW17398   2.012   1.055   2.593  0.3081 -0.6361 -0.0382
 1980SOL    HW117399   2.093   1.057   2.542  1.0170 -0.4710  1.0804
 1980SOL    HW217400   1.963   1.102   2.526  0.6523  0.0409  0.1843
 1981SOL     OW17401   2.737   2.699   4.696  0.2153 -0.2078 -0.4110
 1981SOL    HW117402   2.721   2.635   4.626 -0.3776 -1.5757  0.9795
 1981SOL    HW217403   2.701   2.773   4.647  0.0208  0.7162  1.1253
 1982SOL     OW17404   2.724   1.249   7.677 -0.3082 -0.1175  0.3869
 1982SOL    HW117405   2.806   1.204   7.657 -1.4029 -1.4073 -1.2561
 1982SOL    HW217406   2.664   1.176   7.658  1.5214 -0.7118 -3.1351
 1983SOL     OW17407   3.487   3.507  16.985  0.6631 -0.6203  0.7851
 1983SOL    HW117408   3.559   3.570  16.980 -0.4045  0.6017  0.8936
 1983SOL    HW217409   3.434   3.530  16.909  1.3788  0.1601  0.5143
 1984SOL     OW17410   2.026   2.890  12.674  0.3819 -0.3746  0.5636
 1984SOL    HW117411   1.962   2.837  12.721 -0.9165 -0.7568 -1.6326
 1984SOL    HW217412   1.964   2.939  12.619 -0.4809 -0.0516  1.8375
 1985SOL     OW17413   2.592   2.577  11.446 -0.0673 -0.1596  0.0664
 1985SOL    HW117414   2.513   2.526  11.431 -1.6022  2.0827  0.5647
 1985SOL    HW217415   2.661   2.523  11.485 -1.1277 -0.4045  1.5982
 1986SOL     OW17416   4.096   2.614   1.215 -0.1536 -0.2962 -0.5528
 1986SOL    HW117417   4.155   2.540   1.207  0.2432 -0.0642  0.2065
 1986SOL    HW217418   4.011   2.579   1.190 -0.2587 -1.1189  0.9416
 1987SOL     OW17419   0.870   4.280   7.397  0.5709  0.1230 -0.0635
 1987SOL    HW117420   0.815   4.332   7.455  1.0370  0.0678  0.4277
 1987SOL    HW217421   0.881   4.333   7.318  1.4863  0.5857  0.3822
 1988SOL     OW17422   0.768   1.054   6.047  0.4948  0.0218 -0.0934
 1988SOL    HW117423   0.697   1.014   6.098 -0.8152  2.8928  0.3290
 1988SOL    HW217424   0.746   1.147   6.043 -1.9311 -0.4971  0.8918
 1989SOL     OW17425   2.878   0.914   0.886  0.4220 -0.0593 -0.1775
 1989SOL    HW117426   2.799   0.967   0.898 -0.6506 -1.5049 -0.7770
 1989SOL    HW217427   2.891   0.866   0.967 -1.0063 -0.7352 -0.3452
 1990SOL     OW17428   1.985   2.611   1.835  0.3465  0.1761  0.3459
 1990SOL    HW117429   2.026   2.613   1.749  0.1284 -0.7170  0.2157
 1990SOL    HW217430   2.021   2.689   1.877 -0.7726  1.3193 -0.8254
 1991SOL     OW17431   0.783   4.492   2.046  0.1888  0.1140 -0.0425
 1991SOL    HW117432   0.794   4.401   2.018  1.1276  0.6640 -1.4522
 1991SOL    HW217433   0.721   4.469   2.116 -0.6409  1.4639 -0.3242
 1992SOL     OW17434   3.137   0.602   6.510  0.1703 -0.1363  0.6993
 1992SOL    HW117435   3.098   0.617   6.424 -1.3348 -0.8613  1.2503
 1992SOL    HW217436   3.082   0.658   6.564  2.6114  3.2824 -0.3685
 1993SOL     OW17437   2.027   2.005   8.606  0.0975 -0.0705  0.7122
 1993SOL    HW117438   2.037   2.065   8.532 -0.4143 -1.9251 -0.8869
 1993SOL    HW217439   2.120   1.988   8.621  0.4896 -1.3175 -3.1597
 1994SOL     OW17440   0.970   3.908   7.651 -0.1744  0.4563  0.0291
 1994SOL    HW117441   0.934   3.918   7.563 -2.1286 -2.9858  0.4132
 1994SOL    HW217442   0.973   3.812   7.657  2.6686  0.5616  0.3835
 1995SOL     OW17443   3.853   3.204   8.435 -0.0424 -0.0149  0.2902
 1995SOL    HW117444   3.807   3.235   8.513 -0.9930 -0.4818 -0.0911
 1995SOL    HW217445   3.903   3.286   8.433 -0.9466  0.5238  0.0301
 1996SOL     OW17446   0.735   0.534  13.973  0.1824 -0.0751  0.2217
 1996SOL    HW117447   0.822   0.572  13.958 -0.6454  1.0586 -1.5533
 1996SOL    HW217448   0.727   0.484  13.892  0.4307 -1.2202  0.8918
 1997SOL     OW17449   0.518   2.436  15.844  0.1239  0.0509 -0.4534
 1997SOL    HW117450   0.435   2.397  15.872  1.1864 -1.9135 -0.0665
 1997SOL    HW217451   0.535   2.511  15.901  3.4624 -1.3469  0.3664
 1998SOL     OW17452   0.126   2.950  11.593 -0.8623  0.0095  0.1440
 1998SOL    HW117453   0.111   2.987  11.506  2.7320 -1.4734 -1.1213
 1998SOL    HW217454   0.049   2.894  11.605 -0.5713 -0.1229  1.3419
 1999SOL     OW17455   4.473   2.184   9.628  0.0296 -0.5425 -0.0368
 1999SOL    HW117456   4.460   2.091   9.645  1.1267 -0.5373  0.8187
 1999SOL    HW217457   4.552   2.198   9.681  0.0580  0.9607 -0.4687
 2000SOL     OW17458   0.390   0.343   4.944 -0.0228 -0.3404 -0.1462
 2000SOL    HW117459   0.475   0.356   4.987 -0.4448 -0.6639  0.7802
 2000SOL    HW217460   0.409   0.354   4.850  0.1955  1.3258  0.1028
 2001SOL     OW17461   0.885   4.689   2.642 -0.6604 -0.5349 -0.3493
 2001SOL    HW117462   0.962   0.003   2.688 -0.9286 -1.1487  0.5595
 2001SOL    HW217463   0.903   4.719   2.553  0.6007  0.6488  0.3164
 2002SOL     OW17464   1.694   3.909   2.561 -0.0259  0.2264 -0.5208
 2002SOL    HW117465   1.630   3.864   2.616  1.4872  0.3321  1.3261
 2002SOL    HW217466   1.708   3.836   2.501  1.3907  0.4395 -0.4552
 2003SOL     OW17467   4.688   2.901  14.084 -0.6094  0.4501 -0.2703
 2003SOL    HW117468   0.034   2.971  14.089  0.4531 -0.7309  2.2710
 2003SOL    HW217469   4.681   2.883  14.178 -0.0072 -1.1679 -0.5382
 2004SOL     OW17470   2.307   2.346   7.286  0.0995  0.2368 -0.4071
 2004SOL    HW117471   2.382   2.308   7.240  1.0735  0.2873  1.1340
 2004SOL    HW217472   2.274   2.264   7.322  1.7117 -0.5604 -0.7040
 2005SOL     OW17473   2.987   3.968  15.119 -0.6994  0.3452 -0.0207
 2005SOL    HW117474   2.901   3.961  15.159 -1.0386 -0.0805 -0.8257
 2005SOL    HW217475   2.975   3.957  15.025  0.2769 -3.5973  0.2942
 2006SOL     OW17476   1.559   3.118   5.088  0.2100 -0.3584  0.5083
 2006SOL    HW117477   1.607   3.060   5.029 -0.1334  0.2602 -0.3768
 2006SOL    HW217478   1.549   3.192   5.029  1.2123 -1.4273 -1.0166
 2007SOL     OW17479   3.277   0.789   5.169  0.1613 -0.0200 -0.1226
 2007SOL    HW117480   3.299   0.744   5.088  1.8570 -0.9643  0.8838
 2007SOL    HW217481   3.359   0.772   5.215  0.5836 -1.1786 -1.3233
 2008SOL     OW17482   4.630   1.311  16.703 -0.1680 -0.2946  0.0569
 2008SOL    HW117483   4.689   1.242  16.733  1.2595  0.4262 -1.0526
 2008SOL    HW217484   4.643   1.305  16.608 -1.2959 -0.5426 -0.0714
 2009SOL     OW17485   1.565   2.338   5.869 -0.1145  0.3141  0.0463
 2009SOL    HW117486   1.481   2.299   5.893 -0.5991  1.3921  0.1099
 2009SOL    HW217487   1.604   2.378   5.947 -2.7772  1.2883  0.8888
 2010SOL     OW17488   2.099   1.000   5.216  0.0357  0.2361  0.3710
 2010SOL    HW117489   2.016   1.042   5.195 -1.0779 -0.6821  2.8349
 2010SOL    HW217490   2.072   0.918   5.257  0.9801 -0.3281 -0.1214
 2011SOL     OW17491   3.211   2.501  14.576 -0.0179 -0.0130  0.1664
 2011SOL    HW117492   3.184   2.461  14.659  1.4114  1.0980  1.1719
 2011SOL    HW217493   3.302   2.512  14.603 -0.2973  0.3931  0.9659
 2012SOL     OW17494   0.593   3.961  12.829  0.1402  0.1029  0.3020
 2012SOL    HW117495   0.633   3.934  12.746 -0.9186  0.1926 -0.2347
 2012SOL    HW217496   0.512   3.911  12.815 -0.9471  1.7962  0.5967
 2013SOL     OW17497   0.334   0.898  13.924 -0.4689  0.0370  0.2445
 2013SOL    HW117498   0.328   0.889  13.829  2.7527 -0.0236  0.0398
 2013SOL    HW217499   0.323   0.804  13.937  0.3698 -0.1059 -0.0965
 2014SOL     OW17500   1.849   2.974  12.495  0.2260 -0.6596 -0.1006
 2014SOL    HW117501   1.763   2.989  12.533  0.6860  1.0717  0.2547
 2014SOL    HW217502   1.826   2.991  12.403 -2.0614 -1.3969  0.3370
 2015SOL     OW17503   3.058   3.289  13.904  0.8184  0.5244  0.0231
 2015SOL    HW117504   3.070   3.201  13.941 -1.7625  0.1657  0.0046
 2015SOL    HW217505   3.083   3.339  13.981  1.8468  0.5886 -0.3550
 2016SOL     OW17506   2.514   2.085  10.938 -0.1702 -0.2083  0.1893
 2016SOL    HW117507   2.432   2.102  10.985 -0.3230  0.0530 -0.1745
 2016SOL    HW217508   2.559   2.138  11.005 -0.2521 -0.0536  0.1215
 2017SOL     OW17509   0.780   4.244   1.998 -0.2865  0.2116 -0.6221
 2017SOL    HW117510   0.759   4.196   1.918  0.0079  0.6282 -0.9529
 2017SOL    HW217511   0.705   4.213   2.049  1.4016 -1.8677  0.5960
 2018SOL     OW17512   4.010   0.430  15.168 -0.3407 -0.2924  0.6619
 2018SOL    HW117513   3.977   0.349  15.207  1.2260 -0.3303  1.9177
 2018SOL    HW217514   3.968   0.426  15.082  1.4843 -0.6328 -0.2112
 2019SOL     OW17515   0.406   3.770   6.535  0.0382  0.0038 -0.2254
 2019SOL    HW117516   0.501   3.775   6.532  0.1215 -1.1151  0.7182
 2019SOL    HW217517   0.398   3.681   6.570  1.9673 -0.0839 -0.0344
 2020SOL     OW17518   1.690   0.800   0.934  0.4890 -0.0618 -0.7539
 2020SOL    HW117519   1.775   0.798   0.891 -0.1150 -2.1628 -1.8503
 2020SOL    HW217520   1.646   0.864   0.877 -2.1167 -0.4634  0.7883
 2021SOL     OW17521   1.556   1.613   4.626  0.2508  0.3753 -0.2201
 2021SOL    HW117522   1.525   1.664   4.701  2.6382  0.0801  0.9915
 2021SOL    HW217523   1.537   1.671   4.553  2.3064  2.2843  0.7582
 2022SOL     OW17524   0.976   2.458  15.096 -0.0619  0.4381  0.4491
 2022SOL    HW117525   1.029   2.414  15.162  1.1848  0.5255 -0.4955
 2022SOL    HW217526   0.968   2.546  15.133  0.1534  1.6265 -2.3671
 2023SOL     OW17527   1.881   4.645   6.108 -0.1637 -0.1813 -0.1306
 2023SOL    HW117528   1.895   4.576   6.172 -1.5580 -0.4477 -0.1135
 2023SOL    HW217529   1.972   4.643   6.078 -0.3769  0.1121 -0.8071
 2024SOL     OW17530   3.471   1.208   8.142 -0.2361  0.0796  0.6175
 2024SOL    HW117531   3.444   1.299   8.134 -0.4144 -0.0352 -0.1204
 2024SOL    HW217532   3.420   1.173   8.069 -0.6453  1.3377  0.3009
 2025SOL     OW17533   1.958   0.219  17.300  0.8018 -0.1941  0.0319
 2025SOL    HW117534   2.045   0.257  17.286  1.3200 -0.9277  1.2349
 2025SOL    HW217535   1.902   0.296  17.297 -0.6587 -1.3282 -2.6672
 2026SOL     OW17536   0.320   0.249   5.472  0.5962 -0.3342 -0.0740
 2026SOL    HW117537   0.248   0.278   5.527  0.4667 -0.2915 -0.2629
 2026SOL    HW217538   0.330   0.160   5.506  1.3746 -0.3064 -0.2235
 2027SOL     OW17539   0.612   1.539   0.150  0.2211  0.0152  0.6689
 2027SOL    HW117540   0.707   1.536   0.164  0.8511  1.4350 -3.2675
 2027SOL    HW217541   0.601   1.623   0.195 -0.7141  0.0186  0.4377
 2028SOL     OW17542   1.685   0.724   8.141 -0.5062  0.0709  0.3741
 2028SOL    HW117543   1.592   0.724   8.166 -0.2392 -0.3753  1.3851
 2028SOL    HW217544   1.721   0.733   8.229  0.4033  0.1897 -0.0169
 2029SOL     OW17545   3.774   2.581  14.875 -0.0684  0.3038 -0.0942
 2029SOL    HW117546   3.837   2.562  14.805 -2.2543 -2.4871 -1.2912
 2029SOL    HW217547   3.805   2.531  14.951 -1.1868 -0.1666  0.0535
 2030SOL     OW17548   0.285   0.918  16.167  0.4170 -0.7447 -0.0015
 2030SOL    HW117549   0.271   0.975  16.092 -0.2825 -0.9681 -0.0354
 2030SOL    HW217550   0.323   0.839  16.128 -0.3702 -1.2506  0.2729
 2031SOL     OW17551   4.364   2.748   3.252  0.3909 -0.4664  0.3072
 2031SOL    HW117552   4.395   2.825   3.205  1.5250 -2.1209 -1.6980
 2031SOL    HW217553   4.269   2.755   3.240  0.3166 -0.5807  0.8357
 2032SOL     OW17554   0.651   4.060   9.448  0.3696 -0.0607 -0.1776
 2032SOL    HW117555   0.662   4.105   9.364  0.6102 -0.5930 -0.4277
 2032SOL    HW217556   0.728   4.096   9.491 -0.4059  1.0427  0.2970
 2033SOL     OW17557   0.396   0.560   7.001 -0.1254  0.1908  0.3071
 2033SOL    HW117558   0.491   0.551   6.989 -0.4705 -0.3161 -2.0684
 2033SOL    HW217559   0.373   0.472   7.030 -2.4731  0.4974 -0.6509
 2034SOL     OW17560   4.192   0.205  16.750 -0.1457 -0.0655 -0.2353
 2034SOL    HW117561   4.248   0.254  16.811  0.2287 -2.2111  1.1213
 2034SOL    HW217562   4.105   0.210  16.788 -0.0140 -0.9818  0.1770
 2035SOL     OW17563   1.102   0.302   7.956 -0.0194  0.0127  0.2660
 2035SOL    HW117564   1.100   0.232   7.891  1.0055 -0.4123  0.6960
 2035SOL    HW217565   1.192   0.284   7.981  0.4833 -0.3594 -1.8332
 2036SOL     OW17566   2.046   3.704   6.749 -0.0555  0.2685 -0.0731
 2036SOL    HW117567   1.989   3.768   6.706  0.6408  0.8974 -0.0471
 2036SOL    HW217568   2.004   3.625   6.713  2.2011 -0.8828 -0.1705
 2037SOL     OW17569   1.346   0.251   8.015  0.7137 -0.3253 -0.3227
 2037SOL    HW117570   1.352   0.163   7.977 -0.8133 -1.6980  2.5601
 2037SOL    HW217571   1.436   0.271   8.042  0.4018  0.3824  0.1931
 2038SOL     OW17572   2.341   1.114   5.233  0.2989 -0.3681 -0.3276
 2038SOL    HW117573   2.261   1.063   5.249  0.5034 -0.4969  0.2763
 2038SOL    HW217574   2.400   1.040   5.249 -2.1704 -2.2942 -0.0497
 2039SOL     OW17575   0.693   0.774  14.651  0.1350 -0.7459 -0.3138
 2039SOL    HW117576   0.639   0.832  14.598  1.8812  0.7981 -0.4014
 2039SOL    HW217577   0.739   0.836  14.707 -1.5795  0.9653 -0.7947
 2040SOL     OW17578   0.681   2.761   4.900  0.1347  0.2822 -0.2412
 2040SOL    HW117579   0.698   2.773   4.994 -1.2152  2.5950 -0.2861
 2040SOL    HW217580   0.735   2.835   4.872 -0.4332  0.4996 -0.7567
 2041SOL     OW17581   3.014   3.552   2.851  0.3368 -0.4381  0.3038
 2041SOL    HW117582   2.925   3.519   2.838  0.8863 -1.5704 -0.6513
 2041SOL    HW217583   3.057   3.499   2.784 -0.6630  0.1088 -0.7712
 2042SOL     OW17584   0.351   0.582   4.500  0.5118 -0.2017  0.0689
 2042SOL    HW117585   0.369   0.672   4.526  1.6847 -0.2808 -0.4954
 2042SOL    HW217586   0.343   0.602   4.407 -1.2728 -1.0516  0.0410
 2043SOL     OW17587   1.871   2.356  10.912  0.3600 -0.9773  0.1619
 2043SOL    HW117588   1.815   2.411  10.968  2.4838  1.2662  0.0905
 2043SOL    HW217589   1.811   2.282  10.909 -1.6920  0.6018  1.7487
 2044SOL     OW17590   1.246   0.081   0.430 -0.1100  0.0894  0.2958
 2044SOL    HW117591   1.320   0.031   0.396 -0.3508  1.0764 -1.7025
 2044SOL    HW217592   1.188   0.103   0.357  2.3358 -0.2445 -1.7196
 2045SOL     OW17593   1.352   0.344   6.589  0.5843 -0.1187 -0.2560
 2045SOL    HW117594   1.426   0.404   6.602 -0.9344  1.7731 -0.3369
 2045SOL    HW217595   1.305   0.369   6.668  0.6437 -1.2603  0.1490
 2046SOL     OW17596   3.273   2.832   3.093  0.2306  0.3128  0.0919
 2046SOL    HW117597   3.344   2.895   3.079  0.2156  0.2948 -0.0640
 2046SOL    HW217598   3.314   2.768   3.152 -1.9429 -0.6727  0.5054
 2047SOL     OW17599   4.338   2.470  12.271  0.1517 -0.6014  0.4912
 2047SOL    HW117600   4.301   2.524  12.340  0.1512 -1.8442  1.4623
 2047SOL    HW217601   4.306   2.382  12.291 -2.4926 -0.3853 -2.8399
 2048SOL     OW17602   3.861   4.057  15.656 -0.5253 -0.0340 -0.2675
 2048SOL    HW117603   3.792   4.122  15.642 -1.2000 -0.3579  1.5647
 2048SOL    HW217604   3.918   4.106  15.715  0.1891 -0.2331 -0.7952
 2049SOL     OW17605   4.001   0.221   7.595  0.7612  0.0732  0.0458
 2049SOL    HW117606   3.949   0.143   7.616  0.0292 -0.2161 -2.8310
 2049SOL    HW217607   4.067   0.213   7.664  0.0381  0.9332  0.8464
 2050SOL     OW17608   4.011   3.914  13.226  0.0374  0.0798  0.2204
 2050SOL    HW117609   3.994   3.985  13.163  1.5741 -0.7791 -1.1715
 2050SOL    HW217610   3.932   3.918  13.280 -0.4336 -1.4361 -0.3670
 2051SOL     OW17611   4.651   4.544   8.277  0.1877  0.0949  0.0622
 2051SOL    HW117612   0.024   4.565   8.281 -0.3392  1.6662  4.1618
 2051SOL    HW217613   4.654   4.501   8.192 -1.5711 -0.9511  0.5323
 2052SOL     OW17614   2.783   3.439   7.237  0.1319 -0.1683  0.6543
 2052SOL    HW117615   2.873   3.423   7.266  0.6863 -1.4482 -1.7169
 2052SOL    HW217616   2.755   3.515   7.287  0.0896 -0.1308  0.5743
 2053SOL     OW17617   0.164   2.915   9.646 -0.3162  0.1444  0.2442
 2053SOL    HW117618   0.071   2.918   9.622 -0.3504 -2.0120  0.1619
 2053SOL    HW217619   0.173   2.837   9.700  3.0194  0.3046 -0.0944
 2054SOL     OW17620   0.573   4.396   2.863  0.5666  0.6362  0.3006
 2054SOL    HW117621   0.524   4.408   2.945 -0.5078  0.1840 -0.2809
 2054SOL    HW217622   0.626   4.475   2.858  0.6658  0.4437 -1.6770
 2055SOL     OW17623   3.384   2.167   1.110  0.7651 -0.0611  0.2991
 2055SOL    HW117624   3.458   2.215   1.073 -0.1281  0.3789 -0.9193
 2055SOL    HW217625   3.315   2.221   1.070  2.8824  1.7689 -0.8847
 2056SOL     OW17626   0.729   2.352  14.154 -0.2564 -0.7549 -0.0530
 2056SOL    HW117627   0.781   2.354  14.234 -2.2663 -1.7943  1.2814
 2056SOL    HW217628   0.733   2.445  14.130  0.3325 -0.6695  0.3952
 2057SOL     OW17629   3.506   1.567  16.947  0.7726 -0.2104  0.3210
 2057SOL    HW117630   3.504   1.559  16.851 -1.3136 -0.6089  0.3989
 2057SOL    HW217631   3.598   1.543  16.959  0.4349 -1.8043 -0.3255
 2058SOL     OW17632   1.324   0.588  15.171 -0.2339  0.3682 -0.2512
 2058SOL    HW117633   1.329   0.660  15.234  1.8373 -1.2907  1.4722
 2058SOL    HW217634   1.346   0.642  15.095 -0.1943  1.4277  0.4990
 2059SOL     OW17635   1.116   0.207   1.042 -0.2209  0.3373 -0.1424
 2059SOL    HW117636   1.109   0.286   0.988  0.9251  2.6521  3.1234
 2059SOL    HW217637   1.024   0.197   1.065 -0.7167 -1.3769 -2.8038
 2060SOL     OW17638   2.396   3.782   2.760  0.0495  0.1111 -0.0132
 2060SOL    HW117639   2.439   3.795   2.675 -1.0318 -0.3010 -0.6143
 2060SOL    HW217640   2.458   3.721   2.800  2.4744  0.9779 -2.4122
 2061SOL     OW17641   4.378   1.407   6.823  0.2321 -0.2310  0.7867
 2061SOL    HW117642   4.373   1.376   6.732  0.0919  0.2658  0.6229
 2061SOL    HW217643   4.445   1.475   6.820  2.6630 -2.7503 -1.5130
 2062SOL     OW17644   3.173   0.297  10.192 -0.3131 -0.0357 -0.0130
 2062SOL    HW117645   3.262   0.265  10.198 -0.4565 -0.4458 -0.1060
 2062SOL    HW217646   3.124   0.232  10.242 -0.3728  1.9497  2.5358
 2063SOL     OW17647   0.180   4.236   2.377 -0.6783  0.3636  0.5093
 2063SOL    HW117648   0.169   4.155   2.426 -0.8046 -0.7060 -1.2984
 2063SOL    HW217649   0.256   4.270   2.424 -1.6458  0.9514  1.6551
 2064SOL     OW17650   2.435   2.206   1.389 -0.4843  1.4181 -0.4728
 2064SOL    HW117651   2.516   2.159   1.368 -0.1035  0.4480  3.1284
 2064SOL    HW217652   2.428   2.250   1.304  3.3662  2.0669 -0.4426
 2065SOL     OW17653   0.172   0.603   6.662 -0.1488 -0.3641  0.1526
 2065SOL    HW117654   0.108   0.597   6.733 -0.7986  2.5619 -0.1845
 2065SOL    HW217655   0.117   0.589   6.585  0.1550 -1.3654  0.1239
 2066SOL     OW17656   0.158   1.902   6.719  0.0760 -0.4036 -0.0918
 2066SOL    HW117657   0.186   1.869   6.633 -0.3423 -0.8843 -0.0463
 2066SOL    HW217658   0.223   1.851   6.766  0.3637 -0.2087 -0.2788
 2067SOL     OW17659   2.696   1.598  17.371  0.7894 -0.4825 -0.6812
 2067SOL    HW117660   2.649   1.571  17.293  1.0544 -1.2920 -0.5523
 2067SOL    HW217661   2.777   1.628  17.330  0.3250 -0.7214 -1.7730
 2068SOL     OW17662   3.451   0.159   6.550 -0.3724  0.0525  0.1605
 2068SOL    HW117663   3.496   0.127   6.472  1.2270 -0.2093  1.1983
 2068SOL    HW217664   3.486   0.248   6.552  1.5201 -0.6687 -0.9383
 2069SOL     OW17665   0.932   1.132  15.237 -0.2200 -0.2139 -0.9842
 2069SOL    HW117666   0.897   1.054  15.193 -1.7033  1.2116 -2.3342
 2069SOL    HW217667   0.997   1.162  15.173 -0.6239 -2.8404 -2.6417
 2070SOL     OW17668   1.254   1.580  15.006 -0.5403 -0.2640  0.3940
 2070SOL    HW117669   1.293   1.493  14.999  0.9315  0.4012  0.3258
 2070SOL    HW217670   1.336   1.623  15.031  0.2239 -0.8246 -1.2061
 2071SOL     OW17671   2.261   3.934  10.344  0.0185  0.1490 -0.5573
 2071SOL    HW117672   2.326   3.866  10.334  0.5658  0.4695  0.8358
 2071SOL    HW217673   2.317   4.009  10.366 -1.3782  1.5102 -1.5850
 2072SOL     OW17674   4.281   4.345   6.940  0.0389 -0.8637 -0.1730
 2072SOL    HW117675   4.259   4.258   6.973 -0.3307 -0.5643  0.3806
 2072SOL    HW217676   4.228   4.397   7.002 -1.1486 -0.2134 -1.7317
 2073SOL     OW17677   2.675   0.083  12.107 -0.2766 -0.2929  0.1209
 2073SOL    HW117678   2.715   0.011  12.156  0.5797 -0.3117 -0.6241
 2073SOL    HW217679   2.619   0.125  12.174  0.1851 -0.6810  0.7482
 2074SOL     OW17680   4.579   0.707  16.604  0.1522  0.1551  0.5785
 2074SOL    HW117681   4.590   0.722  16.697  0.2568  1.1637  0.4001
 2074SOL    HW217682   4.559   0.614  16.599  0.2147  0.1123  1.1195
 2075SOL     OW17683   3.163   2.043  14.805  0.2327 -0.2614 -0.4635
 2075SOL    HW117684   3.160   1.966  14.862  2.0859  0.9990  1.3435
 2075SOL    HW217685   3.196   2.006  14.724 -0.0175 -3.5394  0.9357
 2076SOL     OW17686   2.992   1.764   7.287  0.5416  0.5578  0.7910
 2076SOL    HW117687   3.035   1.682   7.311 -1.0558 -0.3342  0.6099
 2076SOL    HW217688   2.911   1.769   7.337 -0.1183  1.3911 -0.3801
 2077SOL     OW17689   0.490   1.992   2.932 -0.0855 -0.2193 -0.1569
 2077SOL    HW117690   0.432   1.935   2.982  0.2499  1.4874  2.1739
 2077SOL    HW217691   0.461   2.077   2.966  1.0460 -0.2002  0.7402
 2078SOL     OW17692   4.639   2.060   3.161  0.4620  0.0344  0.1068
 2078SOL    HW117693   4.607   2.088   3.075  1.0376 -0.9350 -0.4274
 2078SOL    HW217694   0.010   2.047   3.134  0.2442 -0.7119 -0.2777
 2079SOL     OW17695   1.915   0.830   7.521  0.0472  0.5393  0.4155
 2079SOL    HW117696   1.972   0.899   7.555 -0.8169  0.2916  2.4208
 2079SOL    HW217697   1.912   0.768   7.594  1.9714  1.1082  0.9657
 2080SOL     OW17698   3.928   2.248  11.569 -0.0796 -0.2020 -0.1400
 2080SOL    HW117699   3.892   2.197  11.496 -2.1273 -0.5511  1.1169
 2080SOL    HW217700   4.017   2.255  11.535  0.5781 -1.8138  1.2159
 2081SOL     OW17701   0.627   0.961  11.737  0.2231 -0.1767  0.3825
 2081SOL    HW117702   0.723   0.958  11.735  0.2625  1.0273  0.5502
 2081SOL    HW217703   0.598   0.893  11.797 -0.3152  0.4427  0.8167
 2082SOL     OW17704   1.580   1.380   4.823 -0.6225 -0.7273 -0.7673
 2082SOL    HW117705   1.545   1.336   4.746 -0.7163 -0.3556 -0.9366
 2082SOL    HW217706   1.559   1.472   4.807  0.4017 -0.3024  0.2584
 2083SOL     OW17707   4.593   4.220  10.366  0.1247 -0.5168  0.2477
 2083SOL    HW117708   4.624   4.234  10.277 -0.8623 -2.7773 -0.4496
 2083SOL    HW217709   4.574   4.126  10.359 -1.6561 -0.1394 -0.1052
 2084SOL     OW17710   4.146   3.783  12.948 -1.0600  0.0462 -0.2344
 2084SOL    HW117711   4.166   3.865  12.903 -2.6437  1.0597  0.8691
 2084SOL    HW217712   4.183   3.712  12.897 -0.4181 -0.2204  0.6151
 2085SOL     OW17713   1.679   0.199  15.931 -1.2296  0.2043 -0.1795
 2085SOL    HW117714   1.608   0.221  15.991 -1.7831  0.3212 -0.8840
 2085SOL    HW217715   1.666   0.104  15.921  0.6000 -0.0973  0.2136
 2086SOL     OW17716   1.463   3.526   3.441 -0.2253  0.0839  0.5271
 2086SOL    HW117717   1.527   3.593   3.461 -0.7809  1.1965 -1.4015
 2086SOL    HW217718   1.450   3.496   3.531 -0.7705  0.0055  0.4232
 2087SOL     OW17719   4.618   4.367   6.408 -0.4264 -0.2514  0.9263
 2087SOL    HW117720   4.641   4.389   6.498  0.7282  1.0788  0.2940
 2087SOL    HW217721   4.540   4.313   6.423 -0.6208 -0.9979 -2.7729
 2088SOL     OW17722   2.600   2.541  11.804 -0.0997 -0.9034  0.6214
 2088SOL    HW117723   2.563   2.473  11.748  0.2538 -0.6379  0.0636
 2088SOL    HW217724   2.676   2.493  11.835 -1.5315 -1.9131  2.5619
 2089SOL     OW17725   0.844   1.117   3.697 -0.4448  0.1914 -0.5968
 2089SOL    HW117726   0.853   1.178   3.770 -0.1801 -2.2058  1.3625
 2089SOL    HW217727   0.895   1.038   3.716  0.7572  0.3308 -3.2597
 2090SOL     OW17728   2.632   1.708   5.939  0.2751 -0.3926 -0.6812
 2090SOL    HW117729   2.664   1.727   5.851 -0.9650  3.6966 -0.2586
 2090SOL    HW217730   2.576   1.630   5.934 -0.7391  0.4376 -2.5864
 2091SOL     OW17731   2.634   3.378   0.578  0.0043  0.1769  0.0585
 2091SOL    HW117732   2.614   3.294   0.537  0.6051 -0.8046  1.8071
 2091SOL    HW217733   2.601   3.438   0.511 -0.0877 -2.4654 -2.2432
 2092SOL     OW17734   0.870   2.966   4.819 -0.1867  0.8981 -0.9256
 2092SOL    HW117735   0.906   3.053   4.834 -2.6885  1.6911  0.4721
 2092SOL    HW217736   0.938   2.905   4.846 -1.2763 -1.2198 -2.9846
 2093SOL     OW17737   1.630   3.435  16.498  0.4786 -0.0448  0.1121
 2093SOL    HW117738   1.579   3.411  16.575 -0.2902  1.0765 -0.0509
 2093SOL    HW217739   1.705   3.376  16.506  1.0323  0.6381 -0.0697
 2094SOL     OW17740   2.893   3.761   5.425 -0.0194  0.3168 -0.2316
 2094SOL    HW117741   2.926   3.756   5.335  1.4800  0.1385  0.3249
 2094SOL    HW217742   2.852   3.847   5.418 -1.8857 -0.4327  1.6899
 2095SOL     OW17743   2.777   3.523   5.316 -0.3642  0.0500 -0.2636
 2095SOL    HW117744   2.818   3.597   5.361  0.0328  0.5160 -1.3996
 2095SOL    HW217745   2.751   3.554   5.229  1.1442 -2.5340 -1.6279
 2096SOL     OW17746   2.068   4.046   6.759  0.2015 -0.2723 -0.0744
 2096SOL    HW117747   2.069   3.954   6.784 -0.7344  0.2398  1.9011
 2096SOL    HW217748   2.157   4.069   6.733 -0.1197 -0.3271 -1.2311
 2097SOL     OW17749   4.684   4.426   6.673 -0.7060 -0.1085  0.1525
 2097SOL    HW117750   0.038   4.372   6.701 -0.8643  0.3979  1.5401
 2097SOL    HW217751   4.683   4.488   6.746 -0.9350  0.9624 -0.7648
 2098SOL     OW17752   1.769   3.775   6.378 -0.2286  0.0584  0.9949
 2098SOL    HW117753   1.821   3.783   6.459  1.2842 -2.1930  0.2354
 2098SOL    HW217754   1.691   3.821   6.409 -0.1077  0.9129  0.0397
 2099SOL     OW17755   3.650   0.910   1.349  0.0773  0.0193  0.1054
 2099SOL    HW117756   3.730   0.902   1.400 -0.6879  1.8959  1.5813
 2099SOL    HW217757   3.654   0.998   1.311  0.2191  0.0024  0.0806
 2100SOL     OW17758   3.480   3.445  14.189 -0.3667  0.6896 -0.1555
 2100SOL    HW117759   3.552   3.416  14.245 -1.1303 -2.2721 -0.7060
 2100SOL    HW217760   3.404   3.460  14.246 -2.0407 -0.7109 -2.0199
 2101SOL     OW17761   1.306   0.830  13.999  0.8263  0.3045 -0.0360
 2101SOL    HW117762   1.248   0.832  13.922  1.3661 -2.6936 -0.5002
 2101SOL    HW217763   1.368   0.765  13.967  0.5395  0.2079 -0.4005
 2102SOL     OW17764   1.421   0.125   4.434  0.6894 -0.5092  0.4333
 2102SOL    HW117765   1.515   0.140   4.426  0.6674 -0.3910  0.4042
 2102SOL    HW217766   1.415   0.067   4.510  0.0080 -0.2748  0.5511
 2103SOL     OW17767   2.214   2.222  11.279  0.0256 -0.3284 -0.5358
 2103SOL    HW117768   2.247   2.144  11.323 -1.5648 -1.8075 -1.8977
 2103SOL    HW217769   2.120   2.212  11.259  0.2499  0.0944 -1.7939
 2104SOL     OW17770   2.408   3.192  13.679 -0.1785  0.4913  0.3906
 2104SOL    HW117771   2.448   3.148  13.603 -0.2041  0.9391  0.1176
 2104SOL    HW217772   2.484   3.224  13.728 -0.8918  2.1215  0.4078
 2105SOL     OW17773   1.302   3.931   9.246 -0.1427 -0.0000  0.0967
 2105SOL    HW117774   1.263   3.982   9.317  0.8365 -1.3827  1.6145
 2105SOL    HW217775   1.257   3.847   9.253 -1.5631  0.9896  2.9364
 2106SOL     OW17776   2.678   0.171   5.924  0.4317  0.3088  0.1151
 2106SOL    HW117777   2.650   0.097   5.979 -1.8418  0.9814 -0.1551
 2106SOL    HW217778   2.665   0.245   5.983 -0.5089  2.2726 -2.5853
 2107SOL     OW17779   4.255   1.901   9.066  0.2329 -0.4438 -0.3834
 2107SOL    HW117780   4.231   1.986   9.104 -0.9603 -1.6853  1.5895
 2107SOL    HW217781   4.241   1.841   9.138 -1.5735  0.6208  0.1414
 2108SOL     OW17782   3.573   2.499   4.275  0.2147  0.1057 -0.8458
 2108SOL    HW117783   3.545   2.582   4.315  1.8017  1.0524 -1.7067
 2108SOL    HW217784   3.569   2.445   4.354 -2.3879 -0.2060 -1.1888
 2109SOL     OW17785   3.492   3.193  12.397 -0.2966 -0.6277  0.4364
 2109SOL    HW117786   3.403   3.209  12.428 -0.8333 -3.0102  0.1647
 2109SOL    HW217787   3.496   3.102  12.368  2.3081  0.0298 -1.2644
 2110SOL     OW17788   1.618   0.602   0.682 -0.2157  0.5584 -0.1513
 2110SOL    HW117789   1.608   0.691   0.650  2.0170  0.1368 -2.0233
 2110SOL    HW217790   1.707   0.588   0.650 -0.7185  1.1865 -1.7972
 2111SOL     OW17791   2.963   3.311   7.927  0.1792 -0.0679  0.2985
 2111SOL    HW117792   3.039   3.357   7.892 -2.1517  3.2182 -0.3505
 2111SOL    HW217793   2.891   3.366   7.898 -0.7551 -0.0127  2.7355
 2112SOL     OW17794   2.858   2.470   2.905 -0.4310 -0.2639 -0.3883
 2112SOL    HW117795   2.783   2.422   2.939  0.7459 -3.5957 -2.4864
 2112SOL    HW217796   2.880   2.536   2.972 -2.4895  1.8210 -1.7742
 2113SOL     OW17797   2.866   2.599   7.349 -0.1898  0.3882  0.2038
 2113SOL    HW117798   2.957   2.609   7.378  0.1785  0.9485 -1.1295
 2113SOL    HW217799   2.863   2.504   7.357 -1.2534  0.3047 -1.2970
 2114SOL     OW17800   2.360   0.095   1.077  0.2883  0.1125  0.3395
 2114SOL    HW117801   2.443   0.123   1.114  0.4348 -0.6494  0.5721
 2114SOL    HW217802   2.389   0.006   1.059  3.0160  1.1892 -0.5849
 2115SOL     OW17803   1.366   4.085   8.410  0.5164 -0.0930 -0.2917
 2115SOL    HW117804   1.358   4.168   8.362 -1.4889  1.2242  2.3200
 2115SOL    HW217805   1.309   4.098   8.486 -0.4624 -1.2441 -0.8237
 2116SOL     OW17806   1.592   3.476   9.065  0.4392  0.5642 -0.0695
 2116SOL    HW117807   1.553   3.535   9.130 -3.0587  0.5359 -2.1082
 2116SOL    HW217808   1.682   3.503   9.052  0.6303 -0.0883 -0.1043
 2117SOL     OW17809   3.368   1.110   4.336 -0.2966  0.5017 -0.3418
 2117SOL    HW117810   3.352   1.169   4.262  0.6703  2.9202  1.3705
 2117SOL    HW217811   3.323   1.155   4.408  2.4005  0.3761  1.4302
 2118SOL     OW17812   4.209   3.816  14.237  0.5979 -0.1621  0.2986
 2118SOL    HW117813   4.209   3.855  14.150 -2.0495 -0.1748  0.2989
 2118SOL    HW217814   4.290   3.765  14.240  0.0036 -1.1209  0.1025
 2119SOL     OW17815   1.468   1.210   5.638 -0.2371  0.1403 -0.0898
 2119SOL    HW117816   1.427   1.289   5.673 -1.2245  0.1291 -1.2070
 2119SOL    HW217817   1.552   1.204   5.684 -0.3977 -1.3332  0.0237
 2120SOL     OW17818   1.538   0.131   1.817  0.5995  0.2430 -0.0437
 2120SOL    HW117819   1.615   0.187   1.828 -0.8023  2.2615 -0.5632
 2120SOL    HW217820   1.574   0.064   1.759 -1.2063  0.0300 -0.9035
 2121SOL     OW17821   3.289   4.682  15.241  0.3495 -0.2976  0.0966
 2121SOL    HW117822   3.360   4.663  15.180 -0.6867 -1.9078 -0.5967
 2121SOL    HW217823   3.211   4.668  15.189 -0.2875 -2.8904  1.7631
 2122SOL     OW17824   0.428   3.473   3.290  0.1767  0.3567 -0.2580
 2122SOL    HW117825   0.483   3.545   3.260  0.0066  0.8299  0.5309
 2122SOL    HW217826   0.393   3.435   3.210 -0.6230  3.1773 -1.2638
 2123SOL     OW17827   2.278   3.435   8.584 -0.2619  0.3135  0.8948
 2123SOL    HW117828   2.338   3.374   8.625  0.1380  0.5380  0.6514
 2123SOL    HW217829   2.261   3.496   8.655  0.5668 -0.5612  1.8330
 2124SOL     OW17830   4.684   2.068  13.828 -0.4502  0.2465  0.0712
 2124SOL    HW117831   4.601   2.066  13.779  0.0543  4.1951 -0.9906
 2124SOL    HW217832   0.021   2.112  13.764 -0.6751 -2.6809 -2.1316
 2125SOL     OW17833   4.298   1.642   2.514  0.1598  0.2417 -0.0066
 2125SOL    HW117834   4.243   1.601   2.448  0.8940 -1.1293  0.2467
 2125SOL    HW217835   4.256   1.622   2.598  1.5379 -0.0378  0.6239
 2126SOL     OW17836   1.429   2.192   9.093 -0.8617  0.5359 -0.3648
 2126SOL    HW117837   1.428   2.124   9.160 -0.6844  1.2944  0.4143
 2126SOL    HW217838   1.511   2.172   9.049 -0.6019  0.6042  0.0924
 2127SOL     OW17839   2.607   3.098   6.403 -0.2112 -0.0811  0.3060
 2127SOL    HW117840   2.582   3.156   6.476  3.2751  0.9640  0.6710
 2127SOL    HW217841   2.702   3.110   6.396 -0.1334 -0.0179  1.4769
 2128SOL     OW17842   0.013   2.143   7.306 -0.3922  0.1806 -0.4963
 2128SOL    HW117843   0.031   2.082   7.378  0.5089 -0.5188 -1.3149
 2128SOL    HW217844   0.040   2.082   7.237  0.1671  0.7990 -0.8169
 2129SOL     OW17845   0.626   2.856   3.369  0.8123 -0.0554  0.1279
 2129SOL    HW117846   0.552   2.796   3.360 -1.0628  2.0612  1.7897
 2129SOL    HW217847   0.635   2.869   3.463 -0.4937 -1.9287  0.5104
 2130SOL     OW17848   3.675   1.538  15.321  0.4510 -0.3686  0.3865
 2130SOL    HW117849   3.734   1.464  15.337 -0.0492 -0.5922  1.2085
 2130SOL    HW217850   3.663   1.568  15.411 -0.2317 -0.0547  0.1843
 2131SOL     OW17851   3.589   1.661   0.929  0.5851 -0.2042 -0.0475
 2131SOL    HW117852   3.652   1.603   0.971  0.3577 -0.9612 -0.7445
 2131SOL    HW217853   3.508   1.618   0.957 -0.5671  0.6869 -2.0598
 2132SOL     OW17854   4.463   2.957   2.978 -0.0602  0.5715  0.3050
 2132SOL    HW117855   4.494   2.949   3.068 -0.9385 -2.2220  0.3602
 2132SOL    HW217856   4.496   3.042   2.948  2.0881  0.5637  2.6369
 2133SOL     OW17857   4.687   0.486   4.994  0.1561 -0.0768 -0.2102
 2133SOL    HW117858   4.636   0.556   5.035  1.1677  0.4075  0.2101
 2133SOL    HW217859   4.658   0.493   4.903 -2.3648 -4.5461  0.2716
 2134SOL     OW17860   4.153   3.653  10.173  0.3727 -0.1413 -0.7407
 2134SOL    HW117861   4.071   3.636  10.219  0.2208 -1.3299 -1.4484
 2134SOL    HW217862   4.217   3.660  10.245 -1.8131 -0.2204  1.1981
 2135SOL     OW17863   0.868   0.854   6.773 -0.0899 -0.5481  0.3377
 2135SOL    HW117864   0.907   0.840   6.687 -0.9961 -0.0258 -0.1620
 2135SOL    HW217865   0.884   0.947   6.790 -1.0911  0.1927 -2.6319
 2136SOL     OW17866   0.395   4.557  13.917  0.4580  0.4187  0.1456
 2136SOL    HW117867   0.319   4.592  13.962  0.8040  0.0482  1.0202
 2136SOL    HW217868   0.361   4.561  13.828  1.8752 -0.3301 -0.4378
 2137SOL     OW17869   1.666   1.776   6.954 -0.0591 -0.4576  0.2154
 2137SOL    HW117870   1.632   1.745   7.038 -0.2531  1.4010  0.8163
 2137SOL    HW217871   1.727   1.704   6.938  1.0873  0.2919  1.2507
 2138SOL     OW17872   4.041   0.915  13.826  0.3095  0.3035  0.0774
 2138SOL    HW117873   3.975   0.937  13.892 -0.4717  1.6472 -1.1332
 2138SOL    HW217874   4.040   0.993  13.770 -2.7950 -0.6057 -1.1511
 2139SOL     OW17875   3.727   0.971   9.869  0.4658 -0.1211 -0.1635
 2139SOL    HW117876   3.716   0.951   9.776 -0.5763  2.6534 -0.6325
 2139SOL    HW217877   3.660   0.920   9.913  2.1425 -0.7919  1.6312
 2140SOL     OW17878   3.632   1.579   4.526 -0.4760  0.4126  0.6984
 2140SOL    HW117879   3.595   1.504   4.572  1.2290  0.0665  1.5160
 2140SOL    HW217880   3.572   1.643   4.562 -0.4721 -0.1507  1.7069
 2141SOL     OW17881   2.600   1.212   1.869 -0.1379  0.4879 -0.4443
 2141SOL    HW117882   2.600   1.140   1.932 -2.2970  2.6079  1.9598
 2141SOL    HW217883   2.522   1.195   1.817 -1.0780 -2.0964  1.8388
 2142SOL     OW17884   0.392   1.337  10.789  0.0419  0.1033  0.2279
 2142SOL    HW117885   0.415   1.244  10.799 -0.3333 -0.0376 -0.2376
 2142SOL    HW217886   0.425   1.365  10.874 -0.6606  0.1075  0.4985
 2143SOL     OW17887   2.138   1.473   6.700  0.1600 -0.0706  0.3680
 2143SOL    HW117888   2.173   1.460   6.787  0.1397 -1.3944  0.1867
 2143SOL    HW217889   2.201   1.532   6.659  0.3980 -0.1993  0.5466
 2144SOL     OW17890   4.172   2.291   1.419 -0.6872 -0.4866  0.2543
 2144SOL    HW117891   4.212   2.207   1.443 -0.1226 -0.9752 -2.4068
 2144SOL    HW217892   4.233   2.320   1.351 -1.4502 -1.2717 -0.7490
 2145SOL     OW17893   0.714   1.768   6.591 -0.2023 -0.1744 -0.5981
 2145SOL    HW117894   0.641   1.716   6.556  0.5675 -0.8876 -1.1494
 2145SOL    HW217895   0.668   1.834   6.643  4.7104  1.5089  1.5516
 2146SOL     OW17896   0.467   0.213   7.652 -0.2673 -0.0054  0.6345
 2146SOL    HW117897   0.416   0.227   7.572  2.4938  0.7588 -0.9953
 2146SOL    HW217898   0.526   0.288   7.648 -2.6487  1.7469 -1.3303
 2147SOL     OW17899   4.224   1.287   9.288  0.2652 -0.4744  0.1433
 2147SOL    HW117900   4.302   1.341   9.286 -0.6384  0.8562  0.5939
 2147SOL    HW217901   4.217   1.251   9.376 -2.9825  2.5901  1.1593
 2148SOL     OW17902   3.863   1.199  10.855  0.1221 -0.5056  0.3631
 2148SOL    HW117903   3.839   1.291  10.868  0.2793 -0.0906 -2.3610
 2148SOL    HW217904   3.801   1.165  10.791  2.3592 -1.6365 -1.1926
 2149SOL     OW17905   2.729   0.771  17.596  0.5799  0.3373  0.2099
 2149SOL    HW117906   2.780   0.711  17.542  0.0408  0.3287 -0.2906
 2149SOL    HW217907   2.645   0.762  17.550  0.7039 -0.5146  0.1422
 2150SOL     OW17908   2.096   2.173   8.228 -0.0123  0.5148  0.2104
 2150SOL    HW117909   2.039   2.213   8.294  1.9730 -0.0065  2.2497
 2150SOL    HW217910   2.166   2.239   8.230  0.2156  0.3350 -1.9441
 2151SOL     OW17911   2.490   2.087   4.235  0.2728  0.1366  0.6035
 2151SOL    HW117912   2.476   2.002   4.276  1.1899  0.1102  0.8667
 2151SOL    HW217913   2.459   2.073   4.145  1.0067 -3.5305  0.9324
 2152SOL     OW17914   1.411   4.215   9.526  0.5229 -0.2842  0.1797
 2152SOL    HW117915   1.413   4.260   9.610 -0.0024 -2.1775  1.2121
 2152SOL    HW217916   1.504   4.192   9.527  0.7718  0.8132  2.2288
 2153SOL     OW17917   0.399   0.061   5.020 -0.0945  0.8052  0.0940
 2153SOL    HW117918   0.397   0.157   5.013  0.0455  0.8499  0.6863
 2153SOL    HW217919   0.314   0.060   5.064  1.2667 -3.2297  2.5286
 2154SOL     OW17920   0.547   2.189   8.848 -0.2896 -0.2161 -0.2608
 2154SOL    HW117921   0.553   2.196   8.753  0.5143  1.3469 -0.1009
 2154SOL    HW217922   0.469   2.242   8.866 -1.7012 -1.7532 -1.8167
 2155SOL     OW17923   0.192   2.451  15.675 -0.3234 -0.2946  0.3981
 2155SOL    HW117924   0.215   2.463  15.767 -2.8320 -2.0408  1.2314
 2155SOL    HW217925   0.226   2.364  15.654 -1.3130 -0.4905 -0.4193
 2156SOL     OW17926   2.289   2.890  13.901 -0.3820 -0.0571  0.1281
 2156SOL    HW117927   2.226   2.827  13.937 -0.2162 -1.5395 -2.1754
 2156SOL    HW217928   2.219   2.951  13.879  1.4398  2.4001  1.2114
 2157SOL     OW17929   2.174   0.950  14.667  0.2406  0.1577  0.1512
 2157SOL    HW117930   2.170   0.985  14.578 -0.7914 -1.3964 -0.4248
 2157SOL    HW217931   2.140   0.861  14.662  0.9748 -0.2373  2.2960
 2158SOL     OW17932   2.353   2.261   1.629  0.2911 -0.2908  0.5177
 2158SOL    HW117933   2.411   2.201   1.676  0.0719 -1.3737 -0.5952
 2158SOL    HW217934   2.380   2.239   1.540  1.2628 -1.5289  1.1207
 2159SOL     OW17935   0.307   2.822   9.364  0.4787 -0.6992 -0.1625
 2159SOL    HW117936   0.229   2.837   9.418  2.1327  0.3447  1.9728
 2159SOL    HW217937   0.360   2.753   9.404  0.5613 -0.5627 -0.0325
 2160SOL     OW17938   2.564   3.768   5.407  0.0061 -0.0730  0.0160
 2160SOL    HW117939   2.624   3.831   5.447 -1.3059 -0.0443  1.9204
 2160SOL    HW217940   2.532   3.827   5.339  0.1065  0.7856  0.7106
 2161SOL     OW17941   2.617   0.099   1.218  0.1825 -0.3783  0.1227
 2161SOL    HW117942   2.657   0.155   1.152 -0.0164  1.3797  1.4903
 2161SOL    HW217943   2.656   0.137   1.297 -1.4491  1.8749 -0.1506
 2162SOL     OW17944   2.961   0.226   5.532  0.6639 -0.0987 -0.4388
 2162SOL    HW117945   2.937   0.180   5.452 -2.3115 -0.9595  0.9475
 2162SOL    HW217946   2.959   0.150   5.590 -2.1946 -0.8052 -1.4871
 2163SOL     OW17947   3.650   2.286   8.339 -0.3609  0.0963 -0.3069
 2163SOL    HW117948   3.566   2.305   8.382  0.4099 -0.8366  1.6000
 2163SOL    HW217949   3.706   2.258   8.412 -2.3422 -1.1328  0.7534
 2164SOL     OW17950   1.480   3.985  16.907  0.0305 -0.1633 -0.2729
 2164SOL    HW117951   1.427   3.969  16.985  0.2056  0.3418 -0.0541
 2164SOL    HW217952   1.410   3.964  16.845  0.8361 -0.3999 -1.1056
 2165SOL     OW17953   1.391   2.634  11.147 -0.0995 -0.2228  0.5556
 2165SOL    HW117954   1.420   2.661  11.234 -0.2667  0.7923  0.2946
 2165SOL    HW217955   1.384   2.540  11.163  1.2959 -0.1698  1.4853
 2166SOL     OW17956   0.232   1.728  13.289  0.2884 -0.0065  0.1474
 2166SOL    HW117957   0.233   1.809  13.238  1.1872  0.2342  0.5473
 2166SOL    HW217958   0.325   1.726  13.311  1.0413  0.7736 -2.9558
 2167SOL     OW17959   4.369   0.858   5.279  0.4038 -0.1223  0.0444
 2167SOL    HW117960   4.449   0.909   5.273 -0.0453  0.6424  0.5188
 2167SOL    HW217961   4.349   0.849   5.372  1.0189 -1.4782  0.0397
 2168SOL     OW17962   0.456   2.904   9.167 -1.0375  0.2207  0.1802
 2168SOL    HW117963   0.534   2.852   9.185 -0.3633 -0.0341 -3.4403
 2168SOL    HW217964   0.409   2.893   9.249 -1.6060 -0.9342 -0.2943
 2169SOL     OW17965   1.008   3.907   6.936  0.2257 -0.4966 -0.3675
 2169SOL    HW117966   1.074   3.953   6.988 -1.6722  1.0093  0.6844
 2169SOL    HW217967   1.040   3.822   6.965 -4.6292 -1.5667  1.8181
 2170SOL     OW17968   3.272   2.001   3.585  0.3854 -0.1023  0.0514
 2170SOL    HW117969   3.243   1.911   3.602 -0.1551  0.0967  0.1496
 2170SOL    HW217970   3.319   2.019   3.666  0.3105  0.9881 -0.1523
 2171SOL     OW17971   2.714   2.217  16.471  0.2884  0.0794  0.2817
 2171SOL    HW117972   2.760   2.161  16.408 -0.0014 -0.8939  0.9384
 2171SOL    HW217973   2.657   2.276  16.422 -0.0609  0.5582  1.2491
 2172SOL     OW17974   2.692   4.154   3.673  0.1493  0.1288  0.4291
 2172SOL    HW117975   2.774   4.176   3.717  2.4681 -1.8029 -2.8628
 2172SOL    HW217976   2.723   4.076   3.626  0.1194  1.7671 -2.2875
 2173SOL     OW17977   3.363   1.013   6.011 -0.0464 -0.1132 -0.3087
 2173SOL    HW117978   3.401   1.099   6.021 -1.7070  0.4651  1.0096
 2173SOL    HW217979   3.356   1.008   5.915  2.6262 -1.3513 -0.4302
 2174SOL     OW17980   0.757   2.730   5.839  0.2529  0.7631 -0.0917
 2174SOL    HW117981   0.728   2.639   5.840 -1.4242  1.2735 -1.7731
 2174SOL    HW217982   0.774   2.752   5.747 -1.3143  0.0076 -0.5576
 2175SOL     OW17983   3.489   3.308  17.189 -0.5489 -0.8602  0.3876
 2175SOL    HW117984   3.517   3.364  17.262 -0.3098 -0.5013  0.0183
 2175SOL    HW217985   3.466   3.366  17.117 -0.2673  1.9108  2.5069
 2176SOL     OW17986   4.407   3.379   0.002  0.1500  0.2036 -0.3151
 2176SOL    HW117987   4.386   3.452  17.627 -2.4640  1.1153  1.7861
 2176SOL    HW217988   4.336   3.317  17.670  0.4722 -0.5107  1.1618
 2177SOL     OW17989   3.199   2.738  12.458  0.1604 -0.4079 -0.3683
 2177SOL    HW117990   3.233   2.671  12.517  0.5587 -1.8559 -2.2417
 2177SOL    HW217991   3.111   2.701  12.454  0.1595 -0.5176  0.7769
 2178SOL     OW17992   2.409   2.720  14.446 -0.1849  0.9405 -0.4085
 2178SOL    HW117993   2.442   2.650  14.502  3.4951  2.6950 -0.3711
 2178SOL    HW217994   2.424   2.801  14.497  0.7136  1.6055 -1.7404
 2179SOL     OW17995   1.527   3.652   5.185  0.3557 -0.4333  0.2105
 2179SOL    HW117996   1.500   3.606   5.106  0.7026 -0.3547  0.0451
 2179SOL    HW217997   1.607   3.603   5.202  0.1768 -0.9061 -0.3138
 2180SOL     OW17998   2.909   2.088  12.277 -0.5318 -0.3578  0.2072
 2180SOL    HW117999   2.973   2.040  12.328 -0.3199 -0.4743 -0.1640
 2180SOL    HW218000   2.851   2.114  12.349 -2.0856 -0.8021 -0.8766
 2181SOL     OW18001   1.479   3.816  13.004 -0.1832 -0.2408  0.5773
 2181SOL    HW118002   1.448   3.850  12.920  1.3925 -2.4886 -0.9252
 2181SOL    HW218003   1.555   3.765  12.974 -0.0882  0.8301 -0.9647
 2182SOL     OW18004   1.548   4.469   5.181 -0.3182 -0.6476 -0.5422
 2182SOL    HW118005   1.554   4.457   5.087 -0.0230 -4.0779 -0.0674
 2182SOL    HW218006   1.492   4.546   5.190  0.8378 -0.0411  1.5844
 2183SOL     OW18007   3.708   1.289   2.740 -0.3166 -0.3846 -0.5555
 2183SOL    HW118008   3.796   1.273   2.774 -1.1404  0.5154  1.9614
 2183SOL    HW218009   3.680   1.351   2.807 -1.1960 -1.8758  0.4375
 2184SOL     OW18010   4.335   2.533   2.861  0.3072 -0.3218  0.5967
 2184SOL    HW118011   4.274   2.490   2.919 -0.5802  0.6290  0.3722
 2184SOL    HW218012   4.294   2.612   2.826  0.6256 -1.3002 -1.9878
 2185SOL     OW18013   4.532   0.355   6.407  0.0381 -0.2443  0.2622
 2185SOL    HW118014   4.599   0.317   6.464  0.9078  0.9977  0.0563
 2185SOL    HW218015   4.577   0.438   6.394  0.9095 -0.9499 -1.1762
 2186SOL     OW18016   2.807   0.942   3.240 -0.0720 -0.0859  0.2776
 2186SOL    HW118017   2.872   1.004   3.273  0.5915 -1.2757  1.2007
 2186SOL    HW218018   2.851   0.858   3.253 -0.2200  0.3911  4.0151
 2187SOL     OW18019   1.824   0.163   3.630 -0.0727  0.7167  0.1583
 2187SOL    HW118020   1.881   0.100   3.673  0.6966  0.8686 -0.6306
 2187SOL    HW218021   1.862   0.159   3.542 -0.3206  1.7294  0.0024
 2188SOL     OW18022   1.464   0.049   5.813  0.1097  0.4777  0.0421
 2188SOL    HW118023   1.463   0.137   5.777 -4.2199  0.7426  0.7538
 2188SOL    HW218024   1.459   0.070   5.907 -1.2031  0.4711 -0.0181
 2189SOL     OW18025   3.497   3.528   6.866 -0.0268 -0.4505 -0.3532
 2189SOL    HW118026   3.465   3.482   6.944 -1.2234  0.9372 -0.0302
 2189SOL    HW218027   3.586   3.493   6.858 -0.1558 -0.8093 -0.2003
 2190SOL     OW18028   4.073   0.081   3.973  0.0710  0.8643 -0.3227
 2190SOL    HW118029   4.164   0.050   3.978 -0.5502 -1.0048 -0.6090
 2190SOL    HW218030   4.026   0.002   3.999 -1.1826  1.4326 -0.8905
 2191SOL     OW18031   0.958   4.302   3.720  0.2384 -0.1463  0.2131
 2191SOL    HW118032   0.984   4.393   3.731  0.6380 -0.1626 -0.6404
 2191SOL    HW218033   0.914   4.287   3.804 -0.2986  1.2924  0.1931
 2192SOL     OW18034   2.981   4.319  16.827  0.2670 -0.4098  0.0498
 2192SOL    HW118035   3.021   4.233  16.815 -0.0726 -0.4133 -1.0046
 2192SOL    HW218036   2.998   4.360  16.742  1.6467 -0.3919  0.3353
 2193SOL     OW18037   1.075   3.948   2.192 -0.0228 -0.0395  0.2417
 2193SOL    HW118038   1.073   3.962   2.098 -0.9411 -1.0295  0.1153
 2193SOL    HW218039   1.069   3.854   2.208 -0.9606 -0.0720 -0.3445
 2194SOL     OW18040   2.611   1.477   2.968 -0.0326 -0.4525  0.1223
 2194SOL    HW118041   2.624   1.570   2.951  1.1744 -0.8219 -1.0109
 2194SOL    HW218042   2.689   1.455   3.018 -0.9358 -2.2454  0.7305
 2195SOL     OW18043   1.741   1.972   2.176 -0.2910 -0.4928 -0.1727
 2195SOL    HW118044   1.654   1.937   2.195 -1.4374  1.5672 -1.6202
 2195SOL    HW218045   1.744   2.052   2.228  0.4951  0.4729 -1.7089
 2196SOL     OW18046   2.094   4.291   8.104 -0.4899  0.3304  0.3725
 2196SOL    HW118047   2.064   4.365   8.158 -0.5453 -0.4492  1.4087
 2196SOL    HW218048   2.045   4.217   8.139 -0.9890  0.3425 -0.3291
 2197SOL     OW18049   2.464   0.919   7.082  0.2894  0.1775 -0.5102
 2197SOL    HW118050   2.462   0.860   7.158  1.4425  1.9562  0.9133
 2197SOL    HW218051   2.541   0.886   7.037 -1.1200 -3.7084 -0.0301
 2198SOL     OW18052   1.976   1.394   2.388  0.0938  0.3387 -0.0335
 2198SOL    HW118053   1.995   1.430   2.302  1.0682  0.0944  0.0809
 2198SOL    HW218054   2.062   1.411   2.427 -0.6801  1.6969  1.0918
 2199SOL     OW18055   4.013   0.020   5.449  0.4330 -0.5605  0.6553
 2199SOL    HW118056   4.021   4.664   5.391 -2.2554 -0.0150 -0.3937
 2199SOL    HW218057   3.961   4.694   5.515 -1.4804  1.1537  0.3220
 2200SOL     OW18058   0.612   1.309   7.314  0.3518  0.0397 -0.1674
 2200SOL    HW118059   0.587   1.243   7.249 -1.4799  1.7809 -1.1961
 2200SOL    HW218060   0.703   1.282   7.330  0.1780 -1.1841 -1.2673
 2201SOL     OW18061   2.833   4.339   6.596 -0.3132  0.1459 -0.1867
 2201SOL    HW118062   2.880   4.257   6.580 -1.2628 -0.7467  1.6601
 2201SOL    HW218063   2.844   4.393   6.518  2.2295  0.0995  0.1161
 2202SOL     OW18064   0.483   0.037   8.340 -0.2340  0.0156 -0.4259
 2202SOL    HW118065   0.461   4.688   8.403  1.6931 -1.7839 -1.7353
 2202SOL    HW218066   0.477   4.711   8.257  1.6383 -1.2111  0.1247
 2203SOL     OW18067   2.478   0.582   6.859 -0.1286  0.1813  0.7467
 2203SOL    HW118068   2.388   0.560   6.883 -1.0655 -1.5632 -4.2442
 2203SOL    HW218069   2.516   0.507   6.904 -0.9713 -0.8068 -0.1706
 2204SOL     OW18070   4.441   2.785  14.633  0.0236  0.0160  0.1351
 2204SOL    HW118071   4.348   2.809  14.629  0.0595 -0.0658 -1.2755
 2204SOL    HW218072   4.459   2.764  14.541  3.2092 -1.2909  1.0611
 2205SOL     OW18073   2.194   3.834   9.444  0.1363 -0.0885 -0.4447
 2205SOL    HW118074   2.137   3.757   9.455 -1.9332  1.2082 -2.2848
 2205SOL    HW218075   2.153   3.907   9.489  2.1700  0.1294  1.0839
 2206SOL     OW18076   1.902   1.520   9.433 -0.0724 -0.3516  0.7304
 2206SOL    HW118077   1.947   1.482   9.358  1.1511  1.9265  0.3194
 2206SOL    HW218078   1.826   1.461   9.433 -0.5074  0.2030 -4.4372
 2207SOL     OW18079   0.025   2.136   6.759  0.2919 -0.0331 -0.4196
 2207SOL    HW118080   4.652   2.125   6.777  0.3570 -0.3241 -0.2555
 2207SOL    HW218081   0.069   2.052   6.747 -0.1883 -0.5181  1.2310
 2208SOL     OW18082   4.117   1.542   3.110  0.6871 -0.2080  0.4289
 2208SOL    HW118083   4.074   1.594   3.042  1.4077  0.4207  0.4473
 2208SOL    HW218084   4.082   1.589   3.186  1.3254  0.4697  0.3115
 2209SOL     OW18085   4.636   1.706   7.498 -0.0841  0.8677  0.0790
 2209SOL    HW118086   4.566   1.646   7.473 -0.4793 -0.1676  3.7627
 2209SOL    HW218087   4.715   1.664   7.463 -1.5521 -1.3290 -0.5951
 2210SOL     OW18088   0.598   1.367   0.465 -0.2834 -0.8474 -0.2619
 2210SOL    HW118089   0.656   1.335   0.396 -1.3665 -1.8923 -0.6961
 2210SOL    HW218090   0.531   1.418   0.420  1.5927  2.0261  0.2575
 2211SOL     OW18091   0.455   3.984   3.774 -0.0901 -0.1877 -0.8170
 2211SOL    HW118092   0.386   4.043   3.805 -0.8431 -2.7241  2.2392
 2211SOL    HW218093   0.523   4.041   3.737  1.0455 -0.7068  0.4688
 2212SOL     OW18094   0.718   2.775   5.172  0.0450  0.3720  0.4718
 2212SOL    HW118095   0.680   2.739   5.252 -0.1454  0.7169  0.5385
 2212SOL    HW218096   0.811   2.756   5.187  0.2387 -0.9049 -2.3842
 2213SOL     OW18097   3.071   2.750   7.682 -0.2655  0.2851 -0.1188
 2213SOL    HW118098   3.067   2.707   7.767  0.6807  2.0084  0.8018
 2213SOL    HW218099   3.122   2.691   7.627  0.5974  0.0420  0.9541
 2214SOL     OW18100   1.157   2.619  14.559 -0.4308 -0.2247  0.0375
 2214SOL    HW118101   1.074   2.622  14.510  0.2924  0.2565 -1.1482
 2214SOL    HW218102   1.141   2.651  14.647  0.5498  0.7407 -0.1438
 2215SOL     OW18103   3.393   0.181   3.400 -0.5257  0.2663 -0.4146
 2215SOL    HW118104   3.454   0.185   3.327 -0.1327  1.6753 -0.0258
 2215SOL    HW218105   3.455   0.167   3.472 -0.6833  1.1997 -0.0849
 2216SOL     OW18106   2.718   0.701   8.158  0.6403 -0.4006 -0.0018
 2216SOL    HW118107   2.747   0.620   8.116  2.6214  0.2582  0.1015
 2216SOL    HW218108   2.655   0.732   8.093  0.6343 -2.7279 -1.1010
 2217SOL     OW18109   1.703   1.155   5.765 -0.2121 -0.0062 -0.3013
 2217SOL    HW118110   1.681   1.093   5.835 -1.8470 -0.5239 -1.2910
 2217SOL    HW218111   1.755   1.101   5.706 -2.5515 -0.5409 -1.8335
 2218SOL     OW18112   1.353   0.576   8.549 -0.1229  0.0666  0.4761
 2218SOL    HW118113   1.286   0.637   8.578  1.1214  1.0286  1.3532
 2218SOL    HW218114   1.422   0.580   8.616 -1.1628 -1.2700  1.6099
 2219SOL     OW18115   3.477   2.213   1.623  0.1905  0.3158  0.4240
 2219SOL    HW118116   3.463   2.119   1.610  0.6567  0.4183 -0.8012
 2219SOL    HW218117   3.478   2.241   1.532 -3.8623  2.5460  1.0552
 2220SOL     OW18118   4.093   0.529   5.269 -0.1038 -0.1470 -0.0305
 2220SOL    HW118119   4.181   0.565   5.258  0.7773 -2.2891  0.0050
 2220SOL    HW218120   4.112   0.452   5.323 -1.6500 -0.2362  0.3873
 2221SOL     OW18121   1.833   1.832   9.629 -0.1937  0.0272  0.3960
 2221SOL    HW118122   1.810   1.816   9.538  1.3090 -2.1426  0.3855
 2221SOL    HW218123   1.769   1.895   9.660 -0.3518  0.1565 -0.2151
 2222SOL     OW18124   2.238   4.704   7.434  0.4609  0.2432  0.1414
 2222SOL    HW118125   2.284   4.681   7.353  3.0171  0.9567  1.3831
 2222SOL    HW218126   2.168   4.641   7.445  0.6282  0.0783  0.2670
 2223SOL     OW18127   3.997   2.764  11.403  0.2536  0.0694 -0.1990
 2223SOL    HW118128   3.931   2.778  11.471 -1.2886  0.6546 -1.8192
 2223SOL    HW218129   4.032   2.692  11.454  0.0756  0.2944  0.2420
 2224SOL     OW18130   3.161   1.108  16.079 -0.1510 -0.3683 -0.4083
 2224SOL    HW118131   3.103   1.123  16.153 -0.3221 -1.6643 -0.2757
 2224SOL    HW218132   3.244   1.127  16.124 -0.2686  0.1720 -0.4253
 2225SOL     OW18133   1.898   1.070   6.143 -0.3323  0.1088  0.2348
 2225SOL    HW118134   1.864   1.118   6.218  0.3093 -0.3343  0.8076
 2225SOL    HW218135   1.827   1.086   6.081  0.3677  0.7385 -0.4147
 2226SOL     OW18136   3.212   2.096   4.007 -0.2347  0.1087 -0.0097
 2226SOL    HW118137   3.275   2.024   4.012  0.1221  0.2590 -2.0596
 2226SOL    HW218138   3.224   2.126   4.097  1.2875  1.3931 -0.6292
 2227SOL     OW18139   1.850   3.589  10.600  0.2247 -0.4143 -0.0530
 2227SOL    HW118140   1.779   3.564  10.660 -0.8753  0.0775 -1.1329
 2227SOL    HW218141   1.915   3.520  10.609 -0.5329 -0.8383  2.0217
 2228SOL     OW18142   3.574   3.752   5.783  0.3543 -0.0174 -0.1639
 2228SOL    HW118143   3.526   3.761   5.701 -1.3990 -1.8378  0.6694
 2228SOL    HW218144   3.619   3.669   5.767 -2.1542 -1.5282  0.6797
 2229SOL     OW18145   2.479   0.635   3.294 -0.5446 -0.1269 -0.1452
 2229SOL    HW118146   2.516   0.712   3.338 -2.2758 -0.3204  1.6063
 2229SOL    HW218147   2.478   0.649   3.199  2.6746  1.3270  0.0100
 2230SOL     OW18148   1.589   1.103   1.236  0.4062 -0.1163 -0.1479
 2230SOL    HW118149   1.646   1.126   1.310  1.6622  0.8583 -1.4025
 2230SOL    HW218150   1.541   1.024   1.262  2.9325 -1.3525  0.7823
 2231SOL     OW18151   3.857   4.305   1.824  0.8639 -0.1898  0.0471
 2231SOL    HW118152   3.943   4.339   1.799  0.7078  1.3285  1.5392
 2231SOL    HW218153   3.839   4.240   1.756  0.7749  1.6421 -1.7056
 2232SOL     OW18154   3.901   4.621   7.146 -0.2930 -0.0166  0.2276
 2232SOL    HW118155   3.817   4.632   7.191  1.3951  0.6940  3.2173
 2232SOL    HW218156   3.963   4.658   7.209  0.6080  0.3074 -0.8418
 2233SOL     OW18157   3.458   1.185   8.427  0.8671  0.0947 -0.3000
 2233SOL    HW118158   3.437   1.091   8.428  1.7754 -0.0988  1.5670
 2233SOL    HW218159   3.479   1.185   8.334 -1.0461  3.1587 -0.7257
 2234SOL     OW18160   1.879   1.049  13.724 -0.6066  0.3925  0.1511
 2234SOL    HW118161   1.926   1.012  13.649 -0.2202 -0.3106  0.7347
 2234SOL    HW218162   1.811   1.098  13.677 -0.1206 -0.6743 -1.6910
 2235SOL     OW18163   1.410   1.707  12.656 -0.2082 -0.2581 -0.6129
 2235SOL    HW118164   1.401   1.617  12.623  1.1446 -0.1498 -1.2857
 2235SOL    HW218165   1.333   1.747  12.615 -2.5242 -1.4163  2.6612
 2236SOL     OW18166   2.056   0.173   0.574 -0.0249 -0.0158  0.8810
 2236SOL    HW118167   2.121   0.216   0.519 -1.5641 -0.7673 -1.5398
 2236SOL    HW218168   1.975   0.218   0.548 -2.2780 -4.1885  0.6809
 2237SOL     OW18169   2.016   1.064   7.622  0.0516 -0.3728 -0.1872
 2237SOL    HW118170   2.055   1.123   7.686 -0.6458 -0.5575  0.4090
 2237SOL    HW218171   1.955   1.124   7.580  1.2588  1.3040  0.4247
 2238SOL     OW18172   4.272   3.110   8.394 -0.1897  0.1620 -0.7204
 2238SOL    HW118173   4.189   3.093   8.350 -0.3349 -0.1285 -0.3351
 2238SOL    HW218174   4.261   3.107   8.489 -0.8128  0.6748 -0.7758
 2239SOL     OW18175   1.358   1.177   3.533  0.2367  0.0184  0.4060
 2239SOL    HW118176   1.317   1.094   3.558 -0.6857 -0.0309 -1.3201
 2239SOL    HW218177   1.359   1.156   3.440 -1.8378 -0.5881  0.5151
 2240SOL     OW18178   3.845   0.977  12.669  0.3388 -0.4029  0.4700
 2240SOL    HW118179   3.831   0.889  12.704  0.5859 -1.7176 -2.7226
 2240SOL    HW218180   3.941   0.971  12.669  0.3608 -0.1585 -0.3609
 2241SOL     OW18181   0.421   3.864   2.712 -0.4737  0.3277  0.3224
 2241SOL    HW118182   0.433   3.770   2.723 -0.9692  0.2190 -0.0452
 2241SOL    HW218183   0.415   3.882   2.805 -1.8011 -1.6419  0.6050
 2242SOL     OW18184   1.388   3.984   3.659 -0.2388  0.0568  0.1019
 2242SOL    HW118185   1.480   3.978   3.635 -0.5969  0.4437 -1.3405
 2242SOL    HW218186   1.362   3.893   3.648  0.2806  0.1274 -1.6404
 2243SOL     OW18187   3.205   1.874  15.268 -0.7053  0.6929 -0.2936
 2243SOL    HW118188   3.226   1.870  15.362  0.6175  0.3338 -0.6117
 2243SOL    HW218189   3.145   1.949  15.269 -1.6044 -0.0316  0.4434
 2244SOL     OW18190   1.571   3.599  16.275 -0.1244  0.1257  0.2254
 2244SOL    HW118191   1.507   3.651  16.323 -1.2554 -0.4447 -0.6766
 2244SOL    HW218192   1.600   3.558  16.356 -0.8236  0.4969  0.6650
 2245SOL     OW18193   4.014   3.951   6.436  0.0273  0.4660 -0.4301
 2245SOL    HW118194   4.048   4.005   6.364  2.3240  0.5941  0.7641
 2245SOL    HW218195   3.925   3.988   6.436  0.5903  1.8088 -0.4726
 2246SOL     OW18196   0.651   1.702   3.778 -0.0192  0.3392 -0.1220
 2246SOL    HW118197   0.573   1.666   3.819 -0.0993 -1.5188 -1.9267
 2246SOL    HW218198   0.713   1.629   3.769  1.3336  1.5459 -0.6839
 2247SOL     OW18199   2.294   1.981   8.572 -0.4015 -0.5752  0.5060
 2247SOL    HW118200   2.317   1.900   8.526  1.2653 -0.0455  0.3857
 2247SOL    HW218201   2.347   2.051   8.532 -0.7820 -0.7478 -0.2977
 2248SOL     OW18202   2.118   3.297   6.828  0.1731  0.2986  0.4462
 2248SOL    HW118203   2.141   3.217   6.876  0.8675  0.2595  0.0437
 2248SOL    HW218204   2.139   3.268   6.739 -1.3060 -3.0839  1.1797
 2249SOL     OW18205   2.680   2.357   4.032  0.1870  0.2657 -0.0671
 2249SOL    HW118206   2.595   2.360   3.988  0.3505 -0.0806 -0.4070
 2249SOL    HW218207   2.718   2.281   3.988  1.5728  0.8117  0.2071
 2250SOL     OW18208   0.264   3.529  14.026  0.5672  0.5250 -0.7537
 2250SOL    HW118209   0.303   3.456  14.075 -0.9315 -1.6006 -2.7196
 2250SOL    HW218210   0.205   3.554  14.097  0.0008  1.7967 -1.6843
 2251SOL     OW18211   2.504   2.612   1.409  0.4888  0.3453 -0.5126
 2251SOL    HW118212   2.485   2.539   1.468 -0.6921 -1.0290 -2.5952
 2251SOL    HW218213   2.562   2.563   1.350  2.7041  1.1030  1.0357
 2252SOL     OW18214   1.711   0.320   5.658 -0.6686  0.2167 -0.6496
 2252SOL    HW118215   1.627   0.275   5.666 -0.9203  0.6393 -0.9319
 2252SOL    HW218216   1.729   0.348   5.747  0.6895  2.0633 -1.4908
 2253SOL     OW18217   1.381   4.039   0.560 -0.2846 -0.1585 -0.4830
 2253SOL    HW118218   1.376   4.018   0.466 -0.4417  1.5652 -0.8605
 2253SOL    HW218219   1.363   3.950   0.590 -0.9672 -0.1656 -0.8905
 2254SOL     OW18220   1.134   2.134   3.529  0.0244 -0.4981 -0.2550
 2254SOL    HW118221   1.063   2.093   3.479 -0.2474  1.7547 -1.7405
 2254SOL    HW218222   1.144   2.071   3.600  2.0502  1.2566  1.0227
 2255SOL     OW18223   4.149   3.517   3.462  0.0674  0.1349 -0.2647
 2255SOL    HW118224   4.116   3.428   3.470  2.5700 -0.9757 -2.1748
 2255SOL    HW218225   4.144   3.534   3.367 -0.5056  0.3321 -0.1991
 2256SOL     OW18226   0.435   0.959   6.636  0.1339  0.4356 -0.9762
 2256SOL    HW118227   0.497   0.928   6.570  1.7657 -0.1471  0.8265
 2256SOL    HW218228   0.476   0.906   6.705  0.3159 -0.0382 -1.4507
 2257SOL     OW18229   2.521   1.330   2.768 -0.0335 -0.0095 -0.3314
 2257SOL    HW118230   2.574   1.366   2.697 -1.3213  3.9274  0.6888
 2257SOL    HW218231   2.560   1.370   2.847 -0.7696 -0.7010  0.3835
 2258SOL     OW18232   2.544   0.123   9.970  0.0043  0.2348  0.7216
 2258SOL    HW118233   2.458   0.161   9.987 -0.1395  0.1722  0.1511
 2258SOL    HW218234   2.551   0.049  10.030 -0.4520 -1.0553 -0.7771
 2259SOL     OW18235   1.076   2.269   4.466  0.0835  0.0648 -0.0910
 2259SOL    HW118236   1.007   2.241   4.406 -0.6046  1.0195  0.2517
 2259SOL    HW218237   1.137   2.201   4.438  0.1459 -0.6815  1.9055
 2260SOL     OW18238   0.532   4.090   6.307  0.5246 -0.2781 -0.8288
 2260SOL    HW118239   0.491   4.166   6.265  0.3362  0.4096  0.5976
 2260SOL    HW218240   0.532   4.030   6.233  2.9972 -1.7926  0.4181
 2261SOL     OW18241   3.554   0.965   0.065 -0.2889  0.0384  0.0392
 2261SOL    HW118242   3.566   1.042   0.122 -0.5797 -1.1362  1.7009
 2261SOL    HW218243   3.605   0.900   0.113  0.7884  0.6695 -0.2365
 2262SOL     OW18244   4.007   0.848   5.596 -0.2415 -0.9604  0.3930
 2262SOL    HW118245   4.027   0.923   5.539 -1.4221 -0.1343  1.0624
 2262SOL    HW218246   4.064   0.778   5.565 -2.1023 -0.9420 -3.1070
 2263SOL     OW18247   0.423   4.117   7.566  0.9596  0.8862 -0.7237
 2263SOL    HW118248   0.442   4.189   7.626 -0.4896  0.6323  0.0375
 2263SOL    HW218249   0.448   4.044   7.622  0.8597  0.4372 -1.2653
 2264SOL     OW18250   2.043   2.999   1.446 -0.2767  0.0848  0.9435
 2264SOL    HW118251   2.128   3.040   1.434 -0.7122  1.7319  3.5609
 2264SOL    HW218252   2.027   2.960   1.360 -1.0679  1.6918  0.3505
 2265SOL     OW18253   0.826   0.612   9.454  0.1097 -0.0306 -0.6168
 2265SOL    HW118254   0.735   0.616   9.486 -0.4428  0.8771 -2.3071
 2265SOL    HW218255   0.869   0.593   9.537  0.1933 -1.6312 -1.0130
 2266SOL     OW18256   2.193   1.338   9.255 -0.3889  0.1233 -0.5500
 2266SOL    HW118257   2.259   1.315   9.190 -1.7334 -0.2614 -1.7961
 2266SOL    HW218258   2.107   1.314   9.219  0.5854  0.2077 -2.9486
 2267SOL     OW18259   0.975   4.638   8.707  0.1891  0.5182 -0.0277
 2267SOL    HW118260   0.904   4.664   8.765  0.7369 -0.2753  0.9868
 2267SOL    HW218261   1.053   4.691   8.723  1.6922 -1.0943 -1.9873
 2268SOL     OW18262   0.896   1.093   1.539 -0.4488 -0.5678 -0.1701
 2268SOL    HW118263   0.861   1.113   1.626  2.4377 -0.6681  1.0031
 2268SOL    HW218264   0.952   1.169   1.532 -0.2605 -0.5932  1.1209
 2269SOL     OW18265   3.265   2.322   3.853  0.8155 -0.4981  0.1273
 2269SOL    HW118266   3.169   2.329   3.852  0.8979  0.1402 -2.7669
 2269SOL    HW218267   3.263   2.233   3.887  2.5687  0.1729  1.9559
 2270SOL     OW18268   3.748   0.785  11.562 -0.5240  0.0256  0.0908
 2270SOL    HW118269   3.656   0.758  11.558  0.0569 -2.3110  2.1441
 2270SOL    HW218270   3.769   0.785  11.468 -2.7842  0.5685 -0.3937
 2271SOL     OW18271   3.298   0.463  10.694  0.1064 -1.0761 -0.5499
 2271SOL    HW118272   3.388   0.492  10.683 -0.0273 -0.4335  0.0948
 2271SOL    HW218273   3.311   0.372  10.721 -2.1378 -1.3334 -0.3196
 2272SOL     OW18274   2.096   3.174  13.119  0.2783 -0.0883 -0.8060
 2272SOL    HW118275   2.133   3.246  13.068 -1.1486 -1.0292 -3.1653
 2272SOL    HW218276   2.170   3.114  13.108 -0.2938 -0.8190 -0.6501
 2273SOL     OW18277   4.122   0.387  14.156 -0.6243 -0.0414  0.6667
 2273SOL    HW118278   4.035   0.411  14.186 -1.3207 -1.1794 -0.4140
 2273SOL    HW218279   4.130   0.444  14.079 -0.0571 -0.4607  0.4151
 2274SOL     OW18280   2.456   0.201   4.692 -0.5345  0.2856  0.2549
 2274SOL    HW118281   2.549   0.216   4.709 -0.5803  2.4820 -1.2858
 2274SOL    HW218282   2.424   0.291   4.695 -0.8939  0.0590  2.7401
 2275SOL     OW18283   2.164   2.526   7.170  0.1437 -0.1704  0.3661
 2275SOL    HW118284   2.140   2.579   7.246 -1.5320 -0.6378  0.1457
 2275SOL    HW218285   2.215   2.456   7.209 -0.2864 -0.6257  0.1086
 2276SOL     OW18286   0.023   1.373   6.395  0.3380 -0.3238 -0.0283
 2276SOL    HW118287   4.682   1.329   6.454  0.6473 -0.4765  0.1735
 2276SOL    HW218288   0.012   1.321   6.315  0.4379 -2.0893  1.0931
 2277SOL     OW18289   3.832   0.784  10.274  0.0297  0.3753  0.0990
 2277SOL    HW118290   3.820   0.879  10.269 -1.8192  0.2165  1.3267
 2277SOL    HW218291   3.780   0.748  10.202  3.5688 -1.0621 -1.7197
 2278SOL     OW18292   0.113   4.397   6.253  0.4006  0.3705  0.6968
 2278SOL    HW118293   0.118   4.329   6.186 -0.5823  1.5623 -0.5954
 2278SOL    HW218294   0.038   4.363   6.301 -0.7562  2.2511  0.2299
 2279SOL     OW18295   0.792   4.200   4.943  0.1127 -0.2257  0.3028
 2279SOL    HW118296   0.804   4.167   4.854  0.8772 -0.9176  0.6620
 2279SOL    HW218297   0.749   4.285   4.930  1.8068  0.8407  1.5691
 2280SOL     OW18298   0.518   1.063   7.545  0.2499 -0.1308 -0.3145
 2280SOL    HW118299   0.558   1.082   7.630 -0.1333  2.5391 -0.7530
 2280SOL    HW218300   0.446   1.126   7.545 -1.0926 -1.6652 -0.0188
 2281SOL     OW18301   4.565   2.851   9.375 -0.2768  0.7409 -0.1574
 2281SOL    HW118302   4.511   2.871   9.299 -1.6133  0.5622  0.7368
 2281SOL    HW218303   4.640   2.908   9.357  1.3900 -0.4660  2.8951
 2282SOL     OW18304   2.104   3.083   6.343  0.0946  0.1567  0.3250
 2282SOL    HW118305   2.053   3.013   6.384 -3.2941  3.5041  1.8743
 2282SOL    HW218306   2.194   3.053   6.345  0.2220  0.4757 -0.6166
 2283SOL     OW18307   1.815   4.476  15.772  0.0988 -0.2581 -0.3541
 2283SOL    HW118308   1.909   4.491  15.784 -0.1666 -0.2413  1.6937
 2283SOL    HW218309   1.803   4.382  15.786 -0.8803 -0.0474  0.2184
 2284SOL     OW18310   1.416   0.594   9.642  0.4589 -0.0536  0.7667
 2284SOL    HW118311   1.344   0.655   9.623  1.0118 -0.1063 -1.5191
 2284SOL    HW218312   1.391   0.545   9.720 -1.3135 -2.5072 -1.3356
 2285SOL     OW18313   2.696   2.102   1.297  0.1364 -0.0529 -0.0041
 2285SOL    HW118314   2.786   2.126   1.274  0.2501 -0.3670  0.1192
 2285SOL    HW218315   2.666   2.065   1.214  3.4117  0.1620 -1.2740
 2286SOL     OW18316   2.331   2.451   8.285  0.1777 -0.2318 -0.0475
 2286SOL    HW118317   2.344   2.391   8.212  1.9366  1.3021 -1.0040
 2286SOL    HW218318   2.361   2.396   8.357  1.5030  0.3431 -0.1586
 2287SOL     OW18319   0.826   4.255   2.834 -0.0260 -0.3422  0.1512
 2287SOL    HW118320   0.744   4.297   2.859  0.5063  1.0241 -0.4184
 2287SOL    HW218321   0.856   4.321   2.772 -3.6538  1.2563  0.1412
 2288SOL     OW18322   3.488   0.927  10.026 -0.1327 -0.4497  0.6266
 2288SOL    HW118323   3.493   1.023  10.023  1.3314 -0.5212  0.8582
 2288SOL    HW218324   3.395   0.919  10.047 -0.2519 -2.0055 -0.5303
 2289SOL     OW18325   3.550   1.619  13.268 -0.4267 -0.3452 -0.0470
 2289SOL    HW118326   3.462   1.611  13.230  0.1876  0.8846 -1.7193
 2289SOL    HW218327   3.557   1.712  13.246 -2.4358 -0.2436 -0.2964
 2290SOL     OW18328   1.847   1.584   6.941  1.3203  0.3751 -0.0240
 2290SOL    HW118329   1.927   1.627   6.971  1.2195  0.5564 -0.0170
 2290SOL    HW218330   1.873   1.493   6.930  1.3172  0.5179 -1.2710
 2291SOL     OW18331   0.608   3.324   4.659  0.8897  0.1218  0.3470
 2291SOL    HW118332   0.692   3.359   4.627 -0.5922  2.2543 -1.2298
 2291SOL    HW218333   0.549   3.385   4.615 -0.5537 -1.4770  0.0872
 2292SOL     OW18334   3.169   2.773   8.860 -0.9830 -0.4086 -0.0926
 2292SOL    HW118335   3.108   2.833   8.816 -0.9524 -0.6445 -0.4636
 2292SOL    HW218336   3.127   2.688   8.868 -3.2028  0.5668 -1.1839
 2293SOL     OW18337   4.356   2.339   8.941  0.4911  0.4296 -0.2467
 2293SOL    HW118338   4.350   2.296   9.026 -2.0945  0.8661 -0.1923
 2293SOL    HW218339   4.276   2.318   8.893  1.4450 -1.8407 -0.8464
 2294SOL     OW18340   0.103   2.596   5.640 -0.0199  0.0799  0.3119
 2294SOL    HW118341   0.111   2.668   5.577  0.4317 -0.2786 -0.0441
 2294SOL    HW218342   0.052   2.632   5.712  1.7423 -2.2186  2.7158
 2295SOL     OW18343   0.065   1.803  11.993  0.0979 -0.0728  0.4392
 2295SOL    HW118344   0.064   1.841  11.905  1.1198 -2.2777 -0.5207
 2295SOL    HW218345   0.066   1.709  11.974  1.4257 -0.3596  1.9049
 2296SOL     OW18346   0.585   0.487   8.722  0.2002 -0.0980 -0.3192
 2296SOL    HW118347   0.532   0.409   8.740  0.0729 -0.2609 -1.4218
 2296SOL    HW218348   0.518   0.555   8.726  0.6996  0.2664  1.6979
 2297SOL     OW18349   0.829   1.100   2.840 -0.5505  0.6185 -0.0146
 2297SOL    HW118350   0.899   1.094   2.775 -2.5329  2.8080 -2.3558
 2297SOL    HW218351   0.863   1.173   2.893 -0.3408 -1.1310  2.2856
 2298SOL     OW18352   4.170   3.543  16.835  0.1436  0.6340 -0.1642
 2298SOL    HW118353   4.097   3.533  16.773 -1.9163 -0.0103  2.3524
 2298SOL    HW218354   4.124   3.554  16.918  0.6809 -0.6949  0.2987
 2299SOL     OW18355   1.741   0.586   1.429 -0.8728 -0.0644 -0.5437
 2299SOL    HW118356   1.737   0.653   1.361  1.3744  0.8925  0.2813
 2299SOL    HW218357   1.670   0.615   1.486  0.9154  0.2136  1.5194
 2300SOL     OW18358   0.377   4.384   3.926 -0.2256 -0.3385 -0.1928
 2300SOL    HW118359   0.303   4.368   3.868 -1.1922 -2.0365  1.5060
 2300SOL    HW218360   0.445   4.399   3.860  0.0550 -3.8194 -0.7058
 2301SOL     OW18361   2.405   0.608  12.542 -0.1647 -0.5853 -0.2208
 2301SOL    HW118362   2.450   0.692  12.529 -0.3844 -0.7120 -1.8455
 2301SOL    HW218363   2.472   0.551  12.580 -0.4714 -1.3200 -0.7790
 2302SOL     OW18364   3.356   4.548   2.776  0.3597 -0.3396  0.4899
 2302SOL    HW118365   3.446   4.516   2.777  0.4278 -0.1550  0.3062
 2302SOL    HW218366   3.367   4.621   2.714  1.2678 -2.0006 -1.3003
 2303SOL     OW18367   0.691   0.041   8.102  0.6482  0.4038  0.3558
 2303SOL    HW118368   0.755   0.032   8.172 -0.0524 -2.3050  0.6540
 2303SOL    HW218369   0.721   4.696   8.039  0.3526  0.9543 -0.3622
 2304SOL     OW18370   4.340   3.384  12.247  0.1246 -0.0256 -0.3998
 2304SOL    HW118371   4.333   3.351  12.337  3.6009 -0.8850 -0.4592
 2304SOL    HW218372   4.388   3.314  12.203 -1.9549  0.0316 -2.7565
 2305SOL     OW18373   1.370   0.941   6.500  0.2550  0.3893  0.1044
 2305SOL    HW118374   1.345   0.903   6.416  0.1632  2.0059 -0.6001
 2305SOL    HW218375   1.346   1.029   6.471  1.4770  0.2612 -1.2542
 2306SOL     OW18376   0.363   4.055  13.745 -0.0226 -0.6615 -0.3942
 2306SOL    HW118377   0.303   4.030  13.814 -0.9416 -0.3743 -1.0850
 2306SOL    HW218378   0.357   4.151  13.744 -2.1343 -0.7903 -1.3344
 2307SOL     OW18379   4.031   0.979  10.883 -0.3898  0.5609 -0.1127
 2307SOL    HW118380   3.976   1.057  10.883  2.1868  2.3547 -4.3608
 2307SOL    HW218381   4.072   0.979  10.797  0.5076  1.8031  0.3313
 2308SOL     OW18382   2.841   2.853   0.542  0.6648  0.0252  0.2737
 2308SOL    HW118383   2.779   2.842   0.614 -0.9505 -2.3673 -1.4621
 2308SOL    HW218384   2.911   2.907   0.578  2.3121 -2.2078  0.4091
 2309SOL     OW18385   4.188   1.660   6.532  0.0711 -0.3791  0.2257
 2309SOL    HW118386   4.099   1.692   6.517  0.8849  0.5281 -2.7644
 2309SOL    HW218387   4.193   1.644   6.437  0.4435 -1.5785  0.4409
 2310SOL     OW18388   2.617   3.223  12.114 -0.2136 -0.0476 -0.1825
 2310SOL    HW118389   2.567   3.219  12.196  2.1292  0.4902  1.2541
 2310SOL    HW218390   2.568   3.164  12.057  0.8272 -0.5997 -0.4910
 2311SOL     OW18391   2.727   2.988   0.297  0.1899 -0.3755  0.0807
 2311SOL    HW118392   2.777   2.940   0.362 -0.0470 -0.3863  0.2527
 2311SOL    HW218393   2.759   2.950   0.215 -0.8584 -0.9914 -0.0476
 2312SOL     OW18394   1.934   2.654  13.538  0.0375 -0.3950  0.0880
 2312SOL    HW118395   1.843   2.681  13.522  0.1234  1.0909  2.0543
 2312SOL    HW218396   1.967   2.609  13.460  0.1356  1.8672 -1.1590
 2313SOL     OW18397   1.631   2.261   7.567  0.1189  0.5196  0.1328
 2313SOL    HW118398   1.599   2.171   7.569  0.8475  0.2280 -1.1615
 2313SOL    HW218399   1.686   2.257   7.489 -1.3216  1.9988 -0.9659
 2314SOL     OW18400   0.967   0.260   4.087 -0.0627 -0.3367 -0.0054
 2314SOL    HW118401   0.990   0.353   4.089 -2.0661  0.1557  0.2104
 2314SOL    HW218402   0.871   0.266   4.093  0.1189  0.9699  1.6363
 2315SOL     OW18403   2.000   2.176   6.028 -0.0713 -0.9145  0.7156
 2315SOL    HW118404   1.965   2.232   6.098  1.9553  0.5429  0.5269
 2315SOL    HW218405   2.092   2.179   6.052  0.1002  2.4758 -0.4419
 2316SOL     OW18406   2.369   2.711   8.191  0.0564  0.3268 -0.7238
 2316SOL    HW118407   2.352   2.626   8.232 -1.3713  0.1313 -1.7545
 2316SOL    HW218408   2.449   2.693   8.142 -0.7980 -1.3814 -1.5074
 2317SOL     OW18409   2.901   4.167   9.036  0.2604  0.2439 -0.3637
 2317SOL    HW118410   2.832   4.232   9.044  0.8242  1.1230 -2.6385
 2317SOL    HW218411   2.952   4.194   9.112  0.1053  2.8905 -1.2072
 2318SOL     OW18412   3.605   1.432   3.045  0.2216 -0.4002 -0.1916
 2318SOL    HW118413   3.674   1.383   3.090  1.6939  0.2552 -1.7444
 2318SOL    HW218414   3.554   1.449   3.124 -1.3892 -1.5921 -0.9736
 2319SOL     OW18415   4.075   0.004  10.149 -0.3699 -0.4457  0.1411
 2319SOL    HW118416   4.098   4.649  10.204  0.7982  0.3447  0.7334
 2319SOL    HW218417   4.138   0.067  10.184 -1.4632  0.0599  1.1904
 2320SOL     OW18418   0.867   4.497   3.384 -0.3422  0.0432 -0.3933
 2320SOL    HW118419   0.837   4.583   3.414 -0.1043  0.1275 -0.4042
 2320SOL    HW218420   0.937   4.511   3.321 -0.2338 -0.4733 -0.3841
 2321SOL     OW18421   0.328   1.833   6.527  0.1919  0.4500 -0.3110
 2321SOL    HW118422   0.358   1.920   6.500  1.3015 -0.1219 -0.9362
 2321SOL    HW218423   0.296   1.794   6.445 -1.7679 -2.3997  1.8102
 2322SOL     OW18424   0.488   3.433  14.898  0.1887  0.5168  0.0824
 2322SOL    HW118425   0.429   3.463  14.967 -0.3307  0.0993 -0.1777
 2322SOL    HW218426   0.438   3.363  14.856 -0.2036  2.4214 -2.6372
 2323SOL     OW18427   3.895   2.920  17.403  0.4285  0.2281  0.6304
 2323SOL    HW118428   3.970   2.935  17.346 -0.7463  0.4407 -0.8621
 2323SOL    HW218429   3.867   2.843  17.355 -0.6645  0.7855  0.3828
 2324SOL     OW18430   2.972   4.193   3.602  0.2322  1.0515 -0.7907
 2324SOL    HW118431   3.055   4.232   3.630 -1.6431  1.3519  4.4423
 2324SOL    HW218432   2.932   4.265   3.554 -1.3334  1.3735  0.9950
 2325SOL     OW18433   2.980   2.609   4.781  0.0994 -0.2218 -0.7675
 2325SOL    HW118434   2.971   2.606   4.686 -2.0316  2.0946 -0.6672
 2325SOL    HW218435   2.901   2.653   4.812  1.3742  0.3210  1.6723
 2326SOL     OW18436   3.062   2.942   4.490 -0.4728 -0.1031  0.4977
 2326SOL    HW118437   3.002   2.958   4.418  0.1771 -1.1499 -0.2728
 2326SOL    HW218438   3.058   2.847   4.492  0.3018 -0.1153  1.6553
 2327SOL     OW18439   3.358   2.540   2.938 -0.9644 -0.2142 -0.4661
 2327SOL    HW118440   3.279   2.593   2.937  0.5295  2.0094 -1.7657
 2327SOL    HW218441   3.355   2.494   3.021 -1.5787 -0.7956 -0.8131
 2328SOL     OW18442   4.413   2.613   3.877 -0.4504 -0.0723  0.2295
 2328SOL    HW118443   4.368   2.531   3.900 -1.4289 -0.5206 -3.3894
 2328SOL    HW218444   4.372   2.626   3.792 -0.0965  1.0801  0.2449
 2329SOL     OW18445   2.954   3.752  11.389  0.0833 -0.2329 -0.3865
 2329SOL    HW118446   3.011   3.707  11.328 -0.9478  0.1628 -1.6296
 2329SOL    HW218447   3.024   3.794  11.440  0.6554 -0.4724 -0.9807
 2330SOL     OW18448   3.095   0.824  17.467  0.6509 -0.0392 -0.7453
 2330SOL    HW118449   3.064   0.842  17.556 -0.6836  2.0304 -1.6195
 2330SOL    HW218450   3.165   0.761  17.487  0.5879  0.6282  1.6464
 2331SOL     OW18451   0.894   1.234   0.820  0.3150  0.1288  0.0002
 2331SOL    HW118452   0.920   1.255   0.910 -0.6187 -3.0519  1.0118
 2331SOL    HW218453   0.827   1.299   0.797 -0.9792 -1.5882 -1.1360
 2332SOL     OW18454   1.604   4.345   6.122 -0.1041  0.2069 -0.2937
 2332SOL    HW118455   1.527   4.325   6.069 -1.2472  1.0883  1.0359
 2332SOL    HW218456   1.658   4.386   6.055  1.6848 -0.0586  0.9987
 2333SOL     OW18457   3.396   3.928   4.888 -0.4129  0.0757 -0.2969
 2333SOL    HW118458   3.382   4.022   4.882 -1.7607 -0.0998  0.2111
 2333SOL    HW218459   3.489   3.936   4.866 -0.5731 -0.5590 -1.2437
 2334SOL     OW18460   3.693   3.198  13.782 -0.1442 -0.1002  0.4964
 2334SOL    HW118461   3.697   3.284  13.741 -1.0835 -1.2473 -2.0525
 2334SOL    HW218462   3.632   3.212  13.854  0.5275  0.2179  1.0036
 2335SOL     OW18463   0.937   2.660   7.550 -0.0693 -0.1399 -0.2820
 2335SOL    HW118464   0.897   2.575   7.531  1.0448 -1.0263  1.3510
 2335SOL    HW218465   0.881   2.682   7.625 -0.7068 -1.6213 -0.3246
 2336SOL     OW18466   0.823   4.527  11.120 -0.1475  0.1007  0.2394
 2336SOL    HW118467   0.806   4.544  11.028  0.0032  0.2721  0.2434
 2336SOL    HW218468   0.914   4.555  11.117  0.3009 -1.5547 -0.9741
 2337SOL     OW18469   1.885   3.336   0.630  0.2290 -0.5790  0.1003
 2337SOL    HW118470   1.980   3.344   0.641  0.4983 -1.0659 -1.8462
 2337SOL    HW218471   1.850   3.324   0.718 -0.4193  0.3499 -0.0379
 2338SOL     OW18472   2.497   3.816   7.053 -0.2858  0.0293 -0.4919
 2338SOL    HW118473   2.493   3.726   7.087  1.4144  0.0345 -0.3112
 2338SOL    HW218474   2.584   3.846   7.078  0.2247 -1.6631 -0.2358
 2339SOL     OW18475   4.283   2.937  12.909  0.1631  0.1084 -0.3616
 2339SOL    HW118476   4.325   3.007  12.959  0.5626 -2.0484  2.3256
 2339SOL    HW218477   4.328   2.863  12.950 -1.2252 -0.7172 -0.3493
 2340SOL     OW18478   1.718   0.562   2.996 -0.0818  0.3809  0.3788
 2340SOL    HW118479   1.772   0.508   3.054 -1.9022 -1.7684  0.0727
 2340SOL    HW218480   1.645   0.573   3.057 -0.0785 -1.5578  0.7072
 2341SOL     OW18481   2.046   4.053   0.225 -0.1002  0.0795  0.0602
 2341SOL    HW118482   2.093   4.116   0.171  1.7295 -2.0205 -0.8214
 2341SOL    HW218483   2.002   4.006   0.153 -0.8503  1.6832 -0.5277
 2342SOL     OW18484   2.733   0.019   2.295 -0.3904  0.0121 -0.5265
 2342SOL    HW118485   2.731   0.114   2.306 -1.6464 -0.0614 -0.1596
 2342SOL    HW218486   2.639   0.002   2.295 -0.4382  0.2878  0.5984
 2343SOL     OW18487   2.496   3.225   6.806  0.4487 -0.8084  0.4338
 2343SOL    HW118488   2.552   3.265   6.874  1.0848 -1.6739  0.4119
 2343SOL    HW218489   2.411   3.247   6.843  0.3042  0.6221 -0.7164
 2344SOL     OW18490   2.485   1.507  12.577  0.0588 -0.1845 -0.2462
 2344SOL    HW118491   2.497   1.529  12.484  0.3240 -0.3971 -0.2586
 2344SOL    HW218492   2.567   1.459  12.588 -0.0424 -0.4632 -0.6775
 2345SOL     OW18493   0.252   1.113   6.999 -0.0003  0.1824  0.6730
 2345SOL    HW118494   0.258   1.020   7.018 -0.8043 -0.6178 -2.9990
 2345SOL    HW218495   0.157   1.126   6.992  0.3707  1.2154 -2.4786
 2346SOL     OW18496   2.708   2.946   4.041  0.5654  0.1393 -0.1765
 2346SOL    HW118497   2.646   2.916   4.107  0.4147  2.1843  0.6032
 2346SOL    HW218498   2.765   2.868   4.039  0.1126 -0.1400 -1.8639
 2347SOL     OW18499   4.705   0.948   9.033 -0.1425  0.0672 -0.3237
 2347SOL    HW118500   4.656   1.018   8.990  2.6717  0.0988 -3.4581
 2347SOL    HW218501   0.052   0.997   9.082 -0.7365 -0.6198  1.1691
 2348SOL     OW18502   4.224   2.917   3.601  0.1473  0.4980  0.0241
 2348SOL    HW118503   4.209   3.009   3.623  1.5419  0.9223 -0.7743
 2348SOL    HW218504   4.316   2.918   3.574  0.1878 -0.1599  0.1421
 2349SOL     OW18505   3.342   3.120  12.143  1.1140 -0.4344 -0.2926
 2349SOL    HW118506   3.344   3.037  12.191  0.9462  0.8409  1.8769
 2349SOL    HW218507   3.348   3.084  12.054  2.0155 -1.6174  0.2535
 2350SOL     OW18508   0.525   0.612  15.014  0.6334 -0.6783 -0.3018
 2350SOL    HW118509   0.618   0.612  14.990  0.8849  0.8598  0.7240
 2350SOL    HW218510   0.510   0.532  15.064  0.8711  1.4883  3.2721
 2351SOL     OW18511   2.266   4.405   2.234  0.1385  0.3059 -0.2343
 2351SOL    HW118512   2.256   4.345   2.308  0.0832  0.0199 -0.4695
 2351SOL    HW218513   2.345   4.371   2.191  1.7071  0.7095  2.3305
 2352SOL     OW18514   4.247   3.811   4.248  0.0436  0.1852  0.0032
 2352SOL    HW118515   4.256   3.897   4.288 -1.2927  0.8480 -1.1247
 2352SOL    HW218516   4.168   3.831   4.197  1.2042  1.3147 -1.3518
 2353SOL     OW18517   3.891   3.971   3.814 -0.0548 -0.3625  0.1521
 2353SOL    HW118518   3.858   3.920   3.741 -1.5578  1.6603 -0.6022
 2353SOL    HW218519   3.815   4.028   3.829  0.6008  0.1052  1.7221
 2354SOL     OW18520   0.945   3.046   5.189 -0.1331  0.2208 -0.1150
 2354SOL    HW118521   0.875   3.086   5.239 -0.7058 -0.0471 -0.7062
 2354SOL    HW218522   0.982   2.997   5.263 -1.7738  0.3917  0.8242
 2355SOL     OW18523   2.664   1.089  11.766  0.3118  0.7034 -0.2106
 2355SOL    HW118524   2.696   1.057  11.851 -1.7010  0.7249  0.5653
 2355SOL    HW218525   2.737   1.141  11.733  0.0958  0.2602 -1.3803
 2356SOL     OW18526   4.039   1.063   5.403 -0.0785 -0.0795  0.1278
 2356SOL    HW118527   3.973   1.030   5.342  2.2701 -1.5901 -1.5701
 2356SOL    HW218528   4.007   1.151   5.423 -1.7227 -0.8259  0.7608
 2357SOL     OW18529   0.157   3.131   2.740  0.0630 -0.0916  0.3785
 2357SOL    HW118530   0.097   3.116   2.667  0.1650 -0.1933  0.3165
 2357SOL    HW218531   0.211   3.053   2.739  0.2386 -0.0088  3.4278
 2358SOL     OW18532   2.112   1.763   9.737 -0.0059 -0.2931 -0.3795
 2358SOL    HW118533   2.101   1.677   9.696  1.5989 -0.5488 -0.2493
 2358SOL    HW218534   2.028   1.803   9.713  0.7711 -0.2486 -2.9768
 2359SOL     OW18535   1.070   4.695   5.509 -0.2073  0.0156  0.4475
 2359SOL    HW118536   0.987   4.675   5.467 -0.1849  0.7326  0.0525
 2359SOL    HW218537   1.111   4.609   5.507  1.6853  0.8977  0.4479
 2360SOL     OW18538   2.427   2.701   0.962 -0.1068 -0.4222  0.3758
 2360SOL    HW118539   2.477   2.620   0.953  0.2645  0.0206 -1.5489
 2360SOL    HW218540   2.453   2.738   0.878  0.8903  3.2394  2.3208
 2361SOL     OW18541   3.084   2.115  14.196  0.1819 -0.3225  0.0517
 2361SOL    HW118542   3.126   2.146  14.116 -1.4874  0.7741 -0.4029
 2361SOL    HW218543   3.134   2.155  14.267  0.0653  0.1715 -0.1496
 2362SOL     OW18544   2.641   1.546  16.371  0.5452  0.1433  0.2821
 2362SOL    HW118545   2.674   1.636  16.364  0.0931  0.0568 -2.8249
 2362SOL    HW218546   2.704   1.498  16.425  1.2475  1.4871  0.6480
 2363SOL     OW18547   0.105   2.026   8.342 -0.4315 -0.2414  0.2474
 2363SOL    HW118548   0.197   2.027   8.317 -0.2452  1.8093  1.0188
 2363SOL    HW218549   0.087   1.939   8.307  1.2070  0.2128 -1.7711
 2364SOL     OW18550   2.562   3.483   4.421  0.0110  0.3664 -0.4333
 2364SOL    HW118551   2.530   3.492   4.511  1.1739  0.1669  0.0046
 2364SOL    HW218552   2.591   3.572   4.401 -0.7298  0.5091 -0.8714
 2365SOL     OW18553   1.927   0.387   9.414  0.1743 -0.3809  0.3800
 2365SOL    HW118554   1.927   0.481   9.429  0.1476 -0.0902 -1.3639
 2365SOL    HW218555   1.940   0.391   9.319  2.5800  0.5877  0.7681
 2366SOL     OW18556   2.063   1.799  12.276  0.2866  0.5209 -0.9571
 2366SOL    HW118557   1.986   1.856  12.279  0.4688  0.7768 -1.1847
 2366SOL    HW218558   2.063   1.782  12.182  0.2320  0.1418 -0.8899
 2367SOL     OW18559   2.803   3.569   2.059 -0.1115  0.0450  0.4486
 2367SOL    HW118560   2.720   3.549   2.014  0.4657  0.9749 -1.0603
 2367SOL    HW218561   2.865   3.542   1.991 -2.3839  1.1898 -2.1231
 2368SOL     OW18562   3.078   0.765   9.030 -0.5389 -0.0164  0.1475
 2368SOL    HW118563   3.045   0.827   9.095  0.8336 -0.2045  1.0268
 2368SOL    HW218564   3.074   0.684   9.080 -1.4779  0.8203  1.4423
 2369SOL     OW18565   1.703   1.746   4.120 -0.5090  0.4852  0.0713
 2369SOL    HW118566   1.773   1.748   4.054  0.1451 -0.3742  0.7462
 2369SOL    HW218567   1.758   1.718   4.193  0.8867  0.2218 -1.0811
 2370SOL     OW18568   3.398   3.619   6.514  0.0887  0.2935  0.0446
 2370SOL    HW118569   3.351   3.571   6.582 -0.9189  0.2026 -0.7064
 2370SOL    HW218570   3.323   3.678   6.503 -1.1641 -1.5903 -1.5603
 2371SOL     OW18571   2.361   1.367  10.381 -0.0625 -0.4984  0.5738
 2371SOL    HW118572   2.303   1.421  10.327  0.3807 -1.3019 -0.7108
 2371SOL    HW218573   2.416   1.436  10.418 -1.4385  0.1152  1.4671
 2372SOL     OW18574   2.094   3.853  10.699 -0.3924  0.5764  0.3654
 2372SOL    HW118575   2.055   3.855  10.787  0.5300  0.7303  0.7718
 2372SOL    HW218576   2.096   3.759  10.683  2.8348  0.3072  2.3004
 2373SOL     OW18577   0.251   3.013   4.807 -0.2961  0.0534  0.1128
 2373SOL    HW118578   0.336   3.033   4.845 -0.0107  0.6524 -0.8410
 2373SOL    HW218579   0.258   2.917   4.803 -0.0559  0.0133  1.6130
 2374SOL     OW18580   3.703   0.507  16.427  0.0634 -0.2004 -0.0107
 2374SOL    HW118581   3.682   0.423  16.387  0.4881 -0.0030 -0.6521
 2374SOL    HW218582   3.615   0.545  16.428  0.3971  0.5480  0.8665
 2375SOL     OW18583   0.501   2.273  12.221  0.2066  0.0879 -0.0747
 2375SOL    HW118584   0.589   2.269  12.256  0.1497 -1.3960 -0.1065
 2375SOL    HW218585   0.477   2.181  12.219 -0.3488  0.2602 -1.8313
 2376SOL     OW18586   3.534   2.073   3.663  0.2194 -0.7684 -0.9990
 2376SOL    HW118587   3.605   2.125   3.701  0.2401 -0.5153 -1.3706
 2376SOL    HW218588   3.566   1.984   3.656  1.4925 -0.3185 -0.8307
 2377SOL     OW18589   0.676   1.026   2.423  0.8695 -0.2674  0.1120
 2377SOL    HW118590   0.665   0.932   2.435  1.5578 -0.3060  0.4450
 2377SOL    HW218591   0.696   1.030   2.330  2.4265 -0.8173  0.4182
 2378SOL     OW18592   1.508   1.478   3.345  0.5977 -0.0511  0.3696
 2378SOL    HW118593   1.460   1.405   3.306  1.8084  0.1562 -1.5066
 2378SOL    HW218594   1.443   1.490   3.415  0.2845 -0.9121  0.2164
 2379SOL     OW18595   3.154   0.486  13.373 -0.4802  0.3899 -0.1446
 2379SOL    HW118596   3.196   0.401  13.382 -0.2559  0.4490 -0.6108
 2379SOL    HW218597   3.068   0.446  13.361 -0.8254  0.8854  0.7106
 2380SOL     OW18598   0.750   0.927   3.400 -0.0127  0.1053  0.2430
 2380SOL    HW118599   0.795   1.003   3.438 -1.0875  1.5366 -1.3853
 2380SOL    HW218600   0.734   0.966   3.314  0.1933  0.4430  0.3555
 2381SOL     OW18601   4.356   4.044   1.117 -0.1176 -0.4228  0.1977
 2381SOL    HW118602   4.270   4.056   1.158  0.3675  2.5668  0.3678
 2381SOL    HW218603   4.350   4.129   1.074  0.4709 -0.4759  0.0204
 2382SOL     OW18604   1.669   4.147  13.692 -0.2125 -0.0246 -0.4136
 2382SOL    HW118605   1.638   4.070  13.739 -1.1078  0.2988 -0.4756
 2382SOL    HW218606   1.721   4.108  13.622  2.6592 -0.0929  1.7383
 2383SOL     OW18607   4.159   2.512   5.671 -0.0111  0.3152 -0.0376
 2383SOL    HW118608   4.092   2.471   5.617  0.9156 -1.5102  0.1747
 2383SOL    HW218609   4.109   2.537   5.748 -1.4717  0.8529 -1.1748
 2384SOL     OW18610   3.150   4.060   4.476  0.2136 -0.8445  0.6051
 2384SOL    HW118611   3.146   3.968   4.503 -1.7569 -0.9644 -0.0836
 2384SOL    HW218612   3.244   4.077   4.473 -0.2651  1.8654  1.0559
 2385SOL     OW18613   4.063   3.192   2.529  0.2904 -0.2760  0.2566
 2385SOL    HW118614   3.995   3.212   2.593 -1.4102  0.9587 -1.9351
 2385SOL    HW218615   4.043   3.102   2.506 -0.0365  0.3288 -1.8229
 2386SOL     OW18616   0.365   2.547   5.033 -0.9359  0.0205  0.3306
 2386SOL    HW118617   0.344   2.598   4.955  1.2771 -0.5781 -0.6539
 2386SOL    HW218618   0.296   2.568   5.095 -0.7976 -1.1243  0.8814
 2387SOL     OW18619   1.800   1.300   4.106  0.9182  0.2595 -0.1795
 2387SOL    HW118620   1.769   1.355   4.034 -2.4907  0.3583  1.3569
 2387SOL    HW218621   1.722   1.248   4.128 -0.4675  2.7183  0.6999
 2388SOL     OW18622   3.147   4.510   9.292 -0.3935 -0.1796  0.4230
 2388SOL    HW118623   3.168   4.479   9.380  1.3914  0.4078  0.2039
 2388SOL    HW218624   3.051   4.515   9.292 -0.1973  3.3539  0.0673
 2389SOL     OW18625   0.389   2.050  10.875  0.5031 -0.6539 -0.5227
 2389SOL    HW118626   0.350   2.109  10.940  1.6210 -1.4605  0.8729
 2389SOL    HW218627   0.468   2.036  10.928  0.6396  0.0451 -0.5402
 2390SOL     OW18628   4.662   3.383  12.418  0.1533  0.0434  0.4120
 2390SOL    HW118629   4.641   3.296  12.382  1.6829  0.7295 -2.1660
 2390SOL    HW218630   0.017   3.403  12.362  1.3817 -0.6287  1.8187
 2391SOL     OW18631   4.340   2.116   7.550  0.1050 -0.7119  0.9856
 2391SOL    HW118632   4.310   2.122   7.640  2.2616  1.3205  1.5437
 2391SOL    HW218633   4.295   2.042   7.509 -0.4424 -1.2921  2.6320
 2392SOL     OW18634   4.280   0.448  11.684 -0.0796 -0.3551  0.4653
 2392SOL    HW118635   4.301   0.542  11.684 -0.0531 -0.3640 -0.0392
 2392SOL    HW218636   4.369   0.414  11.676  1.0609  2.6870 -0.0024
 2393SOL     OW18637   2.219   4.671   3.178  0.2506 -0.0711  0.0698
 2393SOL    HW118638   2.269   4.651   3.258  1.3426  1.8155 -0.1274
 2393SOL    HW218639   2.285   0.008   3.138 -0.8215  1.5670  0.6930
 2394SOL     OW18640   1.198   3.515   9.508  0.3732  0.1698 -0.0145
 2394SOL    HW118641   1.165   3.472   9.587  2.0681  0.1811  0.6938
 2394SOL    HW218642   1.123   3.553   9.462 -0.6532 -2.6135 -0.6214
 2395SOL     OW18643   3.555   2.127   4.268  0.7333 -0.1125  0.7187
 2395SOL    HW118644   3.598   2.110   4.352  0.0092 -0.9393  0.9247
 2395SOL    HW218645   3.464   2.137   4.294 -0.1127 -2.9690 -1.1147
 2396SOL     OW18646   2.846   2.695   4.051  0.1687  0.5079 -0.1093
 2396SOL    HW118647   2.803   2.609   4.050 -1.7924  1.4863  0.0892
 2396SOL    HW218648   2.891   2.696   3.967  0.8664  0.0306  0.2498
 2397SOL     OW18649   2.723   4.545   4.320 -0.4972  0.1384 -0.2940
 2397SOL    HW118650   2.791   4.609   4.338  0.2586 -0.7655  0.0796
 2397SOL    HW218651   2.647   4.589   4.358  0.1601  0.5479  0.5565
 2398SOL     OW18652   2.020   1.368   7.815 -0.1290  0.3554  0.0331
 2398SOL    HW118653   2.108   1.334   7.832 -0.3353 -0.7612 -1.1511
 2398SOL    HW218654   2.006   1.449   7.863 -0.4981  1.1922 -1.5023
 2399SOL     OW18655   1.581   1.311   3.668 -0.3361 -0.0629 -0.0627
 2399SOL    HW118656   1.619   1.224   3.665  0.5271  0.3752 -1.4766
 2399SOL    HW218657   1.491   1.296   3.639 -0.7146  0.8752  0.6033
 2400SOL     OW18658   0.108   1.138  13.894 -0.3052 -0.2062 -0.0350
 2400SOL    HW118659   0.153   1.165  13.974 -0.1587 -1.2150  0.2278
 2400SOL    HW218660   0.122   1.044  13.901  1.1813 -0.2101 -2.8440
 2401SOL     OW18661   3.764   3.380   0.226 -0.5741  0.3574  0.6028
 2401SOL    HW118662   3.742   3.293   0.261 -3.2393 -0.1509 -2.2983
 2401SOL    HW218663   3.753   3.432   0.305 -0.0641  0.5133  0.5700
 2402SOL     OW18664   1.825   4.111   4.090 -0.3607  0.0043  0.3139
 2402SOL    HW118665   1.766   4.124   4.165 -0.9776 -1.5345  0.0918
 2402SOL    HW218666   1.905   4.150   4.126  1.3848 -2.4036 -1.0557
 2403SOL     OW18667   2.861   0.291  14.735  0.0080 -0.1029 -0.1778
 2403SOL    HW118668   2.883   0.383  14.748  1.5655 -0.2396 -1.8211
 2403SOL    HW218669   2.784   0.278  14.791  1.0724  1.0829  1.5638
 2404SOL     OW18670   3.196   4.095   8.102 -0.0947 -0.0566  0.8675
 2404SOL    HW118671   3.226   4.071   8.014 -1.2596  1.6979 -0.0263
 2404SOL    HW218672   3.276   4.082   8.152 -0.4333 -1.0976  1.1394
 2405SOL     OW18673   1.587   2.803   5.796 -0.4760 -0.3525 -0.1895
 2405SOL    HW118674   1.593   2.712   5.766 -1.2896 -0.3846 -0.2501
 2405SOL    HW218675   1.630   2.848   5.724 -0.1443 -0.7332 -0.2271
 2406SOL     OW18676   1.770   1.620   1.848  0.7054  0.1895 -0.0212
 2406SOL    HW118677   1.817   1.702   1.837  1.3904 -0.4201 -1.5979
 2406SOL    HW218678   1.833   1.549   1.858  1.1084  0.7302  1.3349
 2407SOL     OW18679   2.526   1.204   8.119 -0.3641 -0.0944 -0.8713
 2407SOL    HW118680   2.472   1.136   8.078  0.4349 -0.5004 -1.2452
 2407SOL    HW218681   2.524   1.168   8.208 -1.4982  2.9850  0.3644
 2408SOL     OW18682   0.987   3.340  16.905 -0.4670  0.5150  0.2325
 2408SOL    HW118683   1.013   3.370  16.992 -1.3794  1.2074  0.2618
 2408SOL    HW218684   0.896   3.313  16.906 -0.4068  0.3022  0.0654
 2409SOL     OW18685   1.479   4.636   8.261 -0.5349  0.1144 -0.2340
 2409SOL    HW118686   1.448   4.668   8.346 -1.2392 -0.7489 -0.1638
 2409SOL    HW218687   1.411   4.661   8.198 -1.9833  0.0000  1.2946
 2410SOL     OW18688   2.713   0.812   5.368  0.3451  0.0801  0.1434
 2410SOL    HW118689   2.642   0.770   5.318  0.9677  0.1863 -0.8371
 2410SOL    HW218690   2.790   0.760   5.343  0.9390  0.5825  0.9660
 2411SOL     OW18691   0.205   0.747   7.322 -0.1763 -0.6667 -0.3714
 2411SOL    HW118692   0.256   0.822   7.290  2.3042 -0.9664  2.8828
 2411SOL    HW218693   0.213   0.764   7.416  0.4058  0.1233 -0.5614
 2412SOL     OW18694   0.755   2.214   1.709 -0.0734  0.7171 -0.1185
 2412SOL    HW118695   0.699   2.148   1.668  2.0140 -1.7311  0.9624
 2412SOL    HW218696   0.776   2.260   1.628  1.5798 -0.2407 -0.2252
 2413SOL     OW18697   3.657   2.333   1.115 -0.3512  0.4390  0.1162
 2413SOL    HW118698   3.723   2.396   1.143 -0.2134  0.3679 -0.0561
 2413SOL    HW218699   3.677   2.334   1.022 -0.1701 -2.8023  0.1195
 2414SOL     OW18700   0.326   0.786   0.024  0.2252  0.8598 -0.0627
 2414SOL    HW118701   0.340   0.770  17.613  0.5310 -0.8478  0.2655
 2414SOL    HW218702   0.255   0.850   0.028 -1.5466 -1.1832  0.9593
 2415SOL     OW18703   0.311   3.280   0.393 -0.2221  0.0054  0.2942
 2415SOL    HW118704   0.272   3.197   0.420  0.5237 -0.9107 -1.4726
 2415SOL    HW218705   0.357   3.295   0.475  1.5888 -1.4660 -0.4594
 2416SOL     OW18706   2.526   1.121   0.625 -0.0611  0.7468 -0.2065
 2416SOL    HW118707   2.513   1.031   0.656  1.4765  0.1472 -1.3077
 2416SOL    HW218708   2.477   1.119   0.543 -1.6731 -0.6255  0.7902
 2417SOL     OW18709   2.276   2.845   4.537  0.2192  0.4199  0.6351
 2417SOL    HW118710   2.335   2.896   4.482 -0.5949 -0.4614 -1.0660
 2417SOL    HW218711   2.302   2.759   4.505  0.7110  0.3384  1.2435
 2418SOL     OW18712   1.596   4.326  10.094  0.7765  0.1558 -0.0883
 2418SOL    HW118713   1.510   4.315  10.054  0.4312  2.9342 -0.1151
 2418SOL    HW218714   1.648   4.261  10.047  1.3376  0.8198 -0.3668
 2419SOL     OW18715   2.929   3.364   1.435 -0.1025  0.7978  0.6420
 2419SOL    HW118716   2.919   3.382   1.528  1.1710 -2.2850  1.3659
 2419SOL    HW218717   2.991   3.430   1.404  1.3597 -0.9792 -0.2107
 2420SOL     OW18718   3.079   0.139   3.208  0.2718  0.2156 -0.0646
 2420SOL    HW118719   3.117   0.056   3.236 -1.5193  0.0353  1.7944
 2420SOL    HW218720   3.074   0.114   3.115  0.9961 -0.5389  0.0988
 2421SOL     OW18721   3.869   4.099   8.508 -0.0691  0.8844  0.5171
 2421SOL    HW118722   3.907   4.131   8.590 -1.0002  1.0291  0.8890
 2421SOL    HW218723   3.945   4.052   8.475 -2.0446 -1.9617  0.0587
 2422SOL     OW18724   3.665   1.016   0.664 -0.4973  0.1366  0.1696
 2422SOL    HW118725   3.666   1.051   0.575 -0.3387 -0.1788  0.0438
 2422SOL    HW218726   3.576   0.985   0.676  0.1508 -1.6047  0.4684
 2423SOL     OW18727   2.793   2.850  13.152 -0.0693 -0.3728 -0.0229
 2423SOL    HW118728   2.859   2.911  13.118  0.1527 -1.2558 -1.1817
 2423SOL    HW218729   2.775   2.786  13.084  1.1663 -0.0038 -0.6964
 2424SOL     OW18730   2.692   0.906  11.991 -0.2401 -0.1666 -0.5957
 2424SOL    HW118731   2.696   0.819  11.952  0.7170 -0.1971 -0.4153
 2424SOL    HW218732   2.604   0.907  12.031 -0.7362  1.1169 -1.7099
 2425SOL     OW18733   2.129   1.684   6.948 -0.2905 -0.2342  0.0548
 2425SOL    HW118734   2.213   1.654   6.912 -1.8365 -3.1484 -1.1357
 2425SOL    HW218735   2.096   1.731   6.871 -0.2842  1.0956  0.8613
 2426SOL     OW18736   2.791   4.067   4.541  0.4828  1.5663 -0.2717
 2426SOL    HW118737   2.718   4.090   4.483  0.9519 -0.6838 -1.7375
 2426SOL    HW218738   2.829   4.153   4.557 -0.8267  1.9436  0.8489
 2427SOL     OW18739   3.332   2.068   0.838  0.0190  0.3004 -0.2525
 2427SOL    HW118740   3.405   2.012   0.863 -0.3603  0.8697  2.2014
 2427SOL    HW218741   3.307   2.100   0.925  0.9900  0.0142  0.1389
 2428SOL     OW18742   4.559   0.243  17.283 -0.7197  0.9341  0.0746
 2428SOL    HW118743   4.467   0.216  17.280 -0.8295  1.2515  0.5786
 2428SOL    HW218744   4.573   0.244  17.188 -2.3223 -1.8350 -0.2063
 2429SOL     OW18745   4.173   3.341  16.553  1.0256 -0.0083 -0.8004
 2429SOL    HW118746   4.133   3.417  16.510  1.7262  0.7374 -0.1348
 2429SOL    HW218747   4.244   3.315  16.494  0.7961 -2.3399 -0.0552
 2430SOL     OW18748   1.894   4.059  14.136  0.4166  0.2700 -0.1282
 2430SOL    HW118749   1.945   4.024  14.210  1.3059  3.1127  0.6130
 2430SOL    HW218750   1.810   4.078  14.176  1.7190 -0.3906  2.9426
 2431SOL     OW18751   3.408   2.908  15.928  0.5630 -0.2942  0.2356
 2431SOL    HW118752   3.323   2.940  15.899  0.3113 -2.4031 -1.3887
 2431SOL    HW218753   3.410   2.826  15.879 -1.4412  0.6291 -1.3641
 2432SOL     OW18754   4.022   0.229   2.921 -0.0395 -0.0565  0.0059
 2432SOL    HW118755   4.010   0.156   2.861  0.0735  0.6093 -0.8235
 2432SOL    HW218756   4.118   0.232   2.918 -0.0943 -1.4537 -2.7233
 2433SOL     OW18757   2.556   0.409  14.570 -0.0658  0.7368 -0.5234
 2433SOL    HW118758   2.494   0.354  14.522  0.7588 -0.1919 -0.5250
 2433SOL    HW218759   2.628   0.425  14.509 -0.2369  1.1199 -0.6235
 2434SOL     OW18760   3.097   1.383   6.124 -0.6875  0.3121  0.1320
 2434SOL    HW118761   3.075   1.476   6.134 -0.3093  0.3387  0.7255
 2434SOL    HW218762   3.102   1.368   6.030 -1.4061  0.6470  0.0378
 2435SOL     OW18763   2.462   2.526   5.582  0.2620 -0.2724  0.1200
 2435SOL    HW118764   2.371   2.527   5.554  0.0713 -0.6487  0.7503
 2435SOL    HW218765   2.474   2.621   5.586 -0.8534 -0.2300  2.2158
 2436SOL     OW18766   1.884   2.760  15.751 -0.0976 -0.3104 -0.0395
 2436SOL    HW118767   1.848   2.736  15.665 -1.2366 -2.1591  0.9537
 2436SOL    HW218768   1.886   2.675  15.794 -0.9406 -0.5657 -0.4875
 2437SOL     OW18769   0.993   3.808   5.918  0.5303  0.3872  0.3917
 2437SOL    HW118770   0.998   3.870   5.845  0.5174 -0.1698 -0.0780
 2437SOL    HW218771   1.083   3.776   5.923  0.8963  1.4994  0.9093
 2438SOL     OW18772   4.682   3.083  15.164 -0.4371  0.5283 -0.1052
 2438SOL    HW118773   0.016   3.093  15.243 -1.8787 -1.5488  1.1231
 2438SOL    HW218774   0.022   3.027  15.114  0.2399  0.8171  0.3692
 2439SOL     OW18775   0.030   3.904   7.056 -0.3542  0.3366  0.3701
 2439SOL    HW118776   4.662   3.897   7.019 -0.5165 -0.4991  0.9202
 2439SOL    HW218777   0.049   3.811   7.066 -2.3219 -0.1709 -0.7154
 2440SOL     OW18778   1.077   2.088   8.943  0.7646 -0.0265 -0.0001
 2440SOL    HW118779   1.151   2.041   8.906  1.2964  0.7297  0.1122
 2440SOL    HW218780   1.092   2.070   9.036 -1.1484  2.7834  0.8658
 2441SOL     OW18781   0.732   4.379   7.621  0.0183  0.7360  0.3834
 2441SOL    HW118782   0.774   4.328   7.691 -0.5676  0.3898  0.4840
 2441SOL    HW218783   0.642   4.381   7.651 -0.0443  1.8894  0.0898
 2442SOL     OW18784   3.417   0.257  14.865 -0.3763  0.0084  0.1984
 2442SOL    HW118785   3.418   0.161  14.864  0.6261  0.0174  1.7460
 2442SOL    HW218786   3.504   0.286  14.891 -0.2323 -0.4677  0.2543
 2443SOL     OW18787   0.243   2.920   1.043 -0.0592 -0.4811  0.4232
 2443SOL    HW118788   0.277   2.972   0.970 -1.0798 -1.6108 -0.8641
 2443SOL    HW218789   0.149   2.938   1.038  0.0074 -0.2958 -0.2056
 2444SOL     OW18790   2.796   0.225   7.175 -0.5640 -0.3743  0.0131
 2444SOL    HW118791   2.886   0.235   7.206 -0.6648  1.3099 -0.2530
 2444SOL    HW218792   2.794   0.132   7.151 -0.2383 -1.1669  3.1123
 2445SOL     OW18793   0.437   4.612   8.587 -0.2660  0.4053 -0.4887
 2445SOL    HW118794   0.458   4.524   8.618  0.1402  0.3163 -1.0155
 2445SOL    HW218795   0.495   4.660   8.645  0.4164 -1.3313  0.2753
 2446SOL     OW18796   0.575   2.518   3.027  0.5414  1.0835 -0.3791
 2446SOL    HW118797   0.566   2.477   2.941  0.2659  3.8713 -1.6873
 2446SOL    HW218798   0.499   2.494   3.080 -0.4781  2.0207 -1.4234
 2447SOL     OW18799   0.953   1.267   3.231  0.1092  0.1377  0.2529
 2447SOL    HW118800   0.942   1.359   3.206  2.7917  0.1152 -1.1024
 2447SOL    HW218801   1.020   1.230   3.172  0.0315  0.6952 -0.1841
 2448SOL     OW18802   3.748   1.829   5.125 -0.5190  0.3780  0.7987
 2448SOL    HW118803   3.764   1.912   5.172  0.3909 -0.1505  1.4302
 2448SOL    HW218804   3.798   1.763   5.174  0.0705  0.9642  0.9944
 2449SOL     OW18805   1.876   2.378   4.689  0.8196 -0.5309 -0.3652
 2449SOL    HW118806   1.811   2.398   4.756  1.4984  1.6790 -0.3544
 2449SOL    HW218807   1.851   2.440   4.621 -1.0181 -2.0927 -1.0908
 2450SOL     OW18808   4.155   4.426  14.454 -0.0235 -0.5514  0.5534
 2450SOL    HW118809   4.144   4.518  14.477 -0.1462 -0.4959  0.2699
 2450SOL    HW218810   4.200   4.398  14.534 -1.0592 -1.6423  0.7594
 2451SOL     OW18811   3.492   2.663   5.570  0.1667 -0.3797  0.4813
 2451SOL    HW118812   3.489   2.572   5.542 -2.2244 -0.6013  1.4625
 2451SOL    HW218813   3.585   2.686   5.576 -0.0134  0.2443  0.9078
 2452SOL     OW18814   0.906   1.353  10.551  0.1775 -0.2904  1.3127
 2452SOL    HW118815   0.972   1.389  10.493  1.2820  0.0374  2.7554
 2452SOL    HW218816   0.898   1.265  10.514  2.4085  0.7723 -1.6697
 2453SOL     OW18817   4.689   2.345   1.717  0.4087  0.1069 -0.0900
 2453SOL    HW118818   4.613   2.360   1.661  0.5594 -1.1421 -0.6227
 2453SOL    HW218819   0.036   2.328   1.651  2.0610  3.9131  0.5574
 2454SOL     OW18820   4.667   3.379   6.227 -0.0321 -0.3384  0.0341
 2454SOL    HW118821   0.038   3.355   6.207 -0.8371 -1.5327 -2.1107
 2454SOL    HW218822   4.636   3.300   6.271  1.1146 -0.0902  1.2862
 2455SOL     OW18823   1.957   2.012   7.862 -0.8207  0.2967  0.8175
 2455SOL    HW118824   2.033   1.983   7.911 -0.3411 -0.4108 -0.3323
 2455SOL    HW218825   1.996   2.004   7.775 -2.9258 -1.3925  0.0223
 2456SOL     OW18826   2.145   2.506   8.711  0.2712  0.1041 -0.3950
 2456SOL    HW118827   2.088   2.436   8.678  0.2455  0.4791 -1.1576
 2456SOL    HW218828   2.125   2.579   8.652 -1.8489 -0.7220 -0.6772
 2457SOL     OW18829   0.643   0.275   4.785  0.3619 -0.4582 -1.0043
 2457SOL    HW118830   0.642   0.363   4.746 -1.1298  0.0233  0.1322
 2457SOL    HW218831   0.666   0.289   4.876  0.7663  1.5546 -1.4176
 2458SOL     OW18832   0.201   4.197   6.060  0.2793 -0.6505  0.2542
 2458SOL    HW118833   0.208   4.253   5.983 -1.4239 -0.2328  0.3937
 2458SOL    HW218834   0.111   4.166   6.052 -0.0411  0.9863 -2.3081
 2459SOL     OW18835   2.706   1.514   8.985 -0.0296 -0.5256 -0.2558
 2459SOL    HW118836   2.708   1.419   8.996 -1.7894 -0.2741  2.3101
 2459SOL    HW218837   2.775   1.534   9.048 -0.2558 -0.3056 -0.0732
 2460SOL     OW18838   3.924   0.259   5.279 -0.0414 -0.5329 -0.0623
 2460SOL    HW118839   3.899   0.336   5.331  0.9203 -0.3180  0.0759
 2460SOL    HW218840   3.942   0.194   5.348 -2.7841 -1.8506 -0.5695
 2461SOL     OW18841   2.103   4.376   7.528 -0.2565  0.0521  0.6137
 2461SOL    HW118842   2.085   4.354   7.619 -0.7040  2.1101  1.0163
 2461SOL    HW218843   2.029   4.434   7.510 -0.3903 -0.8617 -1.8955
 2462SOL     OW18844   3.274   0.562  11.106 -0.5136 -0.3385  0.5393
 2462SOL    HW118845   3.185   0.547  11.073 -0.4245  2.0405 -0.7378
 2462SOL    HW218846   3.307   0.473  11.090 -1.1870 -0.4581 -0.1986
 2463SOL     OW18847   3.417   1.690  13.773 -0.6356  0.1270  0.0043
 2463SOL    HW118848   3.342   1.657  13.822  0.2906 -0.2222  1.1766
 2463SOL    HW218849   3.396   1.783  13.774 -0.5977  0.1255  1.1389
 2464SOL     OW18850   1.557   3.749  12.439  0.3896  0.4889 -0.0211
 2464SOL    HW118851   1.638   3.790  12.468 -0.5180  2.1326  0.2018
 2464SOL    HW218852   1.549   3.689  12.514 -1.7128 -1.8173 -2.0804
 2465SOL     OW18853   0.800   4.009   6.041 -0.1905 -0.4685  0.3888
 2465SOL    HW118854   0.739   4.036   5.972 -0.2292 -0.6179  0.3649
 2465SOL    HW218855   0.810   3.916   6.021 -1.7008 -0.2157 -1.5067
 2466SOL     OW18856   2.826   3.177   6.182  0.1411 -0.0266  0.6554
 2466SOL    HW118857   2.906   3.201   6.136 -1.6310  1.1569 -1.7834
 2466SOL    HW218858   2.841   3.084   6.199  0.2160 -0.2469 -0.6091
 2467SOL     OW18859   3.660   0.771  13.811 -0.0294  0.2225 -0.1879
 2467SOL    HW118860   3.674   0.780  13.906 -0.2276 -0.4408 -0.0964
 2467SOL    HW218861   3.686   0.858  13.782 -0.2153  0.5136  0.5121
 2468SOL     OW18862   4.560   0.779   6.232  0.2268 -0.7895 -0.3161
 2468SOL    HW118863   4.471   0.813   6.226  0.0497 -1.2192 -0.1586
 2468SOL    HW218864   4.572   0.773   6.137  0.9502 -0.4455 -0.2463
 2469SOL     OW18865   2.553   4.380   2.440 -0.6230  0.4105 -0.5849
 2469SOL    HW118866   2.580   4.295   2.406 -2.1030 -0.4538  0.3950
 2469SOL    HW218867   2.465   4.349   2.461  0.9844 -3.7879 -0.0849
 2470SOL     OW18868   2.933   2.457   1.493  0.1886 -0.2176 -0.3607
 2470SOL    HW118869   2.978   2.469   1.577  0.6181 -2.1568 -0.3172
 2470SOL    HW218870   2.841   2.466   1.515  0.2665  0.3451 -0.2617
 2471SOL     OW18871   1.225   4.491   5.434 -0.1814 -0.5079  0.1958
 2471SOL    HW118872   1.228   4.457   5.345  1.0461  0.9484 -0.3033
 2471SOL    HW218873   1.216   4.408   5.481  1.8227  0.7018  2.6776
 2472SOL     OW18874   1.492   1.586   5.238 -0.5695 -0.2815  0.3093
 2472SOL    HW118875   1.462   1.658   5.183 -3.3363 -1.5841  0.0788
 2472SOL    HW218876   1.556   1.537   5.186 -1.4988 -0.5228 -0.6236
 2473SOL     OW18877   3.217   2.109  13.566  0.2234  0.3994  0.2722
 2473SOL    HW118878   3.216   2.191  13.615 -1.6136  0.8621 -0.5513
 2473SOL    HW218879   3.123   2.106  13.551  0.1194 -1.3958  1.2685
 2474SOL     OW18880   4.690   0.832   5.057 -0.7593 -0.0722 -0.3123
 2474SOL    HW118881   4.659   0.871   5.138  1.0602  0.5110  0.1100
 2474SOL    HW218882   4.613   0.840   5.000 -1.7009 -0.1122  0.9688
 2475SOL     OW18883   2.967   2.943   1.619 -0.2850  0.5982 -0.4426
 2475SOL    HW118884   2.936   2.854   1.638 -1.8168  1.3543  0.5051
 2475SOL    HW218885   2.987   2.941   1.525  1.0738 -1.6387 -0.1090
 2476SOL     OW18886   1.882   1.690   7.671  0.0441  0.3540  0.1068
 2476SOL    HW118887   1.821   1.619   7.654 -0.6764  1.4265 -1.8003
 2476SOL    HW218888   1.962   1.637   7.661 -0.1848 -0.1669  1.0535
 2477SOL     OW18889   3.564   2.935   3.708 -0.2097  0.2733 -0.0150
 2477SOL    HW118890   3.607   2.925   3.624  0.7825 -1.4046  0.6949
 2477SOL    HW218891   3.625   2.983   3.764  1.0103  0.4403 -1.4847
 2478SOL     OW18892   4.554   0.268   3.084  0.8013  0.2349 -0.8916
 2478SOL    HW118893   4.481   0.208   3.099 -0.7180  2.3926  0.3230
 2478SOL    HW218894   4.548   0.308   3.171 -0.3013 -0.1533 -0.7925
 2479SOL     OW18895   0.576   0.898  10.465  0.3623  0.1267  0.0920
 2479SOL    HW118896   0.596   0.813  10.505 -0.2298  0.0309  0.1842
 2479SOL    HW218897   0.489   0.915  10.501  0.3320  0.5650 -0.1874
 2480SOL     OW18898   2.892   4.096  13.932  0.5705 -0.1320 -0.0656
 2480SOL    HW118899   2.875   4.136  13.847  2.6844  1.1992  0.1284
 2480SOL    HW218900   2.814   4.123  13.981 -1.3638 -2.1754 -2.0665
 2481SOL     OW18901   2.138   4.271   3.498 -0.4774 -0.3501  0.3559
 2481SOL    HW118902   2.158   4.271   3.404 -2.3729 -1.1880 -0.0648
 2481SOL    HW218903   2.181   4.188   3.517 -0.1294 -0.2449  0.0221
 2482SOL     OW18904   3.224   1.684  16.573 -0.1043  0.4517 -0.6249
 2482SOL    HW118905   3.277   1.636  16.636 -1.6719 -2.1446 -1.3025
 2482SOL    HW218906   3.150   1.711  16.627 -0.5366 -0.4956 -0.7456
 2483SOL     OW18907   3.306   1.641   4.655 -0.5627 -0.1195 -0.3688
 2483SOL    HW118908   3.340   1.552   4.665 -0.2187 -0.2923 -3.2504
 2483SOL    HW218909   3.240   1.638   4.725 -0.4473  0.4857 -0.2334
 2484SOL     OW18910   1.962   1.076   4.246 -0.0517  0.1657  0.7356
 2484SOL    HW118911   1.871   1.046   4.246  0.4132 -1.2447  0.7949
 2484SOL    HW218912   1.941   1.155   4.197 -0.6574  0.9536  2.2678
 2485SOL     OW18913   0.310   3.633   8.653 -0.1269 -0.1597 -0.0890
 2485SOL    HW118914   0.315   3.721   8.616  1.3178 -0.2801 -0.2037
 2485SOL    HW218915   0.252   3.606   8.582 -0.9960  2.8389 -0.5062
 2486SOL     OW18916   2.755   2.217   1.792  0.2008 -0.3147 -0.0758
 2486SOL    HW118917   2.784   2.222   1.701  0.2628  0.3516 -0.0240
 2486SOL    HW218918   2.828   2.260   1.837  1.0941 -0.0427 -1.7717
 2487SOL     OW18919   2.881   4.299   7.819  0.3141 -0.0169  0.0467
 2487SOL    HW118920   2.841   4.305   7.905  0.6731  0.2090  0.1966
 2487SOL    HW218921   2.943   4.226   7.830 -0.4669 -1.1541 -3.0216
 2488SOL     OW18922   1.586   3.414   8.053  0.2434  0.2686  0.0477
 2488SOL    HW118923   1.664   3.361   8.037 -0.8829 -1.3793 -0.0793
 2488SOL    HW218924   1.603   3.489   7.997  0.9658  0.6266  0.7479
 2489SOL     OW18925   4.181   4.480   2.800  0.4091 -0.3219 -0.0466
 2489SOL    HW118926   4.148   4.564   2.766  0.6594 -0.3488 -0.3616
 2489SOL    HW218927   4.145   4.414   2.741  1.5301 -1.7380  0.8544
 2490SOL     OW18928   0.683   3.084  10.536 -0.6613 -0.5126  0.4096
 2490SOL    HW118929   0.702   3.128  10.452  0.4861 -1.2640  0.2787
 2490SOL    HW218930   0.743   3.010  10.527 -0.9694 -0.5365 -1.6441
 2491SOL     OW18931   2.034   1.619   7.963  0.4060  0.5883 -0.2391
 2491SOL    HW118932   2.078   1.664   8.035  0.1265 -1.0637  0.9857
 2491SOL    HW218933   2.074   1.664   7.889  0.4735 -2.7574 -2.2401
 2492SOL     OW18934   3.701   4.385   5.831  0.0685 -0.3417 -0.2216
 2492SOL    HW118935   3.715   4.293   5.855 -1.3970 -0.6109 -0.3904
 2492SOL    HW218936   3.710   4.378   5.736 -0.5897  1.4540 -0.4271
 2493SOL     OW18937   4.017   0.659  14.575  0.4419 -0.2547 -0.1038
 2493SOL    HW118938   4.105   0.622  14.572  0.9684  0.9568  0.5205
 2493SOL    HW218939   3.965   0.586  14.609  0.3063  0.2038  0.6722
 2494SOL     OW18940   1.157   1.139  10.539 -0.2208 -0.9544  0.1185
 2494SOL    HW118941   1.239   1.146  10.489 -0.5091 -0.6924 -0.3133
 2494SOL    HW218942   1.189   1.122  10.627  0.3113  0.9945  0.2860
 2495SOL     OW18943   2.560   3.140   0.447  0.0869  0.2441  0.1890
 2495SOL    HW118944   2.508   3.075   0.496 -0.6409  1.3615  0.8981
 2495SOL    HW218945   2.618   3.078   0.402 -1.4888 -2.7256  2.2310
 2496SOL     OW18946   3.333   4.608  11.530 -0.4129 -0.1682  0.2612
 2496SOL    HW118947   3.320   4.576  11.619  2.4309 -1.4857  0.1959
 2496SOL    HW218948   3.388   4.685  11.543  0.9201 -1.2912  1.3204
 2497SOL     OW18949   4.165   0.878  15.270 -0.4393 -0.2059  0.3464
 2497SOL    HW118950   4.232   0.873  15.339  0.3848  2.4989 -0.2676
 2497SOL    HW218951   4.102   0.812  15.298 -0.6611  0.6052  1.7436
 2498SOL     OW18952   4.058   0.389   6.409 -0.1780 -0.1317 -0.5364
 2498SOL    HW118953   4.133   0.413   6.464 -1.0609  1.0232  0.1607
 2498SOL    HW218954   3.996   0.451   6.448 -1.9765  0.4660 -4.4212
 2499SOL     OW18955   4.605   0.173  14.787  0.3807  0.2982 -0.4043
 2499SOL    HW118956   4.647   0.157  14.872  0.5273 -0.7410 -0.6778
 2499SOL    HW218957   4.525   0.121  14.798  0.1168  0.6832 -0.4935
 2500SOL     OW18958   2.997   2.556   2.223 -0.1255  0.1703  0.9245
 2500SOL    HW118959   2.973   2.613   2.297 -0.7950 -0.0695  0.8857
 2500SOL    HW218960   3.064   2.603   2.173  1.0213 -2.7233 -0.2141
 2501SOL     OW18961   4.235   0.723   2.691  0.0895  0.5020 -0.1062
 2501SOL    HW118962   4.228   0.805   2.739 -0.1116 -1.0999  2.6247
 2501SOL    HW218963   4.202   0.658   2.754  0.7386  0.2604 -0.0082
 2502SOL     OW18964   1.129   4.537   7.603 -0.4107  0.1642 -0.2207
 2502SOL    HW118965   1.037   4.566   7.604 -0.1948  0.8809 -1.6987
 2502SOL    HW218966   1.107   4.474   7.672  0.5439 -1.0294 -1.0268
 2503SOL     OW18967   1.838   3.255   2.421  0.4116 -0.5805  0.1396
 2503SOL    HW118968   1.815   3.192   2.352  1.5749 -0.3963 -0.4078
 2503SOL    HW218969   1.782   3.221   2.491  0.2159 -2.2165 -0.8032
 2504SOL     OW18970   1.171   4.385   0.537  0.8517 -0.4397 -0.4719
 2504SOL    HW118971   1.092   4.337   0.560  0.0286  0.5690 -1.2295
 2504SOL    HW218972   1.180   4.353   0.447  2.1546 -1.5113  0.0320
 2505SOL     OW18973   3.093   0.516   7.960 -0.3527 -0.0446 -0.1009
 2505SOL    HW118974   3.150   0.561   7.898 -0.6549 -0.8447 -0.9502
 2505SOL    HW218975   3.133   0.431   7.975 -0.7729 -0.1902  0.1744
 2506SOL     OW18976   1.742   2.820  12.745 -0.2784  0.0747  0.1479
 2506SOL    HW118977   1.685   2.878  12.695 -1.6873 -0.5125  1.0652
 2506SOL    HW218978   1.764   2.877  12.818  2.2762 -1.3719  0.5370
 2507SOL     OW18979   2.036   1.901   0.241 -1.3145  0.6993  0.2470
 2507SOL    HW118980   2.122   1.909   0.201 -1.6486  2.2352 -0.1690
 2507SOL    HW218981   1.990   1.964   0.185 -3.6786 -0.9864  0.3080
 2508SOL     OW18982   4.592   3.063   2.633 -0.1187  0.1906  0.3935
 2508SOL    HW118983   4.585   2.991   2.570  0.0261 -0.5121  1.1899
 2508SOL    HW218984   4.506   3.103   2.636  0.6571  2.1178 -2.8232
 2509SOL     OW18985   3.723   1.961  16.011 -0.4276 -0.3426  0.2550
 2509SOL    HW118986   3.677   2.035  15.970 -1.0892  0.6572  2.7546
 2509SOL    HW218987   3.804   1.959  15.960 -0.3260 -0.2754  0.4129
 2510SOL     OW18988   2.065   4.326   7.809  0.0540 -0.4361  0.3197
 2510SOL    HW118989   2.067   4.282   7.894  2.3719 -1.1445 -0.0844
 2510SOL    HW218990   2.076   4.416   7.842  2.6423 -1.0078  1.0478
 2511SOL     OW18991   2.114   2.349   6.414  0.0291  0.4795  0.0805
 2511SOL    HW118992   2.169   2.273   6.395 -2.0528 -0.0143 -3.9894
 2511SOL    HW218993   2.146   2.375   6.500  2.2720  2.7209 -1.4177
 2512SOL     OW18994   4.458   3.064   9.182  0.5556 -0.3039 -0.1939
 2512SOL    HW118995   4.534   3.112   9.149  0.1369  0.6806  0.2571
 2512SOL    HW218996   4.384   3.090   9.127 -0.7947 -0.5141  1.5076
 2513SOL     OW18997   1.559   3.766   4.353  0.1018 -0.1329 -0.0739
 2513SOL    HW118998   1.607   3.820   4.290  0.7463  0.2086  0.7062
 2513SOL    HW218999   1.621   3.696   4.372  0.6181  0.6370  1.0887
 2514SOL     OW19000   1.866   0.054   1.986  0.4907 -0.3651 -0.0368
 2514SOL    HW119001   1.910   4.708   1.932  2.3032  0.2482  0.6902
 2514SOL    HW219002   1.943   0.098   2.020  0.7043 -0.6149 -0.1972
 2515SOL     OW19003   3.113   3.422   8.681  0.5873 -0.2099 -0.1162
 2515SOL    HW119004   3.059   3.446   8.756 -0.6272 -2.2199 -0.3271
 2515SOL    HW219005   3.129   3.505   8.637  0.2798 -1.1910 -2.0907
 2516SOL     OW19006   0.432   3.749   5.593 -0.3533  0.5001  0.1974
 2516SOL    HW119007   0.492   3.761   5.519 -0.5352  0.8234  0.1022
 2516SOL    HW219008   0.449   3.655   5.602  1.3971  0.9533  1.5334
 2517SOL     OW19009   0.984   2.520   8.851  0.9546  0.0116  0.0524
 2517SOL    HW119010   0.914   2.563   8.900  1.4927  0.5072  0.3842
 2517SOL    HW219011   1.011   2.599   8.804 -0.3176  0.9055  0.8427
 2518SOL     OW19012   2.392   0.418   7.393 -0.2119  0.1155 -0.2990
 2518SOL    HW119013   2.335   0.354   7.437 -1.3830 -0.2600 -2.3941
 2518SOL    HW219014   2.463   0.368   7.353 -0.0212 -0.2632  0.5110
 2519SOL     OW19015   1.152   2.442   7.113  0.4951  0.7731  0.4137
 2519SOL    HW119016   1.201   2.524   7.121 -0.1564  1.3759 -1.6881
 2519SOL    HW219017   1.073   2.458   7.061  0.1384 -0.1901  0.6632
 2520SOL     OW19018   2.806   0.494   8.002 -0.1287 -0.6476  0.7339
 2520SOL    HW119019   2.767   0.420   7.956 -0.9002  0.0478  0.2577
 2520SOL    HW219020   2.897   0.481   7.975 -0.1943 -1.1140  0.7373
 2521SOL     OW19021   3.552   3.527   2.481  0.2130 -0.0161  0.3864
 2521SOL    HW119022   3.524   3.440   2.453  0.4184  0.5293 -1.5175
 2521SOL    HW219023   3.467   3.572   2.477  0.4685  0.3855 -0.6460
 2522SOL     OW19024   4.566   4.368   4.149  0.3280  0.0127  0.3184
 2522SOL    HW119025   4.489   4.324   4.113  1.2282 -0.4570 -1.0141
 2522SOL    HW219026   4.630   4.300   4.128  1.9111  2.3793 -2.5307
 2523SOL     OW19027   4.045   4.021  12.428 -0.1274 -0.1081 -0.2539
 2523SOL    HW119028   4.018   4.054  12.343 -0.5568 -0.3243 -0.2008
 2523SOL    HW219029   3.961   3.992  12.462  1.2045 -3.3933  0.2186
 2524SOL     OW19030   0.380   2.821   5.633 -0.0133 -0.2966  0.6232
 2524SOL    HW119031   0.367   2.903   5.681  0.3825 -1.4072  2.6525
 2524SOL    HW219032   0.365   2.770   5.713  0.9962 -0.5971  0.6274
 2525SOL     OW19033   2.436   2.884   2.075  0.2496 -0.0073 -0.2053
 2525SOL    HW119034   2.531   2.873   2.063  0.7811  2.0141  2.2044
 2525SOL    HW219035   2.428   2.979   2.083  1.9298 -0.1599  3.0950
 2526SOL     OW19036   4.495   3.868   1.475 -0.7157 -0.3551  0.3295
 2526SOL    HW119037   4.437   3.812   1.526 -0.1657 -1.9068 -0.7504
 2526SOL    HW219038   4.454   3.955   1.465 -1.3193 -1.0272 -3.0772
 2527SOL     OW19039   2.015   1.055   0.991 -0.0447 -0.4089  0.0201
 2527SOL    HW119040   2.025   1.052   1.086 -0.2473 -2.0421  0.0043
 2527SOL    HW219041   1.933   1.105   0.989  0.8649  1.0911  0.3849
 2528SOL     OW19042   1.505   3.643   8.819  0.2537  0.2121 -0.0481
 2528SOL    HW119043   1.424   3.596   8.799 -0.3592  0.8584  0.9035
 2528SOL    HW219044   1.527   3.604   8.904 -0.0891  0.0676 -0.0260
 2529SOL     OW19045   4.369   1.355  16.884  0.0956 -0.5882  0.2705
 2529SOL    HW119046   4.366   1.417  16.957 -3.1075  0.0884 -0.4357
 2529SOL    HW219047   4.452   1.378  16.842  0.1340 -0.8388  0.2136
 2530SOL     OW19048   3.179   4.411   3.440  0.1493 -0.4231 -0.2589
 2530SOL    HW119049   3.204   4.384   3.528  0.0593 -1.4101 -0.5438
 2530SOL    HW219050   3.210   4.328   3.404  1.5389 -0.1805  0.3701
 2531SOL     OW19051   0.129   0.256  10.933 -0.1015  0.7764 -0.0816
 2531SOL    HW119052   0.204   0.235  10.877 -0.3355  0.9544 -0.4680
 2531SOL    HW219053   0.066   0.250  10.861 -1.3797  0.2380  1.0761
 2532SOL     OW19054   1.423   3.255  10.683 -0.0081  0.3306  0.0189
 2532SOL    HW119055   1.382   3.277  10.767 -0.0682  1.1076 -0.2160
 2532SOL    HW219056   1.366   3.298  10.619 -0.5658  0.5659  0.6763
 2533SOL     OW19057   1.616   0.615  12.826 -0.3454 -0.5217 -0.2583
 2533SOL    HW119058   1.679   0.547  12.850  1.0757  0.2307 -1.8871
 2533SOL    HW219059   1.557   0.562  12.773 -1.1919  0.2993 -0.1403
 2534SOL     OW19060   2.337   4.388   1.593 -0.1002 -0.1104 -0.1925
 2534SOL    HW119061   2.306   4.316   1.538  1.5373 -1.4197  0.5928
 2534SOL    HW219062   2.425   4.402   1.559 -0.3297 -2.9180 -1.8936
 2535SOL     OW19063   0.145   0.178   2.570  0.5593  0.3192  0.0971
 2535SOL    HW119064   0.173   0.195   2.480 -1.7633 -0.8736 -0.8378
 2535SOL    HW219065   0.120   0.265   2.601  2.3288  0.3718  1.3681
 2536SOL     OW19066   1.366   4.715   3.321 -0.2855  0.4053 -0.4912
 2536SOL    HW119067   1.363   4.620   3.314  0.2195  0.5894 -3.4117
 2536SOL    HW219068   1.459   0.017   3.325 -0.0985 -0.7111  1.2804
 2537SOL     OW19069   0.546   0.933   7.271  0.4604 -0.2450  0.7366
 2537SOL    HW119070   0.478   0.959   7.334  0.1862  1.4030 -0.2170
 2537SOL    HW219071   0.541   1.007   7.211  0.1608 -2.1054 -1.4943
 2538SOL     OW19072   2.155   3.858   8.574  0.4136 -0.0809 -0.0300
 2538SOL    HW119073   2.153   3.935   8.518  3.3456  0.5191  0.6685
 2538SOL    HW219074   2.176   3.890   8.662 -0.4451 -0.6216  0.3754
 2539SOL     OW19075   3.690   3.072   5.628  0.0284 -0.7163  0.5338
 2539SOL    HW119076   3.600   3.039   5.625 -0.2060 -0.1550  1.3349
 2539SOL    HW219077   3.703   3.081   5.722  0.0096  1.4899  0.3210
 2540SOL     OW19078   1.415   1.347  14.686 -0.2047  0.1893 -0.4242
 2540SOL    HW119079   1.406   1.257  14.655 -0.3275 -0.7327  2.2776
 2540SOL    HW219080   1.486   1.392  14.641 -1.0770  2.3270  0.3205
 2541SOL     OW19081   4.456   4.521   2.807  0.0923 -0.9089  0.1080
 2541SOL    HW119082   4.439   4.609   2.840 -2.6012 -0.8855 -1.3175
 2541SOL    HW219083   4.365   4.497   2.788 -0.2905  0.4812  0.2250
 2542SOL     OW19084   2.155   1.149   7.221  0.5603  0.7863 -0.1172
 2542SOL    HW119085   2.073   1.174   7.177 -0.9103 -1.3691  1.3831
 2542SOL    HW219086   2.227   1.193   7.177  0.4998  2.1509  1.1707
 2543SOL     OW19087   3.869   4.065   6.209  0.1974  0.3826  0.2821
 2543SOL    HW119088   3.869   3.978   6.168  1.2487  0.9435 -0.9350
 2543SOL    HW219089   3.883   4.126   6.136 -1.8908  1.0415  0.4307
 2544SOL     OW19090   3.837   3.553   9.098  0.3097 -0.0446 -0.2370
 2544SOL    HW119091   3.802   3.519   9.016 -0.5032 -1.2555  0.6365
 2544SOL    HW219092   3.783   3.631   9.112 -1.3647 -1.1636 -0.5270
 2545SOL     OW19093   1.233   3.081   5.134 -0.1040  0.1224 -0.2169
 2545SOL    HW119094   1.171   3.110   5.201  0.2545 -1.3102  0.7479
 2545SOL    HW219095   1.310   3.139   5.137 -0.3584  0.4832 -0.8179
 2546SOL     OW19096   4.478   3.014   7.648  0.3614  0.2764  0.4217
 2546SOL    HW119097   4.459   3.108   7.652 -0.3284  0.1037  1.3283
 2546SOL    HW219098   4.424   2.978   7.719  1.3460 -0.5374  0.7477
 2547SOL     OW19099   2.065   4.289   9.128  0.0706 -0.1480  0.1498
 2547SOL    HW119100   1.973   4.269   9.111  0.6072 -0.6130 -2.1921
 2547SOL    HW219101   2.063   4.328   9.216  1.1714  0.4812 -0.0960
 2548SOL     OW19102   2.312   0.009   4.825  0.4932 -0.1340  0.6507
 2548SOL    HW119103   2.347   0.085   4.778 -0.5832 -0.2421 -0.3184
 2548SOL    HW219104   2.225   0.043   4.845  0.0863 -0.2445 -0.9489
 2549SOL     OW19105   3.875   2.031  14.774  0.5454  0.5206  0.0043
 2549SOL    HW119106   3.831   1.961  14.726  0.2368  0.8534 -0.1991
 2549SOL    HW219107   3.800   2.090  14.781  0.2195  0.1784 -0.5598
 2550SOL     OW19108   2.431   1.661   2.771  0.2627 -0.0499  0.4892
 2550SOL    HW119109   2.501   1.710   2.728  0.3841 -0.0275  0.7138
 2550SOL    HW219110   2.475   1.581   2.799 -0.6438 -0.5217  0.5959
 2551SOL     OW19111   2.610   0.036   0.257  0.0629 -0.6912  0.1329
 2551SOL    HW119112   2.645   0.088   0.329  0.0428 -2.6573  1.5794
 2551SOL    HW219113   2.597   4.677   0.311 -0.0564  0.1431  1.3222
 2552SOL     OW19114   2.427   1.124   4.131  0.3531  0.1759  0.0476
 2552SOL    HW119115   2.438   1.099   4.039  0.7803  1.3652 -0.2336
 2552SOL    HW219116   2.434   1.219   4.125  0.5304  0.1582 -0.0370
 2553SOL     OW19117   4.661   3.472   1.956  0.4395  0.0942 -0.5596
 2553SOL    HW119118   4.692   3.559   1.980 -0.7534  0.4430 -0.2725
 2553SOL    HW219119   4.566   3.476   1.967  0.6760  0.2546  1.4989
 2554SOL     OW19120   2.473   0.809   1.166 -0.5605 -0.1502 -0.4790
 2554SOL    HW119121   2.389   0.830   1.208 -0.2637 -1.9868  1.0449
 2554SOL    HW219122   2.459   0.718   1.139 -0.5064 -0.2306 -0.2377
 2555SOL     OW19123   1.287   0.372   6.278  0.1270 -0.1150 -0.3396
 2555SOL    HW119124   1.266   0.346   6.368 -2.1234 -1.1730 -1.1717
 2555SOL    HW219125   1.260   0.464   6.273 -0.1977 -0.2884 -1.8963
 2556SOL     OW19126   4.416   0.763   6.962  0.2025  0.0588  0.1664
 2556SOL    HW119127   4.358   0.719   6.900  0.5188 -1.5408  1.0211
 2556SOL    HW219128   4.450   0.839   6.914 -0.2479  0.7633  0.9772
 2557SOL     OW19129   4.072   4.162   3.396 -0.1963 -0.1633 -0.0831
 2557SOL    HW119130   3.994   4.215   3.380  0.7466  1.4460  0.6937
 2557SOL    HW219131   4.138   4.196   3.337  0.6571  0.5600  1.2960
 2558SOL     OW19132   0.997   1.696   4.934  0.2591 -0.2225  0.1424
 2558SOL    HW119133   1.007   1.753   5.011  0.8223  0.7497 -0.6562
 2558SOL    HW219134   1.013   1.747   4.855 -1.1162  0.0403  0.0439
 2559SOL     OW19135   4.142   0.485   3.979 -0.0597 -0.1289 -0.2259
 2559SOL    HW119136   4.173   0.556   3.922 -1.7304  1.2698  0.6143
 2559SOL    HW219137   4.210   0.479   4.046  0.7720  2.3317 -0.8606
 2560SOL     OW19138   2.604   1.990  11.876 -0.4812 -0.7078 -0.2451
 2560SOL    HW119139   2.526   1.945  11.909  0.2944 -0.6876  1.6300
 2560SOL    HW219140   2.670   1.947  11.930 -0.5160  1.2638  1.3850
 2561SOL     OW19141   1.737   4.475  11.934 -0.2295 -0.5084 -0.0569
 2561SOL    HW119142   1.718   4.392  11.891  0.1709 -0.9397  0.6004
 2561SOL    HW219143   1.814   4.445  11.981  1.8851  1.4707 -2.2577
 2562SOL     OW19144   3.420   2.702  12.195 -0.3734 -0.0179  0.3637
 2562SOL    HW119145   3.396   2.618  12.235  1.6847 -0.6053  0.3471
 2562SOL    HW219146   3.477   2.674  12.124 -3.5071 -2.3795 -1.2476
 2563SOL     OW19147   0.467   2.412   1.475  0.1812  0.0090 -0.3136
 2563SOL    HW119148   0.498   2.503   1.479 -3.4928  1.2475 -0.2831
 2563SOL    HW219149   0.548   2.361   1.475 -0.6008 -1.2481  0.4642
 2564SOL     OW19150   2.494   3.379  14.652  0.3366 -0.4702  0.1405
 2564SOL    HW119151   2.590   3.384  14.649  0.4884 -1.7144  2.4695
 2564SOL    HW219152   2.473   3.457  14.602  1.4678 -0.6023 -0.5354
 2565SOL     OW19153   2.378   1.042   7.396 -0.6401  0.6810 -0.3983
 2565SOL    HW119154   2.289   1.059   7.426  0.2260  1.7006  1.5900
 2565SOL    HW219155   2.377   0.947   7.381 -1.5818  0.9976 -2.2673
 2566SOL     OW19156   0.398   4.633   8.035 -0.3102 -0.8023 -0.1397
 2566SOL    HW119157   0.394   4.704   7.971 -1.7359  0.2396  1.1095
 2566SOL    HW219158   0.485   4.602   8.010  0.1240  0.6213 -0.4054
 2567SOL     OW19159   2.458   0.901   8.985  0.6299  1.0668 -0.2555
 2567SOL    HW119160   2.480   0.808   8.988 -1.1157  0.6529 -0.4418
 2567SOL    HW219161   2.544   0.943   8.994  0.9098  0.7647 -1.5775
 2568SOL     OW19162   3.576   1.757  11.955  0.5212 -0.2283 -0.5781
 2568SOL    HW119163   3.654   1.743  12.008  0.9264  2.8464 -0.3395
 2568SOL    HW219164   3.541   1.670  11.935 -2.0384  0.7540 -0.4327
 2569SOL     OW19165   4.399   0.544  11.215  0.0069  0.4937 -0.2082
 2569SOL    HW119166   4.445   0.557  11.132  2.9569  1.0979  1.5248
 2569SOL    HW219167   4.423   0.622  11.265  1.0936  0.8797 -1.3413
 2570SOL     OW19168   2.626   1.022   6.278 -0.4720  0.4243 -0.0167
 2570SOL    HW119169   2.640   1.075   6.356  0.6825  2.0077 -1.3237
 2570SOL    HW219170   2.709   1.019   6.232  0.2600  1.4221  1.2457
 2571SOL     OW19171   0.142   3.458   5.476 -0.2333 -0.3666  0.3600
 2571SOL    HW119172   0.232   3.425   5.476  0.0520  0.4224  2.6651
 2571SOL    HW219173   0.092   3.388   5.518 -0.8815  0.7134  1.3903
 2572SOL     OW19174   1.804   3.815   8.165  0.0364 -0.5614  0.0558
 2572SOL    HW119175   1.709   3.828   8.163  0.0647 -0.4441 -0.5968
 2572SOL    HW219176   1.808   3.727   8.202  0.3373  0.4750  2.4494
 2573SOL     OW19177   0.605   3.811  14.334  0.6795 -0.1217  0.3701
 2573SOL    HW119178   0.578   3.852  14.417 -0.1794 -1.1306  0.5916
 2573SOL    HW219179   0.524   3.822  14.285  0.7647 -0.5394  0.1411
 2574SOL     OW19180   3.214   1.450   4.398  0.2798  0.0837 -0.5010
 2574SOL    HW119181   3.260   1.490   4.324  1.2438 -0.2783 -0.0961
 2574SOL    HW219182   3.125   1.482   4.381 -0.5571 -2.5223 -1.0982
 2575SOL     OW19183   3.833   2.855  14.648  0.2534 -0.3576  0.2588
 2575SOL    HW119184   3.829   2.763  14.622  0.3231 -0.0956 -0.6758
 2575SOL    HW219185   3.888   2.886  14.576 -1.9238  0.5738 -1.0308
 2576SOL     OW19186   0.931   0.009   6.791  0.4204 -0.5497  0.3766
 2576SOL    HW119187   0.883   0.091   6.801 -0.3142 -0.6098 -2.8155
 2576SOL    HW219188   1.025   0.030   6.784  0.3993 -0.3664  0.6385
 2577SOL     OW19189   0.082   1.559   1.783 -0.0771  0.4867  0.2241
 2577SOL    HW119190   0.132   1.636   1.757  2.5576 -0.7103  1.7438
 2577SOL    HW219191   0.021   1.591   1.850  0.7929  0.8956  0.8221
 2578SOL     OW19192   1.002   2.912   8.258 -0.3351 -0.1176  0.3212
 2578SOL    HW119193   1.065   2.843   8.236 -0.6500  0.0191 -0.9826
 2578SOL    HW219194   0.977   2.875   8.343  2.9491  0.0064  1.3336
 2579SOL     OW19195   4.265   3.907  12.587  0.8926  0.1455 -0.0035
 2579SOL    HW119196   4.276   3.813  12.572  0.6526 -0.0034  0.7771
 2579SOL    HW219197   4.205   3.929  12.515  0.2660 -1.2956  0.0716
 2580SOL     OW19198   3.903   1.281   2.551 -0.0921 -0.7193 -0.4156
 2580SOL    HW119199   3.973   1.286   2.616 -2.9663 -0.7524  2.6575
 2580SOL    HW219200   3.827   1.296   2.606  0.4484 -0.3392  0.2288
 2581SOL     OW19201   4.181   4.350   0.073 -0.2975 -0.0354 -0.3127
 2581SOL    HW119202   4.212   4.259   0.070  0.5443  0.3031 -1.7443
 2581SOL    HW219203   4.193   4.379   0.163 -0.5429  1.4157 -0.7479
 2582SOL     OW19204   0.039   2.435   2.192  0.0534  0.3796  0.6790
 2582SOL    HW119205   4.707   2.441   2.111 -0.3026  1.8043  1.0165
 2582SOL    HW219206   4.703   2.373   2.239  0.7738  0.2836  1.3982
 2583SOL     OW19207   1.136   1.333   2.067 -0.6030 -0.7330 -0.2329
 2583SOL    HW119208   1.190   1.394   2.017 -1.2020  1.0478  1.2814
 2583SOL    HW219209   1.136   1.258   2.007  1.4988 -0.9021 -0.0336
 2584SOL     OW19210   0.114   3.279   7.712 -0.2904  0.5253 -0.3696
 2584SOL    HW119211   0.112   3.374   7.698  0.9171  0.1324 -3.3501
 2584SOL    HW219212   0.036   3.269   7.766  0.0372 -1.1814 -0.2044
 2585SOL     OW19213   2.314   3.667   3.150  0.2647  0.0515 -0.4101
 2585SOL    HW119214   2.377   3.702   3.213 -1.3864  1.1260  0.6552
 2585SOL    HW219215   2.369   3.625   3.084  2.2823 -2.0583  2.6239
 2586SOL     OW19216   3.455   0.209   9.243  0.1585  0.1346  0.2998
 2586SOL    HW119217   3.406   0.252   9.313  1.2380  2.2167 -0.2235
 2586SOL    HW219218   3.394   0.136   9.233  1.0278 -0.4861 -0.4899
 2587SOL     OW19219   1.156   0.940   3.531  0.0228 -0.4737  0.2466
 2587SOL    HW119220   1.102   0.889   3.471 -1.2777 -1.8360  2.5667
 2587SOL    HW219221   1.103   0.929   3.610 -0.8053  2.2499  0.0711
 2588SOL     OW19222   3.830   3.612   4.353  0.2060  0.1545 -0.1689
 2588SOL    HW119223   3.823   3.648   4.264 -2.0923  1.7681  0.6721
 2588SOL    HW219224   3.908   3.558   4.342  1.3754  1.9562 -0.6554
 2589SOL     OW19225   1.595   0.886   2.280 -0.2150 -0.0737 -0.2895
 2589SOL    HW119226   1.656   0.825   2.239 -1.6245 -1.4914 -0.3016
 2589SOL    HW219227   1.514   0.853   2.241  0.5622 -0.6547 -1.4210
 2590SOL     OW19228   3.936   1.322   3.542 -0.3682 -0.4584  0.3421
 2590SOL    HW119229   3.992   1.246   3.524 -0.5873 -1.0079  2.0288
 2590SOL    HW219230   3.860   1.316   3.484  1.2062 -3.9137 -1.4121
 2591SOL     OW19231   1.184   2.366  14.480 -0.0778 -0.2462  0.0942
 2591SOL    HW119232   1.257   2.355  14.420 -1.5476 -0.8459 -1.5843
 2591SOL    HW219233   1.198   2.451  14.521 -1.4041 -0.1428  0.3325
 2592SOL     OW19234   2.904   0.087   5.296 -0.0096 -0.0026  0.0847
 2592SOL    HW119235   2.918   4.713   5.279 -2.0774 -0.2565 -0.1796
 2592SOL    HW219236   2.862   0.123   5.218  0.4212 -0.5029 -0.3812
 2593SOL     OW19237   4.442   2.719  16.642 -0.0362 -0.6921 -0.2628
 2593SOL    HW119238   4.537   2.728  16.642 -0.1877  0.8510  0.4243
 2593SOL    HW219239   4.432   2.636  16.690  3.2875 -1.0077 -0.0940
 2594SOL     OW19240   1.399   1.371  14.967  0.4343  0.3847  0.1374
 2594SOL    HW119241   1.410   1.397  14.875 -0.4796 -2.4613 -0.7715
 2594SOL    HW219242   1.434   1.282  14.961  1.3878  0.7660  0.0504
 2595SOL     OW19243   1.034   1.157   6.462 -0.2714 -0.7803  0.5472
 2595SOL    HW119244   1.129   1.161   6.455 -0.5492  4.2799 -0.7551
 2595SOL    HW219245   1.030   1.114   6.547 -0.1175 -0.8411  0.5234
 2596SOL     OW19246   2.375   3.187   2.063  0.2568 -0.1022 -0.3627
 2596SOL    HW119247   2.386   3.203   1.970 -0.1995  0.2183 -0.3597
 2596SOL    HW219248   2.290   3.228   2.079  1.1027  1.2467  0.6172
 2597SOL     OW19249   4.376   2.530   1.930  0.5474  0.6647  0.3174
 2597SOL    HW119250   4.363   2.576   1.847 -2.5394 -0.4630  0.2063
 2597SOL    HW219251   4.287   2.537   1.962 -0.2427 -0.5441 -1.6105
 2598SOL     OW19252   4.339   2.825  16.938 -0.1368  0.0084  0.3628
 2598SOL    HW119253   4.258   2.852  16.895 -0.0606  0.1083  0.2809
 2598SOL    HW219254   4.405   2.857  16.877  0.1662 -1.5091 -0.0942
 2599SOL     OW19255   0.400   3.497   7.688 -0.1015  0.5482  0.2468
 2599SOL    HW119256   0.438   3.585   7.684 -0.1715  0.5297 -0.9295
 2599SOL    HW219257   0.447   3.464   7.764  1.0869 -0.8091 -1.0848
 2600SOL     OW19258   1.083   2.567  13.778 -0.0823  0.0017 -0.1682
 2600SOL    HW119259   1.099   2.659  13.754 -1.8910  0.9654  2.3488
 2600SOL    HW219260   1.079   2.527  13.691  0.8108 -0.3258 -0.0566
 2601SOL     OW19261   1.508   1.895   8.464 -0.3135 -0.0055 -0.5414
 2601SOL    HW119262   1.592   1.866   8.499 -0.1583 -0.1102 -0.9986
 2601SOL    HW219263   1.483   1.815   8.418  2.4463 -0.6598 -0.9154
 2602SOL     OW19264   3.853   2.757   3.887  0.0780  0.3534  0.2568
 2602SOL    HW119265   3.811   2.808   3.818 -1.4671  1.2629  1.8714
 2602SOL    HW219266   3.785   2.738   3.951  1.0816  1.4421  1.6561
 2603SOL     OW19267   1.634   2.913   8.600  0.0544 -0.4368  0.4848
 2603SOL    HW119268   1.592   2.939   8.682 -0.6486  1.9450 -0.6098
 2603SOL    HW219269   1.641   3.000   8.560 -0.7782 -0.9845 -0.8748
 2604SOL     OW19270   2.579   1.679   9.739  0.1739 -0.4337  0.1862
 2604SOL    HW119271   2.521   1.740   9.784  0.0775  0.4972 -1.1933
 2604SOL    HW219272   2.662   1.703   9.778 -0.5398  1.1752  0.7050
 2605SOL     OW19273   2.528   4.386   8.592 -0.3697 -0.3215  0.2479
 2605SOL    HW119274   2.549   4.440   8.669  0.0174 -0.0880 -0.0184
 2605SOL    HW219275   2.462   4.435   8.544 -1.9016 -1.7899  0.8654
 2606SOL     OW19276   4.627   0.486   7.472 -0.1633  0.3110  0.5471
 2606SOL    HW119277   4.653   0.483   7.564  0.7725  1.6877  0.3162
 2606SOL    HW219278   4.541   0.528   7.469  0.7257  2.1180  0.8567
 2607SOL     OW19279   2.061   4.428   7.092  0.4611 -0.2261 -0.5570
 2607SOL    HW119280   1.995   4.359   7.101  0.8324 -0.3798  0.9389
 2607SOL    HW219281   2.007   4.491   7.044  1.4381  0.9883 -0.0894
 2608SOL     OW19282   3.403   3.473   7.434  0.4709 -0.2925 -0.2117
 2608SOL    HW119283   3.356   3.398   7.473 -2.0946  0.5500 -1.6758
 2608SOL    HW219284   3.492   3.454   7.464  1.2866  2.2112 -1.0403
 2609SOL     OW19285   3.425   2.291   2.378  0.1897 -0.1261 -0.6978
 2609SOL    HW119286   3.450   2.354   2.311  1.2961 -1.9882 -2.0462
 2609SOL    HW219287   3.379   2.340   2.446  1.3974  1.7449 -1.2363
 2610SOL     OW19288   1.966   3.528   1.611 -0.1582  0.4130  0.2053
 2610SOL    HW119289   2.039   3.485   1.567 -0.2039 -0.2138  0.7419
 2610SOL    HW219290   1.957   3.619   1.583  1.6715  0.1081 -1.3973
 2611SOL     OW19291   3.234   3.198  10.975  0.0337  0.6448  0.4831
 2611SOL    HW119292   3.258   3.230  11.062  0.1326  1.3660  0.1901
 2611SOL    HW219293   3.187   3.118  11.002  1.2558 -0.1444  0.2822
 2612SOL     OW19294   3.899   3.948   7.068  0.1681  0.7227 -0.3441
 2612SOL    HW119295   3.810   3.977   7.089  0.3122 -0.4459  1.8297
 2612SOL    HW219296   3.900   3.945   6.972 -0.5148 -0.3686 -0.3169
 2613SOL     OW19297   1.985   3.792  13.578  0.4596  0.3684  0.0661
 2613SOL    HW119298   1.943   3.726  13.633  2.5101  0.5815  1.8631
 2613SOL    HW219299   2.031   3.840  13.647 -0.2513 -0.4108  1.0677
 2614SOL     OW19300   1.268   3.793   8.193 -0.0346  0.3502 -0.5574
 2614SOL    HW119301   1.234   3.790   8.282  1.8746  0.9172  0.1730
 2614SOL    HW219302   1.284   3.701   8.173 -0.0848  0.6333 -1.9177
 2615SOL     OW19303   4.554   4.051   4.586 -0.0463  0.5088 -0.3550
 2615SOL    HW119304   4.581   4.003   4.664  0.6793  0.8967 -0.3672
 2615SOL    HW219305   4.609   4.011   4.519 -0.1158  0.9522 -0.6762
 2616SOL     OW19306   3.065   0.976  14.919 -0.4293  0.5098 -0.0090
 2616SOL    HW119307   3.150   0.972  14.963  0.2635  0.1420 -1.3592
 2616SOL    HW219308   3.022   0.891  14.932  2.5303 -0.7463  1.4700
 2617SOL     OW19309   1.070   1.813   7.629  0.6807  1.2757 -0.3375
 2617SOL    HW119310   0.992   1.799   7.682  2.0296  0.4802  1.4137
 2617SOL    HW219311   1.051   1.866   7.551  1.2191  1.2541 -0.4809
 2618SOL     OW19312   1.107   1.809   8.724  1.2869 -0.7078 -0.2210
 2618SOL    HW119313   1.199   1.798   8.749  1.0267  0.4530  1.2262
 2618SOL    HW219314   1.066   1.780   8.806  1.5215  0.6407  0.3583
 2619SOL     OW19315   0.497   4.222   5.538 -0.1173 -0.4956 -0.2935
 2619SOL    HW119316   0.414   4.239   5.492  0.7052 -0.5520 -1.8221
 2619SOL    HW219317   0.494   4.280   5.613 -2.0814  0.0703 -0.7841
 2620SOL     OW19318   2.659   4.696  12.857  0.1839  0.4417  0.2631
 2620SOL    HW119319   2.588   4.718  12.797 -0.6099 -2.7578  0.0261
 2620SOL    HW219320   2.604   4.640  12.912 -1.8237  2.2420  0.1106
 2621SOL     OW19321   3.620   1.426   9.087 -0.3640 -0.7765  0.3148
 2621SOL    HW119322   3.604   1.417   8.994 -0.5535  2.6308 -0.0016
 2621SOL    HW219323   3.668   1.346   9.110  2.9774  0.5427 -2.0345
 2622SOL     OW19324   4.471   1.316   3.368  0.4073 -0.3706  0.5630
 2622SOL    HW119325   4.400   1.252   3.374 -0.0919 -0.0272 -1.4966
 2622SOL    HW219326   4.436   1.368   3.296  2.4098  3.2027  2.1961
 2623SOL     OW19327   1.214   3.157   0.280  0.0218  0.1776 -0.1207
 2623SOL    HW119328   1.307   3.135   0.290  0.5681  2.3500 -0.4034
 2623SOL    HW219329   1.176   3.121   0.360  1.2104  0.1390  0.4385
 2624SOL     OW19330   2.446   2.439   5.144  0.0101  0.2798  0.5509
 2624SOL    HW119331   2.396   2.520   5.142 -0.8762 -0.2836 -0.0087
 2624SOL    HW219332   2.497   2.462   5.222  0.8998 -1.8888  0.6104
 2625SOL     OW19333   3.877   0.355   0.588  0.2256 -0.1580 -0.1252
 2625SOL    HW119334   3.935   0.308   0.648  2.2317  2.9262  0.3056
 2625SOL    HW219335   3.790   0.342   0.626  0.7670 -1.6702  0.5915
 2626SOL     OW19336   2.111   4.719  15.166 -0.4856  0.1282 -0.1401
 2626SOL    HW119337   2.051   4.720  15.092 -0.5787 -0.1058 -0.0694
 2626SOL    HW219338   2.198   4.714  15.126  0.5305  0.3140  2.0293
 2627SOL     OW19339   3.270   1.052   2.648 -0.2131 -0.0279 -0.5242
 2627SOL    HW119340   3.343   1.113   2.637 -0.1631  0.2669  1.4226
 2627SOL    HW219341   3.197   1.110   2.625  1.7383  1.8432 -2.0800
 2628SOL     OW19342   2.300   1.282   7.562  0.3576  0.0942  0.0061
 2628SOL    HW119343   2.349   1.218   7.510 -1.2144 -0.8156 -0.3594
 2628SOL    HW219344   2.291   1.230   7.641 -1.4416 -4.1123 -2.9823
 2629SOL     OW19345   2.782   1.627  14.205  0.3699 -0.1239  0.3192
 2629SOL    HW119346   2.789   1.595  14.295 -0.0719  1.7406  1.0042
 2629SOL    HW219347   2.867   1.669  14.190  0.4996  0.0843  1.6079
 2630SOL     OW19348   2.384   2.518   1.665  0.0983 -0.4285  0.1724
 2630SOL    HW119349   2.340   2.439   1.634 -1.5597  0.5347  0.0828
 2630SOL    HW219350   2.340   2.526   1.749  0.9909 -2.6439  0.8608
 2631SOL     OW19351   0.243   0.065   9.663 -0.1915 -0.0115  0.4586
 2631SOL    HW119352   0.233   0.158   9.681 -1.3561 -0.1773  0.6375
 2631SOL    HW219353   0.183   0.019   9.721  1.2221  1.0064  2.6984
 2632SOL     OW19354   0.546   4.428   3.703 -0.2968  0.1672 -0.1860
 2632SOL    HW119355   0.622   4.486   3.699  0.6677 -1.2513 -3.0322
 2632SOL    HW219356   0.483   4.467   3.643 -1.7766 -1.2870  0.4248
 2633SOL     OW19357   1.588   0.886   9.749 -0.2819 -0.4980  0.1756
 2633SOL    HW119358   1.636   0.853   9.674 -0.3103  0.4232 -0.2527
 2633SOL    HW219359   1.583   0.802   9.794  2.1115  0.2141  1.7478
 2634SOL     OW19360   2.202   2.546   3.437 -0.5278  0.1257  0.3085
 2634SOL    HW119361   2.148   2.572   3.362  0.5285 -1.0138 -0.8590
 2634SOL    HW219362   2.184   2.452   3.435 -0.9794  0.2173  0.0975
 2635SOL     OW19363   3.926   1.374   5.547 -0.5597 -0.1837 -0.1334
 2635SOL    HW119364   3.879   1.457   5.549  0.8902  0.5561  2.2863
 2635SOL    HW219365   3.987   1.395   5.476 -0.1262 -0.8457  0.0440
 2636SOL     OW19366   1.003   0.720   7.496  0.3648 -0.2832  0.0044
 2636SOL    HW119367   1.045   0.694   7.578  2.3653 -1.4955 -1.3868
 2636SOL    HW219368   1.000   0.639   7.445 -0.9074  0.8761 -1.7415
 2637SOL     OW19369   2.031   4.193  17.529 -0.0377  0.2236 -0.0457
 2637SOL    HW119370   1.991   4.243  17.458  0.4783 -0.6363 -0.9366
 2637SOL    HW219371   1.958   4.180  17.590  0.5392  1.8912  1.0084
 2638SOL     OW19372   0.563   3.384   8.658 -0.3284  0.4471 -0.0896
 2638SOL    HW119373   0.566   3.479   8.674 -0.6069  0.8783 -2.7012
 2638SOL    HW219374   0.509   3.379   8.580  0.1078  0.6906 -0.4029
 2639SOL     OW19375   1.862   0.017   0.330 -0.9442  0.1574  0.1552
 2639SOL    HW119376   1.945   4.691   0.316 -0.2214  1.1093  1.2693
 2639SOL    HW219377   1.865   0.079   0.257 -1.2656  1.2109  1.0341
 2640SOL     OW19378   0.387   3.312   5.115  0.0377  0.3498  0.2326
 2640SOL    HW119379   0.434   3.229   5.105 -1.5149 -0.7885  2.5586
 2640SOL    HW219380   0.446   3.368   5.065 -2.8195  1.7011 -1.6517
 2641SOL     OW19381   1.003   0.847   6.480  0.1673 -0.0383  0.4007
 2641SOL    HW119382   0.971   0.932   6.449  0.5660  0.8664  2.4923
 2641SOL    HW219383   0.961   0.781   6.424 -0.1220  1.0672 -0.6930
 2642SOL     OW19384   2.070   0.350   4.951  0.5694 -0.0734  0.0367
 2642SOL    HW119385   1.995   0.385   4.903  0.4478  2.3291  1.9915
 2642SOL    HW219386   2.047   0.257   4.954 -0.9261  0.3084  0.0015
 2643SOL     OW19387   1.849   0.522   0.952 -0.4190 -0.8042  0.3601
 2643SOL    HW119388   1.922   0.471   0.986 -0.1020 -0.0332  0.8402
 2643SOL    HW219389   1.885   0.570   0.877 -2.5545 -2.6764 -1.9026
 2644SOL     OW19390   2.994   2.303   4.773  0.0136 -0.2032  0.5130
 2644SOL    HW119391   2.975   2.367   4.843 -0.7352  1.0809 -0.8578
 2644SOL    HW219392   2.937   2.335   4.703 -1.7156  1.3276  2.5754
 2645SOL     OW19393   2.388   2.235   5.506 -0.4035 -0.1483  0.4933
 2645SOL    HW119394   2.426   2.276   5.583  1.2324 -1.8324  0.5679
 2645SOL    HW219395   2.330   2.179   5.557 -0.9238  0.1393  0.2198
 2646SOL     OW19396   3.892   0.786   2.351  0.2369 -0.2126  0.3471
 2646SOL    HW119397   3.878   0.865   2.300  0.0771 -1.1387 -1.0468
 2646SOL    HW219398   3.888   0.719   2.283 -1.0813 -0.9882  1.1716
 2647SOL     OW19399   4.373   2.494  17.324  0.3635  0.2535 -0.1358
 2647SOL    HW119400   4.459   2.524  17.352  0.6788 -1.6987  0.9121
 2647SOL    HW219401   4.327   2.508  17.407  0.2377  1.5537 -0.4167
 2648SOL     OW19402   1.275   3.480   8.764  0.3312 -0.2989  0.1806
 2648SOL    HW119403   1.257   3.473   8.671 -1.0926  0.9341  0.3512
 2648SOL    HW219404   1.231   3.403   8.800 -0.7025  0.4539  0.5407
 2649SOL     OW19405   1.416   3.044   4.673  0.4642 -0.4546 -0.3760
 2649SOL    HW119406   1.430   2.958   4.713 -0.1060 -1.0365 -1.4459
 2649SOL    HW219407   1.390   3.015   4.586  2.2688  0.6352 -1.2604
 2650SOL     OW19408   1.618   3.205   3.156  0.1330 -0.0292  0.8181
 2650SOL    HW119409   1.537   3.248   3.128 -0.2537 -1.1764  0.1681
 2650SOL    HW219410   1.581   3.125   3.193 -2.8132  1.2402  0.6607
 2651SOL     OW19411   4.471   3.513   3.524  0.0737  0.1234 -0.3825
 2651SOL    HW119412   4.380   3.516   3.496 -0.1651  2.0897  0.6370
 2651SOL    HW219413   4.524   3.476   3.453  0.9969 -0.2574  0.4867
 2652SOL     OW19414   3.817   1.143   6.739 -0.5285  0.1867  0.1319
 2652SOL    HW119415   3.741   1.086   6.727  0.5892 -1.3269  0.2262
 2652SOL    HW219416   3.804   1.150   6.833 -0.5121 -0.4924  0.1838
 2653SOL     OW19417   1.774   3.002  12.233 -0.1779  0.1639 -0.1903
 2653SOL    HW119418   1.799   3.012  12.141 -0.4294 -2.4120 -0.5569
 2653SOL    HW219419   1.736   2.914  12.231 -0.9203  0.4708  0.4585
 2654SOL     OW19420   4.555   2.334   5.853 -0.8048 -0.7481 -0.0018
 2654SOL    HW119421   4.490   2.287   5.801 -1.1769  1.6726 -1.7264
 2654SOL    HW219422   4.515   2.420   5.842  0.9578 -0.1963 -2.0071
 2655SOL     OW19423   3.104   0.615   2.766  0.4393  0.1656  0.9158
 2655SOL    HW119424   3.165   0.560   2.814  0.7822 -1.1333 -0.9830
 2655SOL    HW219425   3.167   0.673   2.723 -0.9895  1.6813  0.8498
 2656SOL     OW19426   3.912   0.999   8.979  0.0276  0.3408  0.3488
 2656SOL    HW119427   3.838   0.966   8.927  1.4047 -1.7860 -0.2655
 2656SOL    HW219428   3.946   1.069   8.923 -0.0775  0.1910  0.0927
 2657SOL     OW19429   4.451   1.812   3.932 -0.2203  0.2003  0.3857
 2657SOL    HW119430   4.437   1.835   3.840 -1.3160 -2.1652 -0.0425
 2657SOL    HW219431   4.364   1.785   3.960 -0.2578  0.4166  0.4834
 2658SOL     OW19432   2.544   4.427   1.922  0.1109 -0.3633  0.0045
 2658SOL    HW119433   2.619   4.484   1.941 -1.7245  1.8095  0.7609
 2658SOL    HW219434   2.531   4.379   2.003 -0.6886  1.4267  0.9420
 2659SOL     OW19435   3.292   3.051   6.514  0.3815 -0.6141 -0.0732
 2659SOL    HW119436   3.244   2.979   6.472 -1.3512 -0.7558  2.1132
 2659SOL    HW219437   3.303   3.014   6.601  3.0836  1.5881  0.4960
 2660SOL     OW19438   4.238   4.142   6.248 -0.3876  0.0424  0.3605
 2660SOL    HW119439   4.306   4.124   6.313 -0.5615 -0.5978  0.3663
 2660SOL    HW219440   4.191   4.213   6.291  1.4399  0.6645  1.3224
 2661SOL     OW19441   3.793   4.493   6.064  0.2888  0.2760 -0.0076
 2661SOL    HW119442   3.884   4.465   6.054 -0.2752 -1.5705 -0.0145
 2661SOL    HW219443   3.765   4.447   5.984  0.1014  1.9554 -0.9234
 2662SOL     OW19444   3.477   4.555   7.877  0.0940 -0.1436 -0.0889
 2662SOL    HW119445   3.530   4.476   7.869 -0.4983 -0.5231 -0.2638
 2662SOL    HW219446   3.423   4.556   7.798 -1.7994  0.9048  1.2368
 2663SOL     OW19447   2.052   4.001   4.913 -0.3293  0.0664  0.2459
 2663SOL    HW119448   1.980   4.035   4.967 -0.3773  0.0456  0.1943
 2663SOL    HW219449   2.013   3.957   4.838 -0.9545  2.2713 -0.7390
 2664SOL     OW19450   2.447   3.169   8.553 -1.1275  0.3385  0.3701
 2664SOL    HW119451   2.465   3.076   8.565  0.7427  0.6545 -0.1006
 2664SOL    HW219452   2.355   3.176   8.580 -1.5998  0.6160 -1.3628
 2665SOL     OW19453   0.466   2.445   7.121 -0.2066 -0.1118 -0.4120
 2665SOL    HW119454   0.374   2.451   7.096 -0.6389 -1.5717  0.7755
 2665SOL    HW219455   0.490   2.527   7.078  0.7797 -0.5704 -0.7332
 2666SOL     OW19456   0.638   1.313   5.635  0.0824  0.4446 -0.3963
 2666SOL    HW119457   0.595   1.399   5.637 -0.7354  0.0419 -0.8902
 2666SOL    HW219458   0.654   1.293   5.728 -0.8444  0.1640 -0.2988
 2667SOL     OW19459   2.523   3.865   0.479  0.5026 -0.5329 -0.0267
 2667SOL    HW119460   2.447   3.876   0.421 -0.0793 -1.3377  0.5870
 2667SOL    HW219461   2.562   3.949   0.499  0.4347 -0.4896 -0.0769
 2668SOL     OW19462   1.440   1.673   0.288  0.6485 -0.1456 -0.3671
 2668SOL    HW119463   1.403   1.620   0.217 -2.7458  1.8248 -0.1092
 2668SOL    HW219464   1.358   1.714   0.317  2.3242  2.1424  1.1604
 2669SOL     OW19465   1.290   4.166   1.622 -0.1390  0.2153  0.0492
 2669SOL    HW119466   1.206   4.201   1.590  0.5264 -0.1019 -2.0113
 2669SOL    HW219467   1.317   4.229   1.689 -0.2481  0.1960  0.1119
 2670SOL     OW19468   0.695   0.600  14.472 -0.5193  0.2088 -0.0136
 2670SOL    HW119469   0.691   0.657  14.548 -0.3780  3.0019 -2.0911
 2670SOL    HW219470   0.728   0.654  14.399  0.5084 -0.7236 -0.2416
 2671SOL     OW19471   4.109   1.004  12.660 -0.3380  0.3249 -0.4666
 2671SOL    HW119472   4.167   1.015  12.735 -1.8562 -1.3967  0.9577
 2671SOL    HW219473   4.168   0.943  12.615  0.8330  0.8350  0.3788
 2672SOL     OW19474   0.230   3.766  17.488 -0.2715  0.1682 -0.1202
 2672SOL    HW119475   0.287   3.787  17.561 -0.9534  1.9612 -0.1035
 2672SOL    HW219476   0.153   3.820  17.505 -1.2844 -0.9791 -1.0327
 2673SOL     OW19477   4.620   1.158  11.581  0.1831 -0.6223 -0.2976
 2673SOL    HW119478   4.541   1.189  11.536  0.4150  0.8167  0.2708
 2673SOL    HW219479   4.680   1.205  11.522  0.5312 -0.6925  0.0003
 2674SOL     OW19480   1.051   1.114  15.496 -0.3581  0.0647 -0.1786
 2674SOL    HW119481   1.021   1.175  15.564  0.1397  0.2989 -0.1676
 2674SOL    HW219482   1.003   1.138  15.417 -0.4875 -2.5516 -0.8781
 2675SOL     OW19483   2.701   0.280   2.278 -0.0937  0.4174  0.4998
 2675SOL    HW119484   2.667   0.311   2.362 -3.1114  0.0962 -0.6102
 2675SOL    HW219485   2.726   0.364   2.238  1.3995 -0.0595  0.4179
 2676SOL     OW19486   3.868   3.688   8.166 -0.0446  0.4813 -0.5181
 2676SOL    HW119487   3.787   3.666   8.212 -0.4316 -0.4365 -1.6658
 2676SOL    HW219488   3.911   3.604   8.180  0.4928  0.6276 -1.2951
 2677SOL     OW19489   0.446   0.740   8.346  1.0371 -0.0794  0.4607
 2677SOL    HW119490   0.467   0.653   8.380 -1.6507 -1.0148 -0.3400
 2677SOL    HW219491   0.469   0.789   8.426 -0.5232  2.8740 -0.9245
 2678SOL     OW19492   3.128   3.763  12.306 -0.7330 -0.1250 -0.1861
 2678SOL    HW119493   3.052   3.711  12.333 -0.0803 -0.7352  0.4829
 2678SOL    HW219494   3.098   3.811  12.229  0.1025  0.0522 -0.4072
 2679SOL     OW19495   1.121   1.101   4.988 -0.1669  0.3349  0.1840
 2679SOL    HW119496   1.140   1.065   4.901  1.0262  2.9961 -0.6371
 2679SOL    HW219497   1.202   1.150   4.999  0.2154 -1.0624  3.5526
 2680SOL     OW19498   1.355   2.028   5.958 -0.0285 -0.7092  0.6133
 2680SOL    HW119499   1.414   2.018   6.032  1.0447 -0.6702 -0.2465
 2680SOL    HW219500   1.363   1.938   5.925 -0.5402 -0.2122 -0.8701
 2681SOL     OW19501   3.389   3.866   3.901  0.4075  0.3878  0.4146
 2681SOL    HW119502   3.303   3.863   3.943  0.2355  3.0366  0.2385
 2681SOL    HW219503   3.392   3.940   3.841 -0.0260  0.7008  0.7780
 2682SOL     OW19504   4.246   3.854  14.735  0.5437 -0.4088 -0.1243
 2682SOL    HW119505   4.291   3.936  14.756  2.1888 -1.5435  0.7841
 2682SOL    HW219506   4.311   3.810  14.789 -0.6918 -1.7224  0.3181
 2683SOL     OW19507   4.241   3.708   2.893  0.3576 -0.3395 -0.0179
 2683SOL    HW119508   4.296   3.776   2.854  1.2237 -0.6320  0.6733
 2683SOL    HW219509   4.257   3.637   2.831  0.8125  0.2031 -0.5260
 2684SOL     OW19510   3.856   1.090   0.824 -0.3529  0.3635 -0.2316
 2684SOL    HW119511   3.855   1.182   0.798  1.5058  0.8476  1.4873
 2684SOL    HW219512   3.778   1.054   0.781  1.2740  0.3770 -3.2180
 2685SOL     OW19513   0.779   0.324   6.205 -0.2353 -0.4988  0.2851
 2685SOL    HW119514   0.684   0.310   6.198 -0.0863 -0.9401 -0.9120
 2685SOL    HW219515   0.803   0.335   6.297 -0.1567  1.5495  0.0199
 2686SOL     OW19516   4.693   2.131   6.100 -0.1100 -0.0042  0.7597
 2686SOL    HW119517   0.012   2.105   6.183  3.3084  1.1398 -0.5215
 2686SOL    HW219518   4.615   2.075   6.097 -0.1587  0.1550 -1.1315
 2687SOL     OW19519   1.061   3.954   4.889 -0.0963  0.3016 -0.1749
 2687SOL    HW119520   1.093   4.040   4.862  2.6336 -1.3142 -2.1204
 2687SOL    HW219521   1.093   3.905   4.813 -0.7053  2.2100 -1.6669
 2688SOL     OW19522   3.577   4.282  10.774 -0.3038 -0.5156 -0.2087
 2688SOL    HW119523   3.555   4.375  10.772  0.0756 -0.4059  0.6108
 2688SOL    HW219524   3.538   4.252  10.856 -0.5773  0.4138 -0.0059
 2689SOL     OW19525   3.936   0.011  11.473 -0.4028 -0.0561 -0.1363
 2689SOL    HW119526   3.951   0.055  11.556 -2.1928  1.7158 -0.7383
 2689SOL    HW219527   4.002   4.662  11.477  2.2067  2.5292  1.5567
 2690SOL     OW19528   2.843   4.338   8.742  0.2238  0.3318 -0.0921
 2690SOL    HW119529   2.772   4.275   8.733  0.0246  0.6333 -0.6274
 2690SOL    HW219530   2.916   4.285   8.772  2.0913  1.4555 -2.6155
 2691SOL     OW19531   2.718   1.643   3.527  0.8351 -0.4714 -0.2688
 2691SOL    HW119532   2.639   1.692   3.505  0.5394  0.4409  2.8896
 2691SOL    HW219533   2.703   1.601   3.611  1.3152 -0.4687 -0.1767
 2692SOL     OW19534   2.524   0.134   5.363  0.2929 -0.1068 -0.5349
 2692SOL    HW119535   2.582   0.105   5.433 -0.5194 -1.1903 -0.3174
 2692SOL    HW219536   2.447   0.161   5.413  0.7170 -1.2058  0.7117
 2693SOL     OW19537   0.236   2.254   2.419  0.0049 -0.6478  0.6759
 2693SOL    HW119538   0.236   2.267   2.514  0.0107  0.4022  0.5349
 2693SOL    HW219539   0.148   2.219   2.407 -0.0709 -0.5112  0.8362
 2694SOL     OW19540   1.155   3.589   3.555 -0.3516  0.4509  0.6254
 2694SOL    HW119541   1.176   3.658   3.493  1.9157 -0.2968  0.5580
 2694SOL    HW219542   1.240   3.579   3.599 -0.2456  0.5500  0.4382
 2695SOL     OW19543   3.450   3.540   5.557 -0.0920 -0.5042  0.3626
 2695SOL    HW119544   3.468   3.632   5.576 -0.3471 -0.6501  1.2744
 2695SOL    HW219545   3.503   3.503   5.628  1.0596  0.1191 -0.1750
 2696SOL     OW19546   3.158   4.130   3.897  0.6976 -0.5631  0.0816
 2696SOL    HW119547   3.133   4.038   3.910  0.8751 -0.4342  1.3217
 2696SOL    HW219548   3.215   4.155   3.970  1.7558 -0.7935 -0.6562
 2697SOL     OW19549   1.995   4.571   1.862  0.3975 -0.4817 -0.0122
 2697SOL    HW119550   2.087   4.575   1.837  0.3000 -1.3036 -0.5065
 2697SOL    HW219551   1.999   4.500   1.925 -1.0530  2.3388  3.2238
 2698SOL     OW19552   4.412   2.280   7.321 -0.5681 -0.2811  0.2362
 2698SOL    HW119553   4.383   2.234   7.400 -2.6830 -0.1291 -0.4437
 2698SOL    HW219554   4.408   2.205   7.263  3.8578  0.1025 -0.5822
 2699SOL     OW19555   3.227   1.619   4.185 -0.4505 -0.1372 -0.3754
 2699SOL    HW119556   3.258   1.689   4.242 -1.1044  0.7925 -1.1738
 2699SOL    HW219557   3.304   1.587   4.138  0.2464  0.7711  0.1551
 2700SOL     OW19558   1.382   2.366   2.593  0.5072  0.6188 -0.6515
 2700SOL    HW119559   1.439   2.440   2.573  1.5702  0.4026  1.6069
 2700SOL    HW219560   1.439   2.313   2.648 -2.3037 -1.9749 -0.2225
 2701SOL     OW19561   0.183   0.580   3.790  0.0839 -0.1134 -0.1964
 2701SOL    HW119562   0.141   0.639   3.727 -3.3513 -1.8974  0.4051
 2701SOL    HW219563   0.240   0.645   3.831 -1.9850  0.9140  1.0897
 2702SOL     OW19564   4.205   3.176  17.605 -0.5400  0.1102 -1.1010
 2702SOL    HW119565   4.147   3.213  17.538 -1.2638 -1.1421 -1.1686
 2702SOL    HW219566   4.171   3.087  17.619 -1.1858  0.6498  0.8341
 2703SOL     OW19567   0.573   0.720   8.057 -0.4398 -0.5804 -0.2461
 2703SOL    HW119568   0.533   0.718   8.144 -3.1896  0.9272 -1.4919
 2703SOL    HW219569   0.580   0.814   8.041 -1.3886 -0.2797  1.0916
 2704SOL     OW19570   2.896   3.059   7.253 -0.3622  0.8143  0.2645
 2704SOL    HW119571   2.844   2.978   7.257  1.8038 -0.5339  1.2923
 2704SOL    HW219572   2.835   3.127   7.278 -0.7809 -1.0208  4.2310
 2705SOL     OW19573   3.173   0.207  11.565 -0.2455 -0.3362  0.7829
 2705SOL    HW119574   3.102   0.249  11.613  1.0922  3.5937 -0.6168
 2705SOL    HW219575   3.195   0.137  11.626 -1.4954 -0.1007  1.4904
 2706SOL     OW19576   0.296   0.437  10.109  0.3788 -0.1438  0.2960
 2706SOL    HW119577   0.314   0.459  10.200  2.3516 -0.2271 -0.0763
 2706SOL    HW219578   0.215   0.488  10.100  0.3786 -0.2863 -0.5338
 2707SOL     OW19579   1.015   3.876   3.648 -0.0467  0.4711  0.2098
 2707SOL    HW119580   1.071   3.919   3.712 -0.4929  0.3455  0.6807
 2707SOL    HW219581   1.049   3.787   3.649 -0.1553  0.4392  0.8208
 2708SOL     OW19582   0.916   2.411  14.702  0.5344  0.2899 -0.3456
 2708SOL    HW119583   0.912   2.504  14.682 -1.6390  0.3452  0.3322
 2708SOL    HW219584   0.823   2.390  14.708  0.5601  0.1238 -0.5330
 2709SOL     OW19585   0.254   0.902   3.488  0.3449 -0.0169  0.2615
 2709SOL    HW119586   0.228   0.922   3.398  1.0209 -0.1556  0.0322
 2709SOL    HW219587   0.331   0.958   3.497  1.8079 -1.7894 -1.4690
 2710SOL     OW19588   4.662   2.230   5.517  0.3572 -0.4014  0.2678
 2710SOL    HW119589   4.588   2.223   5.576 -1.1083  0.5447 -1.4683
 2710SOL    HW219590   4.647   2.154   5.460  2.2894 -2.1132  2.0457
 2711SOL     OW19591   2.232   4.374   1.059  0.8304 -0.2613  0.0877
 2711SOL    HW119592   2.197   4.463   1.053 -0.8773 -0.7257  2.8761
 2711SOL    HW219593   2.142   4.341   1.070  1.4063 -1.4950  1.1197
 2712SOL     OW19594   2.401   2.284  12.410  0.4432 -0.0628  0.4134
 2712SOL    HW119595   2.387   2.368  12.365  0.4457 -0.1461  0.2596
 2712SOL    HW219596   2.397   2.305  12.504 -2.8631  2.7556 -0.3278
 2713SOL     OW19597   1.849   1.480  13.605  0.4365 -0.0373 -0.1385
 2713SOL    HW119598   1.831   1.387  13.620 -0.7625  0.3029  0.4679
 2713SOL    HW219599   1.902   1.496  13.683  1.1830 -0.1546 -0.6211
 2714SOL     OW19600   4.363   2.145  11.567 -0.1211 -0.0602 -0.2069
 2714SOL    HW119601   4.373   2.162  11.473  1.8485 -0.1001 -0.0098
 2714SOL    HW219602   4.277   2.105  11.559 -0.5579  0.4953  1.6566
 2715SOL     OW19603   2.254   3.258  11.446  0.1311 -0.2233 -0.3702
 2715SOL    HW119604   2.222   3.300  11.526 -4.1614 -0.1130 -2.1596
 2715SOL    HW219605   2.260   3.170  11.483  1.0904  1.1854  2.8534
 2716SOL     OW19606   0.994   4.503   5.863 -0.0701  0.7461 -0.4963
 2716SOL    HW119607   1.003   4.461   5.949 -1.5439 -0.0189 -0.7230
 2716SOL    HW219608   1.086   4.505   5.836  0.4709  2.1862  1.3907
 2717SOL     OW19609   0.672   1.279   9.761 -0.1680 -0.3391  0.3663
 2717SOL    HW119610   0.715   1.195   9.748  2.0829  0.6531  1.4280
 2717SOL    HW219611   0.663   1.268   9.856  0.4535  2.0901  0.6976
 2718SOL     OW19612   2.706   1.921  10.005  0.3185 -0.2821 -0.2047
 2718SOL    HW119613   2.610   1.922  10.011  0.2567 -0.7135 -1.1127
 2718SOL    HW219614   2.724   1.992   9.943  1.7882 -0.8786 -0.4502
 2719SOL     OW19615   0.025   1.317   3.354  0.5052  0.0418 -0.1627
 2719SOL    HW119616   0.009   1.337   3.262  1.8267 -1.3490 -0.6798
 2719SOL    HW219617   4.655   1.285   3.368 -0.1210  1.5654 -0.6542
 2720SOL     OW19618   2.324   1.275  10.629 -0.1623 -0.2332 -0.6884
 2720SOL    HW119619   2.246   1.219  10.632 -0.7305  0.5751 -0.1016
 2720SOL    HW219620   2.320   1.318  10.544 -1.2604  1.3300  0.1459
 2721SOL     OW19621   1.763   2.177   3.672 -0.9783  0.4129 -0.7004
 2721SOL    HW119622   1.694   2.183   3.605  1.1138  0.3640 -2.8395
 2721SOL    HW219623   1.765   2.264   3.711  1.9814 -0.1823  0.4467
 2722SOL     OW19624   4.346   1.359   4.374 -0.2698 -0.1278  0.2025
 2722SOL    HW119625   4.392   1.435   4.408 -1.0279  1.4315 -2.3078
 2722SOL    HW219626   4.345   1.378   4.280 -0.2998 -1.6363 -0.1095
 2723SOL     OW19627   4.289   4.167   8.160  0.2003 -0.1327  0.3930
 2723SOL    HW119628   4.353   4.151   8.092 -1.1776  1.4420 -1.2808
 2723SOL    HW219629   4.345   4.159   8.238  0.3454 -0.9237  0.2018
 2724SOL     OW19630   1.353   1.144   7.091 -0.2523  0.2488  0.3229
 2724SOL    HW119631   1.442   1.109   7.086 -0.7638 -1.0494  0.1285
 2724SOL    HW219632   1.307   1.070   7.132 -0.8431  0.2663 -0.3006
 2725SOL     OW19633   3.275   0.083   8.877 -0.7627 -0.0806 -0.2969
 2725SOL    HW119634   3.229   0.026   8.939 -0.5776 -0.8049 -0.8230
 2725SOL    HW219635   3.359   0.041   8.898  0.0802  1.0241 -1.5270
 2726SOL     OW19636   3.425   2.900   4.589  0.1093  0.0880  0.3511
 2726SOL    HW119637   3.438   2.992   4.612 -1.7254  0.3281  0.4176
 2726SOL    HW219638   3.344   2.902   4.538 -0.0788 -1.4355  0.5869
 2727SOL     OW19639   0.464   3.505   9.153  0.0919  0.0015 -0.5211
 2727SOL    HW119640   0.452   3.414   9.181 -1.9287  0.4560  0.0501
 2727SOL    HW219641   0.534   3.529   9.214 -0.9940  0.7318  0.4218
 2728SOL     OW19642   3.038   1.172   6.839  0.1927 -0.0268 -0.5170
 2728SOL    HW119643   3.118   1.178   6.892 -1.2526  1.3951  1.5139
 2728SOL    HW219644   3.003   1.261   6.847  0.1470 -0.2029  1.3632
 2729SOL     OW19645   4.195   2.297   5.976 -0.2190  0.4113  0.0041
 2729SOL    HW119646   4.267   2.234   5.985 -1.2698 -0.7088  0.5499
 2729SOL    HW219647   4.227   2.374   6.023 -0.9808  1.8510 -1.8594
 2730SOL     OW19648   2.960   1.387   3.608  0.1521  0.0042 -0.0165
 2730SOL    HW119649   3.029   1.326   3.636 -0.4838  0.0149  1.5405
 2730SOL    HW219650   2.903   1.384   3.684  0.0151 -2.5834 -0.2176
 2731SOL     OW19651   2.109   0.275   1.493 -0.0885  0.4166  0.9473
 2731SOL    HW119652   2.136   0.245   1.406  0.3451 -2.5171  2.1132
 2731SOL    HW219653   2.014   0.280   1.480  0.4592  0.0137 -3.1047
 2732SOL     OW19654   2.718   0.107   3.405  0.0184  0.9122 -0.0215
 2732SOL    HW119655   2.678   0.183   3.362  0.1548  0.0570 -1.6389
 2732SOL    HW219656   2.729   0.044   3.335  3.1535  1.5893 -0.1666
 2733SOL     OW19657   3.217   3.895  16.683 -0.3479  0.4769 -0.2801
 2733SOL    HW119658   3.205   3.820  16.625  0.5159  1.3056 -1.5329
 2733SOL    HW219659   3.307   3.926  16.678 -0.1099 -0.0089  1.0187
 2734SOL     OW19660   2.015   2.016  11.944 -0.5128 -0.1673  0.0354
 2734SOL    HW119661   1.991   1.934  11.901  0.1276  0.7657 -2.0985
 2734SOL    HW219662   2.028   2.080  11.874  0.2105  0.7977  1.0528
 2735SOL     OW19663   0.740   1.197  16.483 -0.3713 -0.2517 -0.2550
 2735SOL    HW119664   0.821   1.239  16.452 -0.3738 -1.5558 -1.9921
 2735SOL    HW219665   0.741   1.118  16.429  4.3279 -0.4106 -0.0101
 2736SOL     OW19666   2.621   2.382   5.941 -0.4943 -0.2474  0.4792
 2736SOL    HW119667   2.568   2.396   6.019  0.1874  2.6467  0.4403
 2736SOL    HW219668   2.678   2.459   5.948 -0.7472 -0.0628  0.5369
 2737SOL     OW19669   4.684   4.200   9.250  0.0378 -0.0820  0.0826
 2737SOL    HW119670   4.688   4.210   9.155 -2.1189 -0.5388 -0.0709
 2737SOL    HW219671   4.677   4.290   9.282 -0.3418 -1.1901  3.1264
 2738SOL     OW19672   0.264   0.898   2.423  0.4857 -0.0926  0.6793
 2738SOL    HW119673   0.201   0.837   2.384  1.6237 -0.8592  0.0339
 2738SOL    HW219674   0.233   0.895   2.514 -1.2581 -0.5275  0.0777
 2739SOL     OW19675   1.382   4.294   5.953 -0.0898  0.2167  0.1739
 2739SOL    HW119676   1.322   4.220   5.941 -0.4327  0.3187  1.2437
 2739SOL    HW219677   1.354   4.359   5.888  0.3021  0.7839  0.5703
 2740SOL     OW19678   4.361   2.180   3.921 -0.4592 -0.3017 -0.2773
 2740SOL    HW119679   4.303   2.253   3.940 -0.3721  0.2744 -2.1772
 2740SOL    HW219680   4.305   2.109   3.951  1.9214 -1.8274  0.5537
 2741SOL     OW19681   2.845   1.415  14.678  0.4420 -0.5698  0.1680
 2741SOL    HW119682   2.755   1.386  14.691  0.4629 -0.9827 -0.6491
 2741SOL    HW219683   2.883   1.334  14.713 -2.2134 -2.3651 -1.1577
 2742SOL     OW19684   1.633   3.205   4.594 -0.2595 -0.1724 -0.8204
 2742SOL    HW119685   1.652   3.165   4.509  0.6682  2.1332 -1.6973
 2742SOL    HW219686   1.568   3.149   4.637 -1.1424  0.7653 -0.9342
 2743SOL     OW19687   0.906   0.309   7.511 -0.3685  0.6090 -0.1930
 2743SOL    HW119688   0.834   0.323   7.573 -0.1067 -1.9121  0.6793
 2743SOL    HW219689   0.892   0.224   7.469  2.1362 -0.6782  1.6042
 2744SOL     OW19690   3.873   3.002   3.129 -0.1975 -0.5017  0.7911
 2744SOL    HW119691   3.796   3.002   3.186 -0.0909 -1.0018  0.9417
 2744SOL    HW219692   3.943   3.002   3.194 -0.2945  0.0047  0.8940
 2745SOL     OW19693   3.825   3.007   7.303  0.1709 -0.0305 -0.5168
 2745SOL    HW119694   3.881   2.938   7.337  3.3103  1.5289 -2.5399
 2745SOL    HW219695   3.843   3.080   7.363  1.1472 -0.7286  0.0389
 2746SOL     OW19696   1.928   4.189   7.137  0.1846 -0.4619 -0.4351
 2746SOL    HW119697   1.839   4.187   7.102 -1.1250  0.6444  2.8470
 2746SOL    HW219698   1.918   4.138   7.217 -0.6272 -0.3540 -0.4680
 2747SOL     OW19699   2.017   3.967   0.683  0.1772 -0.3550  0.4275
 2747SOL    HW119700   2.028   4.009   0.598 -1.7747  0.6246  0.6528
 2747SOL    HW219701   1.924   3.945   0.672  0.0395  0.7201 -0.4990
 2748SOL     OW19702   0.588   1.483   2.436 -0.8262 -0.2771  0.3248
 2748SOL    HW119703   0.539   1.441   2.365  0.0691  1.6985 -1.4622
 2748SOL    HW219704   0.594   1.412   2.500  3.4851  1.2902  1.6779
 2749SOL     OW19705   3.801   4.139   2.369 -0.2459 -0.0782  0.5711
 2749SOL    HW119706   3.724   4.086   2.349  0.4512 -0.8390 -0.1076
 2749SOL    HW219707   3.827   4.091   2.447 -0.8105  0.0886  0.8625
 2750SOL     OW19708   3.633   3.950   5.074  0.6106  0.2885  0.6530
 2750SOL    HW119709   3.602   3.907   5.153  2.8953 -1.4860  0.5814
 2750SOL    HW219710   3.592   4.036   5.083  0.6391  0.6726 -2.6031
 2751SOL     OW19711   0.967   1.127  17.474  0.2313  0.1718  0.2354
 2751SOL    HW119712   1.050   1.107  17.431 -0.3467 -1.4781 -0.0984
 2751SOL    HW219713   0.978   1.108  17.567 -1.0588  1.1046  0.5766
 2752SOL     OW19714   4.148   4.233   7.726 -0.3461  0.3506 -0.5391
 2752SOL    HW119715   4.219   4.297   7.727 -0.0408  0.0217 -2.1817
 2752SOL    HW219716   4.138   4.219   7.820  1.8748  0.1990 -0.3225
 2753SOL     OW19717   4.478   2.716  16.097  0.5047  0.8622 -0.6069
 2753SOL    HW119718   4.394   2.681  16.067  0.1392  0.4363  0.9232
 2753SOL    HW219719   4.473   2.693  16.190 -1.2262  0.5771 -0.7620
 2754SOL     OW19720   1.464   3.876   6.085  0.6726 -0.4067 -0.5199
 2754SOL    HW119721   1.464   3.786   6.116 -2.4071 -0.1353  0.3056
 2754SOL    HW219722   1.456   3.921   6.170  0.1319 -2.3976  0.4689
 2755SOL     OW19723   1.235   1.796  16.962  0.2362  0.2049  0.5005
 2755SOL    HW119724   1.279   1.876  16.933  0.4966 -0.9746 -2.3670
 2755SOL    HW219725   1.198   1.833  17.042 -0.5819  1.9064 -0.6662
 2756SOL     OW19726   0.219   4.529   2.369  0.1540  0.1558 -0.2282
 2756SOL    HW119727   0.301   4.574   2.349  0.8442 -1.7663 -1.8254
 2756SOL    HW219728   0.252   4.447   2.405 -2.0188 -1.4262 -1.7661
 2757SOL     OW19729   3.518   3.384   4.866  0.3747  0.4443 -1.3078
 2757SOL    HW119730   3.544   3.331   4.941 -0.1992  0.9582 -0.7460
 2757SOL    HW219731   3.462   3.448   4.911  0.7484 -0.7681  0.8681
 2758SOL     OW19732   2.238   1.984  13.403 -0.0712 -0.3991 -0.1289
 2758SOL    HW119733   2.332   1.992  13.383 -0.2684 -3.3127 -2.1127
 2758SOL    HW219734   2.213   2.063  13.356 -2.3260 -1.3771 -0.5475
 2759SOL     OW19735   3.212   2.667   0.206 -0.4378  0.0800 -0.8107
 2759SOL    HW119736   3.142   2.601   0.209 -1.8679  1.5666 -1.7403
 2759SOL    HW219737   3.244   2.656   0.117  1.4568  0.8256 -0.2184
 2760SOL     OW19738   1.574   3.424  10.985  0.0472  0.5037  0.1785
 2760SOL    HW119739   1.493   3.408  10.936 -0.5883  2.0126  0.7433
 2760SOL    HW219740   1.558   3.512  11.017 -0.5125  1.0475 -1.5608
 2761SOL     OW19741   1.732   0.222   8.718  0.5793 -0.0011 -0.3497
 2761SOL    HW119742   1.790   0.298   8.727  1.5813 -0.8349  0.1784
 2761SOL    HW219743   1.657   0.249   8.771 -1.9482 -2.1715 -2.8666
 2762SOL     OW19744   2.384   4.039  11.395 -0.4941 -0.1266 -0.3418
 2762SOL    HW119745   2.302   4.045  11.444 -0.0067  0.6852  0.3704
 2762SOL    HW219746   2.453   4.034  11.462 -0.6370 -0.2465 -0.2045
 2763SOL     OW19747   3.846   4.356   6.369  0.5489 -0.8199 -0.0420
 2763SOL    HW119748   3.786   4.331   6.299 -0.3454  3.4576 -0.7685
 2763SOL    HW219749   3.798   4.403   6.437  0.0953 -1.1888 -0.1056
 2764SOL     OW19750   3.689   2.324   5.777  0.1840 -0.8549  0.1971
 2764SOL    HW119751   3.685   2.419   5.771  2.3265 -0.6497  2.1830
 2764SOL    HW219752   3.784   2.313   5.775  0.1511 -1.7342  3.4626
 2765SOL     OW19753   3.977   4.249   0.501 -0.2911  0.0051  0.3471
 2765SOL    HW119754   3.984   4.160   0.535 -0.2296  0.9467  2.7701
 2765SOL    HW219755   4.067   4.280   0.503 -0.6590  1.2544 -2.7158
 2766SOL     OW19756   0.073   2.674   6.972  0.7052 -0.1437 -0.1798
 2766SOL    HW119757   0.120   2.696   6.891 -1.6085  2.0080 -0.9197
 2766SOL    HW219758   4.715   2.632   6.936  1.0646 -0.3574 -0.7103
 2767SOL     OW19759   1.540   3.696  11.057  0.2673 -0.1386 -0.2069
 2767SOL    HW119760   1.496   3.772  11.095 -1.1810 -1.0909  0.0379
 2767SOL    HW219761   1.622   3.733  11.024  0.2572  1.5754  1.6802
 2768SOL     OW19762   4.016   1.253  14.646 -0.0440  0.4482 -0.5954
 2768SOL    HW119763   4.044   1.259  14.554 -0.1261 -1.1046 -0.7167
 2768SOL    HW219764   4.024   1.160  14.667  0.7476  0.0992 -2.4434
 2769SOL     OW19765   2.770   4.236  15.064  0.2698  0.1186  0.1891
 2769SOL    HW119766   2.684   4.276  15.055  0.6529  0.7631 -0.6499
 2769SOL    HW219767   2.758   4.166  15.127 -0.0778 -0.3953 -0.4545
 2770SOL     OW19768   4.096   4.194   6.635  0.0111  0.3167  0.3028
 2770SOL    HW119769   4.004   4.169   6.627 -0.5639  2.2323  1.0258
 2770SOL    HW219770   4.089   4.251   6.712 -1.6749  0.2326  0.2109
 2771SOL     OW19771   2.059   2.264   2.675  1.2640  0.1145  0.0771
 2771SOL    HW119772   2.009   2.185   2.657 -1.5239  1.2544  2.7626
 2771SOL    HW219773   2.066   2.291   2.583 -2.5244 -0.7679 -0.5009
 2772SOL     OW19774   3.136   1.110  17.549  0.0968 -0.3469  0.5128
 2772SOL    HW119775   3.213   1.163  17.525 -0.1929  0.8606  2.2502
 2772SOL    HW219776   3.127   1.038  17.486  0.0367  0.4961 -0.4442
 2773SOL     OW19777   4.576   0.802   1.456  0.5660  0.0764  0.2127
 2773SOL    HW119778   4.576   0.853   1.537 -3.6212  0.7283 -0.1692
 2773SOL    HW219779   4.662   0.820   1.419  0.7811  2.4929  1.8626
 2774SOL     OW19780   4.237   1.112  16.804  0.4688  0.1715 -0.3615
 2774SOL    HW119781   4.220   1.126  16.711  1.2460  1.4346 -0.3120
 2774SOL    HW219782   4.303   1.179  16.821  0.4200 -0.0598  0.7367
 2775SOL     OW19783   0.037   0.723   5.557 -0.4092  1.0430 -0.2512
 2775SOL    HW119784   0.008   0.789   5.620  0.8029  1.3655 -0.0368
 2775SOL    HW219785   0.089   0.774   5.496 -1.2047  0.1664 -1.6607
 2776SOL     OW19786   2.539   1.068   4.719  0.2291 -0.1149  0.0968
 2776SOL    HW119787   2.552   1.008   4.792  0.9942  0.4570  0.4330
 2776SOL    HW219788   2.460   1.030   4.682 -1.3363  1.7952  1.5125
 2777SOL     OW19789   2.414   1.175   3.516  0.2358 -0.1288  0.2637
 2777SOL    HW119790   2.351   1.244   3.496 -0.4160  0.1094  3.2413
 2777SOL    HW219791   2.346   1.117   3.548  1.4297 -1.9739 -0.5201
 2778SOL     OW19792   3.497   4.472   8.386 -0.0501  0.6987  0.3142
 2778SOL    HW119793   3.565   4.410   8.359  0.4514  1.2841  0.2415
 2778SOL    HW219794   3.554   4.546   8.409 -0.2684  1.2732 -1.0372
 2779SOL     OW19795   0.353   1.428  16.002 -0.4977  0.2945  0.0090
 2779SOL    HW119796   0.288   1.380  15.951 -0.8852  0.1402  0.6611
 2779SOL    HW219797   0.301   1.482  16.061  1.1946  1.5521  0.3684
 2780SOL     OW19798   4.623   2.046   7.725  0.0441 -0.6557  0.3474
 2780SOL    HW119799   4.704   2.081   7.688  0.0730 -1.5062 -0.4170
 2780SOL    HW219800   4.573   2.047   7.643  0.6524  0.6600 -0.0050
 2781SOL     OW19801   1.915   0.824   1.750  0.0990  0.3337 -0.0292
 2781SOL    HW119802   1.824   0.816   1.776  0.3493 -0.0075  0.7560
 2781SOL    HW219803   1.942   0.732   1.747 -0.3245  0.1440  2.4059
 2782SOL     OW19804   3.568   1.895   2.561 -0.4626  0.5593 -0.0445
 2782SOL    HW119805   3.568   1.928   2.471  1.6209  0.9136  0.0870
 2782SOL    HW219806   3.622   1.951   2.616 -1.2619  1.3866 -0.0943
 2783SOL     OW19807   3.050   1.422  16.246 -0.3533 -0.8923  0.7140
 2783SOL    HW119808   3.015   1.333  16.236  3.0932 -2.2193  0.3871
 2783SOL    HW219809   3.144   1.405  16.248 -0.3367 -0.2445  3.8107
 2784SOL     OW19810   0.656   0.080   1.628 -0.6230 -0.2749 -0.0009
 2784SOL    HW119811   0.627   4.710   1.642 -0.2085 -0.4895 -0.5450
 2784SOL    HW219812   0.570   0.122   1.616 -0.4714  0.1790  0.4877
 2785SOL     OW19813   0.322   1.293   6.782  0.6382 -0.0655 -0.0150
 2785SOL    HW119814   0.298   1.203   6.806 -1.9595  0.3552 -1.0334
 2785SOL    HW219815   0.354   1.329   6.865 -4.1795  0.9099  1.4451
 2786SOL     OW19816   2.934   0.291   6.131  0.5601 -0.2591  0.2878
 2786SOL    HW119817   2.976   0.312   6.048 -1.7047 -1.7140 -1.2093
 2786SOL    HW219818   2.944   0.377   6.173  3.8902 -1.2012  1.4341
 2787SOL     OW19819   3.938   2.656   2.271  0.2861 -0.6047  0.5555
 2787SOL    HW119820   3.977   2.647   2.358  1.3559  1.2027  0.2584
 2787SOL    HW219821   3.882   2.733   2.288  0.3198 -0.6149  0.7170
 2788SOL     OW19822   3.578   0.819  12.551 -0.6248  1.0929 -0.3763
 2788SOL    HW119823   3.655   0.874  12.538  1.9216 -2.3384  0.2754
 2788SOL    HW219824   3.571   0.785  12.462 -1.7358  0.6909 -0.1334
 2789SOL     OW19825   3.307   2.040  10.118 -0.0323  0.0069  0.0387
 2789SOL    HW119826   3.312   2.132  10.092  1.9257 -0.4813 -1.3332
 2789SOL    HW219827   3.226   2.015  10.073  1.5802 -1.9176 -1.7942
 2790SOL     OW19828   3.283   3.079   2.385  0.1886 -0.1397 -0.5023
 2790SOL    HW119829   3.355   3.018   2.370  0.4115  0.0014 -0.0037
 2790SOL    HW219830   3.213   3.021   2.413 -1.4564  0.8765 -2.4756
 2791SOL     OW19831   2.463   1.082  11.983  0.0965 -0.2089  0.4258
 2791SOL    HW119832   2.451   1.026  12.060  0.8710 -1.2571 -0.2215
 2791SOL    HW219833   2.539   1.135  12.007  1.2857 -1.5587 -0.4046
 2792SOL     OW19834   4.238   3.585   9.806 -0.6395  0.0355 -0.0209
 2792SOL    HW119835   4.183   3.524   9.756 -1.3173  0.7879 -0.2004
 2792SOL    HW219836   4.199   3.668   9.777 -3.2841 -1.2121 -0.0539
 2793SOL     OW19837   1.752   4.519   8.478 -0.1736 -0.1804 -0.0244
 2793SOL    HW119838   1.798   4.493   8.558 -2.1252  0.1415  1.2059
 2793SOL    HW219839   1.678   4.464   8.502  0.3279 -0.2779  1.3243
 2794SOL     OW19840   2.614   4.248  10.655 -0.2993  0.3076 -0.0001
 2794SOL    HW119841   2.595   4.223  10.746 -1.4737  1.7676  0.1537
 2794SOL    HW219842   2.698   4.291  10.672 -0.1836  0.6178 -1.3552
 2795SOL     OW19843   1.525   3.212   1.682  0.0702 -0.0783 -0.2322
 2795SOL    HW119844   1.594   3.241   1.622  0.2683 -1.2312 -0.5651
 2795SOL    HW219845   1.492   3.298   1.707 -0.2242  0.2422 -1.7323
 2796SOL     OW19846   4.375   1.716  10.995  0.2933  0.1914  0.9755
 2796SOL    HW119847   4.380   1.650  10.925  1.5042  1.2180  0.1011
 2796SOL    HW219848   4.290   1.755  10.975  1.2156  2.2731  1.1948
 2797SOL     OW19849   3.966   1.424  11.994 -0.1194  0.3254 -0.4764
 2797SOL    HW119850   3.871   1.417  11.981 -0.2377 -0.0659  0.5786
 2797SOL    HW219851   3.976   1.515  12.022 -0.0484  0.3734 -0.6571
 2798SOL     OW19852   1.830   1.926  12.152  0.1823  0.0703  0.3240
 2798SOL    HW119853   1.890   1.932  12.078 -1.6484 -1.9758 -1.3298
 2798SOL    HW219854   1.741   1.943  12.119  0.5009 -2.5787 -1.8755
 2799SOL     OW19855   4.702   0.043   3.883 -0.0599 -0.0227  0.7929
 2799SOL    HW119856   0.039   0.110   3.920 -0.2400  0.2953  0.4836
 2799SOL    HW219857   4.628   0.045   3.944 -0.8637  0.2191 -0.2066
 2800SOL     OW19858   1.871   3.470  13.387  0.2003  0.2426  0.2831
 2800SOL    HW119859   1.887   3.409  13.458 -0.9710  0.1399  0.4702
 2800SOL    HW219860   1.797   3.520  13.422 -1.1389 -1.3625 -0.2331
 2801SOL     OW19861   3.096   3.123   2.803 -0.2574 -0.3887 -0.3428
 2801SOL    HW119862   3.078   3.131   2.897  1.1863  0.6188 -0.1606
 2801SOL    HW219863   3.036   3.055   2.771  0.1612 -1.4065  1.0459
 2802SOL     OW19864   2.999   0.677   5.673 -0.1507 -0.5486  0.1742
 2802SOL    HW119865   2.943   0.611   5.633 -0.5436  0.1591 -0.4231
 2802SOL    HW219866   3.082   0.666   5.627 -0.8535 -1.0483 -0.9797
 2803SOL     OW19867   0.177   1.493   2.320 -0.3805 -0.2420 -0.1680
 2803SOL    HW119868   0.086   1.476   2.297 -1.1406  1.5994  1.5038
 2803SOL    HW219869   0.197   1.555   2.251 -1.8797 -0.7689 -1.0771
 2804SOL     OW19870   0.360   1.407   9.013  0.0244  0.0836 -0.0079
 2804SOL    HW119871   0.351   1.472   8.944  0.7420  2.1369  1.8036
 2804SOL    HW219872   0.454   1.390   9.003 -0.0154 -0.4110  0.4648
 2805SOL     OW19873   4.061   2.297   4.155 -0.0708  0.3985  0.1684
 2805SOL    HW119874   3.967   2.313   4.165 -0.0217  0.6942  0.1605
 2805SOL    HW219875   4.100   2.329   4.236  0.8568  1.1257 -0.5582
 2806SOL     OW19876   4.612   0.359   8.174  0.0431 -0.3179 -0.2223
 2806SOL    HW119877   4.669   0.316   8.111 -0.6679 -1.6925  0.0575
 2806SOL    HW219878   4.609   0.284   8.235 -1.6051 -2.2649 -2.6892
 2807SOL     OW19879   4.014   3.929   5.291 -0.1480 -0.1069 -0.2136
 2807SOL    HW119880   4.066   3.915   5.212  0.7135 -3.3087  0.9288
 2807SOL    HW219881   4.081   3.976   5.340 -0.9466  0.3464  0.4454
 2808SOL     OW19882   0.677   1.112  10.337  0.0367 -0.2531 -0.1724
 2808SOL    HW119883   0.772   1.097  10.336  0.1682  0.5021  3.5192
 2808SOL    HW219884   0.645   1.034  10.382 -3.0494  0.6181 -0.8154
 2809SOL     OW19885   0.774   3.697  15.547 -0.2890 -0.6901 -0.3416
 2809SOL    HW119886   0.707   3.719  15.612  1.2792 -0.0492  1.0438
 2809SOL    HW219887   0.774   3.782  15.502  0.1611 -0.1163  0.7480
 2810SOL     OW19888   1.941   4.350   4.988  0.0289 -0.3611  0.8233
 2810SOL    HW119889   1.915   4.260   5.010 -2.8709  0.3828  0.4300
 2810SOL    HW219890   1.876   4.379   4.925  1.8956  0.5142 -0.6786
 2811SOL     OW19891   0.775   1.754   2.994 -0.1326  0.4045  0.2011
 2811SOL    HW119892   0.779   1.789   2.905 -0.0157  1.8797  0.7821
 2811SOL    HW219893   0.863   1.717   2.996 -0.6214 -0.8641 -2.1216
 2812SOL     OW19894   3.955   3.620  13.251 -0.0644 -0.2469  0.0959
 2812SOL    HW119895   3.946   3.647  13.342 -1.1006  2.0669 -0.7067
 2812SOL    HW219896   3.995   3.701  13.221  0.3149 -0.1878  0.7750
 2813SOL     OW19897   3.238   3.824  14.316  0.0657 -0.4021 -0.2295
 2813SOL    HW119898   3.225   3.917  14.296 -0.7786 -0.7240 -1.1766
 2813SOL    HW219899   3.236   3.835  14.411 -0.2821  0.6868 -0.3715
 2814SOL     OW19900   2.580   3.662   3.759 -0.5946 -0.1062  0.4336
 2814SOL    HW119901   2.608   3.572   3.776  2.8993  1.3985  2.5456
 2814SOL    HW219902   2.496   3.672   3.802 -0.6818 -0.4627  0.3470
 2815SOL     OW19903   1.609   3.320   4.915 -0.1818  0.5688 -0.0756
 2815SOL    HW119904   1.591   3.377   4.840 -1.4838  1.9457  1.3006
 2815SOL    HW219905   1.697   3.296   4.886  1.1808  2.5600  2.4263
 2816SOL     OW19906   4.528   2.812   4.581 -0.3444  0.4320  0.1681
 2816SOL    HW119907   4.606   2.863   4.560  0.8155 -0.9615  1.0895
 2816SOL    HW219908   4.516   2.827   4.674 -1.4319 -1.0640  0.2791
 2817SOL     OW19909   4.197   2.660  15.982 -0.0104 -0.3752  0.3258
 2817SOL    HW119910   4.137   2.733  15.993 -0.4848 -0.7364  0.1270
 2817SOL    HW219911   4.185   2.635  15.890  0.7949  1.1115 -0.1955
 2818SOL     OW19912   4.198   0.285   5.425  0.6361 -0.0373  0.0287
 2818SOL    HW119913   4.165   0.204   5.387  3.8757 -1.7132  0.7761
 2818SOL    HW219914   4.182   0.258   5.516 -2.4989 -1.2539 -0.8868
 2819SOL     OW19915   1.865   4.395   8.675  0.1053  0.2725 -0.1730
 2819SOL    HW119916   1.916   4.317   8.657  1.3205  1.2513 -0.9334
 2819SOL    HW219917   1.889   4.418   8.765 -2.2331  0.2182  0.4799
 2820SOL     OW19918   4.710   3.446   9.049 -0.3664  0.6175  0.0823
 2820SOL    HW119919   4.664   3.451   9.133  1.0210 -0.7801  0.9243
 2820SOL    HW219920   0.066   3.491   9.088  0.9688  0.0056 -1.8346
 2821SOL     OW19921   4.258   0.788   5.903  0.3021 -0.2554 -0.5661
 2821SOL    HW119922   4.275   0.790   5.809 -0.7549  0.1505 -0.7457
 2821SOL    HW219923   4.234   0.696   5.919  0.1850 -0.3370 -1.1963
 2822SOL     OW19924   1.728   2.820   5.415  0.3881 -0.1282  0.3224
 2822SOL    HW119925   1.731   2.916   5.410 -1.0805 -0.0771  0.4769
 2822SOL    HW219926   1.763   2.814   5.504 -1.9189  0.7976  1.3012
 2823SOL     OW19927   4.381   1.888   7.842 -1.0449  0.2465 -0.1973
 2823SOL    HW119928   4.455   1.921   7.792 -1.7633  0.8586 -0.8650
 2823SOL    HW219929   4.430   1.840   7.909  0.6703  2.9634  0.4881
 2824SOL     OW19930   0.498   3.143   8.411 -0.4143  0.6844 -0.3517
 2824SOL    HW119931   0.467   3.233   8.425  1.1901  1.0131  1.0762
 2824SOL    HW219932   0.514   3.101   8.495  1.8154  0.1261 -1.0533
 2825SOL     OW19933   3.879   2.554  14.462 -0.2380  0.1135  0.3995
 2825SOL    HW119934   3.898   2.515  14.547  0.7948  0.7977  0.4881
 2825SOL    HW219935   3.970   2.578  14.442 -0.2463 -0.0193  0.2033
 2826SOL     OW19936   4.473   2.631  16.352  0.2219 -0.2613 -0.2288
 2826SOL    HW119937   4.530   2.654  16.426 -0.6144 -0.2572  0.4146
 2826SOL    HW219938   4.416   2.559  16.379 -0.9542  0.3859 -0.9808
 2827SOL     OW19939   0.395   2.133   1.671 -0.0928  0.3937  0.1374
 2827SOL    HW119940   0.361   2.091   1.750 -0.5316 -0.5052 -0.5399
 2827SOL    HW219941   0.454   2.061   1.651 -0.5796 -0.5279  1.9716
 2828SOL     OW19942   4.082   3.218  15.357 -0.1100 -0.0736  0.3521
 2828SOL    HW119943   4.091   3.183  15.269 -2.0996 -0.4840  0.3294
 2828SOL    HW219944   3.991   3.198  15.376 -0.3810 -0.1230 -1.0515
 2829SOL     OW19945   0.412   1.013   3.832  0.0737 -0.6497 -0.0667
 2829SOL    HW119946   0.328   1.053   3.854  1.8903  2.3872  1.4353
 2829SOL    HW219947   0.444   1.061   3.756  0.3923  0.6436  0.8712
 2830SOL     OW19948   3.405   0.227   5.260  0.4198  0.5504  0.2812
 2830SOL    HW119949   3.394   0.182   5.344  0.8905 -1.7727 -0.9090
 2830SOL    HW219950   3.322   0.213   5.214  0.8748 -0.8472 -0.1063
 2831SOL     OW19951   1.387   4.308   2.288  0.0339 -0.4760 -0.3844
 2831SOL    HW119952   1.305   4.327   2.332  1.4924  0.4109  1.9596
 2831SOL    HW219953   1.449   4.351   2.347 -0.0643 -1.9893  0.8342
 2832SOL     OW19954   4.534   0.820   3.608 -0.0870  0.2338 -0.2543
 2832SOL    HW119955   4.475   0.763   3.657  1.2003  0.4839  1.6095
 2832SOL    HW219956   4.487   0.834   3.526 -1.6346  3.1825  1.1358
 2833SOL     OW19957   1.275   4.546   5.884 -0.2864  0.3609  0.5056
 2833SOL    HW119958   1.318   4.626   5.853  0.6861 -0.6578 -0.7738
 2833SOL    HW219959   1.244   4.576   5.970 -0.5023 -1.0095  0.9091
 2834SOL     OW19960   2.852   1.166   1.938  0.2123  0.2794 -0.2076
 2834SOL    HW119961   2.884   1.150   1.849  2.5091  0.0338  0.6551
 2834SOL    HW219962   2.768   1.195   1.902 -0.7085 -0.2387  1.5274
 2835SOL     OW19963   2.694   3.787   8.827 -0.2495  0.2199  0.0743
 2835SOL    HW119964   2.676   3.719   8.762  0.1952 -0.3230  0.5188
 2835SOL    HW219965   2.628   3.767   8.894  1.1589 -1.8230  0.8527
 2836SOL     OW19966   3.415   3.347   7.040  0.3106  0.2670 -0.2633
 2836SOL    HW119967   3.347   3.283   7.016 -0.1978  0.5206  0.4990
 2836SOL    HW219968   3.436   3.307   7.124 -1.5873 -0.4043 -0.0975
 2837SOL     OW19969   0.255   4.002   2.571  0.2628  0.1620  0.0511
 2837SOL    HW119970   0.328   3.960   2.616 -0.1296 -0.9395 -0.3387
 2837SOL    HW219971   0.252   4.083   2.622  1.3402  0.7815 -0.8608
 2838SOL     OW19972   1.839   4.495   3.591 -0.4476 -0.5799 -0.5698
 2838SOL    HW119973   1.754   4.455   3.571 -0.8903  0.7022 -1.2434
 2838SOL    HW219974   1.880   4.514   3.506 -2.0716  0.4624 -1.1088
 2839SOL     OW19975   2.772   0.550   9.075 -0.2535 -0.0928 -0.6455
 2839SOL    HW119976   2.798   0.481   9.136  1.4489  0.2225 -1.0172
 2839SOL    HW219977   2.846   0.581   9.023  0.4013 -0.0191  0.3170
 2840SOL     OW19978   3.460   4.465  16.392  0.4020 -0.1881 -0.2720
 2840SOL    HW119979   3.385   4.519  16.367  0.6290 -1.3309 -3.4694
 2840SOL    HW219980   3.455   4.464  16.487 -2.0668  0.1233 -0.3875
 2841SOL     OW19981   4.264   1.857   4.296 -0.0316  0.5715 -0.2263
 2841SOL    HW119982   4.244   1.791   4.363  0.2634 -0.0426 -0.7468
 2841SOL    HW219983   4.356   1.866   4.320 -0.0520 -0.7051  0.3491
 2842SOL     OW19984   3.178   1.477   4.870  0.0841 -0.2251 -0.1391
 2842SOL    HW119985   3.116   1.451   4.939 -0.0944 -0.7116 -0.4808
 2842SOL    HW219986   3.244   1.407   4.876 -0.0391 -0.4631 -1.5661
 2843SOL     OW19987   1.517   0.306   8.392  0.1868 -0.1459 -0.2904
 2843SOL    HW119988   1.526   0.303   8.296  0.7545  1.0890 -0.2793
 2843SOL    HW219989   1.561   0.388   8.413  0.0662 -0.1330 -0.0935
 2844SOL     OW19990   3.431   2.520   8.132  0.4681  0.5703  0.0671
 2844SOL    HW119991   3.396   2.607   8.151 -3.6520 -1.0706  0.1109
 2844SOL    HW219992   3.517   2.532   8.172  1.6131  1.2817 -2.6490
 2845SOL     OW19993   3.561   2.206   5.546 -0.0550 -0.2773  0.3606
 2845SOL    HW119994   3.598   2.222   5.633 -0.1316  1.1600  0.1394
 2845SOL    HW219995   3.586   2.114   5.536  0.4638 -0.0183 -0.8154
 2846SOL     OW19996   3.452   0.628   2.810 -0.0376 -0.3634 -0.1080
 2846SOL    HW119997   3.449   0.548   2.757  0.0584 -1.5427  1.6323
 2846SOL    HW219998   3.390   0.681   2.761 -0.0968 -0.5230 -0.2070
 2847SOL     OW19999   2.280   2.823   2.277 -0.5373  0.2043 -0.1974
 2847SOL    HW120000   2.250   2.909   2.306  0.2272  0.9444 -1.6056
 2847SOL    HW220001   2.339   2.833   2.202  1.0316 -1.7677  0.7960
 2848SOL     OW20002   1.425   1.055  14.957  0.4163  0.1762  0.2817
 2848SOL    HW120003   1.414   1.039  14.863  0.7192  2.0842 -0.0779
 2848SOL    HW220004   1.520   1.047  14.966  0.3822 -0.9844 -0.3306
 2849SOL     OW20005   1.924   0.404  15.579  0.7125 -0.3971 -0.4681
 2849SOL    HW120006   1.995   0.410  15.515  1.0400 -0.8878 -0.1479
 2849SOL    HW220007   1.861   0.459  15.531 -1.7852 -1.3340  1.7315
 2850SOL     OW20008   2.609   0.295   3.220 -0.0528  0.1033  0.3528
 2850SOL    HW120009   2.682   0.290   3.158  1.4855 -0.3013  2.2023
 2850SOL    HW220010   2.544   0.253   3.163  1.3406 -1.2187 -0.2694
 2851SOL     OW20011   3.830   2.139   6.296  0.4019 -0.0924 -0.0428
 2851SOL    HW120012   3.891   2.137   6.370  0.6025 -2.1043 -0.2692
 2851SOL    HW220013   3.897   2.146   6.228  1.8582 -0.7414  1.3391
 2852SOL     OW20014   3.400   3.182   5.535 -0.2410  0.0430 -0.3981
 2852SOL    HW120015   3.380   3.168   5.628 -0.9704  0.8055 -0.4390
 2852SOL    HW220016   3.427   3.091   5.520  1.5960  0.8116 -1.7425
 2853SOL     OW20017   3.281   4.167   4.900 -0.7125 -0.0941 -0.0909
 2853SOL    HW120018   3.290   4.226   4.826  0.3601 -1.1033 -0.7602
 2853SOL    HW220019   3.201   4.114   4.893 -0.4874 -0.7706  2.1998
 2854SOL     OW20020   4.437   2.710   9.882  0.5296  0.0384  0.1799
 2854SOL    HW120021   4.352   2.665   9.882  0.0774  0.8796  0.5474
 2854SOL    HW220022   4.450   2.728   9.789  0.6946  2.3521  0.6676
 2855SOL     OW20023   2.798   1.182   2.228  0.5855  0.2734 -0.3957
 2855SOL    HW120024   2.746   1.263   2.220 -1.0133 -0.5785  1.3936
 2855SOL    HW220025   2.780   1.143   2.143  2.6752 -0.9166 -0.2771
 2856SOL     OW20026   0.436   3.774   5.101  1.0829 -0.5869  0.3361
 2856SOL    HW120027   0.361   3.787   5.043  1.7277 -2.8321 -1.0023
 2856SOL    HW220028   0.399   3.734   5.180 -1.0822 -2.2130 -1.4844
 2857SOL     OW20029   3.306   4.421   7.304 -0.2900 -0.2031  0.3278
 2857SOL    HW120030   3.339   4.400   7.391  0.8048 -0.7874 -0.2303
 2857SOL    HW220031   3.238   4.486   7.320  0.1768  0.1996  0.6319
 2858SOL     OW20032   4.116   1.027   3.904 -0.4554 -0.0607  0.1656
 2858SOL    HW120033   4.191   1.082   3.928  0.5831 -1.0678 -0.7898
 2858SOL    HW220034   4.050   1.096   3.899 -1.3364 -0.9346 -0.4008
 2859SOL     OW20035   4.264   2.822   1.211 -0.0950 -0.0095 -0.0673
 2859SOL    HW120036   4.195   2.757   1.197  0.1366  0.3864 -3.1823
 2859SOL    HW220037   4.345   2.770   1.206 -0.6016 -0.7956 -0.1787
 2860SOL     OW20038   4.414   2.040   5.290  0.1659 -0.4360 -0.6178
 2860SOL    HW120039   4.470   2.004   5.359 -0.3387 -1.3453 -0.6776
 2860SOL    HW220040   4.478   2.089   5.239 -1.1971  0.6011 -1.3012
 2861SOL     OW20041   1.428   3.918   3.035  0.3508 -0.0442  0.1891
 2861SOL    HW120042   1.428   3.966   2.952 -0.6780 -0.3640  0.0039
 2861SOL    HW220043   1.380   3.839   3.013 -0.6774  0.2856  1.2630
 2862SOL     OW20044   3.115   4.381   8.190  0.2842  0.1292 -0.0477
 2862SOL    HW120045   3.210   4.375   8.180  0.2722 -1.9871  1.1585
 2862SOL    HW220046   3.096   4.305   8.245 -1.6342 -0.5494 -1.6633
 2863SOL     OW20047   4.441   0.831   2.863 -0.0663 -0.0764  0.3363
 2863SOL    HW120048   4.515   0.892   2.862 -0.4707  0.4508  2.8741
 2863SOL    HW220049   4.477   0.759   2.916 -0.2923 -1.0651 -0.8644
 2864SOL     OW20050   3.268   0.475  14.972 -0.7011  0.1159  0.0089
 2864SOL    HW120051   3.327   0.544  15.001  0.7500 -1.4804  0.8710
 2864SOL    HW220052   3.314   0.391  14.978  0.7329  0.9372  0.7080
 2865SOL     OW20053   3.829   1.719   8.079 -0.1198  0.2931  0.2363
 2865SOL    HW120054   3.815   1.638   8.127  0.7619  0.7918  1.3184
 2865SOL    HW220055   3.768   1.707   8.005 -2.3146  0.1407  2.0550
 2866SOL     OW20056   2.910   3.378   6.895 -0.0833 -0.3499 -0.7083
 2866SOL    HW120057   2.973   3.423   6.953  0.4001 -0.4908 -1.1250
 2866SOL    HW220058   2.957   3.390   6.812  2.2555 -1.0147  0.5098
 2867SOL     OW20059   4.153   4.347   3.900  0.1984 -0.1229 -0.0757
 2867SOL    HW120060   4.102   4.285   3.847 -1.0175  0.1069  0.8144
 2867SOL    HW220061   4.189   4.392   3.824  0.0552 -1.1384 -0.7428
 2868SOL     OW20062   0.097   0.799   6.299  0.1473  0.3707 -0.3599
 2868SOL    HW120063   0.108   0.884   6.341  2.0791  0.4896 -1.1164
 2868SOL    HW220064   0.012   0.823   6.262 -0.4046  0.8030  1.2132
 2869SOL     OW20065   1.698   3.807  14.024  0.1445 -0.3144  0.4314
 2869SOL    HW120066   1.656   3.812  14.110 -0.6110  0.3650  0.0206
 2869SOL    HW220067   1.789   3.834  14.040  0.0475 -0.6690  1.5877
 2870SOL     OW20068   1.698   2.097  15.919 -1.0229  0.4042 -0.1012
 2870SOL    HW120069   1.709   2.190  15.936 -0.2688  0.2669  0.1926
 2870SOL    HW220070   1.685   2.105  15.825  0.5892  1.5110 -0.2242
 2871SOL     OW20071   0.110   3.167  10.296  0.1276  0.1603  0.1858
 2871SOL    HW120072   0.118   3.230  10.367 -0.9983 -0.6026  0.9963
 2871SOL    HW220073   0.058   3.216  10.232 -0.4126 -1.0958 -0.3361
 2872SOL     OW20074   0.041   1.493   8.022  0.4654  0.5639  0.1387
 2872SOL    HW120075   0.104   1.434   8.063  0.9569  0.9001 -0.1250
 2872SOL    HW220076   0.089   1.576   8.029  0.7487  0.4616 -0.5679
 2873SOL     OW20077   4.490   1.853   4.415 -0.2275  0.1170 -0.8103
 2873SOL    HW120078   4.566   1.818   4.368  0.1627 -2.1137  1.4787
 2873SOL    HW220079   4.481   1.784   4.481  3.9318 -0.8674 -1.2553
 2874SOL     OW20080   2.192   1.627   9.955  0.5953 -0.8648 -0.4708
 2874SOL    HW120081   2.182   1.699   9.893 -2.5139 -0.0845  0.9630
 2874SOL    HW220082   2.166   1.553   9.901 -1.8914 -0.9553  0.8570
 2875SOL     OW20083   4.665   3.762   0.078 -0.3338  0.5219  0.0810
 2875SOL    HW120084   4.596   3.795   0.020 -0.2110 -1.2392 -1.0806
 2875SOL    HW220085   0.018   3.780   0.020 -0.2645 -0.7495 -0.2406
 2876SOL     OW20086   0.441   1.690   3.084 -0.0904  0.0373  0.3015
 2876SOL    HW120087   0.532   1.670   3.066 -0.7538 -1.2845 -1.6001
 2876SOL    HW220088   0.455   1.676   3.178 -0.3096 -1.7797  0.0473
 2877SOL     OW20089   1.239   4.687   8.091 -0.2338 -0.3146 -1.0748
 2877SOL    HW120090   1.253   4.707   7.998  2.4023 -1.2425 -0.8846
 2877SOL    HW220091   1.150   4.653   8.089 -0.7381  0.8840  0.8581
 2878SOL     OW20092   0.960   2.588   4.979  0.2493  0.8438 -0.6128
 2878SOL    HW120093   0.985   2.525   5.047 -0.1212  2.0696  0.6664
 2878SOL    HW220094   0.882   2.548   4.942  1.4231  0.0531 -2.2280
 2879SOL     OW20095   0.078   4.609   3.020 -0.0936 -0.2911  0.5076
 2879SOL    HW120096   0.133   4.644   2.949 -0.2434  0.1915  0.6288
 2879SOL    HW220097   0.097   4.684   3.077  0.2055 -0.9575  1.2893
 2880SOL     OW20098   1.514   2.062   6.177  0.5169 -0.3348  0.2194
 2880SOL    HW120099   1.485   2.144   6.136  0.6670 -0.5091 -0.2261
 2880SOL    HW220100   1.608   2.076   6.192  0.8844 -0.3019 -2.1862
 2881SOL     OW20101   2.697   3.525   5.952 -0.4234 -0.0733 -0.3393
 2881SOL    HW120102   2.636   3.576   5.899 -0.8750 -1.8866 -1.5780
 2881SOL    HW220103   2.770   3.584   5.970  1.2632 -3.2191  3.1357
 2882SOL     OW20104   3.454   0.344   8.067 -0.3528 -0.1610 -0.0729
 2882SOL    HW120105   3.465   0.374   7.977  0.9947 -0.7955 -0.1258
 2882SOL    HW220106   3.392   0.272   8.061 -2.7334  1.7545  1.6636
 2883SOL     OW20107   3.189   1.571   2.377 -0.5274  0.1459 -0.5108
 2883SOL    HW120108   3.110   1.601   2.332 -1.9318 -2.9327 -0.0631
 2883SOL    HW220109   3.241   1.651   2.377 -0.9894  0.4712  1.8761
 2884SOL     OW20110   1.835   3.955   4.489 -0.1879 -0.3012 -0.4029
 2884SOL    HW120111   1.919   3.992   4.462 -0.3865 -0.8021 -1.7271
 2884SOL    HW220112   1.878   3.881   4.532 -2.2231 -2.4843 -2.1005
 2885SOL     OW20113   2.388   1.135   1.700 -0.6321 -0.1384  0.1151
 2885SOL    HW120114   2.370   1.073   1.771  0.9066  1.8768  2.2503
 2885SOL    HW220115   2.430   1.083   1.631 -2.4515 -2.4617  0.7431
 2886SOL     OW20116   2.099   2.224  10.924  0.4699 -0.3194  0.1653
 2886SOL    HW120117   2.018   2.274  10.939  0.1194 -1.6544  2.7581
 2886SOL    HW220118   2.091   2.193  10.833 -0.6424  0.9951 -0.1870
 2887SOL     OW20119   3.645   4.461   6.522 -0.3774 -0.3884  0.2117
 2887SOL    HW120120   3.675   4.475   6.612  0.1384  0.5090 -0.0963
 2887SOL    HW220121   3.573   4.400   6.537 -0.8879  0.2648  0.3861
 2888SOL     OW20122   4.330   2.680  13.045 -0.0063 -0.5084  0.1113
 2888SOL    HW120123   4.300   2.624  12.973 -1.0563 -0.9309  0.8763
 2888SOL    HW220124   4.425   2.669  13.047  0.1055  0.2541 -1.2090
 2889SOL     OW20125   2.368   3.519   2.383 -0.5252 -0.0152  0.8737
 2889SOL    HW120126   2.352   3.442   2.438 -0.4196 -1.7623 -1.5342
 2889SOL    HW220127   2.434   3.560   2.439 -0.4019  2.1027 -0.8306
 2890SOL     OW20128   0.446   3.536   4.601  0.2242  0.2935  0.4813
 2890SOL    HW120129   0.452   3.617   4.653 -0.3517  1.2629 -0.9654
 2890SOL    HW220130   0.355   3.556   4.579  0.5284  0.5456 -0.5520
 2891SOL     OW20131   1.449   2.171  16.498 -0.5499  0.0656 -0.6040
 2891SOL    HW120132   1.378   2.119  16.535  1.2525 -0.7113  1.7339
 2891SOL    HW220133   1.512   2.099  16.490  0.6343  0.6570  3.1493
 2892SOL     OW20134   1.987   1.267   1.419 -0.0796 -0.1924  0.2699
 2892SOL    HW120135   1.891   1.268   1.425 -0.0456 -0.6842  0.8229
 2892SOL    HW220136   2.007   1.188   1.468 -2.3363 -0.7272  0.3357
 2893SOL     OW20137   0.455   0.933   5.335 -0.3570  0.1836  0.0822
 2893SOL    HW120138   0.483   1.004   5.393 -1.1412 -0.1920  0.9182
 2893SOL    HW220139   0.519   0.866   5.359 -2.5341 -1.5341  1.0107
 2894SOL     OW20140   2.863   3.880   9.423  0.2003 -0.3406 -0.7054
 2894SOL    HW120141   2.784   3.829   9.407  1.8411 -2.5175 -1.9697
 2894SOL    HW220142   2.825   3.967   9.407 -0.6085 -0.3882  0.9329
 2895SOL     OW20143   1.484   4.033   7.856  0.5741 -0.7558 -0.4236
 2895SOL    HW120144   1.394   4.054   7.883  1.3008  0.2909  1.2110
 2895SOL    HW220145   1.476   3.972   7.783 -1.0158 -1.1792  0.1012
 2896SOL     OW20146   0.262   2.861  15.494  0.4022  0.2634  0.0430
 2896SOL    HW120147   0.329   2.882  15.560  0.3351 -0.0131  0.1996
 2896SOL    HW220148   0.198   2.812  15.545  0.4432  0.2000  0.0336
 2897SOL     OW20149   4.338   1.407   6.519  0.2180 -0.2473 -0.0520
 2897SOL    HW120150   4.270   1.465   6.551 -0.0522 -0.6950  0.1861
 2897SOL    HW220151   4.383   1.461   6.454 -2.6549  1.3603 -0.6874
 2898SOL     OW20152   4.303   0.327   8.157 -0.5028  0.2077 -0.2412
 2898SOL    HW120153   4.357   0.249   8.161 -1.2334 -0.1743  1.8906
 2898SOL    HW220154   4.355   0.386   8.102 -1.1869  0.8545 -0.2084
 2899SOL     OW20155   0.858   0.274   9.945 -0.2069 -0.0230 -0.3941
 2899SOL    HW120156   0.795   0.217   9.902  0.6062  0.0235 -1.6434
 2899SOL    HW220157   0.799   0.321  10.004  0.5058 -2.1582  2.0239
 2900SOL     OW20158   0.260   2.132   8.691 -0.0772 -0.2174 -0.0214
 2900SOL    HW120159   0.279   2.123   8.784 -1.0174 -0.0754  0.1900
 2900SOL    HW220160   0.187   2.193   8.679  0.3892  0.8629  2.6878
 2901SOL     OW20161   2.965   1.418   6.865  0.0852 -0.1879 -0.9424
 2901SOL    HW120162   2.918   1.448   6.943  2.4299 -0.7810  0.6841
 2901SOL    HW220163   2.899   1.441   6.799 -0.3273  0.0281 -0.4482
 2902SOL     OW20164   1.197   4.122  17.301  0.5569  0.1648  0.2521
 2902SOL    HW120165   1.124   4.061  17.291  1.3438 -0.7607  0.1786
 2902SOL    HW220166   1.159   4.197  17.347 -1.2148 -1.1920  0.9834
 2903SOL     OW20167   1.190   4.179  13.081  0.2020  0.3727 -0.6108
 2903SOL    HW120168   1.162   4.176  12.990 -2.8560 -1.0947  0.3700
 2903SOL    HW220169   1.214   4.271  13.094 -0.5363  0.8235 -2.5484
 2904SOL     OW20170   0.237   2.520   6.363 -0.1529  0.2095  0.3759
 2904SOL    HW120171   0.207   2.527   6.272  1.0628 -0.1999 -0.0683
 2904SOL    HW220172   0.329   2.545   6.356 -0.1612  0.1833  0.1676
 2905SOL     OW20173   4.359   0.268   3.832 -0.1576  0.4964  0.6411
 2905SOL    HW120174   4.329   0.244   3.744 -1.9283  2.3923  0.7409
 2905SOL    HW220175   4.276   0.298   3.869 -0.5691  0.0120  0.1165
 2906SOL     OW20176   1.213   0.141   9.190 -0.4841 -0.3098  0.2406
 2906SOL    HW120177   1.121   0.119   9.203 -0.9664  0.8056 -1.3172
 2906SOL    HW220178   1.221   0.228   9.228 -0.3322 -0.2070 -0.0239
 2907SOL     OW20179   4.205   3.577  15.638  0.6103  0.0543  0.0851
 2907SOL    HW120180   4.271   3.509  15.649 -0.0475 -0.6675 -0.4224
 2907SOL    HW220181   4.151   3.564  15.716  1.2108  2.6301  0.9228
 2908SOL     OW20182   4.673   0.777   3.881 -0.6487 -0.5476  0.3506
 2908SOL    HW120183   4.592   0.742   3.844 -0.7125  0.0797 -0.1241
 2908SOL    HW220184   4.670   0.751   3.973 -3.5622  2.2882  1.0711
 2909SOL     OW20185   3.577   2.853   7.640 -0.4869  0.1215 -0.1521
 2909SOL    HW120186   3.526   2.852   7.721  0.3243  0.9204  0.3660
 2909SOL    HW220187   3.499   2.850   7.585 -0.0613 -0.4328 -0.7236
 2910SOL     OW20188   4.220   3.658   1.905 -0.2682  0.5238 -0.4216
 2910SOL    HW120189   4.228   3.694   1.817  1.8598 -3.0143 -1.6996
 2910SOL    HW220190   4.300   3.606   1.908 -0.0678  0.8940  0.4239
 2911SOL     OW20191   2.360   1.119   6.777  0.9833 -0.3477  0.0078
 2911SOL    HW120192   2.348   1.025   6.769 -0.0419 -0.2105 -0.1554
 2911SOL    HW220193   2.378   1.135   6.684 -2.6464  1.0331 -0.4744
 2912SOL     OW20194   2.183   2.425   2.877  0.1489 -0.5530 -0.3980
 2912SOL    HW120195   2.143   2.372   2.808 -3.1309  0.9923  0.3328
 2912SOL    HW220196   2.131   2.403   2.955  0.1601  1.3060  0.1363
 2913SOL     OW20197   0.536   3.161   7.651  0.4002  0.0312  0.1465
 2913SOL    HW120198   0.524   3.091   7.586  0.3354  0.4773 -0.3285
 2913SOL    HW220199   0.620   3.131   7.684  0.5928  0.0480 -0.3264
 2914SOL     OW20200   0.823   1.561   8.449  0.0191 -0.0445  0.4492
 2914SOL    HW120201   0.887   1.594   8.387 -2.6098  0.5878 -1.9106
 2914SOL    HW220202   0.740   1.581   8.406  0.1639 -1.5726 -0.5292
 2915SOL     OW20203   0.585   0.973  14.517  0.3196 -0.2220 -0.1138
 2915SOL    HW120204   0.657   1.017  14.470 -1.0988  1.4593 -0.7374
 2915SOL    HW220205   0.546   1.046  14.566 -2.0042 -0.6356 -1.3369
 2916SOL     OW20206   0.389   1.729   6.272 -0.1656 -0.3709 -0.2909
 2916SOL    HW120207   0.381   1.770   6.186 -0.9023 -0.8497 -0.4402
 2916SOL    HW220208   0.482   1.751   6.275 -0.5681  1.0949  1.1167
 2917SOL     OW20209   1.923   1.974  16.037 -0.6816  0.2374 -0.1226
 2917SOL    HW120210   1.922   2.062  16.076 -0.4920  0.7570 -1.2914
 2917SOL    HW220211   1.860   1.987  15.966 -1.4664  1.9499  0.8978
 2918SOL     OW20212   3.443   2.095  11.480 -0.0123  0.6258  0.2320
 2918SOL    HW120213   3.417   2.180  11.515  1.4935  1.3743 -0.4750
 2918SOL    HW220214   3.535   2.105  11.501 -0.3340  0.7759  1.5321
 2919SOL     OW20215   4.250   3.112   9.381  0.0212 -0.6300 -0.0830
 2919SOL    HW120216   4.210   3.139   9.298  1.6564  1.0143 -0.3293
 2919SOL    HW220217   4.337   3.086   9.351 -0.5579 -3.3229  0.5289
 2920SOL     OW20218   1.132   2.386   2.749 -0.0339  0.9051 -0.1005
 2920SOL    HW120219   1.067   2.331   2.706  0.9831 -0.4262  0.0502
 2920SOL    HW220220   1.211   2.369   2.698 -0.0133  0.3941  0.1036
 2921SOL     OW20221   3.892   1.002  17.289 -0.5883  0.1621 -0.3072
 2921SOL    HW120222   3.937   0.932  17.242  0.0506  0.0223  0.5219
 2921SOL    HW220223   3.961   1.067  17.280 -1.0143  0.5851 -0.5543
 2922SOL     OW20224   4.083   1.736   4.908  0.4173  0.1644  0.2885
 2922SOL    HW120225   4.168   1.780   4.912  0.2641  0.4634  0.2629
 2922SOL    HW220226   4.025   1.812   4.909  0.8414  0.4929 -0.0100
 2923SOL     OW20227   3.181   3.920   6.696 -0.2078 -0.2230 -0.1220
 2923SOL    HW120228   3.208   3.867   6.621 -0.8083 -0.6422 -0.0413
 2923SOL    HW220229   3.125   3.856   6.741  1.3524 -0.7272  1.0976
 2924SOL     OW20230   3.195   1.122  10.054  0.2228  0.5247  0.1489
 2924SOL    HW120231   3.207   1.028  10.071 -0.5640  0.5548  0.8354
 2924SOL    HW220232   3.132   1.142  10.123 -0.3462 -0.9540  0.0657
 2925SOL     OW20233   1.259   2.082   4.393 -0.2111  0.3732 -0.0621
 2925SOL    HW120234   1.355   2.084   4.401 -0.4592 -0.6736  2.9301
 2925SOL    HW220235   1.252   1.991   4.423  1.5555  0.1848 -0.1683
 2926SOL     OW20236   3.371   2.924   0.679  0.3783  0.8007  0.1228
 2926SOL    HW120237   3.327   2.950   0.598  0.2099 -1.1160 -0.3977
 2926SOL    HW220238   3.450   2.888   0.638 -1.7976 -2.0602 -1.5812
 2927SOL     OW20239   3.680   1.298   3.411  0.6575  0.2804  0.0088
 2927SOL    HW120240   3.638   1.213   3.417 -1.1979  1.1036 -1.2594
 2927SOL    HW220241   3.730   1.277   3.332  0.1377  0.9141 -0.4962
 2928SOL     OW20242   2.566   4.260   5.220 -0.5514 -0.1366 -0.0030
 2928SOL    HW120243   2.542   4.270   5.128 -0.7907 -0.5720  0.0147
 2928SOL    HW220244   2.551   4.351   5.247 -0.9180  0.5023 -2.3551
 2929SOL     OW20245   1.485   4.065  11.452 -0.4888 -0.2283  0.2562
 2929SOL    HW120246   1.478   4.123  11.376 -0.9077 -0.1675  0.3371
 2929SOL    HW220247   1.391   4.077  11.471 -0.3276  0.7461  0.4573
 2930SOL     OW20248   4.289   1.750   8.592 -0.1724 -0.9493 -0.3774
 2930SOL    HW120249   4.210   1.712   8.631  1.0537 -1.1130  1.9451
 2930SOL    HW220250   4.260   1.841   8.589 -0.0337 -0.9342 -1.2169
 2931SOL     OW20251   1.681   2.438   6.070  0.2507 -0.5616 -0.3330
 2931SOL    HW120252   1.670   2.415   6.162 -0.1977  0.7575 -0.0486
 2931SOL    HW220253   1.680   2.534   6.072 -0.4008 -0.5098 -2.4633
 2932SOL     OW20254   3.701   0.322   7.498  0.2852 -0.3472  0.9461
 2932SOL    HW120255   3.782   0.279   7.524  0.6108 -1.0817 -1.2582
 2932SOL    HW220256   3.717   0.342   7.405  1.2108  2.3553  1.6857
 2933SOL     OW20257   1.606   3.469   2.499  0.7254  0.7905 -0.2082
 2933SOL    HW120258   1.686   3.470   2.552 -0.8455  0.8593  2.1456
 2933SOL    HW220259   1.549   3.415   2.553 -0.2794  1.6804 -0.3857
 2934SOL     OW20260   4.359   2.649   2.546 -0.4026 -0.2556 -0.4516
 2934SOL    HW120261   4.392   2.700   2.620 -0.0207  1.0344 -1.4977
 2934SOL    HW220262   4.437   2.603   2.515 -0.1410  1.0629 -1.7771
 2935SOL     OW20263   0.815   1.278   4.752  0.1434  0.4165 -0.6549
 2935SOL    HW120264   0.832   1.371   4.768  1.5983  0.6837 -3.5678
 2935SOL    HW220265   0.833   1.274   4.658  2.4411  1.1447 -0.2576
 2936SOL     OW20266   3.554   3.279  14.561  0.6356 -0.0748 -0.1520
 2936SOL    HW120267   3.574   3.268  14.468  0.4178 -1.0064 -0.0924
 2936SOL    HW220268   3.626   3.337  14.585  1.1305  0.4165 -2.8250
 2937SOL     OW20269   2.774   1.375  15.546 -0.5581  0.0436 -0.3459
 2937SOL    HW120270   2.744   1.364  15.636 -0.4255  2.4094 -0.0284
 2937SOL    HW220271   2.765   1.283  15.520 -0.3937 -0.1726  0.3548
 2938SOL     OW20272   3.594   3.135   7.642  0.5673  0.0237  0.2199
 2938SOL    HW120273   3.613   3.149   7.549  2.1128  0.4673  0.6023
 2938SOL    HW220274   3.579   3.041   7.639 -1.7078  0.3309  2.4893
 2939SOL     OW20275   4.169   4.088   7.470 -0.2579 -0.5078  0.4705
 2939SOL    HW120276   4.236   4.033   7.512  0.2943  0.2434  0.5701
 2939SOL    HW220277   4.135   4.134   7.547  0.1888  1.8411 -0.7299
 2940SOL     OW20278   2.590   1.182   4.433 -0.4932 -0.2439  0.4580
 2940SOL    HW120279   2.654   1.129   4.385 -1.3073 -0.2929 -0.5591
 2940SOL    HW220280   2.501   1.160   4.406 -1.8470  4.3469  1.1173
 2941SOL     OW20281   3.429   4.288  12.378 -0.3167  0.4383  0.2881
 2941SOL    HW120282   3.354   4.303  12.435 -1.6618 -0.6936 -1.1792
 2941SOL    HW220283   3.432   4.192  12.379 -0.8829  0.4098 -0.5381
 2942SOL     OW20284   0.549   4.005   4.805  0.3018  0.0109  0.7281
 2942SOL    HW120285   0.620   4.036   4.747 -1.0510  0.4805 -0.6716
 2942SOL    HW220286   0.507   4.086   4.832  0.1242 -0.4147  1.7010
 2943SOL     OW20287   3.141   1.506   7.995 -0.2555 -0.2316 -0.4316
 2943SOL    HW120288   3.068   1.556   8.031  0.9894  0.5135  1.0408
 2943SOL    HW220289   3.103   1.419   7.983  0.3017 -0.6228  0.6553
 2944SOL     OW20290   1.287   2.687   4.604 -0.2465 -0.2729 -0.2684
 2944SOL    HW120291   1.273   2.595   4.583 -0.6972 -0.5566  1.2694
 2944SOL    HW220292   1.204   2.707   4.646 -1.1625  0.4925 -2.4382
 2945SOL     OW20293   4.476   2.877   5.119 -0.4751 -0.2013  0.1969
 2945SOL    HW120294   4.401   2.887   5.060 -1.2008  1.5551  1.4097
 2945SOL    HW220295   4.428   2.912   5.193  2.2649  1.3057  1.2671
 2946SOL     OW20296   3.908   0.685   3.017 -0.8227 -0.2959  0.7972
 2946SOL    HW120297   3.842   0.697   2.949 -2.4380  0.4217  2.5101
 2946SOL    HW220298   3.848   0.650   3.083  0.4560  0.7508  2.5303
 2947SOL     OW20299   3.417   2.794  10.119 -0.8486 -0.1808  0.1930
 2947SOL    HW120300   3.473   2.869  10.101 -1.3651  0.1221 -0.1358
 2947SOL    HW220301   3.475   2.723  10.090  0.2554  1.0522 -0.6020
 2948SOL     OW20302   2.958   2.224  14.802  0.4746  0.3564  0.4109
 2948SOL    HW120303   3.024   2.290  14.826  0.7501  0.2060  0.0588
 2948SOL    HW220304   3.012   2.146  14.788  0.4539  0.1628  1.3641
 2949SOL     OW20305   3.477   3.593  16.527 -0.0415 -0.1617  0.5304
 2949SOL    HW120306   3.445   3.604  16.617 -1.4351  1.8632 -0.2294
 2949SOL    HW220307   3.537   3.521  16.546 -1.1872 -0.7559  1.9352
 2950SOL     OW20308   1.689   0.507   8.414  0.1279 -0.4270 -0.1372
 2950SOL    HW120309   1.728   0.590   8.388 -2.2142  0.3937 -1.0196
 2950SOL    HW220310   1.711   0.514   8.507  1.3008  0.3184 -0.4773
 2951SOL     OW20311   0.184   1.258   1.301  0.0018 -0.6460 -0.2781
 2951SOL    HW120312   0.256   1.283   1.359 -0.3796  1.1305 -0.5670
 2951SOL    HW220313   0.179   1.345   1.260 -2.7281 -0.3509  0.7337
 2952SOL     OW20314   4.540   1.892   1.376 -0.3036 -0.0090 -0.6794
 2952SOL    HW120315   4.614   1.835   1.398  0.2812  0.7551 -0.6835
 2952SOL    HW220316   4.478   1.860   1.441  0.3065 -1.4700 -0.8114
 2953SOL     OW20317   0.184   2.615   6.116  0.5233 -0.1694  0.5631
 2953SOL    HW120318   0.140   2.691   6.078  1.0670 -1.6769 -3.0337
 2953SOL    HW220319   0.156   2.541   6.062  2.0522 -2.4236  2.8505
 2954SOL     OW20320   4.057   0.986   4.764 -0.7291 -0.3374 -0.4765
 2954SOL    HW120321   4.072   1.060   4.705  2.1004  1.1505  2.0835
 2954SOL    HW220322   4.120   0.919   4.738  1.9005  1.9831 -0.0871
 2955SOL     OW20323   3.419   2.977   4.182  0.4067 -0.8520 -0.1092
 2955SOL    HW120324   3.481   3.050   4.174 -1.3883  0.7462  0.3799
 2955SOL    HW220325   3.364   3.006   4.255  0.4299 -1.9419  0.3392
 2956SOL     OW20326   1.521   1.345  12.693 -0.4915 -0.2964 -0.0856
 2956SOL    HW120327   1.608   1.348  12.653 -0.6315 -0.3442 -0.3882
 2956SOL    HW220328   1.502   1.251  12.695 -0.6761 -0.2515  0.3425
 2957SOL     OW20329   0.601   3.001   9.611 -0.0280 -0.5973  0.0122
 2957SOL    HW120330   0.594   2.938   9.683 -1.9447 -0.5095 -0.0985
 2957SOL    HW220331   0.688   2.993   9.571  0.1883  1.4916  0.0548
 2958SOL     OW20332   1.467   0.732   4.633 -0.0825 -0.9804  0.4076
 2958SOL    HW120333   1.466   0.638   4.613 -1.4270 -0.8539 -0.0954
 2958SOL    HW220334   1.528   0.761   4.565 -0.9089  0.5704  0.3460
 2959SOL     OW20335   2.035   1.463   2.987  0.2168  0.3166  0.8431
 2959SOL    HW120336   2.127   1.437   2.991  0.5617  1.5371  0.8606
 2959SOL    HW220337   2.031   1.489   2.895 -0.8505  2.6733  1.5632
 2960SOL     OW20338   0.620   1.757   5.455  0.1797  0.1622  0.6153
 2960SOL    HW120339   0.676   1.826   5.491 -0.2775  1.6582 -1.4909
 2960SOL    HW220340   0.596   1.788   5.367 -3.3392  1.3478  2.0039
 2961SOL     OW20341   0.337   3.787   4.191 -0.3501 -0.3326  0.2455
 2961SOL    HW120342   0.318   3.881   4.183 -1.0362 -0.3837  1.2308
 2961SOL    HW220343   0.250   3.753   4.211  0.7183 -1.6663  2.6321
 2962SOL     OW20344   1.045   2.532  12.174  0.0243 -0.4744  0.2155
 2962SOL    HW120345   1.100   2.556  12.100  0.4221  1.2985  1.0904
 2962SOL    HW220346   1.090   2.576  12.247 -2.1483 -0.2352  1.4225
 2963SOL     OW20347   0.200   1.573   8.332  0.0871  0.2330  0.2975
 2963SOL    HW120348   0.252   1.553   8.410  0.8728 -1.5797 -0.7183
 2963SOL    HW220349   0.146   1.495   8.324  1.8471 -0.6973 -2.3712
 2964SOL     OW20350   1.311   2.562   5.114 -0.4517 -0.2768  0.4665
 2964SOL    HW120351   1.348   2.558   5.202 -0.1978  0.4346  0.3989
 2964SOL    HW220352   1.336   2.648   5.079  1.9882 -0.5258  1.5832
 2965SOL     OW20353   3.903   1.781  10.090 -0.0872 -0.0331 -0.0151
 2965SOL    HW120354   3.837   1.763  10.023  1.0246  0.0207 -1.1276
 2965SOL    HW220355   3.988   1.757  10.052 -0.6142  0.4664 -1.5180
 2966SOL     OW20356   2.510   1.509  16.143 -0.2410  0.1092  0.1761
 2966SOL    HW120357   2.520   1.533  16.235  0.9192 -0.3069  0.1534
 2966SOL    HW220358   2.434   1.565  16.126 -1.4468 -0.8537  2.2760
 2967SOL     OW20359   0.635   3.021  16.756  0.2752 -0.2819  0.2792
 2967SOL    HW120360   0.602   2.956  16.818 -2.0834  0.6203 -0.0234
 2967SOL    HW220361   0.731   3.014  16.760  0.3022 -1.1475 -2.1873
 2968SOL     OW20362   3.478   2.475   6.478 -0.8887 -0.1770  0.3908
 2968SOL    HW120363   3.559   2.510   6.441 -0.6745 -2.4422 -1.2930
 2968SOL    HW220364   3.475   2.525   6.560 -0.5725 -0.5050  0.6028
 2969SOL     OW20365   3.535   1.761   5.565 -0.2298  0.0655 -0.3647
 2969SOL    HW120366   3.530   1.820   5.641  0.9558  1.4008 -1.3075
 2969SOL    HW220367   3.599   1.816   5.520  1.2569 -1.6526 -0.3562
 2970SOL     OW20368   3.379   2.875   8.661 -0.2976  0.1907  0.1149
 2970SOL    HW120369   3.397   2.871   8.755  0.1957 -1.4367 -0.0528
 2970SOL    HW220370   3.461   2.846   8.621  0.0622  0.5973  0.5578
 2971SOL     OW20371   4.218   2.104   9.523 -0.0980 -0.0045 -0.0932
 2971SOL    HW120372   4.276   2.162   9.573 -0.9401 -0.5983  1.5763
 2971SOL    HW220373   4.192   2.045   9.594  1.1677 -0.8090 -0.3048
 2972SOL     OW20374   1.051   1.664   7.066  0.4660  0.1704 -0.0495
 2972SOL    HW120375   1.040   1.630   6.977  1.8713 -0.4906  0.0335
 2972SOL    HW220376   1.141   1.697   7.060 -0.4800  2.7252 -0.3047
 2973SOL     OW20377   2.524   0.249   7.890  0.1297 -0.3551  0.2281
 2973SOL    HW120378   2.616   0.222   7.890 -0.4413 -2.3041  1.6503
 2973SOL    HW220379   2.478   0.167   7.877 -0.7227  0.4093 -1.6036
 2974SOL     OW20380   1.234   0.607   9.943  0.3344 -0.0868 -0.3183
 2974SOL    HW120381   1.263   0.698   9.932  0.4430  0.0441  0.9562
 2974SOL    HW220382   1.163   0.617  10.006  0.6081 -0.2133  0.0137
 2975SOL     OW20383   0.192   1.775   4.764  0.5303 -0.1280 -0.3534
 2975SOL    HW120384   0.167   1.772   4.857  2.4838 -1.3112  0.1260
 2975SOL    HW220385   0.207   1.683   4.743 -2.1781 -1.0251  1.6081
 2976SOL     OW20386   3.267   1.814   2.275 -0.0467 -0.2746 -0.8960
 2976SOL    HW120387   3.180   1.844   2.248  0.2414 -0.4035 -1.9575
 2976SOL    HW220388   3.307   1.897   2.302 -0.4941 -0.0119 -1.0418
 2977SOL     OW20389   3.056   4.055   5.951 -0.0099  0.3706  0.8266
 2977SOL    HW120390   3.032   4.090   6.037 -1.4326  0.4602  0.3838
 2977SOL    HW220391   2.977   4.008   5.925 -0.0006  0.7078  0.1761
 2978SOL     OW20392   0.481   4.323  17.330  0.6544  0.6496 -0.4039
 2978SOL    HW120393   0.491   4.419  17.336  2.3714  0.4875 -0.5033
 2978SOL    HW220394   0.396   4.315  17.287  1.2988  0.0598 -1.5483
 2979SOL     OW20395   0.494   3.880   9.335  0.5611  0.7916 -0.0732
 2979SOL    HW120396   0.557   3.809   9.345 -0.2430  0.2225  0.9827
 2979SOL    HW220397   0.538   3.956   9.371 -1.6112  1.1704  1.8195
 2980SOL     OW20398   3.948   4.440  12.261 -0.1762  0.6052  0.5310
 2980SOL    HW120399   4.033   4.406  12.290  0.5073  2.5090  0.7558
 2980SOL    HW220400   3.973   4.519  12.213 -1.3264  0.4038 -0.4081
 2981SOL     OW20401   3.086   0.934   0.050 -0.4970  0.3284  0.3787
 2981SOL    HW120402   3.149   0.968   0.115 -1.1857  1.8415  0.2655
 2981SOL    HW220403   3.107   0.997  17.664 -1.0265 -0.5207 -0.5441
 2982SOL     OW20404   0.184   3.576   2.646 -0.6085  0.3301 -0.1613
 2982SOL    HW120405   0.133   3.656   2.658 -1.5775 -0.2346 -0.5192
 2982SOL    HW220406   0.181   3.566   2.551  1.6767 -0.3649 -0.1768
 2983SOL     OW20407   4.264   2.675  12.435 -0.1005  0.2885 -0.3304
 2983SOL    HW120408   4.207   2.722  12.375 -1.4321 -0.2033  0.5688
 2983SOL    HW220409   4.221   2.668  12.521 -0.3707 -2.7278 -0.7209
 2984SOL     OW20410   1.717   3.892   0.650 -0.4112  0.0900 -0.0472
 2984SOL    HW120411   1.680   3.946   0.720  0.3021 -0.7808  1.0005
 2984SOL    HW220412   1.713   3.808   0.695 -1.3353  0.2816  0.2409
 2985SOL     OW20413   4.045   2.363  14.290  0.6180 -0.4185  0.1516
 2985SOL    HW120414   4.084   2.318  14.215 -1.4227  0.9210 -1.7027
 2985SOL    HW220415   3.977   2.303  14.319 -1.1111  1.3464 -0.2254
 2986SOL     OW20416   3.673   2.199   7.748 -0.0551  0.2744  0.3326
 2986SOL    HW120417   3.687   2.145   7.826  2.1371  1.9481  1.0899
 2986SOL    HW220418   3.593   2.150   7.729 -0.4618  0.7748  0.7351
 2987SOL     OW20419   1.935   0.149   4.378  0.8440 -0.1456 -0.0308
 2987SOL    HW120420   1.907   0.199   4.301  1.2534 -0.0904 -0.1434
 2987SOL    HW220421   2.000   0.100   4.329 -1.4249 -0.1301 -3.1113
 2988SOL     OW20422   0.720   4.462   4.899 -0.0780 -0.4841  0.0812
 2988SOL    HW120423   0.679   4.507   4.825 -0.2835  0.8797  1.0257
 2988SOL    HW220424   0.700   4.515   4.975 -2.3011  0.0451 -0.8779
 2989SOL     OW20425   3.314   0.439  12.194  0.6794 -0.3013 -0.6150
 2989SOL    HW120426   3.372   0.371  12.229 -0.8420 -1.7436 -0.8857
 2989SOL    HW220427   3.237   0.386  12.172  0.8820 -0.4276 -1.0345
 2990SOL     OW20428   0.538   2.833   2.340 -0.0604 -0.2340  0.2661
 2990SOL    HW120429   0.531   2.818   2.246 -2.1312 -2.6896  0.8078
 2990SOL    HW220430   0.450   2.807   2.368  0.2394 -1.3605  0.1590
 2991SOL     OW20431   0.564   4.659   7.422 -0.1036 -0.3129 -0.1913
 2991SOL    HW120432   0.611   4.717   7.361  0.4892 -0.2454  0.3250
 2991SOL    HW220433   0.515   4.596   7.370  0.5679 -0.6080 -0.4709
 2992SOL     OW20434   4.428   0.606   4.769  0.2713  0.0198  0.7854
 2992SOL    HW120435   4.369   0.536   4.796 -2.2334  1.4395 -1.0530
 2992SOL    HW220436   4.433   0.587   4.675 -3.6478 -0.8773  0.7765
 2993SOL     OW20437   4.630   3.731   3.617 -0.1932 -0.1334 -0.2712
 2993SOL    HW120438   4.564   3.794   3.588  0.7377  0.4023 -1.2256
 2993SOL    HW220439   4.582   3.652   3.594 -1.8073  0.9952 -0.7690
 2994SOL     OW20440   1.467   0.444   0.087  0.2721  0.3961 -0.3385
 2994SOL    HW120441   1.513   0.417   0.008 -1.1102 -2.6990 -0.0920
 2994SOL    HW220442   1.539   0.463   0.147  1.0629  0.1657 -1.2243
 2995SOL     OW20443   0.275   2.368   1.192 -0.8320  0.8859 -0.6207
 2995SOL    HW120444   0.180   2.371   1.197 -0.9311 -1.7374 -1.4159
 2995SOL    HW220445   0.285   2.454   1.234 -2.2069  1.7178 -1.9832
 2996SOL     OW20446   3.529   0.367   6.733  0.2952 -0.4158  0.2774
 2996SOL    HW120447   3.447   0.369   6.684 -0.7710  0.2601  2.0655
 2996SOL    HW220448   3.497   0.328   6.815 -0.3539 -2.1339 -0.7908
 2997SOL     OW20449   1.871   2.368   3.392  0.5150  0.0398  0.5690
 2997SOL    HW120450   1.834   2.282   3.375 -0.6938  0.7281 -0.3254
 2997SOL    HW220451   1.807   2.429   3.354  1.7580  0.4760 -0.8436
 2998SOL     OW20452   1.690   0.043   9.302 -0.8305  0.0773  0.6382
 2998SOL    HW120453   1.595   0.038   9.302 -0.8300 -0.0043 -0.9427
 2998SOL    HW220454   1.704   0.058   9.208 -0.0017 -2.1392  0.4090
 2999SOL     OW20455   0.987   1.949   7.418 -0.1647 -0.5276 -0.5315
 2999SOL    HW120456   0.961   2.023   7.364 -0.8600 -0.9023 -0.7074
 2999SOL    HW220457   0.973   1.875   7.359 -1.8082  0.2450 -1.0908
 3000SOL     OW20458   1.685   3.410  15.955  0.2112  0.3852 -0.2148
 3000SOL    HW120459   1.724   3.486  16.001 -0.6928  0.6214  0.1554
 3000SOL    HW220460   1.753   3.375  15.898  0.7814 -1.5216  1.6362
 3001SOL     OW20461   2.939   0.190   2.046 -0.2372 -0.0273 -0.1864
 3001SOL    HW120462   2.864   0.211   1.990 -1.6860  0.9539  2.1075
 3001SOL    HW220463   2.906   0.227   2.128 -0.4598 -0.6568  0.0133
 3002SOL     OW20464   2.919   2.678   3.802 -0.1446  0.9386 -0.0022
 3002SOL    HW120465   2.973   2.631   3.739  1.2131  1.4271  0.7983
 3002SOL    HW220466   2.871   2.727   3.735  0.2680  0.9965 -0.2540
 3003SOL     OW20467   3.186   0.760   4.070 -0.0797 -0.0950 -0.3290
 3003SOL    HW120468   3.158   0.668   4.064 -1.7354  0.2476  2.5459
 3003SOL    HW220469   3.176   0.774   3.976  0.5575 -1.3963 -0.6012
 3004SOL     OW20470   3.857   1.619  10.449 -0.0202 -0.2254  0.4410
 3004SOL    HW120471   3.781   1.622  10.391 -1.6050  3.5085  2.6925
 3004SOL    HW220472   3.803   1.640  10.525 -1.1409 -0.9186 -0.1642
 3005SOL     OW20473   0.637   3.981   3.256  0.5481 -0.4797 -0.1174
 3005SOL    HW120474   0.691   3.946   3.327  0.9994  0.5245  0.0292
 3005SOL    HW220475   0.700   4.025   3.199  0.0043 -0.0481 -0.3899
 3006SOL     OW20476   0.123   1.179   8.787  0.4414 -0.4537 -0.0864
 3006SOL    HW120477   0.117   1.264   8.829  0.7089 -0.4694 -0.0157
 3006SOL    HW220478   0.046   1.134   8.822  0.0363 -0.1208 -0.5517
 3007SOL     OW20479   3.906   0.679  15.013 -0.0726 -0.1156 -0.2763
 3007SOL    HW120480   3.850   0.655  15.087 -0.5169  1.0050 -0.2555
 3007SOL    HW220481   3.923   0.593  14.973 -0.0158 -0.2553  0.0484
 3008SOL     OW20482   0.448   2.094   3.980 -0.2520 -0.1771  0.4924
 3008SOL    HW120483   0.369   2.041   3.971  0.6709 -1.0653 -2.3952
 3008SOL    HW220484   0.420   2.178   3.944 -0.4946 -0.8866 -0.9607
 3009SOL     OW20485   2.930   2.347   5.289 -0.1760 -0.6546 -0.4547
 3009SOL    HW120486   2.909   2.414   5.354  2.3263 -0.0928 -0.2185
 3009SOL    HW220487   2.951   2.272   5.344  1.1339 -0.4305 -0.6359
 3010SOL     OW20488   3.674   3.694   8.858 -0.0370  0.4493  0.0867
 3010SOL    HW120489   3.591   3.731   8.827  1.9450  3.8212 -1.1965
 3010SOL    HW220490   3.721   3.777   8.855 -0.4587  0.7073  0.8044
 3011SOL     OW20491   2.323   4.172   6.596 -0.7959  0.3244 -0.0803
 3011SOL    HW120492   2.315   4.207   6.508  1.2112 -1.5865 -1.0343
 3011SOL    HW220493   2.375   4.094   6.577  0.8668  1.0573  1.4469
 3012SOL     OW20494   3.749   2.241   7.300  0.2637  0.3070  0.0078
 3012SOL    HW120495   3.721   2.172   7.360  1.3670 -0.0198  0.1508
 3012SOL    HW220496   3.804   2.295   7.357  1.0675  0.1521 -0.6310
 3013SOL     OW20497   2.660   1.182   6.816  0.0681  0.0785 -0.3482
 3013SOL    HW120498   2.567   1.171   6.797 -0.0162 -0.4014  0.3594
 3013SOL    HW220499   2.656   1.161   6.909  1.4486 -0.7537 -0.4839
 3014SOL     OW20500   0.723   1.825  16.555  0.1495 -0.2239 -0.4273
 3014SOL    HW120501   0.793   1.883  16.526  1.3553 -1.4867  0.0065
 3014SOL    HW220502   0.678   1.874  16.624 -1.0087 -1.4444 -0.3123
 3015SOL     OW20503   4.217   1.735   4.038  0.3903 -0.4065 -0.0374
 3015SOL    HW120504   4.238   1.788   4.114  0.0963  0.2066 -0.3835
 3015SOL    HW220505   4.122   1.734   4.046  0.5083  1.2122  1.6463
 3016SOL     OW20506   4.472   3.517   5.791  0.4558  0.2612  0.1865
 3016SOL    HW120507   4.489   3.532   5.884  1.6573 -0.9408  0.1796
 3016SOL    HW220508   4.561   3.516   5.755  0.3696  0.5308 -0.0287
 3017SOL     OW20509   2.238   4.651  12.771  0.2999 -0.3417 -0.8111
 3017SOL    HW120510   2.143   4.664  12.781  0.6593  1.2479  0.7449
 3017SOL    HW220511   2.255   4.604  12.853  0.4780 -0.6634 -1.0346
 3018SOL     OW20512   4.133   2.987   7.751  0.6855  0.3376  0.0060
 3018SOL    HW120513   4.066   2.945   7.804  1.7082  1.1539  1.9639
 3018SOL    HW220514   4.211   2.949   7.792  0.5712  0.3047  0.1917
 3019SOL     OW20515   3.233   4.347   7.880  0.2989 -0.0907 -0.4053
 3019SOL    HW120516   3.284   4.369   7.958 -1.5093  1.5541  0.3098
 3019SOL    HW220517   3.170   4.419   7.887  0.1498 -0.3028  0.3861
 3020SOL     OW20518   2.443   1.019  10.646 -0.1954  0.1406  0.0357
 3020SOL    HW120519   2.478   1.019  10.557  1.0250  0.0866  0.5103
 3020SOL    HW220520   2.408   1.107  10.660  0.3243  0.0239  1.9834
 3021SOL     OW20521   3.760   4.266   8.098 -0.4288  0.0799 -0.2854
 3021SOL    HW120522   3.833   4.225   8.051  0.7883  2.4679 -0.5501
 3021SOL    HW220523   3.787   4.352   8.065 -0.7891 -0.1854 -1.2698
 3022SOL     OW20524   4.114   2.282   3.635 -0.4292  0.1571  0.3887
 3022SOL    HW120525   4.206   2.266   3.656 -0.7104 -1.5654  0.3032
 3022SOL    HW220526   4.101   2.368   3.674 -0.8400  0.1638  0.2448
 3023SOL     OW20527   0.047   1.318  15.921 -0.0548 -0.2528  0.0267
 3023SOL    HW120528   4.691   1.275  15.961  0.1690  0.9534  1.7450
 3023SOL    HW220529   0.005   1.402  15.905 -1.8590 -1.0506  0.6003
 3024SOL     OW20530   2.552   1.562  17.117 -0.2742  0.3086  0.1936
 3024SOL    HW120531   2.599   1.518  17.046  0.5845  1.9033 -0.2151
 3024SOL    HW220532   2.464   1.529  17.100  0.2914 -0.6845 -0.7826
 3025SOL     OW20533   0.197   2.709   1.240 -0.1059  0.3248  0.7620
 3025SOL    HW120534   0.206   2.777   1.173  2.5279 -1.9679 -1.2366
 3025SOL    HW220535   0.104   2.706   1.259 -0.2400  3.3641  0.5776
 3026SOL     OW20536   1.561   1.396   0.713 -0.6385  0.0080 -0.5075
 3026SOL    HW120537   1.533   1.484   0.689  0.1381  0.6462  0.8828
 3026SOL    HW220538   1.499   1.331   0.681  1.3442 -2.0627 -0.1885
 3027SOL     OW20539   3.870   0.916   5.212  0.1806 -0.1972  0.3388
 3027SOL    HW120540   3.840   0.827   5.231 -2.2710  0.4802 -0.4359
 3027SOL    HW220541   3.899   0.907   5.122  1.7253  1.3707  0.6708
 3028SOL     OW20542   3.513   2.527   2.231 -0.5846  0.6969 -0.2072
 3028SOL    HW120543   3.491   2.616   2.206  0.3031  0.3732 -2.1685
 3028SOL    HW220544   3.608   2.522   2.244 -0.8626 -0.4168  1.5104
 3029SOL     OW20545   4.562   2.509   7.322 -0.8061 -0.5351 -0.3055
 3029SOL    HW120546   4.646   2.480   7.359 -1.6201 -5.0321 -2.1298
 3029SOL    HW220547   4.506   2.432   7.329 -0.4780 -0.6743  0.7928
 3030SOL     OW20548   1.340   0.237  12.913  0.4467 -0.6903  0.4229
 3030SOL    HW120549   1.339   0.158  12.859 -2.1961 -0.9060  0.7784
 3030SOL    HW220550   1.420   0.277  12.880  0.1810 -0.4572  0.0710
 3031SOL     OW20551   4.583   2.115   0.297  0.2754 -0.1292 -0.2380
 3031SOL    HW120552   4.642   2.123   0.221  1.0131 -1.4453  0.2043
 3031SOL    HW220553   4.495   2.140   0.269  0.1577 -2.3090 -1.7982
 3032SOL     OW20554   1.710   2.412  16.134 -0.6157 -0.2370  0.0884
 3032SOL    HW120555   1.638   2.430  16.073 -0.0374 -1.1446 -0.8548
 3032SOL    HW220556   1.664   2.422  16.217 -2.6010  1.1181 -1.1710
 3033SOL     OW20557   4.048   1.607  15.235 -0.1920  0.2401  0.0788
 3033SOL    HW120558   3.992   1.541  15.276 -0.4137  0.3099 -0.1126
 3033SOL    HW220559   4.058   1.576  15.145  2.0404 -0.2983  0.4947
 3034SOL     OW20560   1.163   4.608  16.170  0.0794 -0.5335 -0.2729
 3034SOL    HW120561   1.144   4.682  16.228  0.8243  0.1887 -0.9602
 3034SOL    HW220562   1.106   4.621  16.095 -0.1757  2.8906  0.5008
 3035SOL     OW20563   2.286   2.545   9.856  0.6716 -0.4662  0.1397
 3035SOL    HW120564   2.230   2.492   9.913  0.2448 -0.3651 -0.1829
 3035SOL    HW220565   2.297   2.481   9.785 -1.9300 -1.8946  1.0385
 3036SOL     OW20566   3.878   1.371  15.334  0.3811 -0.0869  0.3103
 3036SOL    HW120567   3.909   1.386  15.423  0.6015 -1.5582  0.4692
 3036SOL    HW220568   3.904   1.282  15.312 -1.1496 -0.1236 -1.4244
 3037SOL     OW20569   2.278   0.695   7.779 -0.4404 -0.6824  0.0885
 3037SOL    HW120570   2.345   0.628   7.766 -0.3239 -0.4709 -0.3976
 3037SOL    HW220571   2.250   0.661   7.864  0.3148  0.8940  0.9644
 3038SOL     OW20572   4.352   0.398   4.549  0.1636 -0.0674 -0.3941
 3038SOL    HW120573   4.279   0.339   4.571 -0.2906  0.8298  0.5179
 3038SOL    HW220574   4.415   0.340   4.593 -0.0664 -0.3610 -0.4497
 3039SOL     OW20575   1.892   3.996   9.345  0.1783 -0.2969  0.3542
 3039SOL    HW120576   1.851   3.922   9.390  0.4878 -1.0909 -0.6835
 3039SOL    HW220577   1.815   4.042   9.312  0.1106 -0.8427 -0.2501
 3040SOL     OW20578   2.367   3.135   7.275 -0.5361  0.2639  0.1390
 3040SOL    HW120579   2.375   3.049   7.234 -0.2581 -0.3220  1.4114
 3040SOL    HW220580   2.426   3.125   7.350 -1.3978  3.8130  1.2907
 3041SOL     OW20581   4.626   3.345   5.318 -0.6014 -0.2590  0.2397
 3041SOL    HW120582   4.582   3.393   5.248  1.2610 -0.6026 -1.1679
 3041SOL    HW220583   4.716   3.366   5.294  0.2806 -2.5526  1.6079
 3042SOL     OW20584   3.376   4.017  11.169 -0.5788  0.1988  0.2616
 3042SOL    HW120585   3.364   3.936  11.119  3.6816 -0.3980  0.2528
 3042SOL    HW220586   3.368   4.083  11.100 -0.0140 -0.6353 -0.6045
 3043SOL     OW20587   0.062   2.191   1.904  0.1650 -0.3532  0.3505
 3043SOL    HW120588   0.043   2.208   1.812 -2.5744  0.2642  1.0354
 3043SOL    HW220589   0.036   2.275   1.942 -1.7583  0.9625 -3.9020
 3044SOL     OW20590   0.680   2.069   5.933  0.0498 -0.0170  0.2038
 3044SOL    HW120591   0.688   2.073   6.029  0.9261 -0.6813  0.1526
 3044SOL    HW220592   0.591   2.106   5.932 -1.1393 -2.9606 -0.8848
 3045SOL     OW20593   2.806   3.382  14.005 -0.1340 -1.1351 -0.5674
 3045SOL    HW120594   2.874   3.342  13.951  1.2495  0.0469  0.2917
 3045SOL    HW220595   2.828   3.475  14.006 -0.6293 -1.0419  1.7687
 3046SOL     OW20596   2.595   0.525  10.856  0.0956  0.0326 -0.3295
 3046SOL    HW120597   2.581   0.468  10.932  0.6258 -0.4746 -0.6115
 3046SOL    HW220598   2.559   0.603  10.898  0.0699  0.2695 -0.7871
 3047SOL     OW20599   2.798   4.698  13.104  0.0980  0.0237  0.3437
 3047SOL    HW120600   2.744   4.685  13.027  2.2525 -0.4262 -1.0986
 3047SOL    HW220601   2.867   4.632  13.092  1.1232  0.9233  1.2371
 3048SOL     OW20602   3.478   2.728   4.824  0.3636  0.0477  0.2080
 3048SOL    HW120603   3.452   2.788   4.754  1.0551 -1.2892 -1.1602
 3048SOL    HW220604   3.391   2.698   4.849  1.4563 -3.6844 -0.5483
 3049SOL     OW20605   4.708   4.172  10.630  0.1785 -0.2653  0.2190
 3049SOL    HW120606   0.045   4.140  10.560  0.5735  0.2500  0.3053
 3049SOL    HW220607   4.624   4.183  10.585  1.0003 -0.9654 -1.4631
 3050SOL     OW20608   2.507   0.518   5.695  0.1759 -0.7611 -0.0690
 3050SOL    HW120609   2.552   0.450   5.646 -0.0518  0.8645 -2.5132
 3050SOL    HW220610   2.444   0.544   5.628 -0.6544  0.7613  1.2934
 3051SOL     OW20611   4.318   3.900   3.348 -0.2215 -0.0092  0.3748
 3051SOL    HW120612   4.368   3.830   3.305 -0.5465 -0.3302  0.5276
 3051SOL    HW220613   4.351   3.982   3.310  0.5935 -0.4651  0.0895
 3052SOL     OW20614   4.010   0.624   0.505 -0.4941  0.4805  0.4354
 3052SOL    HW120615   3.938   0.671   0.547 -1.8001 -1.1817  0.0579
 3052SOL    HW220616   4.010   0.535   0.541 -1.3999  0.9514  1.6150
 3053SOL     OW20617   3.663   4.143  12.167 -0.5312  0.1655 -0.2573
 3053SOL    HW120618   3.673   4.123  12.074 -0.7122  1.4461 -0.5533
 3053SOL    HW220619   3.567   4.135  12.167 -0.7060  2.1756  1.6426
 3054SOL     OW20620   2.820   1.130   4.738  0.5255  0.2151 -0.3917
 3054SOL    HW120621   2.862   1.044   4.732 -1.0642 -0.5421 -0.8766
 3054SOL    HW220622   2.732   1.101   4.763  0.5613 -0.3325 -0.8925
 3055SOL     OW20623   1.621   1.611  14.966  0.0095  0.2523 -0.5131
 3055SOL    HW120624   1.625   1.545  15.035  1.9280 -0.1585 -1.0164
 3055SOL    HW220625   1.700   1.595  14.915  0.4594 -1.4832  0.7585
 3056SOL     OW20626   3.172   2.129   6.668 -0.3117 -0.6704  0.9280
 3056SOL    HW120627   3.132   2.056   6.622  2.4701 -1.6477  0.0741
 3056SOL    HW220628   3.175   2.091   6.756 -2.6911  0.4064  1.4678
 3057SOL     OW20629   2.305   1.566   1.460  0.1963 -0.0673 -0.2094
 3057SOL    HW120630   2.285   1.554   1.367 -2.5066  0.6935  0.2782
 3057SOL    HW220631   2.373   1.631   1.448  0.9848 -0.7321  0.6736
 3058SOL     OW20632   3.003   1.763  14.213 -0.3369  0.2498 -0.4750
 3058SOL    HW120633   3.069   1.811  14.263 -1.6922  1.6964 -0.0670
 3058SOL    HW220634   3.015   1.811  14.131  1.6474 -0.0375 -0.3622
 3059SOL     OW20635   4.333   1.195   6.991 -0.3073  0.6319 -0.0296
 3059SOL    HW120636   4.340   1.284   6.956  2.1722  0.4671  0.0749
 3059SOL    HW220637   4.356   1.211   7.083  0.5254  1.5511 -0.4012
 3060SOL     OW20638   1.390   0.132   5.067 -0.3897  0.0007 -0.0339
 3060SOL    HW120639   1.335   0.055   5.055 -0.9252  0.4668 -0.5578
 3060SOL    HW220640   1.380   0.143   5.162 -1.1386  1.7135 -0.3069
 3061SOL     OW20641   3.800   3.690   4.078  0.3073 -0.2970  0.5932
 3061SOL    HW120642   3.832   3.672   3.990 -1.0408  0.5054 -0.0482
 3061SOL    HW220643   3.726   3.750   4.073 -0.8826 -1.9242 -1.1427
 3062SOL     OW20644   3.591   3.449  11.335 -0.2839  0.0476 -0.1703
 3062SOL    HW120645   3.674   3.449  11.382 -0.6807 -1.5503  0.5244
 3062SOL    HW220646   3.538   3.505  11.392  2.1395  2.1415  0.0125
 3063SOL     OW20647   4.602   2.595  14.744 -0.5280  0.2702 -0.0233
 3063SOL    HW120648   4.676   2.600  14.683 -0.0652 -0.1247  0.5053
 3063SOL    HW220649   4.542   2.653  14.696 -0.8907  0.2185  0.3688
 3064SOL     OW20650   0.007   4.154  17.336 -0.6162  0.3255 -0.3373
 3064SOL    HW120651   4.669   4.203  17.278 -1.2356  1.3898  1.1770
 3064SOL    HW220652   0.055   4.095  17.279 -1.2800  0.8134 -1.3997
 3065SOL     OW20653   4.164   2.600  14.354 -0.1734  0.0436  0.0147
 3065SOL    HW120654   4.103   2.527  14.341 -0.4315  0.2420  0.1094
 3065SOL    HW220655   4.220   2.593  14.277  1.0975 -0.8157  1.0247
 3066SOL     OW20656   0.529   0.823   4.137  0.0999  0.2535  0.6941
 3066SOL    HW120657   0.560   0.909   4.109 -1.3386  0.4168 -0.4079
 3066SOL    HW220658   0.601   0.782   4.090 -1.7041  1.0748 -2.7881
 3067SOL     OW20659   2.237   0.849   8.562 -0.2105 -0.3362  0.4169
 3067SOL    HW120660   2.284   0.900   8.628 -0.6317  0.1577  0.3370
 3067SOL    HW220661   2.255   0.911   8.492  1.4622 -1.9164 -0.5341
 3068SOL     OW20662   2.991   4.699  15.439  0.1715  0.0703  0.4251
 3068SOL    HW120663   2.923   4.664  15.380 -0.2117  0.8899  0.3762
 3068SOL    HW220664   3.065   4.649  15.405 -0.1943 -1.1789  1.4785
 3069SOL     OW20665   1.410   0.324   4.853  0.0306  0.1510  0.4858
 3069SOL    HW120666   1.435   0.278   4.934 -0.2014 -1.7359 -0.5100
 3069SOL    HW220667   1.329   0.367   4.878 -0.4868 -1.1280  1.0522
 3070SOL     OW20668   0.940   2.831  17.161  0.3306  0.0876 -0.3752
 3070SOL    HW120669   0.871   2.895  17.148 -0.8580 -1.4869 -1.8678
 3070SOL    HW220670   1.010   2.871  17.108  0.0822  0.0052 -0.7672
 3071SOL     OW20671   4.443   2.881   7.037 -0.7696  0.5111  0.0711
 3071SOL    HW120672   4.514   2.898   7.099 -0.5834  1.2453 -0.3305
 3071SOL    HW220673   4.464   2.790   7.016  0.1648  0.7156  0.1241
 3072SOL     OW20674   1.961   4.013   3.580 -0.4593  0.3912 -0.3115
 3072SOL    HW120675   2.010   3.943   3.625 -1.3634  0.3876  0.6808
 3072SOL    HW220676   1.970   4.089   3.638 -1.9193  0.2029  0.1478
 3073SOL     OW20677   0.189   0.126   7.224  0.1874 -0.9730  0.1305
 3073SOL    HW120678   0.193   0.036   7.254  1.1205 -0.7759  0.5880
 3073SOL    HW220679   0.100   0.135   7.191  0.1895  0.3117  0.4550
 3074SOL     OW20680   0.998   1.858   5.436  0.1192 -0.5324 -0.7993
 3074SOL    HW120681   1.035   1.830   5.353 -0.4959 -0.8722 -0.9579
 3074SOL    HW220682   0.942   1.930   5.409 -1.0149 -0.5295  1.5241
 3075SOL     OW20683   3.101   1.215   5.533 -0.2934 -0.1312 -0.2861
 3075SOL    HW120684   3.074   1.139   5.584  1.0615 -0.0670  0.5430
 3075SOL    HW220685   3.186   1.234   5.574 -0.3778 -2.4768  0.9240
 3076SOL     OW20686   3.462   4.193  13.815  0.0020  0.0710 -0.2155
 3076SOL    HW120687   3.500   4.233  13.738 -1.1308  0.1581 -0.7309
 3076SOL    HW220688   3.507   4.108  13.815 -0.1612 -0.0171  0.0812
 3077SOL     OW20689   2.582   3.470  14.208 -0.4737 -0.3854 -0.2599
 3077SOL    HW120690   2.612   3.397  14.154  0.0350 -1.5299  1.6027
 3077SOL    HW220691   2.654   3.474  14.270 -1.8666  1.2297  1.2712
 3078SOL     OW20692   4.517   3.330   0.236 -0.2427 -0.1620  0.4336
 3078SOL    HW120693   4.513   3.423   0.256 -0.4569  0.0012 -0.3771
 3078SOL    HW220694   4.468   3.335   0.154 -0.7672  1.6345  0.8687
 3079SOL     OW20695   1.443   3.348   5.250 -0.0269 -0.9868  0.2778
 3079SOL    HW120696   1.407   3.364   5.162  1.5389  1.0835  0.0233
 3079SOL    HW220697   1.506   3.276   5.241  2.2137  1.0979 -0.4256
 3080SOL     OW20698   0.147   4.393   8.765  0.7302  0.0670 -0.2196
 3080SOL    HW120699   0.149   4.468   8.705  0.2772 -0.8212 -1.3647
 3080SOL    HW220700   0.216   4.347   8.717 -0.5775 -1.8390 -0.2743
 3081SOL     OW20701   2.644   1.035   1.058  0.2585  0.4125 -0.0461
 3081SOL    HW120702   2.565   0.995   1.093  0.1115  1.3997  0.7237
 3081SOL    HW220703   2.603   1.074   0.980  0.0681 -0.3714 -0.3373
 3082SOL     OW20704   0.132   2.228   7.686 -0.1116  0.5670 -0.0837
 3082SOL    HW120705   0.217   2.270   7.700  0.1477  0.7124 -2.0767
 3082SOL    HW220706   0.151   2.182   7.604  1.0058  0.4741  0.2271
 3083SOL     OW20707   0.133   3.487   8.203  0.1520 -0.3098 -0.2492
 3083SOL    HW120708   0.052   3.455   8.164  0.6423 -1.0125 -0.6939
 3083SOL    HW220709   0.188   3.489   8.125 -0.2997  2.4094 -0.5076
 3084SOL     OW20710   3.146   4.305   5.852  0.4662 -0.1890  0.5984
 3084SOL    HW120711   3.055   4.275   5.847 -0.0693  1.9700 -2.7140
 3084SOL    HW220712   3.163   4.303   5.946 -1.3950  2.5806  1.0006
 3085SOL     OW20713   3.821   4.210  12.369  0.2011  0.1167  0.0501
 3085SOL    HW120714   3.849   4.299  12.345 -1.1904 -0.3072 -3.2010
 3085SOL    HW220715   3.770   4.176  12.296 -0.9811  0.3140  0.7707
 3086SOL     OW20716   4.290   4.277   3.269 -0.3310 -0.3802  0.1505
 3086SOL    HW120717   4.329   4.326   3.196 -0.3677  0.1681  0.4967
 3086SOL    HW220718   4.331   4.318   3.345 -1.1041  0.9079 -0.1212
 3087SOL     OW20719   1.504   3.545   1.038 -0.3352 -0.0752 -0.2935
 3087SOL    HW120720   1.452   3.487   1.094 -1.0843  0.0070 -0.8983
 3087SOL    HW220721   1.434   3.607   1.016 -2.2729 -1.6185  1.4818
 3088SOL     OW20722   3.742   2.198   8.572  0.1803  0.3166 -0.1199
 3088SOL    HW120723   3.747   2.112   8.613  0.2883 -0.6912 -2.2352
 3088SOL    HW220724   3.746   2.249   8.653 -0.7856  1.5160 -0.8317
 3089SOL     OW20725   3.453   1.320   7.700  0.2035  0.0052 -0.1251
 3089SOL    HW120726   3.437   1.252   7.765 -1.7962 -0.1011 -0.7215
 3089SOL    HW220727   3.378   1.297   7.645 -1.2148 -0.1490  1.8790
 3090SOL     OW20728   3.916   3.338   7.839  0.4057 -0.5381  0.5675
 3090SOL    HW120729   3.911   3.337   7.935  2.4111  1.5113  0.6939
 3090SOL    HW220730   3.836   3.387   7.818 -0.7427 -2.0681  1.3162
 3091SOL     OW20731   2.436   1.569   1.137  0.1342 -0.5480  0.6815
 3091SOL    HW120732   2.415   1.634   1.069 -0.1003 -1.4750 -0.1377
 3091SOL    HW220733   2.480   1.618   1.205 -0.4839  0.2778  0.4900
 3092SOL     OW20734   0.878   2.740   2.816 -0.3612  0.2154  0.5078
 3092SOL    HW120735   0.943   2.672   2.833  0.5805  0.2742 -2.8874
 3092SOL    HW220736   0.884   2.746   2.721 -0.3299 -0.5928  0.4535
 3093SOL     OW20737   2.745   1.856   4.393 -0.0713  0.2009  0.0549
 3093SOL    HW120738   2.675   1.807   4.350  0.3862 -1.1672  0.8355
 3093SOL    HW220739   2.756   1.809   4.476  1.5436  0.2742 -0.1188
 3094SOL     OW20740   4.153   0.762   7.190 -0.3776 -0.1804 -0.4974
 3094SOL    HW120741   4.168   0.715   7.108  3.1087  0.6339 -0.3382
 3094SOL    HW220742   4.074   0.722   7.226 -0.7938  2.1902  1.2374
 3095SOL     OW20743   1.094   2.826   4.921  0.4389  0.0594 -0.5656
 3095SOL    HW120744   1.166   2.866   4.970 -0.7249  1.0145  0.3728
 3095SOL    HW220745   1.081   2.746   4.972  3.3251 -0.0735 -0.0593
 3096SOL     OW20746   1.137   1.669   6.788 -0.6047 -0.3397  0.5926
 3096SOL    HW120747   1.174   1.749   6.826 -0.9831  0.0327  0.1725
 3096SOL    HW220748   1.210   1.636   6.736  0.8430  2.9705  0.5117
 3097SOL     OW20749   4.355   4.384   7.695 -0.3326 -0.7892  0.2946
 3097SOL    HW120750   4.362   4.450   7.625 -2.1741 -1.2050 -0.2606
 3097SOL    HW220751   4.422   4.322   7.664  1.6949  0.8695  1.3364
 3098SOL     OW20752   2.083   4.074   3.117  0.0378 -0.0600  0.2933
 3098SOL    HW120753   2.010   4.104   3.062 -0.2105  1.0043  1.2050
 3098SOL    HW220754   2.039   4.000   3.160  0.9544 -0.1498  1.0848
 3099SOL     OW20755   0.066   4.604   0.396 -0.5431 -0.3981 -0.1523
 3099SOL    HW120756   0.136   4.587   0.459  0.4147 -3.2265 -1.9582
 3099SOL    HW220757   0.044   4.513   0.376 -3.0546  0.0788  0.4176
 3100SOL     OW20758   1.890   4.221  15.837 -0.1590  0.0229  0.4959
 3100SOL    HW120759   1.858   4.145  15.886  1.4331 -0.4578  0.7740
 3100SOL    HW220760   1.981   4.200  15.816  0.1440 -0.8600  2.7672
 3101SOL     OW20761   4.338   0.136   3.145 -0.7657  0.4939  0.0183
 3101SOL    HW120762   4.325   0.062   3.205 -0.0237 -0.4310 -0.9650
 3101SOL    HW220763   4.346   0.089   3.062 -0.8423  0.8184 -0.1721
 3102SOL     OW20764   3.759   1.198   9.118 -0.0912 -0.4454  0.6159
 3102SOL    HW120765   3.806   1.134   9.065  0.5315  0.0032  0.6328
 3102SOL    HW220766   3.668   1.167   9.123 -0.2069 -0.1713  0.2628
 3103SOL     OW20767   2.726   1.269   7.130  0.2027  0.0871 -0.0919
 3103SOL    HW120768   2.726   1.358   7.095 -0.7460  0.6505  1.3250
 3103SOL    HW220769   2.660   1.276   7.199 -1.5814  0.9463 -1.9035
 3104SOL     OW20770   3.325   3.250   7.579  0.2440 -0.1029 -0.3403
 3104SOL    HW120771   3.267   3.222   7.650 -1.3338  1.5593 -0.9854
 3104SOL    HW220772   3.411   3.221   7.609 -0.2100 -2.8114 -1.6836
 3105SOL     OW20773   3.539   1.960   6.490  0.3639 -0.0806  0.0563
 3105SOL    HW120774   3.611   2.019   6.516  1.8308 -2.8102  2.2283
 3105SOL    HW220775   3.472   2.019   6.455  1.4033  1.7274  1.0663
 3106SOL     OW20776   4.002   2.080   9.349 -0.2642  0.2394 -0.1798
 3106SOL    HW120777   3.930   2.133   9.384 -0.6361 -0.2969 -0.1386
 3106SOL    HW220778   4.068   2.120   9.406 -0.0620  0.3442 -0.4840
 3107SOL     OW20779   2.751   2.861   7.566 -0.6656  0.1858  0.0582
 3107SOL    HW120780   2.760   2.769   7.593  0.2896  0.0732 -0.6384
 3107SOL    HW220781   2.791   2.853   7.479 -0.2218  2.3865  0.0751
 3108SOL     OW20782   1.717   4.345   3.978 -0.5668 -0.2831 -0.3148
 3108SOL    HW120783   1.792   4.290   3.999  1.7170  2.9228 -0.1004
 3108SOL    HW220784   1.761   4.423   4.011  0.0330  0.4819 -2.9267
 3109SOL     OW20785   2.246   0.636   7.431 -1.2259  0.2049 -0.1817
 3109SOL    HW120786   2.296   0.556   7.416  0.8118  1.4384  0.1519
 3109SOL    HW220787   2.213   0.618   7.519  0.4365  0.6166  0.5178
 3110SOL     OW20788   3.310   3.677   3.677 -0.0208 -0.6574 -0.9111
 3110SOL    HW120789   3.387   3.713   3.722 -0.2620 -0.6981 -0.4661
 3110SOL    HW220790   3.242   3.676   3.744 -0.7011  2.6048 -1.5396
 3111SOL     OW20791   3.589   4.417  11.483  0.4262 -0.0198 -0.5663
 3111SOL    HW120792   3.494   4.419  11.471  0.3258  1.0588  0.4876
 3111SOL    HW220793   3.603   4.336  11.531  0.9771 -0.3077 -1.2128
 3112SOL     OW20794   3.646   4.364   2.878 -0.4267 -0.3484 -0.5943
 3112SOL    HW120795   3.716   4.362   2.812  0.0455 -2.2507 -0.0390
 3112SOL    HW220796   3.616   4.274   2.864  2.4018 -1.3512 -0.2495
 3113SOL     OW20797   0.970   4.278   8.594  0.2608 -0.6555 -0.0365
 3113SOL    HW120798   0.985   4.349   8.656  0.3108  0.9140 -1.8280
 3113SOL    HW220799   1.013   4.312   8.515  1.2395 -0.5121  0.5523
 3114SOL     OW20800   2.104   3.389   8.238  0.0501  0.1737  0.4554
 3114SOL    HW120801   2.093   3.336   8.317 -3.3971  0.7650  0.3707
 3114SOL    HW220802   2.180   3.438   8.270 -0.9411  1.4077  0.9321
 3115SOL     OW20803   2.034   0.457   8.742  0.3767  0.1313 -0.3161
 3115SOL    HW120804   2.062   0.397   8.673 -1.8844 -0.0876 -1.0529
 3115SOL    HW220805   2.096   0.446   8.814 -1.1808 -0.4687  0.9306
 3116SOL     OW20806   2.895   2.092   5.890 -0.3644 -0.4913 -0.3397
 3116SOL    HW120807   2.902   2.105   5.985  1.9472  0.7056 -0.6947
 3116SOL    HW220808   2.917   1.999   5.887 -0.5839 -0.4793 -2.0847
 3117SOL     OW20809   2.622   1.996  14.838 -0.2533 -0.0758 -0.6615
 3117SOL    HW120810   2.570   2.076  14.844 -1.1728 -0.6261 -1.3641
 3117SOL    HW220811   2.652   1.994  14.747  1.0998 -0.6640 -0.2078
 3118SOL     OW20812   2.172   2.535   7.578 -0.0591 -0.7584 -0.3473
 3118SOL    HW120813   2.105   2.468   7.569 -1.4220  0.5344  0.2151
 3118SOL    HW220814   2.164   2.554   7.672 -1.7306  3.9328 -1.4294
 3119SOL     OW20815   1.184   1.266   8.422 -0.0959 -0.4171  0.1557
 3119SOL    HW120816   1.231   1.214   8.488 -1.1466 -1.6208 -0.0376
 3119SOL    HW220817   1.260   1.294   8.371 -0.1773  0.3983  0.4844
 3120SOL     OW20818   1.060   2.767   1.708  0.1108  0.3086 -0.4824
 3120SOL    HW120819   1.034   2.835   1.770  1.0826 -0.2350  0.5225
 3120SOL    HW220820   1.100   2.816   1.636  0.5470 -0.4654 -0.7677
 3121SOL     OW20821   3.475   1.516   2.664 -0.5675 -0.4279  0.3782
 3121SOL    HW120822   3.508   1.542   2.579  1.3592 -1.3160  0.8503
 3121SOL    HW220823   3.552   1.534   2.718 -0.6514  0.2308  0.2821
 3122SOL     OW20824   2.172   4.533   1.287  0.5005 -0.0086  0.9095
 3122SOL    HW120825   2.135   4.559   1.372  1.2157  3.5486  0.1616
 3122SOL    HW220826   2.139   4.444   1.275 -2.3238  1.0763  0.5104
 3123SOL     OW20827   0.339   0.256   6.795  0.3361  0.0880  0.0598
 3123SOL    HW120828   0.392   0.326   6.755  2.8226 -0.1876  2.8281
 3123SOL    HW220829   0.328   0.282   6.886  2.7924  1.5220 -0.0429
 3124SOL     OW20830   3.323   2.633   3.526  0.2365  0.1219 -0.2248
 3124SOL    HW120831   3.400   2.655   3.577  0.2513  0.6505 -0.4713
 3124SOL    HW220832   3.307   2.544   3.557 -0.8528  0.9385  1.5967
 3125SOL     OW20833   3.633   0.035   7.728 -0.4404  0.2897 -0.4481
 3125SOL    HW120834   3.652   0.124   7.757  1.3164 -0.9711  2.2336
 3125SOL    HW220835   3.566   0.014   7.792 -0.9453 -0.7666 -1.3292
 3126SOL     OW20836   1.238   3.523   6.695 -0.2851  1.0167  0.1901
 3126SOL    HW120837   1.210   3.463   6.764 -2.2024 -0.0042 -1.4633
 3126SOL    HW220838   1.332   3.519   6.711 -0.1562  0.5526 -0.6540
 3127SOL     OW20839   3.460   2.390   2.012 -0.4670 -0.6862  0.0210
 3127SOL    HW120840   3.466   2.303   2.052 -0.6257  0.1527  1.8787
 3127SOL    HW220841   3.473   2.449   2.086 -1.4097 -1.9929  1.2423
 3128SOL     OW20842   2.181   1.767   4.323  0.3035 -0.4614 -0.3954
 3128SOL    HW120843   2.089   1.788   4.310  0.2645 -0.1633  0.3785
 3128SOL    HW220844   2.222   1.847   4.355 -0.7404 -0.1902  0.2471
 3129SOL     OW20845   3.877   3.660   7.157  0.6839 -0.6076 -0.8113
 3129SOL    HW120846   3.863   3.736   7.100 -0.4698 -0.3563 -0.1871
 3129SOL    HW220847   3.958   3.683   7.202 -0.7447  0.0585  1.3941
 3130SOL     OW20848   1.606   0.153   2.613  0.1418  0.6402  0.4070
 3130SOL    HW120849   1.575   0.214   2.546 -0.6736  0.1312  0.3129
 3130SOL    HW220850   1.676   0.202   2.656  1.1118 -1.0876  0.7747
 3131SOL     OW20851   0.032   4.067   5.250 -0.2786  0.2487 -0.1826
 3131SOL    HW120852   0.025   4.106   5.337 -0.9204  0.9415 -0.5474
 3131SOL    HW220853   4.676   4.103   5.204  0.7782  1.9986 -0.5709
 3132SOL     OW20854   0.196   0.190   4.013  0.2195 -0.1371  0.1710
 3132SOL    HW120855   0.223   0.164   4.101 -1.2855  1.0329  0.9693
 3132SOL    HW220856   0.190   0.285   4.022 -0.2169 -0.2892  1.3744
 3133SOL     OW20857   1.225   1.083   7.446  0.0395 -0.2701 -0.4781
 3133SOL    HW120858   1.167   1.028   7.393 -1.8127 -0.3851  1.6490
 3133SOL    HW220859   1.283   1.011   7.469 -1.1400 -0.4224  2.0570
 3134SOL     OW20860   2.575   4.123   2.373 -0.3124 -0.8469 -0.2146
 3134SOL    HW120861   2.563   4.085   2.460  2.0266 -0.1796  0.3998
 3134SOL    HW220862   2.565   4.041   2.325 -0.4632 -0.3226 -1.0818
 3135SOL     OW20863   1.358   1.769   5.888  0.0184 -0.3427  0.2272
 3135SOL    HW120864   1.288   1.742   5.829 -0.7759 -3.2610  2.4825
 3135SOL    HW220865   1.434   1.733   5.841 -1.3233 -0.7031 -1.6518
 3136SOL     OW20866   2.463   2.818   5.665 -0.5324 -0.2495 -0.4154
 3136SOL    HW120867   2.552   2.850   5.679 -0.0524 -0.8308 -2.1794
 3136SOL    HW220868   2.431   2.791   5.751  1.5609  0.4003  0.5612
 3137SOL     OW20869   1.379   4.680   5.315  0.3243  0.5706 -0.3118
 3137SOL    HW120870   1.310   4.628   5.357  0.5283  0.2923 -0.3230
 3137SOL    HW220871   1.363   0.043   5.360  0.9225 -0.4174  1.7124
 3138SOL     OW20872   0.451   0.372   5.981 -0.2235  0.5002  0.1157
 3138SOL    HW120873   0.443   0.458   5.939  0.7527 -1.0105 -3.0763
 3138SOL    HW220874   0.413   0.317   5.913  0.7414  0.0143 -0.0229
 3139SOL     OW20875   4.328   4.301   0.998  0.6998 -0.7013 -0.3647
 3139SOL    HW120876   4.389   4.305   0.924 -0.8081 -0.4336 -1.5951
 3139SOL    HW220877   4.246   4.337   0.965 -0.1186 -0.4611  1.9688
 3140SOL     OW20878   1.788   4.387   7.917 -0.4115  0.1259  0.0615
 3140SOL    HW120879   1.874   4.390   7.875  0.0302  0.2896  0.9633
 3140SOL    HW220880   1.777   4.297   7.948  0.4649  0.5626  1.6809
 3141SOL     OW20881   4.200   2.605   4.837  0.1987 -0.0777  0.5386
 3141SOL    HW120882   4.165   2.654   4.911  0.3424  2.2254 -0.8990
 3141SOL    HW220883   4.294   2.614   4.848  0.1783  1.2618 -0.3958
 3142SOL     OW20884   1.480   4.272   4.398  0.5411 -0.1846 -0.2369
 3142SOL    HW120885   1.396   4.240   4.365  0.9819 -2.0315  0.4492
 3142SOL    HW220886   1.486   4.351   4.344 -3.9611 -0.1285 -0.6433
 3143SOL     OW20887   1.259   2.549  10.006  0.1428 -0.6162  0.0790
 3143SOL    HW120888   1.255   2.461  10.044 -3.9474 -1.8703 -3.2747
 3143SOL    HW220889   1.195   2.596  10.059 -0.6675 -0.9926 -0.5647
 3144SOL     OW20890   2.492   1.265   2.396 -0.5625  0.0361 -0.1341
 3144SOL    HW120891   2.568   1.310   2.435 -0.5907  1.7795 -2.0976
 3144SOL    HW220892   2.515   1.298   2.309  0.5107 -0.1722  0.0680
 3145SOL     OW20893   2.688   2.973   5.597 -0.4443  0.6601  0.3192
 3145SOL    HW120894   2.645   3.039   5.543 -2.1393 -0.3407  0.4338
 3145SOL    HW220895   2.764   3.029   5.611 -1.9300  2.7723 -0.1102
 3146SOL     OW20896   1.410   2.359  11.225 -0.6714 -0.2515 -0.6133
 3146SOL    HW120897   1.464   2.318  11.292  0.1361  1.5493 -0.1617
 3146SOL    HW220898   1.319   2.338  11.247 -0.1777 -1.1944  0.5346
 3147SOL     OW20899   3.012   1.778   8.582  0.1061 -0.0294  0.1703
 3147SOL    HW120900   3.006   1.697   8.632  3.7590 -1.4131 -1.6091
 3147SOL    HW220901   3.083   1.764   8.519 -2.2979 -0.3513 -2.4804
 3148SOL     OW20902   1.454   2.222  11.482  0.4427 -0.1593 -0.2643
 3148SOL    HW120903   1.461   2.274  11.563  0.4224  0.6812 -0.8015
 3148SOL    HW220904   1.403   2.144  11.506  1.4032 -0.4421  0.8880
 3149SOL     OW20905   2.781   1.804   1.787 -0.4118 -0.1218 -0.4209
 3149SOL    HW120906   2.728   1.866   1.838 -1.2771  0.4997 -2.0803
 3149SOL    HW220907   2.749   1.717   1.813  0.5516 -0.4490 -0.3413
 3150SOL     OW20908   4.696   3.576   6.420  0.0655  0.5046  0.1016
 3150SOL    HW120909   4.690   3.514   6.346 -1.2606  0.6182  0.1103
 3150SOL    HW220910   4.682   3.664   6.387 -0.8752  0.3854  0.1756
 3151SOL     OW20911   0.674   1.315  11.764  0.8751  0.3346 -0.5647
 3151SOL    HW120912   0.698   1.345  11.677  0.4537  2.8809  0.1969
 3151SOL    HW220913   0.727   1.237  11.781  1.0903  0.8716  1.1894
 3152SOL     OW20914   1.306   3.482   4.407 -0.1777 -0.7829 -0.4607
 3152SOL    HW120915   1.260   3.398   4.403 -0.7338 -0.5141  0.2952
 3152SOL    HW220916   1.259   3.521   4.333 -2.7614  1.2286  2.2626
 3153SOL     OW20917   4.647   1.012   3.159 -0.1557  0.2029 -0.2682
 3153SOL    HW120918   0.022   1.001   3.167 -0.0341  1.4489  0.1443
 3153SOL    HW220919   4.630   0.971   3.074 -0.4972  1.2643 -0.7121
 3154SOL     OW20920   4.572   1.511   8.783  0.4352  0.6072  0.0446
 3154SOL    HW120921   4.503   1.576   8.775  1.6034  1.5244 -2.5117
 3154SOL    HW220922   4.524   1.431   8.805 -1.4917  1.1721 -2.2116
 3155SOL     OW20923   3.847   1.960  10.309 -0.6460  0.1056 -0.1689
 3155SOL    HW120924   3.755   1.964  10.281 -0.8618 -1.6508  0.2919
 3155SOL    HW220925   3.881   1.893  10.250  0.7159  1.4771 -0.9586
 3156SOL     OW20926   1.368   3.777   0.680  0.1987 -0.3387  0.1458
 3156SOL    HW120927   1.427   3.705   0.658 -1.0254 -1.4066  0.3797
 3156SOL    HW220928   1.318   3.740   0.753 -0.5147 -0.0889 -0.2190
 3157SOL     OW20929   2.834   2.395   4.549  0.3797 -0.1936 -0.0868
 3157SOL    HW120930   2.873   2.342   4.480  0.0914  0.2945 -0.6205
 3157SOL    HW220931   2.743   2.392   4.518  0.6698  0.2838 -0.9710
 3158SOL     OW20932   4.187   2.040  13.253 -0.6533 -0.1687 -0.3247
 3158SOL    HW120933   4.208   1.970  13.191  0.9647 -0.5365  0.6572
 3158SOL    HW220934   4.144   1.994  13.325 -0.7771  1.9969  0.9853
 3159SOL     OW20935   0.550   1.760  14.721 -0.0825 -0.1822 -0.0391
 3159SOL    HW120936   0.497   1.799  14.651 -2.1567  1.3949  2.4189
 3159SOL    HW220937   0.509   1.800  14.798  0.0566  1.6429 -0.9008
 3160SOL     OW20938   1.381   3.180   2.374  0.1881 -0.3827  0.1054
 3160SOL    HW120939   1.422   3.211   2.293  1.4709 -2.6614 -0.1135
 3160SOL    HW220940   1.315   3.249   2.376  0.1156 -0.4800  0.9254
 3161SOL     OW20941   1.732   0.874   6.907  0.5421  0.1206  0.5755
 3161SOL    HW120942   1.815   0.914   6.936  0.1023  0.9933  0.6381
 3161SOL    HW220943   1.672   0.947   6.894 -2.0717 -2.2381 -0.5249
 3162SOL     OW20944   0.070   2.924   3.017  0.2824  0.0524 -0.4623
 3162SOL    HW120945   0.087   2.875   2.937  0.6932 -1.0910  0.3164
 3162SOL    HW220946   0.158   2.912   3.055 -0.5135 -0.0657  1.3478
 3163SOL     OW20947   0.523   1.013   3.081  0.5011  0.4711 -0.2876
 3163SOL    HW120948   0.615   1.034   3.098  0.7469 -1.6374  0.9917
 3163SOL    HW220949   0.497   1.091   3.033 -1.7054 -0.3347 -0.4088
 3164SOL     OW20950   1.562   0.370   2.433  0.3667  0.5422  0.4205
 3164SOL    HW120951   1.644   0.406   2.468  1.2977 -2.0202  0.8877
 3164SOL    HW220952   1.505   0.446   2.422 -1.0041 -0.8561 -1.9624
 3165SOL     OW20953   4.362   3.910   7.567 -0.0637 -0.3637  0.5379
 3165SOL    HW120954   4.416   3.839   7.530 -0.5014  0.6225 -1.9715
 3165SOL    HW220955   4.337   3.864   7.647  0.9551  0.3794  1.2773
 3166SOL     OW20956   4.148   2.464   6.543 -0.1604 -0.1784  0.2382
 3166SOL    HW120957   4.126   2.439   6.453 -1.2116 -0.5368  0.5942
 3166SOL    HW220958   4.243   2.474   6.538 -0.3944  1.7313 -0.4241
 3167SOL     OW20959   4.554   1.068   5.722  0.0839 -0.3345 -0.1577
 3167SOL    HW120960   4.459   1.073   5.719  0.0243 -0.8967  0.8282
 3167SOL    HW220961   4.572   1.132   5.790  0.6210  0.1154 -0.7190
 3168SOL     OW20962   1.272   0.323  16.975  0.2350 -0.0280 -0.0746
 3168SOL    HW120963   1.262   0.263  16.901 -3.0167 -3.2672  2.9997
 3168SOL    HW220964   1.186   0.315  17.015  0.2299  2.4293  0.4283
 3169SOL     OW20965   0.529   0.085  13.615 -0.0848  0.5395  0.1712
 3169SOL    HW120966   0.623   0.090  13.602  0.0361 -2.3041 -0.1007
 3169SOL    HW220967   0.508   0.160  13.670  1.2318  0.7583  0.3700
 3170SOL     OW20968   4.235   2.349   8.270 -0.5163  0.0996 -0.3998
 3170SOL    HW120969   4.302   2.300   8.223 -0.0808 -0.0553  0.3800
 3170SOL    HW220970   4.198   2.286   8.332 -1.7197  1.0721 -0.1263
 3171SOL     OW20971   1.564   4.477  12.652  0.8098 -0.3882 -0.1816
 3171SOL    HW120972   1.639   4.513  12.606 -0.3598  0.7674 -1.1653
 3171SOL    HW220973   1.517   4.432  12.582  1.6321 -0.4493 -0.6897
 3172SOL     OW20974   3.958   2.168   4.489 -0.6193 -0.0837  0.0329
 3172SOL    HW120975   3.941   2.128   4.404 -1.4956 -0.7645  0.5281
 3172SOL    HW220976   3.980   2.086   4.533  1.9598 -0.1821 -1.4396
 3173SOL     OW20977   1.582   1.484   4.257 -0.2409  0.0405  0.6766
 3173SOL    HW120978   1.499   1.532   4.256  0.3572  1.1213  1.9822
 3173SOL    HW220979   1.633   1.553   4.299 -1.1629  0.4109  1.1826
 3174SOL     OW20980   0.645   1.366   8.889 -0.1606  0.0129 -0.5075
 3174SOL    HW120981   0.641   1.315   8.808  1.3946  3.2942 -2.6403
 3174SOL    HW220982   0.679   1.449   8.857 -0.6652 -0.1820 -1.5293
 3175SOL     OW20983   2.176   4.373  11.624 -0.0470  0.2472  0.6723
 3175SOL    HW120984   2.253   4.328  11.660  0.1840 -0.4955 -0.7843
 3175SOL    HW220985   2.113   4.301  11.633 -0.3216  0.5094  0.8458
 3176SOL     OW20986   2.431   1.170  14.505  1.0532 -0.5444  0.9399
 3176SOL    HW120987   2.478   1.172  14.422 -0.1083  1.2371  0.3223
 3176SOL    HW220988   2.468   1.096  14.552  1.4592 -0.6178  0.5079
 3177SOL     OW20989   0.262   3.747   3.128  0.3186  0.2026  0.1656
 3177SOL    HW120990   0.344   3.704   3.153  0.2352 -0.5062 -0.7612
 3177SOL    HW220991   0.289   3.833   3.095 -1.3962  0.1519 -1.4041
 3178SOL     OW20992   2.028   3.674   2.433 -0.1098  0.7233  0.1681
 3178SOL    HW120993   1.995   3.597   2.387  1.2696  0.2877 -0.0758
 3178SOL    HW220994   2.088   3.716   2.371  2.0541  0.7654  2.2894
 3179SOL     OW20995   2.621   0.217   3.659 -0.5972  0.4639 -0.3895
 3179SOL    HW120996   2.647   0.178   3.575  1.3070  0.7378  0.0835
 3179SOL    HW220997   2.668   0.299   3.645  0.3048 -0.1605 -1.0299
 3180SOL     OW20998   3.625   0.134   5.943 -0.5478  0.6307 -0.6093
 3180SOL    HW120999   3.545   0.160   5.989 -2.1262 -2.9806 -1.3051
 3180SOL    HW221000   3.670   0.079   6.007  0.9118  3.5409  0.8554
 3181SOL     OW21001   1.521   1.101  10.850 -0.4348  0.5766 -0.3610
 3181SOL    HW121002   1.519   1.023  10.795 -0.6677  0.0141  0.4498
 3181SOL    HW221003   1.608   1.133  10.826 -0.2516 -0.7012 -1.3974
 3182SOL     OW21004   3.688   0.332   5.764 -0.0501 -0.2773  0.7962
 3182SOL    HW121005   3.687   0.250   5.813 -0.6697  0.5152  2.1065
 3182SOL    HW221006   3.604   0.328   5.718  0.9406  1.3282 -1.1552
 3183SOL     OW21007   1.243   2.948   2.171 -0.4878 -0.2231  0.0425
 3183SOL    HW121008   1.329   2.922   2.139 -0.6408 -2.1377  1.1820
 3183SOL    HW221009   1.204   2.966   2.086  0.8936 -0.4218 -0.6256
 3184SOL     OW21010   0.052   3.551   7.661  0.3050  0.1486  0.4293
 3184SOL    HW121011   0.101   3.589   7.734  0.5375 -0.7585  0.7451
 3184SOL    HW221012   4.686   3.586   7.682 -0.1136 -0.4139 -0.3433
 3185SOL     OW21013   0.294   3.044   5.262 -0.6027 -0.0841 -0.4395
 3185SOL    HW121014   0.204   3.057   5.291 -0.4961 -0.4450  0.0385
 3185SOL    HW221015   0.302   3.113   5.196  2.5170  1.8449  1.9564
 3186SOL     OW21016   2.328   3.785  17.404 -0.1006 -0.3999 -0.3942
 3186SOL    HW121017   2.358   3.874  17.386  0.7606 -0.0347  2.8797
 3186SOL    HW221018   2.261   3.806  17.469  1.7216 -1.7453  1.9019
 3187SOL     OW21019   2.455   0.488   4.107  0.2663  0.1365  0.5163
 3187SOL    HW121020   2.423   0.398   4.103 -1.2511  0.7463 -1.0596
 3187SOL    HW221021   2.540   0.467   4.067 -0.8913 -2.5304 -0.5202
 3188SOL     OW21022   1.869   0.251   5.462 -0.3788 -0.4088  0.1436
 3188SOL    HW121023   1.813   0.249   5.384 -0.8135  0.8087  0.4377
 3188SOL    HW221024   1.797   0.256   5.525 -0.8366  2.1674 -0.5852
 3189SOL     OW21025   4.222   3.189   8.692  0.1577  0.1276  0.0091
 3189SOL    HW121026   4.299   3.186   8.749  0.9796  1.7535 -1.0077
 3189SOL    HW221027   4.149   3.213   8.749 -1.4032  0.6605 -2.2144
 3190SOL     OW21028   3.015   3.661  14.300  0.1674 -0.0790 -0.2471
 3190SOL    HW121029   2.993   3.751  14.279 -1.9440  0.1679  3.0540
 3190SOL    HW221030   3.110   3.674  14.298  0.2714 -0.8126 -0.0672
 3191SOL     OW21031   0.498   0.055   4.276  0.3031  0.3425  0.7525
 3191SOL    HW121032   0.463   4.692   4.245 -0.1333  0.6702  0.3798
 3191SOL    HW221033   0.593   0.053   4.265  0.4429  0.7546  1.8298
 3192SOL     OW21034   2.208   4.428   4.867  0.0481 -0.1394 -0.5441
 3192SOL    HW121035   2.127   4.392   4.903  0.6332 -0.9132  0.0069
 3192SOL    HW221036   2.180   4.473   4.787  0.6407  1.5129  0.1878
 3193SOL     OW21037   0.058   3.799   5.116  0.6357  0.7289  0.5908
 3193SOL    HW121038   0.050   3.884   5.159 -0.6642  0.1942  1.4148
 3193SOL    HW221039   0.130   3.766   5.169  0.4384 -2.0189 -0.8678
 3194SOL     OW21040   2.080   3.333   4.946  0.5883  0.9089  0.3232
 3194SOL    HW121041   2.025   3.273   4.997  1.2666 -0.9036 -1.0896
 3194SOL    HW221042   2.114   3.391   5.014  3.7755  0.3724 -0.8131
 3195SOL     OW21043   0.127   3.674   1.810 -0.8802  0.3376  0.1686
 3195SOL    HW121044   0.208   3.631   1.782 -1.5492 -1.5169  1.1165
 3195SOL    HW221045   0.105   3.707   1.722 -1.9472  0.4192  0.4653
 3196SOL     OW21046   4.485   3.332  16.702  0.6984  0.4291 -0.1362
 3196SOL    HW121047   4.488   3.331  16.798  3.4787 -2.6470 -0.2355
 3196SOL    HW221048   4.552   3.399  16.689  0.4107  0.2145 -2.8106
 3197SOL     OW21049   3.629   0.314   4.790  0.0153 -0.0430  0.3555
 3197SOL    HW121050   3.585   0.336   4.872  2.8458  0.8096  1.6335
 3197SOL    HW221051   3.576   0.242   4.756  1.6407 -1.7583  1.4681
 3198SOL     OW21052   3.119   4.585   7.414 -0.5593 -0.0639 -0.0067
 3198SOL    HW121053   3.101   4.568   7.507 -0.6593 -1.4928 -0.2831
 3198SOL    HW221054   3.050   4.540   7.366 -1.3387  1.7161 -0.5694
 3199SOL     OW21055   1.414   4.484  15.711  0.1525 -0.0336  0.0411
 3199SOL    HW121056   1.350   4.421  15.743 -1.2197  0.0015 -2.5976
 3199SOL    HW221057   1.357   4.552  15.675 -0.3240 -0.3202  0.2563
 3200SOL     OW21058   0.350   3.722  11.937  0.0544 -0.2892 -0.2292
 3200SOL    HW121059   0.295   3.666  11.992  0.5920 -1.6698 -1.1258
 3200SOL    HW221060   0.303   3.729  11.854  0.4402  0.7048 -0.3645
 3201SOL     OW21061   4.575   4.007   2.279  0.2007 -0.3565  0.5393
 3201SOL    HW121062   4.646   3.961   2.323 -0.7986 -1.6109  0.8156
 3201SOL    HW221063   4.567   4.095   2.317 -0.6065  0.5898 -1.8127
 3202SOL     OW21064   1.826   2.981  13.477 -0.1502  0.5651  0.1255
 3202SOL    HW121065   1.752   2.944  13.526 -0.2106  3.1351  2.0117
 3202SOL    HW221066   1.895   2.971  13.542 -1.6929 -1.1749  1.5399
 3203SOL     OW21067   1.392   0.582   2.329  0.2906 -0.4511  0.0743
 3203SOL    HW121068   1.373   0.633   2.249  1.7768  0.3208  0.2266
 3203SOL    HW221069   1.310   0.596   2.376  0.6711 -1.3797  1.0033
 3204SOL     OW21070   1.346   2.874   4.394 -0.1677 -0.7672 -0.9053
 3204SOL    HW121071   1.335   2.798   4.452  1.5332 -0.8711 -0.7338
 3204SOL    HW221072   1.436   2.904   4.406 -1.5312  1.3811  4.3581
 3205SOL     OW21073   4.229   2.840   0.915  0.5435  0.5463  0.4228
 3205SOL    HW121074   4.230   2.936   0.919  0.3446  0.5743 -0.1627
 3205SOL    HW221075   4.181   2.820   0.996 -0.1951  0.4467 -0.0358
 3206SOL     OW21076   2.594   2.438   5.373  0.4885  0.4887  0.1443
 3206SOL    HW121077   2.564   2.461   5.461  1.8986  1.9640  0.2423
 3206SOL    HW221078   2.684   2.414   5.396  0.2715  0.8600  1.3994
 3207SOL     OW21079   0.149   2.484   4.565 -0.0373 -0.1153 -0.1878
 3207SOL    HW121080   0.176   2.520   4.481 -0.9059 -1.7641 -1.1684
 3207SOL    HW221081   0.059   2.460   4.541  0.0190 -1.0343  0.5210
 3208SOL     OW21082   2.081   1.386   0.392 -0.3619  0.5687  0.1375
 3208SOL    HW121083   2.084   1.341   0.476  1.5619  0.4843  0.0266
 3208SOL    HW221084   2.008   1.443   0.415 -1.5455 -0.2782 -1.5310
 3209SOL     OW21085   2.516   0.076   9.077  0.3233  0.7384 -0.1197
 3209SOL    HW121086   2.436   0.035   9.043  0.4648  0.8708 -0.6121
 3209SOL    HW221087   2.495   0.164   9.045  0.4224 -0.2970 -3.1125
 3210SOL     OW21088   2.812   3.394   9.370 -0.1038  0.3789  0.5695
 3210SOL    HW121089   2.751   3.322   9.353 -1.8438  1.5990  1.6638
 3210SOL    HW221090   2.747   3.464   9.380 -0.7849  0.1067 -1.9736
 3211SOL     OW21091   1.556   3.408   4.334 -0.0606  0.8258  0.0473
 3211SOL    HW121092   1.479   3.455   4.368 -0.2988 -0.8122  1.8079
 3211SOL    HW221093   1.622   3.442   4.394  0.0853 -1.2148  1.0464
 3212SOL     OW21094   4.494   4.352   9.684  0.4296  0.1451 -0.1983
 3212SOL    HW121095   4.582   4.319   9.670  0.5678  0.4773 -0.1325
 3212SOL    HW221096   4.460   4.357   9.595 -1.7478  0.3180  0.6179
 3213SOL     OW21097   2.925   4.421   7.315  0.1703 -0.1580  0.2991
 3213SOL    HW121098   2.877   4.388   7.391 -1.8842  1.2171 -0.3881
 3213SOL    HW221099   2.976   4.348   7.280  0.4845  1.1570 -1.9708
 3214SOL     OW21100   4.173   2.443   9.317  0.5383 -0.8848  0.9183
 3214SOL    HW121101   4.158   2.496   9.396 -0.1616 -1.1255  0.9524
 3214SOL    HW221102   4.268   2.437   9.308  0.5181 -0.6866  0.5771
 3215SOL     OW21103   1.645   4.542  15.576 -0.6316 -0.1535 -0.0274
 3215SOL    HW121104   1.569   4.494  15.607  0.1676 -1.5137 -0.1939
 3215SOL    HW221105   1.715   4.546  15.641 -0.3885 -0.1105 -0.2946
 3216SOL     OW21106   2.832   2.202  13.606  0.2215  0.5896  0.0324
 3216SOL    HW121107   2.766   2.134  13.621  1.3548 -0.2828  1.0897
 3216SOL    HW221108   2.798   2.267  13.667 -0.8504  0.2650 -0.2169
 3217SOL     OW21109   0.402   3.012   3.441  0.1108 -0.0814 -0.1960
 3217SOL    HW121110   0.359   2.964   3.370 -1.2215  1.4728 -0.4215
 3217SOL    HW221111   0.489   3.030   3.404  0.2455 -1.2107 -0.4529
 3218SOL     OW21112   3.170   2.551   1.645 -0.3588 -0.0801 -0.3354
 3218SOL    HW121113   3.200   2.560   1.735  1.6378  1.0044 -1.1122
 3218SOL    HW221114   3.198   2.465   1.615  0.6652  0.8591 -2.0847
 3219SOL     OW21115   3.845   4.009   4.423 -0.0544 -0.0068  0.1011
 3219SOL    HW121116   3.858   4.075   4.491 -1.6365 -0.3328  0.7191
 3219SOL    HW221117   3.874   3.932   4.472 -2.9962 -0.8984  0.4193
 3220SOL     OW21118   1.280   3.789   5.898  0.7814  0.4514  0.2184
 3220SOL    HW121119   1.315   3.762   5.813 -3.2106 -1.0550 -0.9311
 3220SOL    HW221120   1.358   3.822   5.942  0.7149 -1.5436  1.8210
 3221SOL     OW21121   3.247   2.752   4.410 -0.3993 -0.2293 -0.2721
 3221SOL    HW121122   3.328   2.735   4.362 -1.2232  0.3055 -1.8599
 3221SOL    HW221123   3.240   2.676   4.468  1.6827 -0.4010 -0.2732
 3222SOL     OW21124   1.415   3.892  11.188 -0.1941  0.0204  0.2118
 3222SOL    HW121125   1.352   3.930  11.249 -0.1006  0.0578  0.2850
 3222SOL    HW221126   1.477   3.965  11.180  0.1939 -0.4010 -0.6686
 3223SOL     OW21127   0.064   3.012   9.356 -0.3127  0.4676 -0.1792
 3223SOL    HW121128   0.103   3.090   9.397  1.3894 -0.0740 -0.7769
 3223SOL    HW221129   0.098   3.018   9.267  0.8236  1.5494  0.3241
 3224SOL     OW21130   4.220   2.120  11.873 -0.4207  0.2240 -0.3973
 3224SOL    HW121131   4.263   2.205  11.880  1.8991 -0.8227 -1.8853
 3224SOL    HW221132   4.299   2.066  11.873  0.5122  1.5832 -0.3055
 3225SOL     OW21133   0.177   0.576   8.527  0.3183 -0.0515  0.5602
 3225SOL    HW121134   0.094   0.571   8.480  0.1448  0.9813  0.7574
 3225SOL    HW221135   0.213   0.488   8.513 -0.5670 -0.3257 -0.0053
 3226SOL     OW21136   0.654   3.915   0.316  0.0519 -0.2059  0.1345
 3226SOL    HW121137   0.558   3.908   0.309  0.0139  0.6819 -0.2587
 3226SOL    HW221138   0.654   3.964   0.398 -0.4451  0.5329 -0.2943
 3227SOL     OW21139   2.848   1.099   6.628 -0.3822 -0.2891 -0.2236
 3227SOL    HW121140   2.913   1.106   6.698 -0.0975  2.1957 -0.7116
 3227SOL    HW221141   2.768   1.104   6.680  0.3456 -0.7046  0.9290
 3228SOL     OW21142   1.360   1.848  17.220 -0.5269 -0.2681 -0.4990
 3228SOL    HW121143   1.449   1.876  17.200 -0.4993 -0.8029 -1.0933
 3228SOL    HW221144   1.347   1.886  17.307 -0.7432 -2.0167  0.2316
 3229SOL     OW21145   4.623   2.461  12.316  0.0120 -0.7484  0.0106
 3229SOL    HW121146   4.601   2.554  12.313  0.4937 -0.6843 -1.2701
 3229SOL    HW221147   4.547   2.428  12.269 -1.2633 -1.1564  2.3229
 3230SOL     OW21148   3.922   1.864   2.708  0.2904  0.4506 -0.5623
 3230SOL    HW121149   3.879   1.801   2.650 -0.4560 -2.6284  3.3409
 3230SOL    HW221150   3.970   1.928   2.655  0.9207  0.7702  0.4019
 3231SOL     OW21151   1.147   0.329   9.846 -0.1432 -0.8254 -0.2937
 3231SOL    HW121152   1.156   0.273   9.769  0.9266  0.7494 -1.3216
 3231SOL    HW221153   1.067   0.295   9.887 -0.2846 -1.1631 -0.8502
 3232SOL     OW21154   1.400   3.059   6.662  0.4502  0.1975  0.3024
 3232SOL    HW121155   1.456   3.079   6.586 -0.4425  1.2710 -0.0797
 3232SOL    HW221156   1.466   3.044   6.730  1.8187  1.2183 -0.7846
 3233SOL     OW21157   4.090   0.582   1.820 -0.2412  0.2284 -0.4084
 3233SOL    HW121158   4.022   0.517   1.836  1.3101 -1.1206  0.6608
 3233SOL    HW221159   4.062   0.614   1.734  0.6662  1.5309 -0.2190
 3234SOL     OW21160   0.508   2.785   8.912 -0.5048 -0.1336  0.0088
 3234SOL    HW121161   0.507   2.836   8.993 -1.4030 -2.1169  1.2257
 3234SOL    HW221162   0.474   2.702   8.944  1.1699 -0.6495  0.4022
 3235SOL     OW21163   2.603   1.331  14.794 -0.3869 -0.1555 -0.8151
 3235SOL    HW121164   2.625   1.249  14.837 -0.4660 -0.0032 -0.4864
 3235SOL    HW221165   2.607   1.400  14.860 -1.9187 -0.7365 -0.1145
 3236SOL     OW21166   2.283   0.745   1.584  0.5364  0.0387  0.1165
 3236SOL    HW121167   2.325   0.673   1.630  0.0743  0.1827  0.7722
 3236SOL    HW221168   2.223   0.696   1.527 -0.1944 -0.7930  1.5924
 3237SOL     OW21169   3.161   3.207   1.406  0.2575 -0.0197  0.0548
 3237SOL    HW121170   3.167   3.113   1.428  2.7416  0.6037  2.0570
 3237SOL    HW221171   3.072   3.213   1.373  0.0679  0.7769  0.7213
 3238SOL     OW21172   4.155   2.543   4.571 -0.0445  0.1062  0.4409
 3238SOL    HW121173   4.193   2.565   4.656 -0.6866  0.7764  0.5631
 3238SOL    HW221174   4.079   2.600   4.558 -0.0880 -0.5197 -2.0240
 3239SOL     OW21175   3.695   3.921  11.685  0.0441 -0.0133 -0.3105
 3239SOL    HW121176   3.690   3.826  11.695  0.4639 -0.0042 -0.0216
 3239SOL    HW221177   3.774   3.932  11.633 -0.8305 -0.6287 -1.7799
 3240SOL     OW21178   2.944   3.096   6.476 -0.5890 -0.1404 -0.4047
 3240SOL    HW121179   3.021   3.153   6.489  0.5667 -1.9824  0.9785
 3240SOL    HW221180   2.931   3.061   6.564 -0.8767  1.2613  0.1040
 3241SOL     OW21181   3.854   2.168   3.685 -0.4331  0.3073 -0.2128
 3241SOL    HW121182   3.858   2.093   3.745 -3.1598 -0.1653 -0.6122
 3241SOL    HW221183   3.943   2.194   3.659 -0.7244  0.0836 -1.4331
 3242SOL     OW21184   2.477   2.249  14.838  0.1867  0.0403  0.5836
 3242SOL    HW121185   2.420   2.190  14.789  1.4271 -2.0810  1.7227
 3242SOL    HW221186   2.518   2.295  14.765 -2.2594 -0.8102 -1.3305
 3243SOL     OW21187   3.544   0.872  16.410 -0.6542  0.0565  0.1957
 3243SOL    HW121188   3.580   0.926  16.480 -2.0357  0.1160  0.8723
 3243SOL    HW221189   3.460   0.917  16.409  0.1488  1.4873 -1.2874
 3244SOL     OW21190   1.175   4.616   1.938  0.0688  0.2292 -0.5420
 3244SOL    HW121191   1.163   4.522   1.944 -1.6536  0.4666 -0.3548
 3244SOL    HW221192   1.263   4.629   1.975 -0.0647  1.9224 -0.7904
 3245SOL     OW21193   0.984   3.146   5.630  0.3079 -0.3168  0.4461
 3245SOL    HW121194   0.954   3.235   5.650 -2.4342 -1.1115 -0.0979
 3245SOL    HW221195   1.033   3.171   5.552  1.6275 -0.4918  1.2143
 3246SOL     OW21196   4.021   2.818  10.546  0.2466  0.4718  0.0444
 3246SOL    HW121197   3.941   2.859  10.577 -0.8567 -1.9879  0.4591
 3246SOL    HW221198   3.982   2.749  10.493  0.4246 -0.1391  0.7118
 3247SOL     OW21199   1.502   3.563   7.724  0.4396  0.2818  0.7051
 3247SOL    HW121200   1.564   3.575   7.796  0.9014 -0.4520  0.4205
 3247SOL    HW221201   1.539   3.490   7.674  0.0211 -0.6064  1.7011
 3248SOL     OW21202   4.325   2.564   7.588 -0.0528 -0.1365  0.4905
 3248SOL    HW121203   4.353   2.626   7.521  3.1835  0.7872  2.7150
 3248SOL    HW221204   4.379   2.590   7.662  0.5571  2.2893 -0.8220
 3249SOL     OW21205   1.522   2.557   3.898  0.2209 -0.2079  0.4819
 3249SOL    HW121206   1.456   2.498   3.862  1.2342 -0.7421 -0.4616
 3249SOL    HW221207   1.476   2.598   3.973  0.5266  1.0684 -0.0264
 3250SOL     OW21208   0.052   1.954   7.490 -0.0805 -0.3342  0.7120
 3250SOL    HW121209   0.007   1.873   7.466  1.0846 -0.8415  0.2827
 3250SOL    HW221210   0.135   1.914   7.514  0.2311  0.6939  1.3591
 3251SOL     OW21211   3.301   1.807   4.422  0.3323 -0.1197  0.5518
 3251SOL    HW121212   3.210   1.833   4.411  0.4343  0.0368  0.0844
 3251SOL    HW221213   3.301   1.767   4.509  0.0850  0.5512  0.8598
 3252SOL     OW21214   1.940   2.278   8.441  0.1192  0.1074  0.1972
 3252SOL    HW121215   1.857   2.326   8.444 -0.0638 -0.1391 -0.9153
 3252SOL    HW221216   1.953   2.272   8.535 -0.1073  0.5154  0.2555
 3253SOL     OW21217   4.112   0.882   2.496 -0.2534  0.5300 -0.0569
 3253SOL    HW121218   4.045   0.839   2.443  0.2404  0.0167 -0.2685
 3253SOL    HW221219   4.145   0.803   2.540 -1.2297  0.1913  0.0747
 3254SOL     OW21220   0.428   0.569   6.545  0.1371  0.1662  0.7615
 3254SOL    HW121221   0.349   0.595   6.593 -1.5313  2.4755 -3.2553
 3254SOL    HW221222   0.400   0.490   6.500  1.1613  0.5979 -0.6369
 3255SOL     OW21223   2.807   0.730   2.352 -0.5003 -0.0625 -0.2860
 3255SOL    HW121224   2.850   0.777   2.281  0.5556  2.4650  2.0195
 3255SOL    HW221225   2.772   0.665   2.292 -1.9070 -0.7744  1.3036
 3256SOL     OW21226   1.976   2.678  10.773 -0.3423  0.5731 -0.2731
 3256SOL    HW121227   1.919   2.751  10.797  0.6637  1.1916  0.2435
 3256SOL    HW221228   2.054   2.693  10.826 -0.5373  1.0539 -0.1275
 3257SOL     OW21229   0.653   0.690   0.885  0.0211  0.3792  0.1817
 3257SOL    HW121230   0.641   0.631   0.811 -0.6483 -0.6516  1.1098
 3257SOL    HW221231   0.563   0.718   0.901 -0.4018  0.1172 -1.7387
 3258SOL     OW21232   4.382   1.476  17.169 -0.0947 -0.1166  0.0705
 3258SOL    HW121233   4.432   1.433  17.239 -0.1423  1.6168  1.1710
 3258SOL    HW221234   4.305   1.508  17.215 -0.4421 -0.0969 -0.5220
 3259SOL     OW21235   3.226   3.793  12.555 -0.2328 -0.3956 -0.1350
 3259SOL    HW121236   3.315   3.765  12.574 -0.0630  0.7724  0.7215
 3259SOL    HW221237   3.202   3.749  12.473  1.0615 -2.8368  0.7868
 3260SOL     OW21238   0.260   2.238   2.683  0.2553 -0.5475  0.2193
 3260SOL    HW121239   0.271   2.297   2.757  0.9051 -0.8699  0.3799
 3260SOL    HW221240   0.346   2.196   2.686 -0.1393 -1.3858 -0.2666
 3261SOL     OW21241   1.737   0.539   2.631 -0.0795 -0.1131  0.4220
 3261SOL    HW121242   1.811   0.512   2.685  0.0534 -1.8007 -0.6277
 3261SOL    HW221243   1.778   0.540   2.545  1.7405  0.0147  1.2926
 3262SOL     OW21244   0.611   2.973   2.564  0.5744 -0.7651 -0.0911
 3262SOL    HW121245   0.688   2.937   2.608  1.2963  0.1419 -0.6004
 3262SOL    HW221246   0.591   2.910   2.494  0.9138  0.0061 -0.8843
 3263SOL     OW21247   0.592   1.797   0.291 -0.0979 -0.2101  0.4247
 3263SOL    HW121248   0.652   1.825   0.361 -0.6004  0.4533  0.5901
 3263SOL    HW221249   0.517   1.784   0.348 -1.1378 -0.9025 -1.1158
 3264SOL     OW21250   1.499   2.570  13.569 -0.0988  0.1242  0.1505
 3264SOL    HW121251   1.432   2.590  13.634 -0.8936  0.7232 -0.8515
 3264SOL    HW221252   1.481   2.481  13.540 -0.6873  0.4130 -0.3621
 3265SOL     OW21253   4.344   3.282   1.237 -1.0775 -0.3679 -0.3045
 3265SOL    HW121254   4.261   3.281   1.190 -2.4193 -2.1685  2.1037
 3265SOL    HW221255   4.368   3.375   1.245  0.8117 -0.6911 -2.2839
 3266SOL     OW21256   1.480   1.997   5.472 -0.0379 -0.0357  0.3682
 3266SOL    HW121257   1.500   1.906   5.495 -0.1703 -0.1758 -0.0766
 3266SOL    HW221258   1.535   2.047   5.533  2.8061 -1.5881 -0.9782
 3267SOL     OW21259   2.631   1.433  15.339  0.1139  0.0138 -0.0343
 3267SOL    HW121260   2.598   1.355  15.383 -0.8165  1.1418  1.2559
 3267SOL    HW221261   2.701   1.453  15.400  0.1084 -0.8395  0.2600
 3268SOL     OW21262   2.117   1.250   2.022  0.0394  0.5083 -0.0290
 3268SOL    HW121263   2.208   1.224   2.037 -0.5294 -2.0145 -1.0629
 3268SOL    HW221264   2.087   1.184   1.961  0.8049  0.4536 -0.3402
 3269SOL     OW21265   1.462   3.310   2.718  0.3173  0.0870 -0.2338
 3269SOL    HW121266   1.376   3.268   2.712  0.3116 -0.4120  3.2450
 3269SOL    HW221267   1.511   3.228   2.727  0.5071  0.2331  0.0762
 3270SOL     OW21268   4.286   2.124   1.018 -0.5271  0.3067 -0.2508
 3270SOL    HW121269   4.225   2.127   1.092 -1.0563  3.1463 -0.7947
 3270SOL    HW221270   4.343   2.049   1.037 -1.5732 -0.0404  1.5153
 3271SOL     OW21271   3.069   0.372   5.916  0.9909 -0.0599 -0.3322
 3271SOL    HW121272   3.165   0.372   5.917  0.9898  0.9538 -1.9383
 3271SOL    HW221273   3.064   0.402   5.826  1.0360 -1.9629 -0.9776
 3272SOL     OW21274   1.734   3.600   4.464  0.3379  0.4726 -0.1270
 3272SOL    HW121275   1.814   3.554   4.437  0.1096  0.6387 -1.1107
 3272SOL    HW221276   1.746   3.626   4.555 -1.5098  0.6819  0.0395
 3273SOL     OW21277   1.539   1.288  16.683  0.0626 -0.4875 -0.0705
 3273SOL    HW121278   1.455   1.283  16.637 -1.1529  0.5500  2.0097
 3273SOL    HW221279   1.608   1.289  16.617  2.0761  0.9356  2.0562
 3274SOL     OW21280   2.983   1.623   3.489 -0.3438 -0.2238  0.4517
 3274SOL    HW121281   2.888   1.638   3.486 -0.3892 -0.8292 -1.5346
 3274SOL    HW221282   2.982   1.535   3.526  0.5340 -0.7715 -0.8356
 3275SOL     OW21283   2.128   2.687   4.232  0.6280 -0.5732 -0.5665
 3275SOL    HW121284   2.215   2.656   4.208  2.1419  1.3862  2.3659
 3275SOL    HW221285   2.140   2.782   4.223  1.0511 -0.5132  0.6193
 3276SOL     OW21286   0.324   2.124   9.330  0.3294 -0.5296 -0.0648
 3276SOL    HW121287   0.372   2.049   9.295 -0.1096 -1.5901  1.6397
 3276SOL    HW221288   0.341   2.111   9.423 -1.3251  1.1779  0.4940
 3277SOL     OW21289   4.503   2.720   2.208  0.1306  0.9310  0.2234
 3277SOL    HW121290   4.447   2.710   2.130  1.8014  0.0939 -0.8784
 3277SOL    HW221291   4.593   2.726   2.178  0.1013 -0.7240 -0.2151
 3278SOL     OW21292   0.182   1.084   3.973 -0.2167  0.6017  0.1833
 3278SOL    HW121293   0.132   1.156   3.935 -1.2499  1.1864  2.6715
 3278SOL    HW221294   0.124   1.010   3.991  0.0968 -0.0247 -1.4273
 3279SOL     OW21295   0.751   2.791  15.965  0.0481  0.4863  0.0074
 3279SOL    HW121296   0.775   2.872  15.919 -2.2312  0.7561 -0.6629
 3279SOL    HW221297   0.819   2.794  16.033 -1.5860 -0.5782  1.6912
 3280SOL     OW21298   2.974   2.301  13.403 -0.2800 -0.3131 -0.4071
 3280SOL    HW121299   3.019   2.217  13.397  1.1683  0.4234  0.1844
 3280SOL    HW221300   2.908   2.272  13.466  0.5224 -0.5792  0.3106
 3281SOL     OW21301   2.890   2.829  16.791 -0.4348  0.0373  0.3919
 3281SOL    HW121302   2.915   2.786  16.872 -0.4203 -2.4099 -0.9322
 3281SOL    HW221303   2.801   2.861  16.810  0.0774 -0.2830  3.3185
 3282SOL     OW21304   4.190   3.121   9.085 -0.0898  0.3585 -0.7140
 3282SOL    HW121305   4.211   3.186   9.018  4.6352  0.5998  0.9627
 3282SOL    HW221306   4.203   3.035   9.045  0.1573  0.5893 -1.1308
 3283SOL     OW21307   1.387   3.354   9.407  0.4842  0.0950  0.0100
 3283SOL    HW121308   1.472   3.388   9.436 -0.7085  2.2869  0.8895
 3283SOL    HW221309   1.316   3.404   9.446  0.5942 -0.4080  0.8476
 3284SOL     OW21310   1.278   4.322   1.883  0.2954  0.3325  0.3790
 3284SOL    HW121311   1.360   4.369   1.873  0.2702  0.0701 -1.0664
 3284SOL    HW221312   1.313   4.251   1.937  1.3292  0.2132 -0.4382
 3285SOL     OW21313   3.032   4.676  16.620  0.0489  0.0057  0.0506
 3285SOL    HW121314   3.060   4.701  16.708 -1.7795  1.4081  0.2170
 3285SOL    HW221315   3.071   4.588  16.616  0.4882  0.1196  1.8258
 3286SOL     OW21316   1.396   3.694   4.591  0.0841  0.0101 -0.0047
 3286SOL    HW121317   1.399   3.599   4.603  0.2759  0.1034  0.6878
 3286SOL    HW221318   1.479   3.704   4.544  1.3970  0.7260  2.4739
 3287SOL     OW21319   4.433   0.549   0.467 -0.4392 -0.1879 -0.1376
 3287SOL    HW121320   4.462   0.599   0.391 -2.7031  2.2153  0.5608
 3287SOL    HW221321   4.510   0.501   0.497  0.3246  0.4825 -1.0034
 3288SOL     OW21322   0.404   3.367  14.172  0.2723 -0.4029 -0.0346
 3288SOL    HW121323   0.499   3.374  14.183  0.1309  1.5670 -0.0482
 3288SOL    HW221324   0.384   3.274  14.163  2.3258 -0.8709  0.1786
 3289SOL     OW21325   1.763   0.619   6.894 -0.1295 -0.3589  0.6063
 3289SOL    HW121326   1.736   0.709   6.912  2.2299  0.3153  0.7679
 3289SOL    HW221327   1.741   0.614   6.801  2.3157 -1.4453  0.0760
 3290SOL     OW21328   0.553   1.116  14.217  0.4430  0.4956  0.1457
 3290SOL    HW121329   0.643   1.100  14.247  0.4020 -1.1497 -0.5776
 3290SOL    HW221330   0.528   1.181  14.283 -1.1727 -0.9632  0.9776
 3291SOL     OW21331   4.511   1.570   1.659 -0.5152  0.2906  0.5407
 3291SOL    HW121332   4.508   1.494   1.718  2.4530 -1.8602 -2.0865
 3291SOL    HW221333   4.460   1.540   1.583 -2.7538  0.8089  1.8480
 3292SOL     OW21334   2.839   2.074   4.735 -0.2370  0.3882 -0.6660
 3292SOL    HW121335   2.906   2.010   4.712 -0.1582  0.4516 -0.6131
 3292SOL    HW221336   2.891   2.154   4.736 -0.4524  0.5328 -1.1678
 3293SOL     OW21337   2.803   2.622   6.261  0.2631  0.2991 -0.5804
 3293SOL    HW121338   2.890   2.617   6.223  0.4296  1.4034 -0.3636
 3293SOL    HW221339   2.822   2.623   6.355  2.3750 -1.3960 -0.9976
 3294SOL     OW21340   3.210   1.271   7.532 -0.4147 -0.1996  0.5121
 3294SOL    HW121341   3.222   1.189   7.484 -1.7180  0.4917 -1.0192
 3294SOL    HW221342   3.234   1.330   7.460  0.8184 -0.7021  0.5262
 3295SOL     OW21343   0.921   2.749   3.987 -0.2378 -0.4212 -0.3406
 3295SOL    HW121344   0.964   2.779   3.907  0.2452 -0.8465 -0.2424
 3295SOL    HW221345   0.867   2.824   4.013 -0.3145 -0.5737 -0.0644
 3296SOL     OW21346   2.320   3.660   3.837 -0.0912 -0.0110 -0.3133
 3296SOL    HW121347   2.315   3.638   3.744 -0.2159  1.1263 -0.5787
 3296SOL    HW221348   2.247   3.611   3.874 -1.6065  1.5302 -1.3075
 3297SOL     OW21349   4.251   3.414   8.557  0.0539  0.2197 -0.0426
 3297SOL    HW121350   4.231   3.333   8.604  2.9431 -0.1048  0.6194
 3297SOL    HW221351   4.257   3.379   8.468  0.2503  1.7804 -0.6393
 3298SOL     OW21352   2.718   2.680   4.956  0.8150 -0.4582  0.2241
 3298SOL    HW121353   2.703   2.717   4.869 -1.1361 -0.7972  0.4184
 3298SOL    HW221354   2.693   2.588   4.947  1.8320 -0.8933  1.8754
 3299SOL     OW21355   1.415   1.449   5.739  0.5700  0.2552 -0.4695
 3299SOL    HW121356   1.462   1.442   5.822 -1.1181 -3.6889  0.1742
 3299SOL    HW221357   1.331   1.488   5.763  0.1041 -0.6032 -0.6879
 3300SOL     OW21358   4.440   3.829   9.954 -0.3449 -0.0251 -0.3672
 3300SOL    HW121359   4.427   3.735   9.941 -2.0773  0.3460 -1.2541
 3300SOL    HW221360   4.456   3.860   9.865 -0.0677  1.4078  0.1857
 3301SOL     OW21361   2.804   4.130   9.408 -0.0082 -0.1809  0.3317
 3301SOL    HW121362   2.824   4.197   9.473  2.3806 -0.4077 -0.1502
 3301SOL    HW221363   2.717   4.164   9.389  0.7845  0.2033 -2.6757
 3302SOL     OW21364   3.944   4.089  14.851 -0.2987  0.3503  0.1244
 3302SOL    HW121365   3.961   4.163  14.794 -0.3085 -0.5172 -1.0003
 3302SOL    HW221366   3.850   4.100  14.863 -0.1730 -1.2574  2.6087
 3303SOL     OW21367   2.567   1.741   8.025 -0.3047 -0.6813 -0.6541
 3303SOL    HW121368   2.661   1.734   8.012 -0.0009 -0.8126  1.5080
 3303SOL    HW221369   2.552   1.801   8.098  1.3353 -0.1528 -0.7547
 3304SOL     OW21370   4.409   2.220   8.064 -0.7215  1.0589  0.0388
 3304SOL    HW121371   4.414   2.165   8.142 -1.9774 -0.9776 -1.3390
 3304SOL    HW221372   4.501   2.226   8.036 -1.1868  0.4820 -1.6075
 3305SOL     OW21373   1.684   1.992   8.753 -0.0228  0.5757 -0.4327
 3305SOL    HW121374   1.724   1.969   8.669 -0.2194 -1.0461 -0.0979
 3305SOL    HW221375   1.754   1.967   8.814  1.0785  1.3959 -1.3774
 3306SOL     OW21376   0.391   3.778  12.818  0.0638  0.6182 -0.2070
 3306SOL    HW121377   0.349   3.785  12.732 -1.7431  0.9740  0.6990
 3306SOL    HW221378   0.433   3.692  12.818  0.6771  0.9349  3.3429
 3307SOL     OW21379   2.609   1.651   5.565 -1.0480  0.6649 -0.4290
 3307SOL    HW121380   2.649   1.726   5.608  1.3395 -0.9595  0.1944
 3307SOL    HW221381   2.674   1.584   5.585 -1.6172  0.4838  0.8354
 3308SOL     OW21382   4.169   2.838   9.442 -0.2519  0.2375 -0.5254
 3308SOL    HW121383   4.179   2.774   9.512  1.5037  1.8739  0.7097
 3308SOL    HW221384   4.223   2.913   9.465  0.6941 -1.0059  1.2916
 3309SOL     OW21385   1.984   2.344  13.080  0.1072  0.3862 -0.0675
 3309SOL    HW121386   1.995   2.274  13.016  0.7571 -0.6507  1.1830
 3309SOL    HW221387   1.900   2.375  13.047  0.0966 -1.3278 -1.6588
 3310SOL     OW21388   4.307   3.089  16.684  0.2164  0.2532  0.5660
 3310SOL    HW121389   4.255   3.144  16.743  1.0198  1.0993  0.4947
 3310SOL    HW221390   4.376   3.154  16.668  0.4797 -0.3729 -0.8846
 3311SOL     OW21391   1.721   2.750   4.805  0.2081 -0.1499 -0.5465
 3311SOL    HW121392   1.724   2.656   4.822 -1.2351 -0.0073  0.4543
 3311SOL    HW221393   1.628   2.765   4.792 -0.1305 -0.2733  1.7703
 3312SOL     OW21394   3.403   1.877   7.537  0.1653 -0.1379  0.0264
 3312SOL    HW121395   3.490   1.900   7.505  0.0785  1.3893  0.8952
 3312SOL    HW221396   3.432   1.788   7.559 -0.2050 -0.6473 -1.5492
 3313SOL     OW21397   4.496   1.143  12.265 -0.3993  0.0450  0.1899
 3313SOL    HW121398   4.467   1.222  12.311  0.6791  0.9749 -0.7257
 3313SOL    HW221399   4.526   1.190  12.187  0.0978 -2.2030 -0.9652
 3314SOL     OW21400   3.775   1.674  15.093  0.2936 -0.3723  0.7936
 3314SOL    HW121401   3.856   1.627  15.073  0.3679  0.5796 -1.1305
 3314SOL    HW221402   3.742   1.629  15.171  1.6872  0.6485  1.9795
 3315SOL     OW21403   2.961   0.960   7.792  0.0443  0.1276  0.1084
 3315SOL    HW121404   2.960   1.046   7.751  1.4942  0.7443  1.3686
 3315SOL    HW221405   2.957   0.911   7.710 -0.6892 -0.2936  0.3907
 3316SOL     OW21406   4.052   3.388   9.210  0.5733  0.3873 -0.1059
 3316SOL    HW121407   3.979   3.443   9.180 -0.3525 -0.4970  0.5099
 3316SOL    HW221408   4.105   3.379   9.132  0.1924  0.3586 -0.3628
 3317SOL     OW21409   1.839   4.632   2.946  0.4780 -0.0956 -0.6728
 3317SOL    HW121410   1.911   4.647   2.885 -0.3049  3.4463 -0.7115
 3317SOL    HW221411   1.799   4.551   2.913 -1.2465  0.0918  0.9734
 3318SOL     OW21412   1.674   4.156   5.812  0.0804  0.0026  0.4081
 3318SOL    HW121413   1.613   4.213   5.859  2.0615  1.1969  1.5655
 3318SOL    HW221414   1.683   4.191   5.724 -2.6075 -1.0242 -0.2590
 3319SOL     OW21415   0.443   2.170   2.034  0.2324 -0.4381 -0.1111
 3319SOL    HW121416   0.539   2.165   2.032  0.4130  2.3350  1.3996
 3319SOL    HW221417   0.415   2.191   2.123  2.2833 -0.1639  0.4718
 3320SOL     OW21418   4.666   4.545   3.770 -0.0319  0.0666 -0.6103
 3320SOL    HW121419   4.583   4.515   3.808  1.4396 -1.6935  1.2424
 3320SOL    HW221420   4.681   4.631   3.810  1.8433 -1.0649  1.1322
 3321SOL     OW21421   3.270   0.588  11.461  0.7054 -0.1998 -0.0089
 3321SOL    HW121422   3.313   0.503  11.471 -2.5939 -1.9233 -0.3100
 3321SOL    HW221423   3.209   0.572  11.389 -0.2183  0.1078  0.7010
 3322SOL     OW21424   4.010   0.054  16.519 -0.4054 -0.2386 -0.0504
 3322SOL    HW121425   4.023   0.139  16.477  1.8250 -0.9899 -0.8655
 3322SOL    HW221426   4.077   0.002  16.476 -1.2439 -1.5158  0.1776
 3323SOL     OW21427   0.017   3.018   4.591 -0.3987  0.5192 -0.1320
 3323SOL    HW121428   0.072   3.027   4.668  0.4698 -1.3084 -0.5402
 3323SOL    HW221429   4.665   3.080   4.604 -2.0873 -1.3323 -0.6466
 3324SOL     OW21430   2.597   1.790   4.834  0.5153 -0.0503  0.1186
 3324SOL    HW121431   2.598   1.743   4.917 -1.8299 -1.0387 -0.4037
 3324SOL    HW221432   2.654   1.731   4.785 -2.0280 -2.1630 -0.2976
 3325SOL     OW21433   4.161   2.889   7.061  0.2387  0.4476 -0.1765
 3325SOL    HW121434   4.185   2.861   7.149 -1.5667 -0.3959  0.0523
 3325SOL    HW221435   4.242   2.931   7.031 -2.1967  3.2048 -2.8710
 3326SOL     OW21436   2.044   2.703  13.102  0.0280 -0.2796 -0.2133
 3326SOL    HW121437   2.002   2.785  13.125 -1.4540 -1.5726  1.7228
 3326SOL    HW221438   2.094   2.726  13.023 -0.3486  1.7139  0.1343
 3327SOL     OW21439   0.802   0.177  14.653 -0.3850 -0.1380 -0.1047
 3327SOL    HW121440   0.763   0.115  14.591  4.1999 -2.3726 -0.7983
 3327SOL    HW221441   0.800   0.259  14.605 -2.3809  0.0350  0.2857
 3328SOL     OW21442   3.474   4.477   3.577 -0.1248 -0.0498 -0.5908
 3328SOL    HW121443   3.410   4.546   3.594 -1.2533 -1.0071 -0.9291
 3328SOL    HW221444   3.549   4.535   3.563 -0.3216  0.7102  1.5257
 3329SOL     OW21445   4.614   2.552  13.922 -0.1782  0.3184  0.2627
 3329SOL    HW121446   4.539   2.569  13.865  0.2254 -1.4772 -0.7843
 3329SOL    HW221447   4.573   2.588  14.001 -0.4360  0.2395  0.1653
 3330SOL     OW21448   1.212   2.416   4.264 -0.9284  0.2136 -0.5847
 3330SOL    HW121449   1.217   2.350   4.334 -0.2233  1.9352  0.9771
 3330SOL    HW221450   1.128   2.458   4.282 -0.3578  1.1870 -0.2265
 3331SOL     OW21451   2.241   3.806   6.432 -0.0497  0.7851 -0.2461
 3331SOL    HW121452   2.262   3.828   6.342  0.8975 -1.6568 -0.6244
 3331SOL    HW221453   2.176   3.738   6.413  1.8193 -1.1034  0.1299
 3332SOL     OW21454   0.211   0.583   7.823  0.0082  0.3321 -0.0397
 3332SOL    HW121455   0.293   0.586   7.872  0.5565  0.2727 -0.9413
 3332SOL    HW221456   0.163   0.643   7.880 -1.1740  0.7695 -1.4870
 3333SOL     OW21457   2.468   3.524   4.032  0.4980 -0.3925 -0.1977
 3333SOL    HW121458   2.386   3.538   3.986  0.6491 -0.0752 -0.3722
 3333SOL    HW221459   2.485   3.433   4.006  0.8584 -0.1641 -0.7528
 3334SOL     OW21460   2.261   0.077  11.543  0.1230  0.0042 -0.1082
 3334SOL    HW121461   2.264   0.009  11.476  1.1817 -0.0769  0.0253
 3334SOL    HW221462   2.208   0.044  11.616  2.5678 -1.1081  1.1762
 3335SOL     OW21463   2.487   4.461  10.475  0.2902  0.2066  0.2585
 3335SOL    HW121464   2.515   4.419  10.557  0.4935 -0.1307  0.0188
 3335SOL    HW221465   2.491   4.553  10.500  0.0137  0.3567 -0.2568
 3336SOL     OW21466   2.612   2.060   5.214 -1.0276 -0.3110  0.3219
 3336SOL    HW121467   2.539   2.121   5.223 -0.3114  0.5663  0.1473
 3336SOL    HW221468   2.575   1.985   5.259 -0.9139 -1.4538 -1.4938
 3337SOL     OW21469   2.347   2.088   6.963  0.2765  0.0625  0.3146
 3337SOL    HW121470   2.411   2.142   6.917  1.1368 -1.7921 -0.6627
 3337SOL    HW221471   2.268   2.117   6.919  0.3691 -0.3928 -0.1533
 3338SOL     OW21472   3.805   3.333   4.064 -0.0353 -0.2407  0.9750
 3338SOL    HW121473   3.867   3.359   4.132  0.5113  0.6093  0.1632
 3338SOL    HW221474   3.870   3.297   4.003  0.1538  1.0428  0.3985
 3339SOL     OW21475   4.018   3.243   0.187  0.7641  0.0312 -0.0456
 3339SOL    HW121476   3.926   3.224   0.203  0.7409 -0.2795 -0.5395
 3339SOL    HW221477   4.061   3.159   0.174  1.7945  0.1111  2.9520
 3340SOL     OW21478   4.081   0.564  10.683 -0.0794  0.2484  0.0389
 3340SOL    HW121479   4.140   0.512  10.629  0.3594 -0.4332  1.1865
 3340SOL    HW221480   4.045   0.624  10.617  0.1264 -0.9459 -1.1641
 3341SOL     OW21481   0.389   3.415   8.384 -0.0261 -0.7485  0.0320
 3341SOL    HW121482   0.459   3.477   8.366 -1.3579  0.9875  0.8949
 3341SOL    HW221483   0.305   3.458   8.370  0.5071 -0.3297 -1.9294
 3342SOL     OW21484   0.644   0.387  10.074 -0.2013 -0.1647  0.3765
 3342SOL    HW121485   0.564   0.367  10.122  0.3596 -2.9010  0.1629
 3342SOL    HW221486   0.598   0.425   9.999  1.2692  2.7017  0.9323
 3343SOL     OW21487   0.093   2.395   7.360 -0.3828  0.1931  0.1942
 3343SOL    HW121488   0.081   2.303   7.334 -4.4589  0.3717  1.4892
 3343SOL    HW221489   0.114   2.434   7.275  2.7152 -0.0703  0.8222
 3344SOL     OW21490   3.432   3.405   3.295  0.0333 -0.3828  0.0851
 3344SOL    HW121491   3.357   3.394   3.236 -1.0167  1.3827  1.0691
 3344SOL    HW221492   3.386   3.383   3.376  1.5555  0.2392  1.1129
 3345SOL     OW21493   1.583   3.595   5.488 -0.0170 -0.0996  0.0174
 3345SOL    HW121494   1.530   3.567   5.414 -2.8158  0.6322  1.7523
 3345SOL    HW221495   1.616   3.682   5.463 -1.7537  0.3700 -0.6561
 3346SOL     OW21496   1.115   4.339   8.356  0.4043 -0.3829  0.0215
 3346SOL    HW121497   1.149   4.398   8.423  1.5549 -2.8801  1.6603
 3346SOL    HW221498   1.196   4.324   8.307 -1.0568 -2.0769 -1.8611
 3347SOL     OW21499   0.999   3.043  15.557  0.6905  0.4125 -0.4199
 3347SOL    HW121500   1.067   3.007  15.614  0.1424 -1.1982 -0.7607
 3347SOL    HW221501   1.032   3.132  15.549 -1.0300  1.0826  0.1022
 3348SOL     OW21502   0.983   2.271   7.635 -0.0252  0.1031 -0.2486
 3348SOL    HW121503   0.933   2.314   7.706  1.1353  1.8144 -0.4645
 3348SOL    HW221504   0.921   2.300   7.568 -1.5214 -1.1498  0.5811
 3349SOL     OW21505   0.077   3.317   0.118 -0.9796  0.3858 -0.7375
 3349SOL    HW121506   0.050   3.233   0.082 -0.3226 -1.2323  2.5152
 3349SOL    HW221507   4.710   3.345   0.144 -0.8873  1.9454 -2.1069
 3350SOL     OW21508   2.317   2.738  16.254  0.2472  0.2225  0.6126
 3350SOL    HW121509   2.403   2.714  16.220 -0.3266 -2.4526  1.0470
 3350SOL    HW221510   2.277   2.653  16.271 -0.8069  0.2561 -1.5895
 3351SOL     OW21511   2.174   1.755   9.446 -0.2816 -0.1490  0.4769
 3351SOL    HW121512   2.207   1.678   9.494  3.3672  0.3746 -1.2174
 3351SOL    HW221513   2.187   1.725   9.356 -0.4479 -1.4058  0.8670
 3352SOL     OW21514   4.070   3.818   1.336  0.0132  0.2877  0.2280
 3352SOL    HW121515   4.087   3.772   1.254 -1.9907 -0.0317  0.0052
 3352SOL    HW221516   4.089   3.907   1.307 -0.6150  0.2347 -0.3357
 3353SOL     OW21517   1.088   3.644   7.025 -0.1176 -0.4088  1.1293
 3353SOL    HW121518   1.019   3.608   6.969  1.5991  1.2064 -1.9976
 3353SOL    HW221519   1.146   3.567   7.027 -0.9917 -1.0473  1.6421
 3354SOL     OW21520   1.945   3.177  11.465  0.3206 -0.2391  0.1243
 3354SOL    HW121521   2.014   3.111  11.475  0.8497  0.1957 -0.6660
 3354SOL    HW221522   1.973   3.239  11.398  0.9766 -0.2712  0.3675
 3355SOL     OW21523   4.306   2.461   7.970 -0.4048  0.0632  0.4298
 3355SOL    HW121524   4.390   2.483   7.930 -0.0522  1.0656  1.7253
 3355SOL    HW221525   4.333   2.380   8.012  0.1797 -0.7509 -1.4907
 3356SOL     OW21526   0.013   0.573  17.187 -0.1404 -0.4672 -0.4797
 3356SOL    HW121527   0.102   0.546  17.167  1.2764  2.5574  1.7189
 3356SOL    HW221528   0.033   0.638  17.255  0.3068  0.1165 -1.1703
 3357SOL     OW21529   1.813   3.767   8.944  0.2608 -0.2880  0.0583
 3357SOL    HW121530   1.801   3.688   8.892 -0.5196  0.2957 -0.6485
 3357SOL    HW221531   1.812   3.735   9.034 -1.9499 -0.1141  0.0737
 3358SOL     OW21532   4.421   3.103   4.329  0.2987  0.1127 -0.2159
 3358SOL    HW121533   4.388   3.177   4.381  2.4332  0.3805  0.7294
 3358SOL    HW221534   4.355   3.035   4.343  0.0351  0.3491 -0.2887
 3359SOL     OW21535   2.839   2.628   6.989 -0.7026  0.0718 -0.5542
 3359SOL    HW121536   2.889   2.658   7.065  0.7405 -0.4891 -1.2771
 3359SOL    HW221537   2.907   2.645   6.923  1.1721  1.1581  1.6726
 3360SOL     OW21538   3.035   1.834  16.251  0.0950  0.0412  0.3135
 3360SOL    HW121539   3.011   1.813  16.160  0.2830  1.5315 -0.0800
 3360SOL    HW221540   3.125   1.805  16.259  0.3098  0.6159  0.0199
 3361SOL     OW21541   3.423   1.367   7.129  0.4136 -0.5983  0.3402
 3361SOL    HW121542   3.487   1.301   7.155  1.6590  1.6488  3.0666
 3361SOL    HW221543   3.481   1.430   7.085  0.1672 -0.6285 -0.0252
 3362SOL     OW21544   1.565   3.030   6.922 -0.2581  0.9414 -0.1940
 3362SOL    HW121545   1.592   3.120   6.904  0.5144  0.5892 -0.8064
 3362SOL    HW221546   1.564   3.033   7.018 -2.4345 -0.8791 -0.1569
 3363SOL     OW21547   1.088   4.058   1.917  0.2672  0.1254  0.3304
 3363SOL    HW121548   1.174   4.037   1.880 -0.5853 -3.1238  0.1987
 3363SOL    HW221549   1.067   4.145   1.882  0.7962  0.0463 -0.1828
 3364SOL     OW21550   3.845   3.838   3.605  0.1419  0.2092  0.2410
 3364SOL    HW121551   3.805   3.779   3.542  0.8981  0.8687 -0.8515
 3364SOL    HW221552   3.902   3.886   3.545 -2.1955  2.5626 -0.0941
 3365SOL     OW21553   2.337   4.627   4.137 -0.0105 -0.0566  0.2333
 3365SOL    HW121554   2.307   4.539   4.113 -1.7494  0.4655  0.5316
 3365SOL    HW221555   2.429   4.620   4.111 -0.1834  1.3379 -0.7313
 3366SOL     OW21556   1.656   2.463   0.563 -0.2476  0.0195 -0.0750
 3366SOL    HW121557   1.586   2.502   0.615 -0.7669 -0.2574 -0.5686
 3366SOL    HW221558   1.695   2.406   0.629  0.4482  0.9556  0.3222
 3367SOL     OW21559   0.964   3.898   5.141  0.0819 -0.2432  0.0442
 3367SOL    HW121560   1.012   3.905   5.058  1.9879  1.1750  1.2760
 3367SOL    HW221561   0.884   3.856   5.109  1.8649 -1.6465 -2.5885
 3368SOL     OW21562   1.618   2.221   4.963  0.0072 -0.2390  0.0480
 3368SOL    HW121563   1.676   2.157   5.004  0.2499  1.4902  2.3885
 3368SOL    HW221564   1.557   2.237   5.035 -0.7928 -2.3997 -0.1249
 3369SOL     OW21565   2.960   1.134   4.263  0.0070 -0.2242  0.0254
 3369SOL    HW121566   2.929   1.176   4.343  1.8852  0.1513  0.5490
 3369SOL    HW221567   2.892   1.162   4.201 -0.0578 -1.0197 -0.2610
 3370SOL     OW21568   4.329   3.513  13.080 -0.6717 -0.0134  0.0500
 3370SOL    HW121569   4.320   3.600  13.042 -0.9834 -0.8395 -1.7794
 3370SOL    HW221570   4.388   3.460  13.027  1.4244  0.7430  1.6348
 3371SOL     OW21571   0.559   4.357  13.145 -0.2944  0.2820 -0.1052
 3371SOL    HW121572   0.530   4.288  13.205  1.8416 -2.7071 -2.4939
 3371SOL    HW221573   0.645   4.326  13.116 -0.1280  2.7502 -2.2096
 3372SOL     OW21574   2.376   4.139   3.800 -0.2739 -0.3477 -0.6137
 3372SOL    HW121575   2.359   4.078   3.729 -1.9610 -0.7642  0.1501
 3372SOL    HW221576   2.469   4.119   3.813 -0.5269 -1.1243 -0.0334
 3373SOL     OW21577   2.493   3.665   5.826 -0.4078  0.8466 -0.5621
 3373SOL    HW121578   2.528   3.754   5.825  0.9448  0.3185 -0.2441
 3373SOL    HW221579   2.452   3.653   5.741  0.3604  3.2807 -1.2743
 3374SOL     OW21580   3.786   2.858   7.845  0.0462 -0.3342  0.4095
 3374SOL    HW121581   3.718   2.800   7.878 -0.2748 -0.6507 -0.8143
 3374SOL    HW221582   3.774   2.843   7.751  2.0439  1.2101 -0.1055
 3375SOL     OW21583   2.827   4.372  17.326 -0.0455  0.7174 -0.4679
 3375SOL    HW121584   2.853   4.355  17.236 -0.0055 -1.3163 -0.0569
 3375SOL    HW221585   2.783   4.291  17.352 -3.4809  2.4315 -0.9487
 3376SOL     OW21586   0.741   4.220   2.337  0.0779  0.1900 -0.5474
 3376SOL    HW121587   0.824   4.213   2.290  0.6665  1.0715  0.3631
 3376SOL    HW221588   0.749   4.167   2.416 -0.3243  1.4243  0.3169
 3377SOL     OW21589   1.202   1.547  10.265 -0.1314 -0.6655 -0.2360
 3377SOL    HW121590   1.295   1.523  10.269 -0.2056 -0.8504  0.4007
 3377SOL    HW221591   1.196   1.575  10.357 -0.9034  2.2108 -1.1916
 3378SOL     OW21592   1.811   0.162   9.495  0.0691  0.2896  0.0062
 3378SOL    HW121593   1.770   0.119   9.420  1.0790 -0.9746  0.1869
 3378SOL    HW221594   1.856   0.238   9.459  0.4248  0.5986  1.0887
 3379SOL     OW21595   0.493   3.240   5.985  0.0526  0.0770  0.0720
 3379SOL    HW121596   0.511   3.293   6.063 -0.8401  0.5270 -0.0312
 3379SOL    HW221597   0.578   3.237   5.942  0.4010 -1.6072  0.8791
 3380SOL     OW21598   0.905   3.706   8.207 -0.0491 -0.2513 -0.0258
 3380SOL    HW121599   0.935   3.615   8.209 -0.5126 -0.3716  1.6494
 3380SOL    HW221600   0.861   3.716   8.291  1.5129  1.2031  0.6132
 3381SOL     OW21601   3.496   3.671   3.221 -1.1696 -0.3706 -0.1358
 3381SOL    HW121602   3.495   3.576   3.214  1.0768 -0.4350  0.6045
 3381SOL    HW221603   3.402   3.691   3.217 -1.4475 -2.1052 -1.9188
 3382SOL     OW21604   2.606   0.990   2.035 -0.8247  0.0680  0.1150
 3382SOL    HW121605   2.675   0.963   1.974 -0.6774  1.4336 -0.3198
 3382SOL    HW221606   2.555   0.909   2.027 -1.7667  0.6149  0.6418
 3383SOL     OW21607   0.833   0.902   5.841  0.0459  0.1994  0.2063
 3383SOL    HW121608   0.828   0.977   5.900 -1.5914  0.2505  0.0126
 3383SOL    HW221609   0.771   0.839   5.880 -1.4978 -0.1019 -2.7874
 3384SOL     OW21610   2.652   0.490   7.212  0.7599 -0.3840 -0.4087
 3384SOL    HW121611   2.608   0.463   7.132  0.5533  1.4121 -0.8966
 3384SOL    HW221612   2.727   0.431   7.202  1.6904  0.5385  1.0853
 3385SOL     OW21613   0.898   0.058  15.629 -0.1952  0.5380 -0.3463
 3385SOL    HW121614   0.926   0.065  15.538 -1.2759  0.3537 -0.6958
 3385SOL    HW221615   0.976   0.063  15.684  1.3206  0.8068 -2.5727
 3386SOL     OW21616   2.970   4.108   7.385  0.1629 -0.1371  0.3658
 3386SOL    HW121617   2.913   4.035   7.358  0.8279 -0.8290  0.8261
 3386SOL    HW221618   2.923   4.154   7.454  1.2118  1.7553 -0.1708
 3387SOL     OW21619   3.525   1.501   3.523 -0.2524  0.3849  0.1970
 3387SOL    HW121620   3.512   1.551   3.442  0.8461  0.5616  0.1285
 3387SOL    HW221621   3.582   1.432   3.488 -0.0486  0.8314 -0.3551
 3388SOL     OW21622   2.526   3.730   1.990 -0.0729 -0.0882 -1.0090
 3388SOL    HW121623   2.489   3.643   1.974  1.6739 -1.1535  0.7160
 3388SOL    HW221624   2.559   3.756   1.903 -0.9258  0.3288 -1.2122
 3389SOL     OW21625   1.573   3.353   0.759  0.2826 -0.1510  0.2101
 3389SOL    HW121626   1.537   3.264   0.768  1.1826 -0.3189  2.0681
 3389SOL    HW221627   1.657   3.347   0.804  0.9021 -0.9262 -1.0461
 3390SOL     OW21628   4.601   3.783  17.458  0.7750 -0.2938 -0.3325
 3390SOL    HW121629   4.524   3.814  17.411  0.1469  1.8273  2.1141
 3390SOL    HW221630   4.645   3.730  17.390  2.2047 -0.0500  0.3992
 3391SOL     OW21631   3.872   0.192   3.638 -0.1609  0.3591 -0.2547
 3391SOL    HW121632   3.904   0.103   3.652  0.9987  1.1243  1.9755
 3391SOL    HW221633   3.913   0.236   3.712 -0.5200  1.9774 -1.0210
 3392SOL     OW21634   0.669   1.885   8.254  0.3175  0.1373 -0.2474
 3392SOL    HW121635   0.666   1.940   8.175 -2.0559  1.1695  0.5712
 3392SOL    HW221636   0.747   1.921   8.297  1.4884 -0.8047 -1.5661
 3393SOL     OW21637   1.634   3.190   9.089  0.5268  0.0623 -1.0595
 3393SOL    HW121638   1.572   3.262   9.095 -0.2550 -0.5424 -1.8759
 3393SOL    HW221639   1.615   3.140   9.168  0.9773  3.0450  0.9267
 3394SOL     OW21640   2.892   3.699   6.339  0.1248  0.0568 -0.2664
 3394SOL    HW121641   2.847   3.762   6.395 -1.1598 -1.3670  0.3025
 3394SOL    HW221642   2.862   3.614   6.370 -0.0677 -0.0689 -0.7914
 3395SOL     OW21643   1.165   0.707   5.002  0.1396 -0.1468 -0.0599
 3395SOL    HW121644   1.163   0.611   4.997 -0.7433 -0.0424 -1.7433
 3395SOL    HW221645   1.083   0.712   4.952  1.6763  2.9233 -2.3158
 3396SOL     OW21646   1.426   4.643   9.653 -0.0121  0.2186 -0.1163
 3396SOL    HW121647   1.414   4.556   9.691 -0.1214  0.2067 -0.1762
 3396SOL    HW221648   1.423   4.690   9.736  2.4492  1.5530 -0.7885
 3397SOL     OW21649   0.916   2.280   8.664  0.2327  0.1041  0.1372
 3397SOL    HW121650   0.827   2.273   8.628 -0.2502  3.0123  0.7703
 3397SOL    HW221651   0.950   2.196   8.632 -2.3053 -1.0267  0.3519
 3398SOL     OW21652   0.167   4.401   5.882  0.3719 -0.3282 -0.3439
 3398SOL    HW121653   0.088   4.405   5.827 -1.0941  1.4961  1.8887
 3398SOL    HW221654   0.171   4.493   5.906  0.5598 -0.0509 -1.4097
 3399SOL     OW21655   4.668   4.522  10.996 -0.3545  0.4223  0.4961
 3399SOL    HW121656   4.618   4.586  11.047 -0.0882  0.5282  0.6272
 3399SOL    HW221657   4.643   4.448  11.052  0.8203 -0.1847  0.2228
 3400SOL     OW21658   2.984   3.715   5.166  0.1916 -0.7532  0.3379
 3400SOL    HW121659   2.968   3.675   5.081 -4.2096  1.0710  0.3114
 3400SOL    HW221660   3.061   3.666   5.195  1.7777  1.8269  0.5631
 3401SOL     OW21661   3.319   3.146   8.416 -0.7032 -1.0434  0.4842
 3401SOL    HW121662   3.232   3.139   8.376 -0.7272  1.2241  0.1303
 3401SOL    HW221663   3.290   3.143   8.507 -1.5586  0.7399  0.2708
 3402SOL     OW21664   3.525   2.768  12.528  0.4355 -0.3842 -0.2912
 3402SOL    HW121665   3.574   2.699  12.483  1.7361  0.3114  0.0625
 3402SOL    HW221666   3.483   2.707  12.588  0.5051  0.4696  0.6355
 3403SOL     OW21667   0.041   0.389  11.152 -0.2890  0.1746  0.0620
 3403SOL    HW121668   0.080   0.348  11.074  0.5125 -0.8352  0.9889
 3403SOL    HW221669   0.108   0.375  11.219  1.2282 -2.0305 -1.9180
 3404SOL     OW21670   2.202   1.970   8.871 -0.2390 -0.5347 -0.3246
 3404SOL    HW121671   2.211   2.045   8.812 -2.3193  1.1201  1.4460
 3404SOL    HW221672   2.118   1.995   8.910 -0.1318 -0.5948 -0.0544
 3405SOL     OW21673   0.501   1.067  16.278 -0.0092 -0.3738 -0.1975
 3405SOL    HW121674   0.434   1.025  16.224  1.4082  0.7477 -2.7808
 3405SOL    HW221675   0.528   1.145  16.230  1.4381 -0.1197  0.9995
 3406SOL     OW21676   0.277   3.394   3.514 -0.0115  0.1927 -0.0857
 3406SOL    HW121677   0.312   3.434   3.434  0.3209  0.7462  0.3323
 3406SOL    HW221678   0.355   3.396   3.570  0.5397  2.4889 -0.9083
 3407SOL     OW21679   1.841   3.470  11.125  0.1004 -0.2945 -0.3331
 3407SOL    HW121680   1.800   3.429  11.049 -0.1268  1.3780 -1.1259
 3407SOL    HW221681   1.930   3.435  11.122 -0.1878 -0.9919 -0.7255
 3408SOL     OW21682   0.352   2.560   4.138 -0.1144  0.3196  0.7914
 3408SOL    HW121683   0.356   2.652   4.114  1.1888  0.7268  2.5905
 3408SOL    HW221684   0.274   2.533   4.089 -0.0711  1.1343  0.2699
 3409SOL     OW21685   4.506   1.563   3.177  0.0207  0.4371 -0.2881
 3409SOL    HW121686   4.568   1.636   3.180 -0.9645  1.2219  0.8892
 3409SOL    HW221687   4.468   1.573   3.089  0.2171  0.8716 -0.3270
 3410SOL     OW21688   3.519   4.130   2.822 -0.0533  0.1138  0.6469
 3410SOL    HW121689   3.444   4.139   2.763  0.5506 -0.0633 -0.1616
 3410SOL    HW221690   3.579   4.074   2.772 -0.5120 -0.1732  0.4151
 3411SOL     OW21691   0.374   0.155   1.543  0.8738  0.4693 -0.0299
 3411SOL    HW121692   0.345   0.067   1.519  0.6319  0.1401  1.4921
 3411SOL    HW221693   0.321   0.181   1.618  0.9345  0.8448 -0.1153
 3412SOL     OW21694   2.977   1.511  10.902 -0.1269 -0.2731  0.4652
 3412SOL    HW121695   3.055   1.557  10.933 -0.8957  1.1048  0.3474
 3412SOL    HW221696   2.977   1.546  10.813  2.0761 -1.2269  0.0868
 3413SOL     OW21697   3.595   4.520   4.506 -0.0781 -0.1707 -0.2753
 3413SOL    HW121698   3.653   4.597   4.503 -0.8002  0.3848 -0.1347
 3413SOL    HW221699   3.516   4.558   4.467  0.4195  2.7483  1.5251
 3414SOL     OW21700   0.723   0.022   5.551  0.0412  0.2731 -0.5497
 3414SOL    HW121701   0.720   0.085   5.623 -2.8955  0.8766 -1.2126
 3414SOL    HW221702   0.754   4.667   5.602  0.4442  0.0707 -1.0841
 3415SOL     OW21703   1.304   1.174   6.377  0.2956  1.0348  0.5298
 3415SOL    HW121704   1.382   1.147   6.329 -0.3989 -1.8024  0.9667
 3415SOL    HW221705   1.305   1.268   6.360 -0.5079  0.9967  0.2462
 3416SOL     OW21706   1.311   1.322   6.024  0.0155 -0.0637  0.3756
 3416SOL    HW121707   1.224   1.361   6.015 -1.7679 -3.4233  3.4648
 3416SOL    HW221708   1.296   1.228   6.019 -1.3993  0.1353  0.8946
 3417SOL     OW21709   2.723   4.414   1.277 -0.0856  0.6972  0.0074
 3417SOL    HW121710   2.725   4.318   1.274 -3.2247  0.6251 -0.0993
 3417SOL    HW221711   2.629   4.429   1.266  0.6782  3.3273 -2.8285
 3418SOL     OW21712   3.092   0.968   6.002  0.2008 -0.1312 -0.1853
 3418SOL    HW121713   3.177   0.963   6.045 -0.9454  0.9009  2.2604
 3418SOL    HW221714   3.108   1.020   5.924 -0.8298 -0.0217 -0.3325
 3419SOL     OW21715   2.215   3.808   7.731 -0.6674 -0.5096 -0.5888
 3419SOL    HW121716   2.178   3.723   7.753  2.2701 -0.6078  3.7994
 3419SOL    HW221717   2.174   3.827   7.646 -1.0517  1.2777 -0.0077
 3420SOL     OW21718   4.069   3.434   1.983 -0.0438  0.3933 -0.9600
 3420SOL    HW121719   4.068   3.398   1.894  2.8316 -1.8823 -0.0714
 3420SOL    HW221720   4.125   3.509   1.963  0.2118  0.1479 -1.1780
 3421SOL     OW21721   3.231   1.672   6.681 -0.2643  0.1817  0.2167
 3421SOL    HW121722   3.243   1.594   6.735 -0.6204 -0.5233 -0.7134
 3421SOL    HW221723   3.143   1.656   6.647  0.4748  0.4465 -1.7802
 3422SOL     OW21724   4.233   0.380   3.154 -0.5695 -0.0227  0.1176
 3422SOL    HW121725   4.280   0.301   3.129  1.6287  1.3284 -0.0590
 3422SOL    HW221726   4.197   0.345   3.235 -2.5876 -1.0633 -1.2427
 3423SOL     OW21727   1.954   2.343   9.196 -0.2143 -0.5303  0.4054
 3423SOL    HW121728   2.034   2.324   9.244 -1.5011  0.6857  3.0777
 3423SOL    HW221729   1.979   2.418   9.142 -0.2465 -0.4441  0.5104
 3424SOL     OW21730   2.667   0.426   8.548  0.2034  0.1218  0.0237
 3424SOL    HW121731   2.756   0.454   8.526  0.1111 -1.0558 -1.8418
 3424SOL    HW221732   2.613   0.452   8.474  1.5874  0.2075 -0.9600
 3425SOL     OW21733   1.284   3.178   1.408 -0.4977 -0.2208 -0.0695
 3425SOL    HW121734   1.345   3.246   1.438 -1.1481  0.1525  0.4116
 3425SOL    HW221735   1.200   3.223   1.415 -0.1281  0.4926 -0.2079
 3426SOL     OW21736   2.411   3.480   7.491 -0.3087 -0.0614  1.0994
 3426SOL    HW121737   2.390   3.551   7.552  0.8165  0.0998  1.3131
 3426SOL    HW221738   2.341   3.496   7.428  3.3095  0.7955 -2.6921
 3427SOL     OW21739   1.935   3.201  10.575 -0.4733 -0.1768  0.0638
 3427SOL    HW121740   1.843   3.217  10.600 -1.4342 -3.9017 -1.1193
 3427SOL    HW221741   1.954   3.126  10.631  0.4507 -0.9486 -1.2891
 3428SOL     OW21742   3.371   1.251   5.581  0.0869  0.2703  0.0550
 3428SOL    HW121743   3.459   1.286   5.565  0.0466 -0.1123 -0.9967
 3428SOL    HW221744   3.401   1.178   5.635 -1.4358 -2.4447 -2.8165
 3429SOL     OW21745   3.989   1.939   5.451 -0.2190 -0.3405 -0.1469
 3429SOL    HW121746   4.072   1.893   5.454  0.9035  1.6269 -0.7740
 3429SOL    HW221747   4.010   2.031   5.434  0.8350 -0.8913 -1.8726
 3430SOL     OW21748   1.548   4.010   7.332  0.0882  0.3614  0.0124
 3430SOL    HW121749   1.586   3.929   7.364  1.1475  1.5080  1.6435
 3430SOL    HW221750   1.461   4.019   7.371 -0.2771 -1.6492 -0.3836
 3431SOL     OW21751   1.203   1.204   2.798 -0.6976 -0.1613  0.8298
 3431SOL    HW121752   1.139   1.158   2.744 -0.9664  1.1428  0.0416
 3431SOL    HW221753   1.265   1.240   2.735 -1.1579 -0.7544  0.0334
 3432SOL     OW21754   3.745   1.013   8.462  0.4899 -0.0122  0.5840
 3432SOL    HW121755   3.661   1.059   8.467 -0.4997 -1.8539  1.1434
 3432SOL    HW221756   3.748   0.964   8.380 -0.2316  0.5967  0.1917
 3433SOL     OW21757   2.134   1.028   9.715 -0.2315 -0.1525 -0.1497
 3433SOL    HW121758   2.066   0.997   9.775  0.5444 -0.9366  0.3292
 3433SOL    HW221759   2.147   1.119   9.741 -1.8802  0.1701 -0.4386
 3434SOL     OW21760   1.359   1.654   4.202 -0.4521 -0.1418  0.0140
 3434SOL    HW121761   1.298   1.600   4.151 -1.5815  1.1601 -0.0169
 3434SOL    HW221762   1.309   1.735   4.213 -1.4957 -0.9546  1.2176
 3435SOL     OW21763   4.492   2.995   6.747  0.4302 -0.1877 -0.2612
 3435SOL    HW121764   4.458   2.964   6.831  0.7888 -3.0639 -1.1657
 3435SOL    HW221765   4.489   2.910   6.703 -0.6360 -0.7629  0.8900
 3436SOL     OW21766   2.483   4.304  15.191 -0.1631 -0.2403 -0.0938
 3436SOL    HW121767   2.539   4.348  15.255  1.1607 -0.2884 -1.2129
 3436SOL    HW221768   2.459   4.224  15.238 -0.4159 -1.4462 -2.3060
 3437SOL     OW21769   2.164   4.623  12.254 -0.4163  0.5266 -0.6316
 3437SOL    HW121770   2.228   4.690  12.230 -0.0410  0.4224  0.0824
 3437SOL    HW221771   2.182   4.614  12.348 -0.0676  0.5013 -0.7001
 3438SOL     OW21772   2.464   0.343   1.314 -0.1991  0.2771  0.6140
 3438SOL    HW121773   2.527   0.388   1.258 -0.7152 -0.3286 -0.4601
 3438SOL    HW221774   2.382   0.356   1.265 -1.1237 -0.7394  1.8962
 3439SOL     OW21775   0.856   0.263   2.188 -0.0869  0.3424  0.1017
 3439SOL    HW121776   0.854   0.189   2.127  1.8912  1.3890 -1.2213
 3439SOL    HW221777   0.763   0.258   2.211  0.7942 -1.1465  3.2808
 3440SOL     OW21778   0.871   3.668  16.786 -0.0578 -0.2814  0.3539
 3440SOL    HW121779   0.868   3.734  16.716  0.2237 -0.8843 -0.2288
 3440SOL    HW221780   0.852   3.579  16.756 -0.1304  0.5194 -1.9904
 3441SOL     OW21781   2.541   0.427  11.439  0.3520 -0.2592  0.0710
 3441SOL    HW121782   2.520   0.362  11.372 -1.4921  0.4341 -0.0173
 3441SOL    HW221783   2.618   0.386  11.478 -0.9200 -1.0979  1.6959
 3442SOL     OW21784   0.353   3.126   7.310  0.5877 -0.6007 -0.0560
 3442SOL    HW121785   0.368   3.063   7.380 -2.3702 -1.6886 -0.4043
 3442SOL    HW221786   0.438   3.116   7.267  1.0473  2.7844  0.0352
 3443SOL     OW21787   1.747   2.382   5.496  0.3450  0.0164  0.5259
 3443SOL    HW121788   1.815   2.361   5.432  0.2493  0.1167  0.3932
 3443SOL    HW221789   1.674   2.344   5.448  2.0864 -0.8312 -1.4541
 3444SOL     OW21790   4.641   1.624   1.995 -0.5933 -0.0576  0.0341
 3444SOL    HW121791   4.591   1.705   2.005  0.8913  0.8560  0.0640
 3444SOL    HW221792   4.567   1.569   2.020 -0.9132 -0.2097 -1.2375
 3445SOL     OW21793   1.498   3.060   7.468  0.0285 -0.1091 -0.1100
 3445SOL    HW121794   1.439   3.067   7.543 -0.9300  1.5129 -1.0126
 3445SOL    HW221795   1.573   3.022   7.515  1.2576  1.2692 -0.9474
 3446SOL     OW21796   0.059   2.505  11.137 -0.3212 -0.3653  0.3823
 3446SOL    HW121797   0.140   2.508  11.188  0.9262 -0.7611 -1.5808
 3446SOL    HW221798   0.064   2.593  11.099  0.3072  0.0256  1.3683
 3447SOL     OW21799   1.336   0.030   0.969  0.1237 -0.3864 -0.1088
 3447SOL    HW121800   1.254   0.069   0.999 -0.9103 -2.1448 -0.6308
 3447SOL    HW221801   1.358   0.072   0.886 -2.9239 -0.4736 -0.9361
 3448SOL     OW21802   3.338   0.973   7.121 -0.1409 -0.7755 -0.2607
 3448SOL    HW121803   3.423   0.934   7.101 -0.4145 -1.6471  0.2867
 3448SOL    HW221804   3.294   0.888   7.124 -1.2978 -0.1183  1.5143
 3449SOL     OW21805   1.790   4.067   8.436 -0.2161  0.9209 -0.0633
 3449SOL    HW121806   1.837   4.061   8.353 -1.8147 -0.5918 -0.8781
 3449SOL    HW221807   1.866   4.091   8.489 -0.9326 -1.1210  1.9078
 3450SOL     OW21808   4.153   3.994   2.819 -0.1150  0.4257  0.7305
 3450SOL    HW121809   4.097   3.921   2.793  0.2712  0.7669 -1.0761
 3450SOL    HW221810   4.178   3.981   2.910  3.2871 -0.0045 -0.2519
 3451SOL     OW21811   1.083   2.521   3.970 -0.5418  0.5557  0.2152
 3451SOL    HW121812   1.066   2.480   4.055  1.4749 -2.3954 -0.7840
 3451SOL    HW221813   1.044   2.608   3.974 -1.3035  0.3272 -2.3114
 3452SOL     OW21814   4.576   3.509   9.281 -0.1750  0.6329 -0.4217
 3452SOL    HW121815   4.568   3.596   9.319 -1.2710 -0.9645  3.0797
 3452SOL    HW221816   4.482   3.489   9.283  0.0612 -0.3039  2.2828
 3453SOL     OW21817   1.603   3.396   8.374  0.0753 -0.2427 -0.5063
 3453SOL    HW121818   1.569   3.485   8.380  2.2638  0.6099 -0.6351
 3453SOL    HW221819   1.615   3.390   8.279 -1.0304 -1.2105 -0.5775
 3454SOL     OW21820   3.453   4.065   8.195 -0.7115  0.7304 -0.8265
 3454SOL    HW121821   3.511   4.005   8.242  0.2864  1.6671 -0.8447
 3454SOL    HW221822   3.514   4.085   8.124  1.4427  0.6971  0.9952
 3455SOL     OW21823   0.099   2.769   2.809 -0.0079 -0.0295 -0.2424
 3455SOL    HW121824   0.037   2.698   2.822  1.3647 -1.1337  0.1855
 3455SOL    HW221825   0.156   2.737   2.740 -0.9236 -1.5296 -0.3062
 3456SOL     OW21826   1.981   2.666   4.738  0.2788  0.0495 -0.5247
 3456SOL    HW121827   2.055   2.693   4.792 -1.3383 -0.1099  1.7772
 3456SOL    HW221828   1.917   2.715   4.790 -0.8186 -1.1376 -0.7660
 3457SOL     OW21829   3.121   0.096   9.472 -0.1736  0.8360  0.0812
 3457SOL    HW121830   3.139   0.008   9.505  0.9365  1.3753  0.9192
 3457SOL    HW221831   3.080   0.065   9.391  0.1404 -0.0675  0.2730
 3458SOL     OW21832   4.098   4.388   8.063  0.0018 -0.0566  0.7585
 3458SOL    HW121833   4.180   4.428   8.034 -0.2480  0.9247  1.4456
 3458SOL    HW221834   4.140   4.318   8.113  1.5608 -0.0102 -0.4665
 3459SOL     OW21835   2.889   4.407   9.447  0.1381 -0.4359  0.4488
 3459SOL    HW121836   2.848   4.463   9.381 -1.6553 -1.6942  0.4873
 3459SOL    HW221837   2.877   4.455   9.529 -4.9693 -1.5718  0.3761
 3460SOL     OW21838   3.007   3.671  16.965  0.1460 -0.3584 -0.4547
 3460SOL    HW121839   2.959   3.754  16.964  0.5600 -0.1092  0.6865
 3460SOL    HW221840   2.938   3.608  16.943 -1.2074  1.5593 -1.6819
 3461SOL     OW21841   3.712   1.160  13.507  0.0103 -0.5196 -0.0855
 3461SOL    HW121842   3.782   1.217  13.476  0.8472 -0.4781  1.9002
 3461SOL    HW221843   3.664   1.141  13.426 -0.7403  0.4566  0.1303
 3462SOL     OW21844   0.736   0.674   8.313  0.0782  0.1175  0.7307
 3462SOL    HW121845   0.789   0.594   8.322 -1.4467 -0.7420  2.2459
 3462SOL    HW221846   0.653   0.638   8.283  0.4815 -1.9403  2.0118
 3463SOL     OW21847   2.659   0.285   5.669 -0.1237 -0.3193 -0.0738
 3463SOL    HW121848   2.642   0.193   5.650 -2.5426  0.3382 -1.1237
 3463SOL    HW221849   2.696   0.280   5.757 -0.8004  0.0108  0.2317
 3464SOL     OW21850   1.014   0.684   3.895  0.0159  0.2293 -0.3647
 3464SOL    HW121851   1.095   0.656   3.853  1.7654  0.4864  2.8473
 3464SOL    HW221852   1.018   0.632   3.975  0.4711 -0.5758 -0.9115
 3465SOL     OW21853   0.734   4.556   0.867 -0.3462  0.4062  0.0314
 3465SOL    HW121854   0.800   4.540   0.935 -0.5766  0.7928  0.3427
 3465SOL    HW221855   0.737   4.650   0.853  0.6091  0.5257  1.0436
 3466SOL     OW21856   4.550   4.259   5.213  0.0287  0.1663 -0.1041
 3466SOL    HW121857   4.600   4.322   5.160 -0.8114  0.3370 -0.7022
 3466SOL    HW221858   4.479   4.227   5.157 -0.1871  1.9426 -0.8639
 3467SOL     OW21859   2.692   0.982   7.424 -0.2447  0.2144  0.3300
 3467SOL    HW121860   2.736   0.915   7.371  3.0764  0.8706  2.2793
 3467SOL    HW221861   2.598   0.971   7.414 -0.0841 -1.6566  0.9407
 3468SOL     OW21862   2.202   3.798   2.274 -0.3754 -0.3200  0.0862
 3468SOL    HW121863   2.291   3.764   2.273 -0.6543 -1.0790  1.7250
 3468SOL    HW221864   2.198   3.816   2.180 -1.4348 -3.0714 -0.3912
 3469SOL     OW21865   1.830   3.244   6.071  0.1126 -0.1254 -0.2246
 3469SOL    HW121866   1.821   3.339   6.060  0.6121  0.0368  0.7604
 3469SOL    HW221867   1.920   3.245   6.105  0.0265  1.7165 -0.0579
 3470SOL     OW21868   4.707   2.286   2.554  0.3973 -0.0548 -0.0718
 3470SOL    HW121869   0.037   2.289   2.636  1.1558 -1.5003 -0.4823
 3470SOL    HW221870   4.672   2.197   2.551 -0.0816  0.2411 -3.0837
 3471SOL     OW21871   4.104   2.901  17.599  0.3690  0.1131  0.4263
 3471SOL    HW121872   4.157   2.838  17.550  0.4819  0.3789  0.2043
 3471SOL    HW221873   4.037   2.903  17.531  0.4778 -1.7763  0.2531
 3472SOL     OW21874   1.656   3.186   8.524  0.0096 -0.0592 -0.3749
 3472SOL    HW121875   1.646   3.256   8.459  1.1880  0.4349 -0.0277
 3472SOL    HW221876   1.617   3.227   8.601  0.7111  1.2797 -0.7200
 3473SOL     OW21877   2.907   3.861  15.445 -0.2196  0.1655 -0.5402
 3473SOL    HW121878   2.847   3.786  15.439 -1.4883  1.1743 -0.3880
 3473SOL    HW221879   2.992   3.823  15.424 -0.1112  0.5337 -0.7658
 3474SOL     OW21880   0.299   3.579  13.591  0.2821 -0.1235 -0.7306
 3474SOL    HW121881   0.393   3.593  13.592 -0.0030  1.6091  1.1881
 3474SOL    HW221882   0.282   3.566  13.498 -1.5163  1.3152 -0.5968
 3475SOL     OW21883   2.055   2.076   3.053  0.2124 -0.0222 -0.2222
 3475SOL    HW121884   2.031   2.168   3.063 -0.6873 -0.2875  0.0811
 3475SOL    HW221885   1.967   2.038   3.044 -0.4082  1.4833 -0.5966
 3476SOL     OW21886   2.346   3.857   0.136  0.7932 -0.1111 -0.1313
 3476SOL    HW121887   2.416   3.922   0.142 -0.9923  1.6375  1.6792
 3476SOL    HW221888   2.313   3.863   0.226  2.6174 -0.6536  0.5892
 3477SOL     OW21889   2.777   4.329   5.978 -0.0267  0.4877 -0.0294
 3477SOL    HW121890   2.775   4.345   5.883  1.3709 -0.1895 -0.1721
 3477SOL    HW221891   2.826   4.407   6.008  0.0068  0.4903 -0.0907
 3478SOL     OW21892   3.085   2.591  13.341  0.3896 -0.0074 -0.3398
 3478SOL    HW121893   3.083   2.675  13.294 -1.2702  0.4811  0.6118
 3478SOL    HW221894   2.992   2.591  13.363  0.1273 -0.7811 -1.4631
 3479SOL     OW21895   4.642   1.021   7.254  0.3399  0.1485 -0.1896
 3479SOL    HW121896   4.553   0.990   7.237  0.5600  0.2792 -1.5639
 3479SOL    HW221897   4.670   0.970   7.330  1.2412 -2.0203 -1.9892
 3480SOL     OW21898   0.783   2.798   1.442  0.4638  0.0551 -0.2016
 3480SOL    HW121899   0.778   2.860   1.515  1.8350 -0.4667  0.3287
 3480SOL    HW221900   0.761   2.865   1.377 -2.2116 -1.4121 -0.8250
 3481SOL     OW21901   2.153   0.926  13.773  0.3678  0.1312  0.3233
 3481SOL    HW121902   2.113   0.840  13.760 -0.6901  0.5487  0.8218
 3481SOL    HW221903   2.248   0.923  13.778  0.4231  0.2991 -0.5287
 3482SOL     OW21904   3.568   4.015   2.334 -0.2711  0.3900  0.0154
 3482SOL    HW121905   3.490   3.998   2.388 -2.0963  1.2431 -2.3522
 3482SOL    HW221906   3.535   4.001   2.246 -0.9433  0.1104  0.3086
 3483SOL     OW21907   0.289   3.491  14.412  0.3608  0.7396 -0.8482
 3483SOL    HW121908   0.309   3.408  14.367 -0.1706  0.7605 -1.1227
 3483SOL    HW221909   0.237   3.536  14.345  0.5135  0.3690 -1.2181
 3484SOL     OW21910   0.212   4.577   8.247 -0.0329  0.0783 -0.4559
 3484SOL    HW121911   0.253   4.501   8.289 -0.9675  0.7985  1.7968
 3484SOL    HW221912   0.280   4.601   8.184 -1.0297 -2.0132 -2.3394
 3485SOL     OW21913   4.072   1.224   5.919 -0.2802  0.2812 -0.9649
 3485SOL    HW121914   4.023   1.145   5.894 -0.7144  0.6109 -1.1613
 3485SOL    HW221915   4.141   1.189   5.975 -1.8574  0.1464  0.9254
 3486SOL     OW21916   1.207   2.308  17.376 -0.4302 -0.7016 -0.5927
 3486SOL    HW121917   1.250   2.243  17.320  0.8372 -0.7586  0.4455
 3486SOL    HW221918   1.120   2.326  17.340 -1.2606 -1.1956  1.1989
 3487SOL     OW21919   4.361   2.888   7.860 -0.4199  0.0138 -0.1162
 3487SOL    HW121920   4.357   2.792   7.859  2.0977 -0.1142  2.4171
 3487SOL    HW221921   4.339   2.900   7.952  4.0785 -0.1487  0.9581
 3488SOL     OW21922   3.856   1.705  16.631 -0.2274 -0.8412  0.6764
 3488SOL    HW121923   3.900   1.787  16.653 -0.6239 -0.8083  1.3441
 3488SOL    HW221924   3.772   1.716  16.676 -0.4726 -1.1756  0.2959
 3489SOL     OW21925   1.827   4.546  12.568  0.2602 -0.3185  0.3901
 3489SOL    HW121926   1.870   4.460  12.576 -0.2030 -0.4907  1.0233
 3489SOL    HW221927   1.897   4.586  12.517  0.2734 -1.3526 -0.3985
 3490SOL     OW21928   2.849   1.584   8.703  0.0516  0.3422  0.4248
 3490SOL    HW121929   2.906   1.508   8.706 -3.2007 -2.0835  0.4793
 3490SOL    HW221930   2.823   1.578   8.795 -1.7873  1.2547 -0.0280
 3491SOL     OW21931   0.838   2.865   3.206  0.5072 -0.1349  0.0900
 3491SOL    HW121932   0.813   2.923   3.135  0.8538  0.8924  0.8032
 3491SOL    HW221933   0.758   2.878   3.257  2.0450 -1.3597  2.8577
 3492SOL     OW21934   0.899   2.467   2.220  0.4946 -0.2064 -0.0040
 3492SOL    HW121935   0.889   2.561   2.233  0.7950 -0.0643 -0.7649
 3492SOL    HW221936   0.808   2.443   2.205  1.0213 -1.1733 -1.6473
 3493SOL     OW21937   3.644   1.352  14.039 -0.3671 -0.6614  0.0086
 3493SOL    HW121938   3.613   1.406  14.112 -0.9818 -2.6778  1.2417
 3493SOL    HW221939   3.738   1.338  14.049 -0.2697 -0.5246 -0.7365
 3494SOL     OW21940   3.193   3.587   5.269  0.5742 -0.1947  0.1689
 3494SOL    HW121941   3.198   3.508   5.322 -0.7728 -0.4138 -0.0517
 3494SOL    HW221942   3.282   3.621   5.261  0.5366 -0.7583 -2.4192
 3495SOL     OW21943   2.236   4.696  14.127  0.1759 -0.6946  0.2167
 3495SOL    HW121944   2.201   4.665  14.043  1.5370 -0.9490 -0.2675
 3495SOL    HW221945   2.303   4.632  14.150 -0.7837 -0.6673  3.0514
 3496SOL     OW21946   3.990   1.281   8.405 -0.2257  1.1182 -0.4981
 3496SOL    HW121947   3.945   1.293   8.322 -0.5765  1.3252 -0.2815
 3496SOL    HW221948   3.969   1.191   8.429  1.8472  1.0941  1.2330
 3497SOL     OW21949   1.500   2.855   9.096  0.0510 -0.1144 -0.5747
 3497SOL    HW121950   1.495   2.841   9.191 -0.9662 -1.0500 -0.7670
 3497SOL    HW221951   1.586   2.818   9.076  0.5069 -0.6935  2.4567
 3498SOL     OW21952   4.395   0.663   3.821  0.2011 -0.7577 -0.6643
 3498SOL    HW121953   4.392   0.604   3.897  0.3064  0.6743  0.4440
 3498SOL    HW221954   4.317   0.717   3.835  0.2595 -1.2012  1.4177
 3499SOL     OW21955   1.608   1.111  15.394 -0.0999 -0.1042 -0.3574
 3499SOL    HW121956   1.518   1.125  15.422 -0.0737  1.3968 -1.0452
 3499SOL    HW221957   1.588   1.074  15.307  0.7910  0.2449 -0.7139
 3500SOL     OW21958   3.880   0.238   9.853 -0.3884 -0.5083 -0.2713
 3500SOL    HW121959   3.810   0.243   9.788 -0.8269  0.1962  0.2570
 3500SOL    HW221960   3.842   0.176   9.915 -0.3052  0.4130  0.6920
 3501SOL     OW21961   4.288   3.773   3.935  0.5161  0.2363  0.3769
 3501SOL    HW121962   4.217   3.833   3.955 -0.1070 -1.0328  1.9840
 3501SOL    HW221963   4.280   3.762   3.840  0.3571 -0.1671  0.4355
 3502SOL     OW21964   0.333   3.163   9.656  0.1344 -0.3053 -0.3528
 3502SOL    HW121965   0.251   3.203   9.685 -0.9517 -1.6962 -1.4948
 3502SOL    HW221966   0.308   3.071   9.663  1.3050 -0.6694 -0.9523
 3503SOL     OW21967   2.716   0.857   1.839 -0.1810  0.0684  0.1136
 3503SOL    HW121968   2.676   0.849   1.752  0.5115  0.4466 -0.2321
 3503SOL    HW221969   2.805   0.824   1.827 -0.6513 -0.9648 -0.5074
 3504SOL     OW21970   0.961   2.612   3.160  0.5246 -0.3426  0.3346
 3504SOL    HW121971   1.006   2.641   3.081  0.0532  3.7021  1.5672
 3504SOL    HW221972   0.937   2.691   3.209 -0.8564  0.7052 -2.0044
 3505SOL     OW21973   4.268   2.627   3.650  0.1508 -0.0293  0.3768
 3505SOL    HW121974   4.185   2.581   3.659  1.4275 -2.2772  0.6409
 3505SOL    HW221975   4.239   2.716   3.632 -1.1691 -0.3542  0.9465
 3506SOL     OW21976   1.326   1.206  12.508  0.1047  0.3006 -0.3073
 3506SOL    HW121977   1.408   1.161  12.527  0.9425  2.0097  0.2029
 3506SOL    HW221978   1.264   1.159  12.563 -0.8387 -0.3162 -1.8894
 3507SOL     OW21979   2.628   3.562   5.017 -0.1694  0.2143  0.0339
 3507SOL    HW121980   2.720   3.574   4.994  0.0749  0.8438  1.3395
 3507SOL    HW221981   2.588   3.591   4.935  4.8084  1.3656 -1.9756
 3508SOL     OW21982   1.771   0.479   5.144  0.4150 -0.0938 -0.0234
 3508SOL    HW121983   1.847   0.535   5.132  0.3763 -0.1956 -0.7648
 3508SOL    HW221984   1.703   0.544   5.162 -0.2337 -0.7621 -0.0145
 3509SOL     OW21985   1.024   0.929   7.342  0.9491  0.1016 -0.0348
 3509SOL    HW121986   0.938   0.909   7.305  1.7442 -2.0110 -0.7449
 3509SOL    HW221987   1.032   0.850   7.394 -1.3333 -0.2089 -0.1872
 3510SOL     OW21988   0.076   2.152   3.411 -0.2043  0.5048  0.0007
 3510SOL    HW121989   0.072   2.240   3.373 -0.8222  0.2101 -0.6116
 3510SOL    HW221990   0.026   2.113   3.339 -1.3069  1.1295  0.4259
 3511SOL     OW21991   3.109   1.814   7.707  0.0994  0.2683  0.5276
 3511SOL    HW121992   3.138   1.816   7.798  3.1063  0.5632 -0.4298
 3511SOL    HW221993   3.172   1.750   7.673 -0.7429  0.0903 -0.7121
 3512SOL     OW21994   3.290   3.055   6.181 -0.1399 -0.3878 -0.1970
 3512SOL    HW121995   3.232   3.119   6.139  0.5233  0.6147  0.4084
 3512SOL    HW221996   3.232   3.013   6.245  2.5738 -0.6598  2.0859
 3513SOL     OW21997   2.584   1.606   8.616  0.1558  0.2913 -0.3029
 3513SOL    HW121998   2.574   1.514   8.593  1.4925 -0.2869  1.4639
 3513SOL    HW221999   2.662   1.614   8.670  1.6849 -1.1434 -2.2921
 3514SOL     OW22000   2.531   4.043   8.544  0.4974 -0.5435  0.0484
 3514SOL    HW122001   2.484   4.007   8.619  1.8043  0.4561  1.3286
 3514SOL    HW222002   2.473   4.118   8.527  1.3656  0.5402  1.9370
 3515SOL     OW22003   0.472   1.040   5.093  0.3917 -0.0706  0.4493
 3515SOL    HW122004   0.469   1.000   5.180  1.7660 -0.2004  0.4327
 3515SOL    HW222005   0.564   1.064   5.092  0.1786  0.8051  2.9158
 3516SOL     OW22006   0.968   4.027   9.313  0.0527  0.2590 -0.5333
 3516SOL    HW122007   1.037   4.054   9.374  0.8258 -1.3225 -0.7036
 3516SOL    HW222008   0.893   4.076   9.348  0.0331  0.1732 -0.4545
 3517SOL     OW22009   1.435   0.998   8.239 -0.3552  1.0738 -0.5172
 3517SOL    HW122010   1.436   0.905   8.262 -1.9030  1.0741 -0.4626
 3517SOL    HW222011   1.516   1.036   8.272  0.1363  0.1047 -0.6092
 3518SOL     OW22012   1.030   1.267   4.283 -0.3000 -0.3664 -0.2235
 3518SOL    HW122013   1.074   1.300   4.361  0.0764  0.3228 -0.7293
 3518SOL    HW222014   1.037   1.172   4.279  2.6167 -0.1581  0.0909
 3519SOL     OW22015   4.154   3.480   1.001 -0.4239  0.1966 -0.9423
 3519SOL    HW122016   4.240   3.444   0.976 -0.5833 -0.9781  0.2113
 3519SOL    HW222017   4.122   3.395   1.030 -1.3016  0.4450 -1.1782
 3520SOL     OW22018   3.697   4.173   5.440 -0.2562 -0.4065 -0.0377
 3520SOL    HW122019   3.730   4.084   5.440 -0.4215 -0.4681 -0.8492
 3520SOL    HW222020   3.716   4.188   5.348 -0.1103  1.2695  0.2599
 3521SOL     OW22021   0.277   0.341   7.087 -0.1214  0.1056 -0.6840
 3521SOL    HW122022   0.201   0.378   7.133  2.1239  0.4032  2.7504
 3521SOL    HW222023   0.277   0.252   7.123  1.5560  0.2405 -0.3744
 3522SOL     OW22024   0.814   3.438   5.361 -0.2926  0.0722 -0.2553
 3522SOL    HW122025   0.861   3.507   5.408  0.2349 -1.1078  0.9436
 3522SOL    HW222026   0.861   3.441   5.278 -0.0465  0.7811 -0.0924
 3523SOL     OW22027   2.401   2.537  12.264 -0.7595  0.8483  0.2260
 3523SOL    HW122028   2.385   2.552  12.171 -1.6759 -0.6939  0.1335
 3523SOL    HW222029   2.453   2.615  12.283  1.7630 -0.5459 -0.8953
 3524SOL     OW22030   0.103   0.531  14.363  0.9722  0.0842 -0.8316
 3524SOL    HW122031   0.040   0.573  14.421 -0.3042 -1.1419 -1.3162
 3524SOL    HW222032   0.181   0.549  14.414  2.0872  0.9460 -2.8441
 3525SOL     OW22033   4.699   3.246   0.915 -0.8835 -0.2096  0.1342
 3525SOL    HW122034   4.718   3.316   0.977  0.1274 -0.0424 -0.3695
 3525SOL    HW222035   0.041   3.269   0.845 -0.3438 -2.5789 -0.1670
 3526SOL     OW22036   3.671   1.738  13.008  0.5549  0.0491  0.0481
 3526SOL    HW122037   3.610   1.691  12.951 -1.4680  0.6091  1.7073
 3526SOL    HW222038   3.666   1.827  12.973 -0.7478 -0.6525 -1.5396
 3527SOL     OW22039   1.108   1.870   2.804  0.3856  0.4687  0.2833
 3527SOL    HW122040   1.187   1.876   2.749 -0.8893 -0.2602 -1.6199
 3527SOL    HW222041   1.118   1.943   2.866  2.7247  0.3583  0.0302
 3528SOL     OW22042   2.335   2.301  11.905  0.2233  0.0187 -0.0252
 3528SOL    HW122043   2.418   2.256  11.893 -0.6020 -0.6406 -3.0736
 3528SOL    HW222044   2.287   2.237  11.854 -0.1373 -0.2821  0.6922
 3529SOL     OW22045   3.971   2.609   8.206 -1.0943 -0.1503  0.1481
 3529SOL    HW122046   4.005   2.619   8.117  1.6067 -0.5935  1.1222
 3529SOL    HW222047   4.042   2.643   8.260 -2.0372  0.3079  1.1066
 3530SOL     OW22048   3.630   3.991   7.140 -0.3262 -0.0421 -0.6536
 3530SOL    HW122049   3.581   3.952   7.212  0.7796  1.4489  0.8959
 3530SOL    HW222050   3.568   4.059   7.115 -1.2300 -0.3974  0.6657
 3531SOL     OW22051   1.929   4.691  12.792  0.2964  0.3096  0.0886
 3531SOL    HW122052   1.878   0.050  12.811 -1.8858 -1.2147  0.5117
 3531SOL    HW222053   1.878   4.657  12.719  0.7781  0.7387 -0.4440
 3532SOL     OW22054   4.299   1.544   3.555  0.6021 -0.2604  0.1122
 3532SOL    HW122055   4.373   1.484   3.557 -0.7436 -1.8792  1.3481
 3532SOL    HW222056   4.317   1.603   3.482 -0.1294 -1.2986 -0.9143
 3533SOL     OW22057   1.360   0.573   2.879 -0.2425  0.0353 -0.3728
 3533SOL    HW122058   1.436   0.517   2.864  1.7022  2.2473  1.2355
 3533SOL    HW222059   1.329   0.595   2.791  1.9697 -0.5096 -1.2751
 3534SOL     OW22060   1.281   1.464   1.885  0.7666  0.0702 -0.2901
 3534SOL    HW122061   1.360   1.516   1.867 -0.5841  1.5867 -1.8898
 3534SOL    HW222062   1.206   1.520   1.862  1.5736  0.5383 -1.7717
 3535SOL     OW22063   4.349   2.260   5.683  0.0664 -0.2728  0.5866
 3535SOL    HW122064   4.301   2.180   5.704  0.6047 -0.6450  0.3821
 3535SOL    HW222065   4.281   2.312   5.639 -0.1248 -0.3467  0.8003
 3536SOL     OW22066   2.742   2.029   4.203  0.8272 -0.8553  0.1599
 3536SOL    HW122067   2.741   1.967   4.275 -1.5063 -1.1796 -0.1453
 3536SOL    HW222068   2.668   2.082   4.232 -0.3758 -1.5965 -1.5761
 3537SOL     OW22069   1.593   1.537   6.782  0.1256  0.3678  0.1375
 3537SOL    HW122070   1.567   1.482   6.857  1.0925  1.0382  0.9645
 3537SOL    HW222071   1.687   1.528   6.797  0.2534  2.0523  0.2920
 3538SOL     OW22072   4.495   2.566   3.452 -0.3965 -0.0786  0.1432
 3538SOL    HW122073   4.429   2.607   3.508 -1.9968 -0.1481 -1.6806
 3538SOL    HW222074   4.467   2.603   3.368 -0.0592  1.7230  0.8237
 3539SOL     OW22075   4.551   4.399   4.492 -0.3529  0.3077 -0.0946
 3539SOL    HW122076   4.578   4.342   4.420 -1.4287 -0.9346  0.4986
 3539SOL    HW222077   4.563   4.484   4.450  1.1272 -0.6805 -1.6817
 3540SOL     OW22078   3.531   3.262   3.958  0.6801 -0.3361  0.5105
 3540SOL    HW122079   3.461   3.311   4.002  0.3000 -0.2663 -0.1747
 3540SOL    HW222080   3.596   3.332   3.958  0.2596  0.0542 -0.1066
 3541SOL     OW22081   3.747   1.647   6.287 -0.6188 -0.3628  0.1997
 3541SOL    HW122082   3.812   1.636   6.356 -1.7208 -1.3921  1.0760
 3541SOL    HW222083   3.775   1.726   6.242 -1.4893  0.1536  0.5587
 3542SOL     OW22084   1.685   2.684  13.873  0.4294  0.0853  0.3215
 3542SOL    HW122085   1.666   2.601  13.916  3.2930  0.3400  2.0922
 3542SOL    HW222086   1.774   2.671  13.839  0.7914  1.0165  0.8942
 3543SOL     OW22087   1.386   1.307   3.968  0.2869 -0.5232 -0.0353
 3543SOL    HW122088   1.463   1.355   3.938 -0.2173 -0.2425 -0.8875
 3543SOL    HW222089   1.322   1.347   3.910 -1.6345 -1.5220  1.4031
 3544SOL     OW22090   0.200   2.607   8.033 -0.4229 -0.2126 -0.1865
 3544SOL    HW122091   0.152   2.565   8.104 -1.5061 -0.9335 -1.3308
 3544SOL    HW222092   0.127   2.650   7.988 -0.2310  0.1352 -0.1681
 3545SOL     OW22093   0.559   2.500   2.615  0.0411 -0.1396  0.2446
 3545SOL    HW122094   0.593   2.432   2.674 -3.6801 -0.9203  1.4591
 3545SOL    HW222095   0.642   2.528   2.575 -0.2794 -0.2939 -0.5302
 3546SOL     OW22096   2.720   2.361   0.206 -0.1588 -0.2429  0.4010
 3546SOL    HW122097   2.628   2.385   0.193  0.8316  3.3673  0.1129
 3546SOL    HW222098   2.726   2.358   0.301  1.0555 -1.1872  0.2891
 3547SOL     OW22099   3.078   3.629   4.131 -0.3005 -0.1570 -0.2519
 3547SOL    HW122100   2.995   3.587   4.154 -0.4675 -0.4161 -1.3434
 3547SOL    HW222101   3.135   3.561   4.168  0.1962  0.2025 -0.3584
 3548SOL     OW22102   1.034   3.860  11.888  0.1448  0.3514  0.5701
 3548SOL    HW122103   0.981   3.886  11.964 -1.5067  0.1257 -0.5004
 3548SOL    HW222104   0.972   3.837  11.819  1.8641 -1.4302 -0.3557
 3549SOL     OW22105   1.291   3.054   7.663 -0.5237  0.2971 -0.5292
 3549SOL    HW122106   1.241   2.972   7.662  2.9244 -1.8275 -0.3339
 3549SOL    HW222107   1.283   3.096   7.749 -0.0556 -0.3178 -0.1893
 3550SOL     OW22108   2.434   2.093   0.876 -0.0621  0.3581  0.1419
 3550SOL    HW122109   2.423   2.070   0.784  2.4764  1.7006 -0.4928
 3550SOL    HW222110   2.353   2.143   0.889 -0.8204 -0.8541  0.0285
 3551SOL     OW22111   3.408   3.583  13.526  0.5233 -0.0836  0.4775
 3551SOL    HW122112   3.336   3.543  13.477  2.0561 -1.1947 -0.8729
 3551SOL    HW222113   3.428   3.516  13.591 -0.3569 -0.3159  0.5084
 3552SOL     OW22114   1.947   3.159  10.141 -0.3302  0.0962 -0.1048
 3552SOL    HW122115   1.929   3.097  10.069 -1.6134 -0.8506  1.0334
 3552SOL    HW222116   2.040   3.152  10.164 -0.5233 -1.2013  0.2642
 3553SOL     OW22117   2.085   0.996  16.513 -0.6909  0.3576 -0.2519
 3553SOL    HW122118   2.011   1.008  16.453 -2.0023  0.2395  1.3305
 3553SOL    HW222119   2.146   1.006  16.441  0.5664  0.2849  0.8026
 3554SOL     OW22120   4.050   1.582  13.933 -0.3637 -0.4270  0.1999
 3554SOL    HW122121   4.060   1.497  13.889 -0.0338 -0.1788 -0.2069
 3554SOL    HW222122   4.097   1.641  13.873  1.4057 -1.6660  0.3518
 3555SOL     OW22123   0.272   0.690   6.084  0.0979  0.5882 -0.1304
 3555SOL    HW122124   0.202   0.726   6.139 -0.5566  0.3927 -0.8430
 3555SOL    HW222125   0.245   0.736   6.005  1.4369  0.2309 -0.7914
 3556SOL     OW22126   0.440   4.134   1.795 -0.1954  0.7225 -0.0317
 3556SOL    HW122127   0.438   4.132   1.890  0.3282  2.3764  0.0139
 3556SOL    HW222128   0.527   4.095   1.788 -0.3556  0.3672 -0.0441
 3557SOL     OW22129   4.075   2.694   5.069 -0.3071  0.1249 -0.4120
 3557SOL    HW122130   4.106   2.772   5.116  1.4026  0.2132 -1.6628
 3557SOL    HW222131   3.980   2.699   5.066 -0.1902  1.6731 -1.4156
 3558SOL     OW22132   0.331   1.061   4.485 -0.2399  0.0066 -0.4741
 3558SOL    HW122133   0.386   1.134   4.512  0.2142 -0.7101  0.5186
 3558SOL    HW222134   0.313   1.083   4.393 -1.7785  0.8886  0.0307
 3559SOL     OW22135   3.970   1.398  11.114 -0.2278  0.2541 -0.6268
 3559SOL    HW122136   3.943   1.401  11.205 -0.4596 -3.3554 -0.5791
 3559SOL    HW222137   3.891   1.374  11.066 -0.4127 -1.6465  0.6248
 3560SOL     OW22138   0.024   4.174   9.632  0.6393 -0.1013 -0.1172
 3560SOL    HW122139   0.038   4.108   9.564  0.0392 -0.1372 -0.2041
 3560SOL    HW222140   4.695   4.122   9.696 -1.4125  1.8480 -0.1294
 3561SOL     OW22141   3.859   2.587   8.847 -0.2534  0.3019  0.7809
 3561SOL    HW122142   3.850   2.677   8.814  0.1692  0.4468  1.0606
 3561SOL    HW222143   3.879   2.611   8.937 -2.8758  2.5449  0.7831
 3562SOL     OW22144   3.793   1.632  14.401 -0.0942 -0.1448  0.1049
 3562SOL    HW122145   3.868   1.622  14.343  0.0030  2.4265 -0.1994
 3562SOL    HW222146   3.754   1.545  14.399  0.1122 -0.2318 -0.0620
 3563SOL     OW22147   3.834   2.336   4.669  0.3536  0.5343 -0.2898
 3563SOL    HW122148   3.804   2.286   4.745  1.1987 -0.3346 -0.5299
 3563SOL    HW222149   3.855   2.263   4.610 -1.2452  0.7570 -1.1262
 3564SOL     OW22150   4.679   4.625   2.383 -0.4797  0.4531 -0.1311
 3564SOL    HW122151   4.664   4.601   2.475 -0.1142  1.8934  0.3158
 3564SOL    HW222152   0.052   4.604   2.379 -0.8417 -1.4252  1.2753
 3565SOL     OW22153   2.653   4.151  14.062  0.6174  0.1224 -0.3376
 3565SOL    HW122154   2.602   4.100  13.999  2.0123 -2.1678  0.4154
 3565SOL    HW222155   2.609   4.236  14.054  0.7658  0.5182  3.1554
 3566SOL     OW22156   1.580   1.697   5.761 -0.1393 -0.2790  0.0620
 3566SOL    HW122157   1.565   1.692   5.667  0.3636 -0.8553  0.0159
 3566SOL    HW222158   1.645   1.627   5.768 -0.5416 -0.5499  1.0580
 3567SOL     OW22159   2.391   1.523   8.929 -0.4043 -0.5053  0.1101
 3567SOL    HW122160   2.348   1.599   8.890  0.3358 -0.8838 -1.4563
 3567SOL    HW222161   2.482   1.523   8.900 -0.6419  1.7232 -0.6490
 3568SOL     OW22162   2.741   1.518   7.055 -0.5133  0.5554 -0.2848
 3568SOL    HW122163   2.743   1.600   7.004  1.9674 -1.0100 -2.7245
 3568SOL    HW222164   2.682   1.552   7.122 -0.3597  0.9637 -0.3561
 3569SOL     OW22165   0.218   3.865   9.286 -0.0956 -0.2780 -0.4028
 3569SOL    HW122166   0.311   3.861   9.308 -0.1526  1.5818  0.1992
 3569SOL    HW222167   0.229   3.880   9.192  3.7294  2.0842  0.4062
 3570SOL     OW22168   3.070   3.229   6.065  0.4142  0.1800 -0.3468
 3570SOL    HW122169   3.080   3.309   6.117 -1.7258 -0.2903  0.8153
 3570SOL    HW222170   3.094   3.264   5.980 -2.5331  1.0522 -0.8210
 3571SOL     OW22171   1.447   2.434   4.591  0.5591 -0.1409  0.1036
 3571SOL    HW122172   1.533   2.446   4.630  0.3754  0.3693  0.3492
 3571SOL    HW222173   1.382   2.438   4.661 -1.2776 -1.1787 -1.5446
 3572SOL     OW22174   0.780   2.421   9.559 -0.2149  0.4435  0.6305
 3572SOL    HW122175   0.800   2.407   9.651 -0.4121  0.3929  0.6656
 3572SOL    HW222176   0.848   2.365   9.522  1.1438  1.5611  1.4677
 3573SOL     OW22177   1.014   3.065   9.140  0.2241 -0.2242 -0.2864
 3573SOL    HW122178   0.986   3.115   9.063  0.2346  3.7398  2.2802
 3573SOL    HW222179   1.108   3.081   9.145  0.2067 -0.2118  0.0095
 3574SOL     OW22180   4.180   3.300  14.959  0.0611  0.0781 -0.1369
 3574SOL    HW122181   4.257   3.292  15.015  0.9712 -0.6357 -1.4796
 3574SOL    HW222182   4.120   3.250  15.014  0.9949 -1.3107 -0.3672
 3575SOL     OW22183   1.295   2.434   3.822  0.0153  0.0129  0.0291
 3575SOL    HW122184   1.266   2.342   3.821  1.1093 -0.3683  2.6184
 3575SOL    HW222185   1.216   2.473   3.861  1.4256 -0.1851  3.1193
 3576SOL     OW22186   3.324   1.040   0.265 -0.1209  0.1226 -0.4021
 3576SOL    HW122187   3.417   1.043   0.244 -0.1835 -1.2406 -0.8623
 3576SOL    HW222188   3.284   1.106   0.209 -0.4208 -0.4826 -0.8963
 3577SOL     OW22189   1.112   0.792   6.939  0.3799 -0.0538 -0.1971
 3577SOL    HW122190   1.163   0.777   6.860  3.2385  0.2416  1.5780
 3577SOL    HW222191   1.030   0.822   6.900  0.3103 -0.7746 -0.6251
 3578SOL     OW22192   4.579   0.031  14.057 -0.0700 -0.1380  0.0395
 3578SOL    HW122193   4.618   0.055  14.141  2.9503 -2.1591 -0.7878
 3578SOL    HW222194   4.527   0.109  14.039 -2.2381 -1.7816 -0.7463
 3579SOL     OW22195   3.135   2.142   4.996 -0.5904 -0.0495 -0.3347
 3579SOL    HW122196   3.154   2.049   5.002 -1.1673 -0.2567 -1.7294
 3579SOL    HW222197   3.048   2.135   4.956  0.4451  0.2266 -2.6279
 3580SOL     OW22198   3.254   3.443  10.344 -0.5908  0.2814  0.2052
 3580SOL    HW122199   3.182   3.502  10.367 -1.2190 -1.3740  2.4570
 3580SOL    HW222200   3.277   3.426  10.435 -0.5949  0.6453  0.2719
 3581SOL     OW22201   2.795   1.550   6.421 -0.3423 -0.4517 -0.2693
 3581SOL    HW122202   2.777   1.550   6.327 -3.2998  2.2688  0.2672
 3581SOL    HW222203   2.768   1.460   6.440 -0.3191 -0.3443  0.2789
 3582SOL     OW22204   2.932   4.585   5.653  0.0191  0.1241 -0.4380
 3582SOL    HW122205   3.025   4.565   5.640 -0.0610 -0.0604 -0.7347
 3582SOL    HW222206   2.944   4.654   5.717 -0.6700  0.8219 -1.0582
 3583SOL     OW22207   2.010   4.479   4.127 -0.2823 -0.0594  0.1142
 3583SOL    HW122208   1.968   4.426   4.196  0.7078 -0.6970  0.2265
 3583SOL    HW222209   2.022   4.416   4.056 -0.9010  1.2872 -1.1670
 3584SOL     OW22210   2.019   3.407   7.081  0.4307 -0.1899 -0.4368
 3584SOL    HW122211   1.989   3.324   7.115 -1.7580  0.7433 -0.0998
 3584SOL    HW222212   2.043   3.376   6.994  2.7513  3.7181 -1.1951
 3585SOL     OW22213   1.655   1.490   8.346  0.7088  0.0289  0.3901
 3585SOL    HW122214   1.712   1.472   8.421 -0.3504  1.8020  1.6142
 3585SOL    HW222215   1.718   1.486   8.274 -2.5648 -2.9434 -2.3203
 3586SOL     OW22216   2.991   4.587   2.091 -0.4349  0.6256  0.2309
 3586SOL    HW122217   2.899   4.588   2.068 -0.4195 -0.9754  0.1427
 3586SOL    HW222218   3.008   4.493   2.084  0.4245  0.8035 -0.0880
 3587SOL     OW22219   3.056   4.611  15.137 -0.1336  0.5383  0.5823
 3587SOL    HW122220   2.966   4.583  15.153 -0.3075 -0.6340 -2.3435
 3587SOL    HW222221   3.050   4.646  15.048  1.0213 -0.3040  0.1599
 3588SOL     OW22222   3.150   0.912   4.705  0.7055  0.1329  0.7754
 3588SOL    HW122223   3.109   0.948   4.784  1.6594  2.6209  0.1083
 3588SOL    HW222224   3.228   0.967   4.701  1.5178 -0.9818  1.1203
 3589SOL     OW22225   4.078   1.955   8.836 -0.4493  0.5683  0.0629
 3589SOL    HW122226   4.139   1.936   8.907 -1.1113 -0.0978  0.4563
 3589SOL    HW222227   4.008   2.004   8.880 -1.8931 -0.0889 -1.4812
 3590SOL     OW22228   1.165   0.238   3.534  0.3664  0.1484  0.1000
 3590SOL    HW122229   1.103   0.301   3.572  0.1710 -0.6744  1.1618
 3590SOL    HW222230   1.147   0.167   3.596 -0.0209 -1.1645 -1.5058
 3591SOL     OW22231   2.611   3.377   3.744  0.4327 -0.2719 -0.5205
 3591SOL    HW122232   2.581   3.328   3.667 -0.0937 -0.6432 -0.0876
 3591SOL    HW222233   2.556   3.325   3.804 -0.1536  2.1282  1.0158
 3592SOL     OW22234   1.672   4.460   1.015 -0.4071  0.1984 -0.7074
 3592SOL    HW122235   1.690   4.470   0.921  1.5049 -0.6794 -0.4310
 3592SOL    HW222236   1.704   4.371   1.026  0.0514  0.4437 -0.1138
 3593SOL     OW22237   0.096   0.845   4.327  0.1323 -0.4109 -0.2499
 3593SOL    HW122238   0.038   0.851   4.402 -0.3728 -0.4670 -0.6330
 3593SOL    HW222239   0.100   0.938   4.305 -0.6995 -0.7014 -1.6254
 3594SOL     OW22240   4.153   3.097  11.285 -0.1222 -0.6663 -0.9733
 3594SOL    HW122241   4.213   3.079  11.357  0.9833 -0.2093 -1.7552
 3594SOL    HW222242   4.154   3.193  11.281 -2.9388 -0.5442  1.4679
 3595SOL     OW22243   1.053   4.393   4.321  0.1835  0.3038 -0.0785
 3595SOL    HW122244   1.054   4.378   4.416 -1.4427  4.4633  0.5928
 3595SOL    HW222245   0.962   4.420   4.305  0.5906  1.2827 -0.7702
 3596SOL     OW22246   2.598   0.362   6.948  0.1622 -0.3510  0.9058
 3596SOL    HW122247   2.685   0.367   6.908 -0.7942 -0.6072 -1.1991
 3596SOL    HW222248   2.594   0.269   6.968  0.5047 -0.6992 -0.6182
 3597SOL     OW22249   0.363   3.546  17.346  0.1056  0.8825 -0.1901
 3597SOL    HW122250   0.307   3.617  17.378 -0.0270  1.5211 -1.8476
 3597SOL    HW222251   0.446   3.590  17.325  1.3948 -0.7126  1.6465
 3598SOL     OW22252   1.088   4.277   4.569 -0.2456  0.8835  0.5677
 3598SOL    HW122253   1.136   4.196   4.587 -0.9216 -0.1538 -2.2532
 3598SOL    HW222254   1.080   4.306   4.660 -0.3730 -1.1989  1.2192
 3599SOL     OW22255   2.741   2.527  13.602 -0.3089 -0.4299  0.6000
 3599SOL    HW122256   2.819   2.547  13.654  0.2591  0.2912 -0.5295
 3599SOL    HW222257   2.761   2.563  13.516 -0.8981 -1.6852 -0.0546
 3600SOL     OW22258   4.532   0.395   6.998 -0.3571  0.4945 -0.3767
 3600SOL    HW122259   4.584   0.350   7.065 -1.6822 -1.4756 -0.6727
 3600SOL    HW222260   4.495   0.464   7.054  0.2117  1.3534 -1.0471
 3601SOL     OW22261   3.722   0.352   7.234  0.2945 -0.1509  0.1654
 3601SOL    HW122262   3.676   0.303   7.166 -0.2511  1.4979 -0.6606
 3601SOL    HW222263   3.804   0.379   7.193  0.2232 -0.1265  0.0363
 3602SOL     OW22264   1.906   3.489   6.664  0.0503 -0.3884 -0.3093
 3602SOL    HW122265   1.925   3.401   6.630 -1.9745 -0.8429 -0.3001
 3602SOL    HW222266   1.813   3.496   6.642 -0.3039 -0.0150  1.2760
 3603SOL     OW22267   1.566   4.342   8.524  0.1154 -0.0227  0.1270
 3603SOL    HW122268   1.585   4.268   8.582  0.2532 -1.7672 -2.1662
 3603SOL    HW222269   1.578   4.314   8.434  0.2675 -1.5314  0.6215
 3604SOL     OW22270   0.940   0.677   4.836  0.1936  0.8149  0.3393
 3604SOL    HW122271   0.902   0.632   4.760  1.0317 -0.4734  0.6781
 3604SOL    HW222272   0.875   0.662   4.905 -1.4892  0.9942 -1.1947
 3605SOL     OW22273   3.269   3.163   6.891 -0.2455  0.3826 -0.0921
 3605SOL    HW122274   3.294   3.087   6.838 -0.5244  0.5718 -0.4950
 3605SOL    HW222275   3.190   3.130   6.933 -1.4085  1.3271 -1.5430
 3606SOL     OW22276   0.209   1.526   1.185 -0.3170 -0.0312 -0.5472
 3606SOL    HW122277   0.165   1.574   1.255 -1.0412 -1.3761 -0.0757
 3606SOL    HW222278   0.271   1.594   1.161  1.0951 -1.3101 -0.5088
 3607SOL     OW22279   2.117   1.737  12.002  0.4170 -0.3372  0.0881
 3607SOL    HW122280   2.033   1.743  11.957  0.7044 -0.0109 -0.4053
 3607SOL    HW222281   2.143   1.648  11.979  0.9551 -0.0437 -0.4538
 3608SOL     OW22282   1.214   1.088  17.378  0.2743  0.1920 -0.4604
 3608SOL    HW122283   1.267   1.022  17.333 -1.5859 -1.3829 -0.3857
 3608SOL    HW222284   1.213   1.165  17.321 -1.0129  0.8034  0.3843
 3609SOL     OW22285   2.612   4.688   8.765 -0.0087  0.6736  0.2962
 3609SOL    HW122286   2.620   0.063   8.754 -0.9841  1.0280  2.6221
 3609SOL    HW222287   2.637   4.664   8.676  2.4497  1.1582  0.8744
 3610SOL     OW22288   1.749   0.776   1.199 -0.1134 -0.6203  0.0741
 3610SOL    HW122289   1.658   0.789   1.223 -0.2926  1.4221 -1.6797
 3610SOL    HW222290   1.741   0.782   1.103  1.8311 -0.4649 -0.0846
 3611SOL     OW22291   1.152   3.498  15.998  0.1418 -0.3390 -0.1070
 3611SOL    HW122292   1.194   3.584  16.007 -2.8289  0.6754  4.0754
 3611SOL    HW222293   1.199   3.454  15.927  1.2520  1.8314 -0.7208
 3612SOL     OW22294   0.528   2.239   6.298 -0.6661  0.0582 -0.4599
 3612SOL    HW122295   0.583   2.185   6.354 -0.8575  1.9289  1.5085
 3612SOL    HW222296   0.525   2.327   6.336 -0.1333 -0.3620  0.5394
 3613SOL     OW22297   2.527   3.472   1.062  0.1011  0.1635 -0.2111
 3613SOL    HW122298   2.497   3.385   1.034  0.0777  1.0542 -2.9830
 3613SOL    HW222299   2.454   3.513   1.107  2.9814 -0.3580  4.9529
 3614SOL     OW22300   4.367   4.242  15.843  0.2621 -0.8878  0.0574
 3614SOL    HW122301   4.322   4.225  15.925 -0.6235  0.2012 -0.1975
 3614SOL    HW222302   4.329   4.179  15.782 -0.5504  0.6696 -1.0817
 3615SOL     OW22303   3.197   1.674   5.826 -0.0382  0.0487  0.6071
 3615SOL    HW122304   3.213   1.715   5.740 -0.4434 -0.7722  0.1408
 3615SOL    HW222305   3.284   1.682   5.865  0.4489 -0.1614 -0.4225
 3616SOL     OW22306   1.279   1.555   8.557  0.0191  0.2173 -0.0202
 3616SOL    HW122307   1.290   1.472   8.510  0.7626  0.1543  0.2658
 3616SOL    HW222308   1.313   1.612   8.488 -1.4529  0.5970 -0.4325
 3617SOL     OW22309   0.767   3.451   1.399  0.1591  0.2885 -0.3872
 3617SOL    HW122310   0.823   3.377   1.421 -2.3734 -1.0738  1.3573
 3617SOL    HW222311   0.804   3.513   1.462 -0.0466  0.4742 -0.4505
 3618SOL     OW22312   1.772   2.312   2.597 -0.0233 -0.1560 -0.0866
 3618SOL    HW122313   1.760   2.301   2.503  0.4139  2.4260 -0.4552
 3618SOL    HW222314   1.816   2.234   2.630 -1.0021  0.8655  3.6222
 3619SOL     OW22315   0.628   3.319   2.990  0.1011 -0.5739  0.6785
 3619SOL    HW122316   0.546   3.303   2.943  0.3901 -0.9368  0.2997
 3619SOL    HW222317   0.638   3.412   2.973  1.1883 -0.3750  2.3630
 3620SOL     OW22318   3.302   0.586   7.750 -0.2245  0.0972  0.4517
 3620SOL    HW122319   3.352   0.631   7.818  0.4176 -0.2619  0.2199
 3620SOL    HW222320   3.363   0.517   7.726 -2.3763 -1.3783 -0.7869
 3621SOL     OW22321   4.427   2.694   9.156  0.2718  0.4919  1.1078
 3621SOL    HW122322   4.399   2.663   9.070 -1.6954 -0.0587  1.9400
 3621SOL    HW222323   4.352   2.746   9.185 -0.2757  1.1429 -1.4023
 3622SOL     OW22324   0.668   1.588   7.290 -0.3226 -0.2035  0.0184
 3622SOL    HW122325   0.724   1.596   7.367 -0.9443  0.2822  0.4220
 3622SOL    HW222326   0.644   1.500   7.319  1.0492 -0.4234  0.5012
 3623SOL     OW22327   1.841   4.402   9.526  0.1353 -0.4396 -0.1421
 3623SOL    HW122328   1.840   4.312   9.558  0.1306 -1.0478 -1.8414
 3623SOL    HW222329   1.757   4.420   9.483 -0.9723  0.1091  2.2117
 3624SOL     OW22330   0.068   1.355  11.478  0.2140 -0.0761 -0.3223
 3624SOL    HW122331   4.718   1.418  11.459  0.0959  0.3890  1.5786
 3624SOL    HW222332   0.106   1.392  11.559  2.5022 -3.9524  0.3943
 3625SOL     OW22333   3.873   1.663   4.598  0.1752 -0.2131  0.0830
 3625SOL    HW122334   3.907   1.631   4.515  0.2703  1.1142 -0.3921
 3625SOL    HW222335   3.782   1.634   4.593 -0.0114  0.4626 -0.4306
 3626SOL     OW22336   3.768   2.702   7.478 -0.2170  0.0730 -0.0315
 3626SOL    HW122337   3.785   2.625   7.533 -3.4786 -0.1789  0.6034
 3626SOL    HW222338   3.709   2.759   7.528  1.1716  1.3150  0.2197
 3627SOL     OW22339   4.181   2.647   1.477 -0.2376  0.0508 -0.0488
 3627SOL    HW122340   4.200   2.554   1.459  0.1957  0.2884 -0.8390
 3627SOL    HW222341   4.133   2.665   1.396  1.3727 -0.5534 -1.1498
 3628SOL     OW22342   0.253   1.835   5.474  0.0858  0.4515  0.0551
 3628SOL    HW122343   0.299   1.815   5.393  1.4739 -2.3875  1.5502
 3628SOL    HW222344   0.223   1.923   5.453 -2.2282 -0.2038  0.5953
 3629SOL     OW22345   4.143   4.295   1.678 -0.1634  0.3548 -0.7724
 3629SOL    HW122346   4.150   4.357   1.751  2.0032 -1.4501  0.5571
 3629SOL    HW222347   4.221   4.240   1.689  0.4888  1.3112 -0.6449
 3630SOL     OW22348   4.034   0.072  11.229 -0.3843 -0.4107 -0.5025
 3630SOL    HW122349   3.991   0.071  11.315 -1.6579 -0.0700 -1.1339
 3630SOL    HW222350   4.012   0.158  11.195 -2.5766  0.0964  2.2404
 3631SOL     OW22351   0.778   2.451   7.454 -0.6223 -0.0585 -0.2124
 3631SOL    HW122352   0.781   2.433   7.360 -0.8755  1.6188 -0.5479
 3631SOL    HW222353   0.687   2.474   7.468 -0.7105 -0.8983  0.5509
 3632SOL     OW22354   4.015   0.945   5.852  0.0134 -0.2424  0.1640
 3632SOL    HW122355   4.004   0.897   5.770 -0.5038  1.0816 -0.5257
 3632SOL    HW222356   4.036   0.873   5.913 -0.8266  1.4336  2.4443
 3633SOL     OW22357   2.706   0.782   4.062  0.0502 -0.2195 -0.1446
 3633SOL    HW122358   2.650   0.746   3.994 -2.1088  1.1852  0.9084
 3633SOL    HW222359   2.761   0.707   4.084 -1.1223 -1.3736 -1.1629
 3634SOL     OW22360   3.669   1.387  13.149 -0.1894 -0.0757  0.5245
 3634SOL    HW122361   3.642   1.462  13.202 -2.3534  0.7025 -1.7085
 3634SOL    HW222362   3.684   1.314  13.210  1.5629  0.9055  1.2834
 3635SOL     OW22363   1.626   4.079   6.738 -0.0747 -0.1081 -0.2316
 3635SOL    HW122364   1.667   4.121   6.814  1.0234 -1.0916 -0.2874
 3635SOL    HW222365   1.672   4.122   6.666  1.0945  1.0450  1.1993
 3636SOL     OW22366   1.783   1.653   3.848 -0.4315 -0.4327  0.1708
 3636SOL    HW122367   1.770   1.625   3.757  0.0628  1.2978 -0.4254
 3636SOL    HW222368   1.811   1.744   3.840  2.1067 -1.5082 -3.3401
 3637SOL     OW22369   4.716   1.132   7.013 -0.3049  0.0892 -0.2073
 3637SOL    HW122370   4.656   1.093   6.949  1.3969  0.4315 -2.0375
 3637SOL    HW222371   4.696   1.092   7.098 -0.7818 -1.2063 -0.9219
 3638SOL     OW22372   3.411   1.682  14.631  0.0934 -0.5761 -0.4886
 3638SOL    HW122373   3.451   1.595  14.628 -0.3705 -0.7443 -1.9320
 3638SOL    HW222374   3.430   1.711  14.720  2.2958  2.1092 -1.8389
 3639SOL     OW22375   2.353   0.907   1.848 -0.0360  0.0001  0.1127
 3639SOL    HW122376   2.371   0.837   1.910  1.4529  2.8777  2.9280
 3639SOL    HW222377   2.377   0.862   1.767 -1.8404  0.5823 -0.7559
 3640SOL     OW22378   4.571   1.140   7.666 -0.1687  0.1587 -0.0581
 3640SOL    HW122379   4.576   1.179   7.578 -1.8865  0.1318 -0.1823
 3640SOL    HW222380   4.649   1.181   7.702  0.7567 -1.7757  0.1081
 3641SOL     OW22381   2.768   0.218   5.080  0.1345  0.1602  0.5447
 3641SOL    HW122382   2.677   0.236   5.057  0.5293  1.5247  0.0471
 3641SOL    HW222383   2.769   0.136   5.031 -3.1214  0.3808  0.0765
 3642SOL     OW22384   1.911   3.461  13.991  0.1726 -0.1593 -0.1057
 3642SOL    HW122385   1.842   3.404  14.025  0.7348 -0.0265  1.2527
 3642SOL    HW222386   1.991   3.411  14.008 -0.0545 -0.8855 -1.1623
 3643SOL     OW22387   0.729   1.663   7.960  0.2800  0.4656  0.1058
 3643SOL    HW122388   0.804   1.627   8.008  0.9513 -0.8420 -1.9425
 3643SOL    HW222389   0.668   1.590   7.967  3.1088 -1.8141  0.8843
 3644SOL     OW22390   2.427   2.381  11.134 -0.1697 -0.8237  0.3802
 3644SOL    HW122391   2.483   2.303  11.138  1.4767  0.2647 -1.4206
 3644SOL    HW222392   2.391   2.385  11.223 -1.4575  0.4634 -0.2010
 3645SOL     OW22393   2.227   3.524   0.503  0.2459 -0.8302  0.4039
 3645SOL    HW122394   2.288   3.559   0.568  0.5028  2.4272 -1.6040
 3645SOL    HW222395   2.269   3.446   0.466 -0.1494 -0.3022 -1.1436
 3646SOL     OW22396   3.083   3.643   3.846  0.3856 -0.4656  0.3599
 3646SOL    HW122397   3.028   3.618   3.920 -0.4770 -1.1726 -0.5067
 3646SOL    HW222398   3.060   3.581   3.777 -1.2862 -1.1408  1.5336
 3647SOL     OW22399   3.279   3.527   6.277 -0.0218 -0.2932 -0.0970
 3647SOL    HW122400   3.313   3.539   6.188  2.8826  0.2705  1.1096
 3647SOL    HW222401   3.356   3.549   6.329 -1.6661  2.6346  1.1145
 3648SOL     OW22402   1.053   3.003  12.960  0.4926  0.3601  0.1426
 3648SOL    HW122403   1.028   3.092  12.933 -0.2813 -0.2021 -1.0132
 3648SOL    HW222404   1.062   3.016  13.054  0.6479 -0.7086  0.2770
 3649SOL     OW22405   2.455   3.918   6.564 -0.3155 -0.2756 -0.0006
 3649SOL    HW122406   2.506   3.852   6.610 -2.0750 -0.4785  1.6637
 3649SOL    HW222407   2.378   3.870   6.532  1.2662 -0.9809 -2.7206
 3650SOL     OW22408   2.457   1.272   8.577  0.1183  0.6013 -0.0328
 3650SOL    HW122409   2.508   1.192   8.593 -0.1283  0.7809  1.7003
 3650SOL    HW222410   2.369   1.246   8.603  0.5327 -1.4452 -0.6623
 3651SOL     OW22411   3.256   2.930   6.761  0.7024  0.5732  0.0641
 3651SOL    HW122412   3.324   2.879   6.805 -0.8208  0.5235  2.3238
 3651SOL    HW222413   3.188   2.864   6.753 -0.7077  2.0840 -0.3615
 3652SOL     OW22414   0.637   0.277   3.947 -0.4836 -0.7762 -0.1303
 3652SOL    HW122415   0.628   0.184   3.926  0.0057 -1.5238  3.0682
 3652SOL    HW222416   0.687   0.308   3.871 -0.5752 -1.1328 -0.3351
 3653SOL     OW22417   0.232   3.074   0.523  0.1252  0.8140  0.4721
 3653SOL    HW122418   0.234   2.981   0.546 -2.9880 -0.2429 -3.6565
 3653SOL    HW222419   0.144   3.086   0.488  0.1970 -0.7386 -0.2434
 3654SOL     OW22420   0.483   2.605   6.709  0.4344 -0.0953  0.0514
 3654SOL    HW122421   0.401   2.647   6.682 -0.4985 -1.2489  1.1163
 3654SOL    HW222422   0.545   2.664   6.665 -1.5419  2.0510  0.1260
 3655SOL     OW22423   3.675   0.312   1.998  0.4040  0.4881  0.9764
 3655SOL    HW122424   3.620   0.236   2.019 -0.1290  1.0213  1.4946
 3655SOL    HW222425   3.738   0.324   2.069 -0.1503 -0.5162  1.6441
 3656SOL     OW22426   1.512   3.823   8.083 -0.1578 -0.3935 -0.3057
 3656SOL    HW122427   1.448   3.786   8.143 -2.7000 -0.5594 -3.0981
 3656SOL    HW222428   1.465   3.890   8.034 -0.6000 -1.0712 -0.8234
 3657SOL     OW22429   4.227   1.602   9.354  0.4115 -0.2286  0.1340
 3657SOL    HW122430   4.259   1.692   9.353 -1.5562  0.4799  1.1328
 3657SOL    HW222431   4.308   1.559   9.328  0.3186 -0.3572  0.0621
 3658SOL     OW22432   2.676   0.966   5.134  0.3136 -0.5307  0.3973
 3658SOL    HW122433   2.765   0.940   5.154  0.5652  0.3248  0.3784
 3658SOL    HW222434   2.673   1.049   5.182  0.2047 -0.1734 -0.2333
 3659SOL     OW22435   2.686   0.121  13.933 -0.6373  0.0504 -0.1665
 3659SOL    HW122436   2.664   0.136  14.025 -0.9093 -0.1115 -0.2070
 3659SOL    HW222437   2.612   0.067  13.907 -1.4520  1.2859 -0.4135
 3660SOL     OW22438   0.291   1.146   4.240 -0.0496  0.0702 -0.3467
 3660SOL    HW122439   0.270   1.122   4.150 -1.3037  0.0071 -0.0315
 3660SOL    HW222440   0.205   1.161   4.278  0.7893  2.9662  0.3922
 3661SOL     OW22441   4.207   3.184   3.654 -0.3574  0.4137 -0.7654
 3661SOL    HW122442   4.115   3.212   3.655 -0.9717 -1.7722  1.9807
 3661SOL    HW222443   4.233   3.234   3.731 -0.4857  1.9247 -1.6887
 3662SOL     OW22444   4.150   0.583   2.955  0.2455  0.1064 -0.1120
 3662SOL    HW122445   4.065   0.617   2.983 -0.3841 -1.3047 -0.2822
 3662SOL    HW222446   4.173   0.521   3.025  2.8070  1.8364  0.5650
 3663SOL     OW22447   0.288   2.167   8.083 -0.2795 -0.0095  0.2789
 3663SOL    HW122448   0.274   2.077   8.114  1.9680 -0.8148 -1.0379
 3663SOL    HW222449   0.308   2.149   7.991 -0.8245 -1.7301  0.4930
 3664SOL     OW22450   3.568   3.829   4.110  0.0819  0.5271 -0.2286
 3664SOL    HW122451   3.520   3.845   4.028  0.0516 -0.8520 -0.4760
 3664SOL    HW222452   3.552   3.911   4.157  1.2523  0.4270  0.3318
 3665SOL     OW22453   3.814   3.342   2.336  0.0725 -0.7230 -0.4352
 3665SOL    HW122454   3.788   3.264   2.385 -0.1929 -2.1596 -2.8671
 3665SOL    HW222455   3.841   3.404   2.404  1.1858  0.2066 -1.7114
 3666SOL     OW22456   3.629   2.721   4.504 -0.0394  0.3620  0.0607
 3666SOL    HW122457   3.569   2.774   4.556  0.5350 -1.0169  2.1366
 3666SOL    HW222458   3.639   2.783   4.432  0.5608  0.6847  0.4240
 3667SOL     OW22459   3.307   4.386   8.574 -0.0533 -0.0707 -0.1674
 3667SOL    HW122460   3.362   4.434   8.511 -0.4019 -0.4268 -0.7434
 3667SOL    HW222461   3.340   4.297   8.566  2.3561  0.8276 -0.4183
 3668SOL     OW22462   1.082   3.274   7.560  0.4726  0.3125 -0.2457
 3668SOL    HW122463   1.150   3.216   7.594  0.1956  0.2806  0.2475
 3668SOL    HW222464   1.108   3.360   7.590  0.1646 -0.1426  1.3034
 3669SOL     OW22465   3.071   3.415  14.150 -0.4200  0.2561 -0.5135
 3669SOL    HW122466   3.125   3.438  14.225  0.8779 -0.6153 -1.1655
 3669SOL    HW222467   3.017   3.493  14.141  0.8468  1.2999  0.9873
 3670SOL     OW22468   0.784   2.344   9.856 -0.0844  0.6429  0.1581
 3670SOL    HW122469   0.689   2.345   9.853 -0.0445  0.5503 -0.8895
 3670SOL    HW222470   0.789   2.392   9.939 -0.4636 -0.2146  0.6879
 3671SOL     OW22471   3.427   1.546   6.121 -0.0542 -0.2351 -0.3910
 3671SOL    HW122472   3.443   1.505   6.206  0.4921 -0.0847 -0.4217
 3671SOL    HW222473   3.338   1.575   6.138 -0.4165 -0.4433 -1.8833
 3672SOL     OW22474   3.022   0.158   6.801 -0.1548 -0.1475 -0.2896
 3672SOL    HW122475   3.096   0.108   6.768 -1.3920 -1.5799 -0.8869
 3672SOL    HW222476   3.067   0.203   6.873  0.4168  0.4494 -1.0319
 3673SOL     OW22477   2.926   1.884  13.977 -0.0293  0.4367 -0.2766
 3673SOL    HW122478   2.879   1.930  14.046 -0.2474  3.2937 -2.3198
 3673SOL    HW222479   2.859   1.847  13.919  0.3773  1.4333 -1.3622
 3674SOL     OW22480   0.938   0.230   3.716  1.0273  0.2342 -0.2536
 3674SOL    HW122481   0.905   0.161   3.658  0.3556  0.4326 -0.1076
 3674SOL    HW222482   0.857   0.280   3.729  0.0052 -2.3495  3.1811
 3675SOL     OW22483   3.163   2.710   5.620 -0.3649 -0.1634  0.2450
 3675SOL    HW122484   3.105   2.642   5.585 -1.1942  0.2481  0.8082
 3675SOL    HW222485   3.251   2.675   5.608  0.3168  2.1263 -1.2501
 3676SOL     OW22486   1.536   0.804   3.131  0.4651 -0.5213  0.3371
 3676SOL    HW122487   1.622   0.838   3.106 -0.8939  2.6244  0.0072
 3676SOL    HW222488   1.528   0.858   3.209 -3.4278 -0.6598  0.0198
 3677SOL     OW22489   1.300   3.791  10.732 -0.2715  0.5110 -0.2850
 3677SOL    HW122490   1.378   3.738  10.745 -1.0870 -1.0943 -1.9634
 3677SOL    HW222491   1.243   3.733  10.681  0.4526 -0.6814  0.2823
 3678SOL     OW22492   0.676   0.354   0.885  0.2214 -0.3116  0.3522
 3678SOL    HW122493   0.582   0.364   0.902  0.1006 -0.7877 -0.0342
 3678SOL    HW222494   0.669   0.280   0.825  0.4732  0.2941 -0.4243
 3679SOL     OW22495   3.178   0.151  14.770 -0.0925  0.1410  0.0150
 3679SOL    HW122496   3.253   0.187  14.818  0.0001 -1.6076  1.1930
 3679SOL    HW222497   3.164   0.073  14.824 -1.0734 -0.2679 -0.8312
 3680SOL     OW22498   2.052   0.094   4.847  0.2005  0.6405  0.3289
 3680SOL    HW122499   2.005   0.095   4.763  1.4326  0.6246 -0.3485
 3680SOL    HW222500   1.994   0.054   4.912  0.3993  0.6403  0.5029
 3681SOL     OW22501   1.048   0.946   2.201 -0.0339 -0.0409  0.4903
 3681SOL    HW122502   1.074   1.024   2.251  0.5821  0.1652 -0.1633
 3681SOL    HW222503   1.135   0.909   2.190 -0.9756 -1.7863 -1.0545
 3682SOL     OW22504   0.555   3.823  10.099 -0.0644 -0.2360 -0.4259
 3682SOL    HW122505   0.622   3.755  10.094 -1.9504 -2.2765  1.9608
 3682SOL    HW222506   0.562   3.860  10.011  2.2743 -1.2719 -0.6721
 3683SOL     OW22507   2.029   1.907  13.715  0.1347  0.1267 -0.4984
 3683SOL    HW122508   1.980   1.878  13.638  0.0935 -1.9068  0.2915
 3683SOL    HW222509   1.959   1.930  13.777 -0.2968 -1.6883 -0.3131
 3684SOL     OW22510   0.975   3.688   2.466 -0.3587 -0.2150 -0.7716
 3684SOL    HW122511   0.937   3.623   2.524 -1.7896  0.3759 -1.0643
 3684SOL    HW222512   1.062   3.651   2.453 -0.6769 -0.5235 -1.9570
 3685SOL     OW22513   4.499   0.787   7.218 -0.0650 -0.0167 -0.0047
 3685SOL    HW122514   4.448   0.724   7.270 -0.5032 -0.0613 -0.4976
 3685SOL    HW222515   4.466   0.775   7.129 -1.7868  0.6227  0.5613
 3686SOL     OW22516   0.716   4.046   1.797  0.1440 -0.7115 -0.3762
 3686SOL    HW122517   0.734   4.073   1.707 -2.4629  1.7405 -0.1683
 3686SOL    HW222518   0.779   3.974   1.805 -0.8532 -1.5915 -0.5093
 3687SOL     OW22519   3.706   4.003   2.705 -0.4033  0.2073  0.8790
 3687SOL    HW122520   3.676   3.924   2.661  0.9777  0.3995 -0.4148
 3687SOL    HW222521   3.782   4.019   2.649 -1.1395 -0.7873 -0.3944
 3688SOL     OW22522   1.085   0.281  16.517 -0.4286 -0.2034  0.5726
 3688SOL    HW122523   1.116   0.342  16.584 -0.2661 -1.7202  1.8776
 3688SOL    HW222524   1.050   0.341  16.450 -0.5894  0.0525  0.8842
 3689SOL     OW22525   1.798   3.666   0.771  0.5336 -0.4562 -0.0859
 3689SOL    HW122526   1.793   3.637   0.862  2.7571 -1.0260 -0.1579
 3689SOL    HW222527   1.893   3.664   0.778  0.2711 -4.0115  2.5543
 3690SOL     OW22528   0.444   4.655   2.303  0.1508 -0.0061 -0.3373
 3690SOL    HW122529   0.484   4.577   2.264  0.8968  0.5610 -0.7019
 3690SOL    HW222530   0.516   4.718   2.302 -0.3566  0.5896  1.2075
 3691SOL     OW22531   4.403   0.146   7.265  0.1160 -0.0098  0.2730
 3691SOL    HW122532   4.336   0.114   7.206  1.4066 -0.5956 -0.8826
 3691SOL    HW222533   4.343   0.155   7.339 -1.7054 -0.8148 -1.1254
 3692SOL     OW22534   2.539   0.540  13.492 -0.4608 -0.1277 -0.5746
 3692SOL    HW122535   2.622   0.576  13.522  0.3936 -0.3792 -2.6380
 3692SOL    HW222536   2.570   0.456  13.459  0.0668  0.6295 -1.9812
 3693SOL     OW22537   2.371   4.710   7.191  0.7790 -0.5281  0.2639
 3693SOL    HW122538   2.393   4.633   7.138 -0.9771  0.2760 -1.6578
 3693SOL    HW222539   2.344   0.048   7.120  4.1290  1.7090  0.7788
 3694SOL     OW22540   3.285   1.643  13.176 -0.8233  0.0154  0.0157
 3694SOL    HW122541   3.253   1.553  13.188 -0.9071 -0.0225 -0.4943
 3694SOL    HW222542   3.284   1.657  13.082 -0.8742 -2.0896 -0.3098
 3695SOL     OW22543   3.079   2.841  11.458 -0.0494 -0.0708  0.4838
 3695SOL    HW122544   3.019   2.783  11.506  0.4885 -0.6285  0.4952
 3695SOL    HW222545   3.025   2.899  11.404 -1.9886 -2.2857 -0.0183
 3696SOL     OW22546   0.185   1.564   7.006  0.3662  0.5027 -0.1319
 3696SOL    HW122547   0.261   1.507   7.018  1.8250  1.7031 -3.5418
 3696SOL    HW222548   0.114   1.520   7.052 -0.3575  2.5049  0.6456
 3697SOL     OW22549   2.337   2.897   7.088  0.2419 -0.1089 -0.1259
 3697SOL    HW122550   2.333   2.834   7.161 -0.7228 -0.9303 -0.8978
 3697SOL    HW222551   2.420   2.871   7.047  1.2020  1.2013  0.9764
 3698SOL     OW22552   2.039   2.343   4.174 -0.2971 -0.1325 -0.1004
 3698SOL    HW122553   2.076   2.431   4.182  1.5609 -0.9291  0.0825
 3698SOL    HW222554   1.976   2.343   4.102 -1.7126  0.2988  1.1401
 3699SOL     OW22555   1.658   2.745   3.511  0.4651 -0.1195  0.0470
 3699SOL    HW122556   1.681   2.768   3.601 -0.9448 -1.3485  0.7140
 3699SOL    HW222557   1.707   2.806   3.454  1.5656 -2.0634 -1.0911
 3700SOL     OW22558   2.194   3.534   5.105  0.3401  0.4271  0.3112
 3700SOL    HW122559   2.207   3.615   5.055 -2.6338  0.9383  0.3223
 3700SOL    HW222560   2.259   3.547   5.174  0.0476  2.0977  0.2769
 3701SOL     OW22561   1.188   3.856   8.847 -0.2119 -0.1976 -0.2868
 3701SOL    HW122562   1.144   3.794   8.904 -0.0222 -0.0449  0.0254
 3701SOL    HW222563   1.222   3.796   8.781  0.6714 -1.0193  0.9160
 3702SOL     OW22564   0.968   3.906   4.485  0.3788  0.7473 -0.2892
 3702SOL    HW122565   1.061   3.928   4.485  0.1562  1.7615 -2.7098
 3702SOL    HW222566   0.953   3.889   4.391 -2.9310 -3.9474  1.0726
 3703SOL     OW22567   3.937   3.444   7.027  0.3150  0.1147 -0.4725
 3703SOL    HW122568   4.026   3.472   7.007 -0.1067 -0.0753 -2.6375
 3703SOL    HW222569   3.916   3.515   7.088 -0.3243 -2.3510  2.1602
 3704SOL     OW22570   3.251   0.593   6.125  0.0716  0.2326  0.3634
 3704SOL    HW122571   3.218   0.657   6.062 -0.0585  1.0877  1.2925
 3704SOL    HW222572   3.295   0.659   6.178  0.3148  0.1527  0.2599
 3705SOL     OW22573   4.521   3.374   3.746 -0.1673 -0.0244  0.9993
 3705SOL    HW122574   4.580   3.311   3.705  0.8285  2.7721 -1.8978
 3705SOL    HW222575   4.488   3.411   3.664  1.0992 -2.0218 -0.3998
 3706SOL     OW22576   2.658   2.359  13.359 -0.1409  0.4103 -0.2625
 3706SOL    HW122577   2.600   2.292  13.395 -0.2781  0.3790 -0.5484
 3706SOL    HW222578   2.723   2.382  13.426  0.3822 -0.3294 -0.5066
 3707SOL     OW22579   1.559   4.157  17.176 -0.0205 -0.2301  0.1228
 3707SOL    HW122580   1.572   4.076  17.224  0.8035 -0.3061 -0.2285
 3707SOL    HW222581   1.489   4.186  17.234 -0.5407  0.4582 -0.8377
 3708SOL     OW22582   0.315   3.123   3.697  0.2327 -0.1275  0.3556
 3708SOL    HW122583   0.370   3.200   3.714 -1.4587  0.9165  1.1673
 3708SOL    HW222584   0.335   3.104   3.606 -0.9451  0.8368 -0.1157
 3709SOL     OW22585   3.812   4.295  11.128 -0.0462  0.7134  0.3352
 3709SOL    HW122586   3.788   4.385  11.107 -1.8316  0.3314  0.7287
 3709SOL    HW222587   3.834   4.304  11.221 -0.0171  1.2258  0.2791
 3710SOL     OW22588   3.042   4.039   4.904  0.3607  0.7731 -0.1362
 3710SOL    HW122589   2.971   3.985   4.868 -0.3846  2.1097 -0.6692
 3710SOL    HW222590   2.985   4.068   4.975  1.3050  1.0227  0.5192
 3711SOL     OW22591   0.699   2.971   5.910  0.1555 -0.1723  0.3453
 3711SOL    HW122592   0.670   3.013   5.829  0.6996  0.3014  0.3924
 3711SOL    HW222593   0.704   2.884   5.871 -0.0040  0.3373 -0.8182
 3712SOL     OW22594   2.211   3.186   4.744 -0.1789 -0.0744  0.2867
 3712SOL    HW122595   2.175   3.235   4.817  0.0812  0.3463  0.1345
 3712SOL    HW222596   2.139   3.144   4.697  0.2062 -0.6745  0.2173
 3713SOL     OW22597   4.012   2.932   7.500 -0.3183 -0.3248 -0.0652
 3713SOL    HW122598   4.072   2.969   7.565 -2.0545 -0.6005  1.6924
 3713SOL    HW222599   3.995   2.843   7.531  0.3776 -0.2339  0.5726
 3714SOL     OW22600   2.621   4.658   7.872 -0.1862  0.0371 -0.1675
 3714SOL    HW122601   2.701   4.610   7.891 -1.9202 -2.2209  1.2524
 3714SOL    HW222602   2.620   4.639   7.778  2.9045  2.4341 -0.6920
 3715SOL     OW22603   1.725   3.735   4.083 -0.7286  0.5880 -0.4696
 3715SOL    HW122604   1.792   3.794   4.117 -0.1752  0.3089 -1.0679
 3715SOL    HW222605   1.669   3.795   4.034 -0.5869  1.2008  0.1292
 3716SOL     OW22606   1.767   2.363   7.809  0.2194  0.4891  0.2203
 3716SOL    HW122607   1.682   2.344   7.770  0.1906  0.4399  0.3083
 3716SOL    HW222608   1.820   2.325   7.738 -1.1564  1.1412 -1.1488
 3717SOL     OW22609   0.113   4.420   5.055 -0.4204  0.0314 -0.2524
 3717SOL    HW122610   0.158   4.335   5.057  0.0804  0.2239 -3.5635
 3717SOL    HW222611   0.179   4.489   5.061  0.7421 -1.0599 -0.5532
 3718SOL     OW22612   1.805   2.901   4.582  0.7435 -0.3109 -0.3324
 3718SOL    HW122613   1.878   2.841   4.567 -0.3966 -1.2585 -2.0918
 3718SOL    HW222614   1.770   2.877   4.668  0.2378 -0.0333 -0.4601
 3719SOL     OW22615   3.843   0.128  17.154  0.2038 -0.5301 -0.8191
 3719SOL    HW122616   3.769   0.100  17.208  0.6806 -2.9974 -1.4412
 3719SOL    HW222617   3.817   0.106  17.064  1.0295  0.0324 -1.1953
 3720SOL     OW22618   1.269   1.859   7.196  0.1677  1.0228 -0.0738
 3720SOL    HW122619   1.323   1.889   7.269  2.2490  0.2244 -1.2861
 3720SOL    HW222620   1.217   1.785   7.227 -1.4943  1.0800 -2.7401
 3721SOL     OW22621   3.040   0.603   6.808  0.7827 -0.5874  0.0273
 3721SOL    HW122622   2.967   0.625   6.750 -0.6064 -1.0920  1.5963
 3721SOL    HW222623   3.020   0.658   6.884 -2.3387 -0.9935 -0.4912
 3722SOL     OW22624   4.367   1.138   7.344 -0.4513  0.2312 -0.2130
 3722SOL    HW122625   4.455   1.174   7.336 -1.3238  2.3333 -0.2850
 3722SOL    HW222626   4.337   1.163   7.432  0.7962 -0.9251  0.5317
 3723SOL     OW22627   1.038   4.633   0.529 -0.0776 -0.0274 -0.0512
 3723SOL    HW122628   1.120   4.677   0.506 -0.2690 -0.3579 -1.4132
 3723SOL    HW222629   1.071   4.554   0.571  2.1522  0.9973  0.1661
 3724SOL     OW22630   1.977   4.412   0.439  0.3017 -0.4519  0.9569
 3724SOL    HW122631   2.040   4.442   0.373  0.4529 -4.0459 -0.5760
 3724SOL    HW222632   1.999   4.463   0.518  0.3830  3.0760 -1.3606
 3725SOL     OW22633   0.757   1.862  15.116  0.6575 -0.4525  0.3039
 3725SOL    HW122634   0.768   1.864  15.211 -2.3554  3.3628  0.5671
 3725SOL    HW222635   0.826   1.798  15.100  1.9561  0.2588  3.0419
 3726SOL     OW22636   2.839   3.538   3.707 -0.2448  0.6769 -0.4400
 3726SOL    HW122637   2.871   3.545   3.797 -0.9412 -0.0643 -0.1391
 3726SOL    HW222638   2.756   3.493   3.723  0.3666 -0.3370 -0.1156
 3727SOL     OW22639   1.007   1.016   6.167  0.0857 -0.1002  0.1631
 3727SOL    HW122640   1.021   1.078   6.238  1.8847  0.5075 -0.7407
 3727SOL    HW222641   0.923   1.035   6.125 -0.5143 -2.2879  0.3456
 3728SOL     OW22642   2.996   1.016  11.936  0.3965  0.0957 -0.0723
 3728SOL    HW122643   2.937   0.981  12.004 -0.9366  1.5368 -0.5000
 3728SOL    HW222644   3.070   1.033  11.994 -1.7903 -0.4990  2.9350
 3729SOL     OW22645   1.767   2.687  13.277  0.6255 -0.1524  0.0897
 3729SOL    HW122646   1.831   2.617  13.269 -1.8760 -2.5017  0.8895
 3729SOL    HW222647   1.686   2.637  13.277 -0.1571  1.1219  0.5340
 3730SOL     OW22648   3.247   3.887   7.394  0.2580  0.1328  0.2193
 3730SOL    HW122649   3.227   3.838   7.474  0.7098  0.3646  0.4681
 3730SOL    HW222650   3.172   3.863   7.338 -0.1208  2.3265 -0.2247
 3731SOL     OW22651   0.544   2.626   9.612 -0.0109 -0.3848 -0.5761
 3731SOL    HW122652   0.572   2.541   9.577  0.0222  0.1017 -1.7364
 3731SOL    HW222653   0.527   2.667   9.527  0.6519  0.9525 -0.0613
 3732SOL     OW22654   1.501   1.009   7.726  0.3665  0.3833  0.2075
 3732SOL    HW122655   1.556   0.931   7.720 -1.4700 -0.8368 -0.7895
 3732SOL    HW222656   1.473   1.014   7.817 -0.4364 -2.0403  0.0812
 3733SOL     OW22657   0.663   0.355  15.068  0.1962  0.1663 -0.6065
 3733SOL    HW122658   0.684   0.397  14.985  2.6694 -0.5960 -0.3510
 3733SOL    HW222659   0.701   0.271  15.044 -0.1352 -0.0697 -0.3011
 3734SOL     OW22660   1.996   2.843  11.644  0.3801 -0.2413 -0.4246
 3734SOL    HW122661   2.066   2.862  11.706 -0.6417  1.2373  0.2776
 3734SOL    HW222662   1.925   2.812  11.700  0.4405 -1.7655 -1.1855
 3735SOL     OW22663   2.692   4.169   7.185  0.4975  0.6351 -0.3380
 3735SOL    HW122664   2.765   4.218   7.148  0.9694 -0.3503 -0.7262
 3735SOL    HW222665   2.614   4.221   7.202 -1.4911 -2.5543  0.2875
 3736SOL     OW22666   0.248   3.414  12.338  0.0025 -0.4867 -0.6493
 3736SOL    HW122667   0.330   3.364  12.331  0.6779  0.4576  0.4451
 3736SOL    HW222668   0.250   3.441  12.429  2.8729 -0.3955 -0.7208
 3737SOL     OW22669   2.373   1.431  13.837 -0.2529  0.7882  0.1798
 3737SOL    HW122670   2.419   1.449  13.755 -0.8245 -0.4735 -0.4231
 3737SOL    HW222671   2.418   1.504  13.879 -0.6533  1.8955 -1.3087
 3738SOL     OW22672   3.698   4.110  16.423 -0.0496  0.5838  0.4656
 3738SOL    HW122673   3.716   4.054  16.498  0.3762  1.6791  1.1882
 3738SOL    HW222674   3.781   4.100  16.376 -1.1273 -4.2404 -0.4046
 3739SOL     OW22675   2.992   2.229   3.867  0.0770 -0.0150  0.0662
 3739SOL    HW122676   3.055   2.176   3.917  0.5492  0.0865 -0.4136
 3739SOL    HW222677   2.912   2.183   3.893  0.1296 -0.0734  0.1259
 3740SOL     OW22678   3.033   1.228   2.682  0.1496  0.2697 -0.3116
 3740SOL    HW122679   3.016   1.204   2.591  3.9821  1.4457 -1.3376
 3740SOL    HW222680   3.091   1.303   2.668  0.9751 -0.2151  0.4487
 3741SOL     OW22681   0.225   0.998   4.750 -0.1599 -0.0043 -0.0173
 3741SOL    HW122682   0.293   1.032   4.692  1.5454 -0.1722  1.8813
 3741SOL    HW222683   0.155   1.021   4.689 -0.3111  0.7223  0.4391
 3742SOL     OW22684   4.142   3.905  15.995  0.5522  0.0045  0.8027
 3742SOL    HW122685   4.069   3.850  16.024  0.2597 -0.4909 -0.8728
 3742SOL    HW222686   4.170   3.931  16.083 -1.2868  1.1670  1.0532
 3743SOL     OW22687   2.086   1.477   8.552  0.1729 -0.5986 -0.1997
 3743SOL    HW122688   2.112   1.401   8.604 -0.0047  0.6647  1.7433
 3743SOL    HW222689   2.092   1.538   8.626  0.5029  1.2377 -1.7152
 3744SOL     OW22690   0.727   2.013   5.029 -0.4013 -0.4735 -0.3136
 3744SOL    HW122691   0.635   2.036   5.017 -0.0731  0.6548 -0.6466
 3744SOL    HW222692   0.727   1.920   5.006  0.5281  0.2161 -3.0928
 3745SOL     OW22693   1.054   2.262   1.474 -0.1934 -0.2712  0.6156
 3745SOL    HW122694   1.052   2.356   1.494  1.1356 -0.6946  2.7507
 3745SOL    HW222695   1.019   2.263   1.385 -3.2511 -1.4625  1.8277
 3746SOL     OW22696   2.608   2.360   3.089  0.2173  0.4521 -0.0637
 3746SOL    HW122697   2.524   2.315   3.086  0.4793  0.0530 -1.9125
 3746SOL    HW222698   2.662   2.287   3.121  2.5527  1.8208 -0.8712
 3747SOL     OW22699   2.033   3.786  11.480  0.2692 -0.3492  0.8138
 3747SOL    HW122700   2.097   3.716  11.481  1.5556  0.8325  1.7225
 3747SOL    HW222701   1.949   3.745  11.502 -0.4322  0.4923 -0.2910
 3748SOL     OW22702   1.763   4.146   6.497  0.2626  0.1401  0.4014
 3748SOL    HW122703   1.814   4.203   6.553  0.8727 -0.1516  0.1460
 3748SOL    HW222704   1.809   4.147   6.413 -1.7805  1.0418 -0.6957
 3749SOL     OW22705   1.417   1.588   2.232 -0.2248 -0.0501  0.3274
 3749SOL    HW122706   1.439   1.681   2.228 -0.3143  0.0526  2.5050
 3749SOL    HW222707   1.367   1.578   2.151  1.5560 -2.3235 -0.4840
 3750SOL     OW22708   3.836   3.124  15.419 -0.2354  0.5287  0.0959
 3750SOL    HW122709   3.800   3.094  15.502 -2.0168 -0.2909 -0.9576
 3750SOL    HW222710   3.753   3.131  15.371  0.1164  0.6726 -0.4954
 3751SOL     OW22711   4.663   3.657   5.446 -0.6370 -0.0718  0.2763
 3751SOL    HW122712   4.719   3.732   5.470  1.1371 -0.9641 -1.0412
 3751SOL    HW222713   4.714   3.576   5.441 -0.6315  0.0083 -0.9998
 3752SOL     OW22714   2.347   4.239  16.242  0.6456  0.4802 -0.4770
 3752SOL    HW122715   2.337   4.145  16.256 -0.3133  0.8331  1.1746
 3752SOL    HW222716   2.298   4.275  16.316  0.2080 -2.4569  0.6639
 3753SOL     OW22717   4.542   3.614  11.783  0.2212  0.5551 -0.5242
 3753SOL    HW122718   4.606   3.613  11.854  1.3010 -0.5002 -1.5083
 3753SOL    HW222719   4.564   3.696  11.738  0.7809  1.1773  0.8895
 3754SOL     OW22720   4.566   4.508   4.961  0.0306 -0.1380 -0.4002
 3754SOL    HW122721   4.600   4.590   4.927 -0.4496  0.4771  0.5731
 3754SOL    HW222722   4.652   4.478   4.988  0.2954  2.0027  1.2081
 3755SOL     OW22723   2.007   0.470  17.004 -0.0764  0.2942 -0.2093
 3755SOL    HW122724   2.042   0.543  16.953  0.1061  0.6340  0.4037
 3755SOL    HW222725   2.042   0.391  16.961 -1.2040 -0.1409 -0.3352
 3756SOL     OW22726   2.567   1.135  17.343  0.6841  0.7111 -0.5290
 3756SOL    HW122727   2.493   1.075  17.354  0.0421  1.8334  1.2493
 3756SOL    HW222728   2.637   1.072  17.326 -0.5676 -1.5113  2.5957
 3757SOL     OW22729   1.261   1.759   5.511  0.1265 -0.1236 -0.2434
 3757SOL    HW122730   1.208   1.763   5.590 -0.0722  1.9177 -0.4846
 3757SOL    HW222731   1.208   1.824   5.463  1.0743 -0.6334 -1.9905
 3758SOL     OW22732   1.705   3.287  10.674  0.1750 -0.1353  0.4390
 3758SOL    HW122733   1.612   3.266  10.674  0.3327 -0.8470 -0.1269
 3758SOL    HW222734   1.722   3.286  10.768  0.6525 -1.6386  0.3408
 3759SOL     OW22735   1.403   3.283   5.873  0.0428  0.0175 -0.4406
 3759SOL    HW122736   1.313   3.285   5.905 -0.2498  1.7144 -1.3790
 3759SOL    HW222737   1.455   3.323   5.942  2.1540  1.7315 -2.9967
 3760SOL     OW22738   1.113   2.435   6.748 -0.3553 -0.7950  0.8576
 3760SOL    HW122739   1.132   2.384   6.669 -0.6876 -0.1290  0.3434
 3760SOL    HW222740   1.189   2.431   6.806 -0.9131  0.0091  1.6508
 3761SOL     OW22741   2.176   4.031   3.942 -0.5898  0.4157 -0.0263
 3761SOL    HW122742   2.219   4.023   4.027 -1.5277  3.8910  0.7779
 3761SOL    HW222743   2.257   4.065   3.903 -0.4008 -2.2184 -1.8926
 3762SOL     OW22744   3.314   3.445   6.692 -0.0787  0.1684  0.4653
 3762SOL    HW122745   3.321   3.351   6.705 -1.7280 -0.3423 -2.2971
 3762SOL    HW222746   3.377   3.478   6.756 -1.3298  2.2842  0.6274
 3763SOL     OW22747   2.031   4.670  13.160 -0.2231  0.7504 -0.3611
 3763SOL    HW122748   2.108   4.639  13.112 -1.3782  0.5315 -2.0361
 3763SOL    HW222749   1.955   4.659  13.103 -0.2847  1.0461 -0.3378
 3764SOL     OW22750   4.579   2.176   2.877  0.0902  0.1771 -0.0634
 3764SOL    HW122751   4.526   2.185   2.797  0.1446 -2.7334 -0.4248
 3764SOL    HW222752   4.578   2.265   2.911 -0.3627 -0.6947  2.1905
 3765SOL     OW22753   1.003   3.657   2.125 -0.2290 -0.3118  0.0788
 3765SOL    HW122754   0.937   3.649   2.056 -3.1715  0.3513  2.8510
 3765SOL    HW222755   0.948   3.640   2.201 -1.8929 -2.1555 -1.5137
 3766SOL     OW22756   2.537   1.960   5.982 -0.0859  0.0952  0.9431
 3766SOL    HW122757   2.456   1.964   5.932  0.9336  1.0868 -0.6053
 3766SOL    HW222758   2.573   1.879   5.945 -0.6020  1.1246 -1.7358
 3767SOL     OW22759   0.644   1.634  16.362  0.1509  0.2444 -0.2198
 3767SOL    HW122760   0.664   1.705  16.424 -0.7313  0.5476 -0.2902
 3767SOL    HW222761   0.675   1.671  16.280  1.5318 -1.6396 -0.5475
 3768SOL     OW22762   2.434   0.534  16.950 -0.5993 -0.1900  0.2800
 3768SOL    HW122763   2.368   0.466  16.935 -2.2048  1.1920  1.0585
 3768SOL    HW222764   2.384   0.612  16.974 -0.5473  0.1390 -0.6970
 3769SOL     OW22765   2.898   2.977   2.698  0.4158 -0.3453  0.0481
 3769SOL    HW122766   2.907   2.954   2.606 -3.6506  1.0505 -0.6965
 3769SOL    HW222767   2.842   3.054   2.695  2.5644  1.2247 -0.0784
 3770SOL     OW22768   0.150   4.168   7.530 -0.4387  0.0294 -0.4566
 3770SOL    HW122769   0.092   4.092   7.534  0.4606 -0.6414 -0.0214
 3770SOL    HW222770   0.238   4.131   7.534  0.4961  2.1110 -1.8772
 3771SOL     OW22771   1.478   3.479   1.728  0.0375  0.1629  0.2273
 3771SOL    HW122772   1.544   3.547   1.741  1.5820 -1.5853  1.5029
 3771SOL    HW222773   1.419   3.494   1.802  2.2365 -1.4201  2.2723
 3772SOL     OW22774   4.409   1.805  12.937  0.2387  0.1300 -0.0313
 3772SOL    HW122775   4.351   1.810  13.013  2.2373 -0.8402  1.5601
 3772SOL    HW222776   4.494   1.780  12.974 -0.4170 -1.4871  0.3620
 3773SOL     OW22777   0.336   3.515  15.085  0.1573  0.4232 -0.5054
 3773SOL    HW122778   0.244   3.536  15.066  0.4461  1.4856 -0.7327
 3773SOL    HW222779   0.317   3.455  15.157 -0.5792  0.6536 -0.5046
 3774SOL     OW22780   3.140   4.341   6.127  0.2519 -0.3896  0.0707
 3774SOL    HW122781   3.176   4.309   6.210  2.3724  2.4959  0.2782
 3774SOL    HW222782   3.063   4.381   6.168  2.5028  2.6691  1.3945
 3775SOL     OW22783   4.664   2.010  16.752 -0.0889  0.3861 -0.2133
 3775SOL    HW122784   4.578   1.998  16.711 -0.0421  0.4497 -0.3309
 3775SOL    HW222785   4.633   2.016  16.842  1.8195  0.7440  0.4005
 3776SOL     OW22786   3.959   3.538   8.780  0.0430 -0.0479 -0.7399
 3776SOL    HW122787   3.918   3.451   8.779 -0.6266  0.2595 -0.2512
 3776SOL    HW222788   3.897   3.594   8.733 -2.4685 -0.0475  2.5265
 3777SOL     OW22789   2.693   3.809   2.716  0.3899  0.8811  0.4882
 3777SOL    HW122790   2.788   3.806   2.709  0.2915 -2.9347  0.7354
 3777SOL    HW222791   2.686   3.842   2.805 -0.3110 -0.5197  0.9474
 3778SOL     OW22792   3.894   1.862   7.608 -0.2459 -0.1101  0.1392
 3778SOL    HW122793   3.945   1.827   7.681 -0.8278 -1.5111 -0.1298
 3778SOL    HW222794   3.927   1.952   7.606 -1.5157  0.2670 -2.8809
 3779SOL     OW22795   1.067   3.494   4.660 -0.7588  1.0622 -0.1621
 3779SOL    HW122796   1.148   3.484   4.610 -2.4383 -0.1382 -2.6669
 3779SOL    HW222797   1.016   3.424   4.620  0.1376  0.3659 -0.0778
 3780SOL     OW22798   4.307   2.769  10.642  0.2231  0.2773 -0.2223
 3780SOL    HW122799   4.225   2.777  10.594 -0.3938 -1.1952  0.5636
 3780SOL    HW222800   4.272   2.743  10.727 -3.8995  0.3868 -1.9137
 3781SOL     OW22801   0.046   1.135   4.363  0.7153  0.5470  0.1415
 3781SOL    HW122802   0.046   1.133   4.459  0.0542 -3.2640  0.0972
 3781SOL    HW222803   4.678   1.101   4.343  1.4732 -2.0701  1.2014
 3782SOL     OW22804   0.991   3.402   5.757  0.0141  0.3071 -0.4172
 3782SOL    HW122805   1.060   3.455   5.717  1.1810 -1.7225 -1.0951
 3782SOL    HW222806   1.041   3.363   5.829 -0.9689 -1.1118 -0.4933
 3783SOL     OW22807   2.034   3.198   1.850 -0.1086 -0.0499 -0.0491
 3783SOL    HW122808   2.013   3.114   1.809  0.6240  0.1834 -0.9088
 3783SOL    HW222809   1.954   3.249   1.841  0.7444  1.5713  1.5873
 3784SOL     OW22810   2.966   4.271   2.056 -0.3453 -0.2179 -0.1217
 3784SOL    HW122811   2.921   4.229   2.129 -0.2692  0.5736  0.3699
 3784SOL    HW222812   2.905   4.251   1.985 -0.9276  2.5513 -0.3914
 3785SOL     OW22813   1.988   2.525  13.286 -0.0063 -0.1082  0.7852
 3785SOL    HW122814   1.998   2.447  13.232  0.3083 -0.1553  0.9101
 3785SOL    HW222815   2.015   2.592  13.223  2.3934 -2.4194 -0.6487
 3786SOL     OW22816   2.879   0.834   3.774 -0.4154 -0.2085  0.1399
 3786SOL    HW122817   2.922   0.751   3.794  1.5877  1.0789  1.1478
 3786SOL    HW222818   2.893   0.823   3.680 -0.6110 -3.9735  0.5613
 3787SOL     OW22819   1.921   0.633   7.675 -0.2036 -0.1258 -0.2925
 3787SOL    HW122820   1.984   0.603   7.740  0.0906 -0.4519 -0.7282
 3787SOL    HW222821   1.935   0.565   7.610  0.5945  1.1999 -1.5211
 3788SOL     OW22822   3.572   3.546   3.903  0.1940 -0.2843 -0.0377
 3788SOL    HW122823   3.667   3.563   3.897  0.3692 -1.2157  0.1063
 3788SOL    HW222824   3.564   3.588   3.988 -1.9406  0.5535 -0.6599
 3789SOL     OW22825   4.475   1.553   8.482  0.4756  0.0454  0.9223
 3789SOL    HW122826   4.537   1.606   8.532  1.3972 -0.4130  0.2659
 3789SOL    HW222827   4.394   1.586   8.522 -0.3190  1.1477 -1.6217
 3790SOL     OW22828   2.123   4.715   6.582  0.2774 -0.6140 -0.3486
 3790SOL    HW122829   2.152   0.083   6.609 -0.3226 -0.4907 -0.0939
 3790SOL    HW222830   2.141   0.013   6.490 -0.3981 -2.1434 -0.7727
 3791SOL     OW22831   3.654   1.647  10.287 -0.3106  0.1047 -0.1524
 3791SOL    HW122832   3.564   1.624  10.264 -0.9390 -0.7435  3.1393
 3791SOL    HW222833   3.671   1.735  10.255  4.4256 -0.7941 -0.2006
 3792SOL     OW22834   0.438   2.725  10.021 -0.4934  0.6069 -0.3082
 3792SOL    HW122835   0.478   2.765  10.098  1.6502 -3.1941  0.5651
 3792SOL    HW222836   0.483   2.641  10.027 -0.8033  0.5334  0.9744
 3793SOL     OW22837   2.897   1.457   2.440  0.6568 -0.1795  0.4625
 3793SOL    HW122838   2.934   1.371   2.423  1.1868 -0.0454  0.9570
 3793SOL    HW222839   2.922   1.508   2.363  1.1074 -0.4006  0.4667
 3794SOL     OW22840   1.027   3.164   9.438  0.1581  0.2674 -0.6849
 3794SOL    HW122841   1.045   3.258   9.439  1.8022 -0.0802  1.2317
 3794SOL    HW222842   1.016   3.162   9.343 -0.1572 -0.5948 -0.6334
 3795SOL     OW22843   4.260   1.121   3.369 -0.7286 -0.5252  0.0704
 3795SOL    HW122844   4.257   1.036   3.324 -0.4607  0.9427 -2.7228
 3795SOL    HW222845   4.240   1.188   3.303 -1.5351  0.2747  1.1411
 3796SOL     OW22846   4.256   1.131   4.888 -0.0715 -0.2592 -0.5142
 3796SOL    HW122847   4.260   1.096   4.976  2.0838  1.4821  0.0879
 3796SOL    HW222848   4.175   1.090   4.859 -0.2363 -0.9614  0.9557
 3797SOL     OW22849   3.143   1.683  13.535 -0.3164  0.7525 -0.5252
 3797SOL    HW122850   3.192   1.741  13.478  1.5996 -0.2086  0.1652
 3797SOL    HW222851   3.102   1.743  13.597 -1.8041  1.4298 -2.1590
 3798SOL     OW22852   4.619   4.011  15.586 -0.3710  0.1424  0.2505
 3798SOL    HW122853   4.654   3.922  15.582 -2.8559 -0.8061 -0.8594
 3798SOL    HW222854   4.661   4.048  15.509  1.4600  0.0457  1.1899
 3799SOL     OW22855   2.011   1.714   1.050  1.1762  0.3320 -0.1047
 3799SOL    HW122856   2.036   1.668   0.970  1.5776  0.1992  0.0978
 3799SOL    HW222857   2.074   1.787   1.053 -1.2612  2.5021 -1.2753
 3800SOL     OW22858   1.828   3.131  11.164  0.1573  0.6200  0.4068
 3800SOL    HW122859   1.797   3.050  11.205  3.3595 -0.2462  1.1503
 3800SOL    HW222860   1.917   3.130  11.200 -0.3136 -1.7749  1.4783
 3801SOL     OW22861   1.853   1.860   8.949  0.5765 -0.2162 -0.5480
 3801SOL    HW122862   1.795   1.900   9.013  1.1353 -0.0560 -0.1465
 3801SOL    HW222863   1.888   1.784   8.995  2.4464  1.1202  0.2713
 3802SOL     OW22864   4.086   0.758   3.903  0.8791 -0.5960 -0.0880
 3802SOL    HW122865   4.107   0.850   3.919 -0.7836 -0.0311 -1.1281
 3802SOL    HW222866   4.049   0.743   3.990 -1.4568 -0.5773 -1.0756
 3803SOL     OW22867   0.673   1.403  16.254 -0.0177  0.5073 -0.0536
 3803SOL    HW122868   0.665   1.485  16.303  0.9928  1.7853 -2.0176
 3803SOL    HW222869   0.697   1.351  16.331  2.3372  0.5860 -0.7339
 3804SOL     OW22870   3.341   1.024   6.399  0.4626 -0.1916  0.4244
 3804SOL    HW122871   3.326   1.078   6.477 -0.3913 -2.5308  1.8889
 3804SOL    HW222872   3.325   1.097   6.339  0.6197 -1.6073 -1.3086
 3805SOL     OW22873   3.326   4.105   2.645  0.4250 -0.0110  0.3515
 3805SOL    HW122874   3.348   4.011   2.646  0.7233  0.0556 -0.6455
 3805SOL    HW222875   3.284   4.108   2.560 -0.3437 -0.0340  0.7289
 3806SOL     OW22876   1.340   3.834   5.037  0.1799  0.0848  0.8980
 3806SOL    HW122877   1.367   3.780   4.963 -2.7308  0.0263 -0.0878
 3806SOL    HW222878   1.270   3.781   5.074 -0.6054  1.6744  1.6943
 3807SOL     OW22879   3.100   3.371   2.684  1.2482  0.2071  0.2410
 3807SOL    HW122880   3.136   3.289   2.719 -1.2967 -1.0236  0.0395
 3807SOL    HW222881   3.073   3.345   2.596 -0.1324  1.9199  0.1593
 3808SOL     OW22882   0.020   3.191   3.937  0.3430 -0.1556  0.1610
 3808SOL    HW122883   0.045   3.236   4.017 -0.6565 -0.6405  0.7390
 3808SOL    HW222884   4.648   3.168   3.943  0.1690 -0.2881 -2.8714
 3809SOL     OW22885   4.395   0.509   4.070 -0.3622  0.3579 -0.2130
 3809SOL    HW122886   4.466   0.452   4.101 -1.0073  2.1372  4.4507
 3809SOL    HW222887   4.411   0.592   4.115 -0.7941  0.2989  0.0544
 3810SOL     OW22888   2.930   2.695  12.564  0.2904  0.1844  0.0719
 3810SOL    HW122889   2.932   2.602  12.586  0.3051  0.1169 -0.2140
 3810SOL    HW222890   2.840   2.717  12.590 -0.1395  0.6216 -1.8255
 3811SOL     OW22891   0.992   1.994   2.541 -0.6613 -0.4716 -0.2434
 3811SOL    HW122892   1.055   1.927   2.566 -0.3239 -0.9223 -2.2995
 3811SOL    HW222893   1.057   2.056   2.506 -0.2489 -1.3693 -1.0778
 3812SOL     OW22894   2.411   1.557   9.519 -0.0321  0.0473 -0.2511
 3812SOL    HW122895   2.407   1.541   9.425  0.8048 -2.0099  0.0710
 3812SOL    HW222896   2.357   1.487   9.555  0.7185 -0.2317  0.3316
 3813SOL     OW22897   3.137   4.040  11.264  0.1487  0.2995  0.0644
 3813SOL    HW122898   3.107   3.967  11.209  1.2436  1.1259 -1.6218
 3813SOL    HW222899   3.228   4.041  11.235  0.7825  2.4926  2.2321
 3814SOL     OW22900   0.985   3.628   5.240  0.2595 -0.1092  0.5879
 3814SOL    HW122901   1.051   3.616   5.172 -0.7320 -2.2723  0.0003
 3814SOL    HW222902   1.002   3.721   5.253 -2.0117  0.5707 -1.1758
 3815SOL     OW22903   1.214   4.043   4.603  0.6599  0.2462 -0.6649
 3815SOL    HW122904   1.306   4.037   4.630  1.1916 -1.0106 -2.7530
 3815SOL    HW222905   1.213   3.987   4.526  3.1002 -0.6935 -0.0177
 3816SOL     OW22906   1.190   2.713   8.251  0.5588  0.1621 -0.0815
 3816SOL    HW122907   1.240   2.682   8.176  0.8811  1.5202 -0.4281
 3816SOL    HW222908   1.259   2.751   8.305 -0.8229 -0.9681  2.5001
 3817SOL     OW22909   2.753   1.386   5.828 -0.8319 -0.1183  0.1155
 3817SOL    HW122910   2.808   1.309   5.844 -1.3449 -0.6132 -0.5213
 3817SOL    HW222911   2.755   1.395   5.733  3.4014  1.3602  0.3424
 3818SOL     OW22912   3.760   4.067  17.371  0.1679  0.0162  0.6953
 3818SOL    HW122913   3.834   4.046  17.429  1.5432  1.6263 -0.4745
 3818SOL    HW222914   3.720   4.137  17.423 -0.2435 -0.5123  1.0890
 3819SOL     OW22915   4.247   3.548   4.103  1.1559  0.0891  0.5971
 3819SOL    HW122916   4.283   3.491   4.034  0.6315 -0.5264  0.8327
 3819SOL    HW222917   4.248   3.637   4.067 -0.8121 -1.0165 -2.2276
 3820SOL     OW22918   3.735   3.273   8.679  0.4026 -0.2262  0.1753
 3820SOL    HW122919   3.656   3.228   8.708 -0.1817  0.7930  0.1641
 3820SOL    HW222920   3.730   3.340   8.747  1.7962 -0.0696  0.1203
 3821SOL     OW22921   4.506   2.761   6.642 -0.0719 -0.1778 -0.5179
 3821SOL    HW122922   4.575   2.700   6.668  0.5131  0.2289 -1.0965
 3821SOL    HW222923   4.443   2.704   6.598 -0.8096  1.1259 -1.1330
 3822SOL     OW22924   1.035   4.097   7.157 -0.2283 -0.0422  0.2361
 3822SOL    HW122925   1.124   4.074   7.129 -0.0494 -0.7978  1.4377
 3822SOL    HW222926   1.064   4.170   7.211  1.4569 -1.5818  1.3944
 3823SOL     OW22927   2.554   4.352   3.531 -0.4586 -0.0163 -0.3593
 3823SOL    HW122928   2.619   4.284   3.550  0.1857  0.7301  0.1115
 3823SOL    HW222929   2.505   4.351   3.614 -0.6001  1.6213 -0.4401
 3824SOL     OW22930   2.675   0.734   7.060  0.0851  0.1544  0.4501
 3824SOL    HW122931   2.666   0.670   7.131  0.2790  0.4896  0.7769
 3824SOL    HW222932   2.620   0.690   6.995 -1.1242  0.9021  0.9788
 3825SOL     OW22933   2.745   0.114   0.534  0.1017 -0.2987  0.2334
 3825SOL    HW122934   2.698   0.153   0.608 -0.8606 -2.0021  0.5238
 3825SOL    HW222935   2.748   0.193   0.480 -0.6780  0.1669  0.8736
 3826SOL     OW22936   4.098   2.679   2.477 -0.0373  0.3616  0.0786
 3826SOL    HW122937   4.194   2.678   2.487  0.1624  0.0957 -1.9416
 3826SOL    HW222938   4.075   2.646   2.564 -0.6267 -0.6110 -0.4501
 3827SOL     OW22939   4.029   4.223  17.270 -0.2770  0.8170 -0.2303
 3827SOL    HW122940   3.976   4.295  17.235  2.3603  1.8784 -1.9684
 3827SOL    HW222941   3.970   4.147  17.271  1.1512 -0.2653  2.4760
 3828SOL     OW22942   3.073   0.564   1.188  0.3147  0.5428  0.1857
 3828SOL    HW122943   3.056   0.655   1.161 -0.6059  0.5707  0.8351
 3828SOL    HW222944   3.062   0.517   1.106  0.5555  0.8243 -0.0083
 3829SOL     OW22945   3.377   2.175   6.476 -0.0841 -0.2239  0.2195
 3829SOL    HW122946   3.296   2.198   6.521  0.0467  1.0551 -0.1941
 3829SOL    HW222947   3.441   2.239   6.506  0.2389 -0.3579 -0.1786
 3830SOL     OW22948   4.267   3.016  14.171  0.3989  0.9534 -0.5038
 3830SOL    HW122949   4.268   2.932  14.126 -0.4272  1.9390 -2.3555
 3830SOL    HW222950   4.251   3.079  14.100 -0.4017 -1.9148 -2.8504
 3831SOL     OW22951   3.201   3.719   2.949  0.2310 -0.1605 -0.1667
 3831SOL    HW122952   3.208   3.739   3.042  2.8904  0.2957 -0.4628
 3831SOL    HW222953   3.127   3.659   2.939 -0.9588  1.3583 -0.5239
 3832SOL     OW22954   3.403   2.231   5.054 -0.0730  0.5182  0.8316
 3832SOL    HW122955   3.312   2.207   5.070 -0.1181 -0.1376 -0.3895
 3832SOL    HW222956   3.450   2.215   5.136  1.0448  2.3437  0.5412
 3833SOL     OW22957   2.149   0.294   4.547  0.4406  0.0385  0.2419
 3833SOL    HW122958   2.080   0.351   4.515  0.4976 -0.1353 -0.1976
 3833SOL    HW222959   2.204   0.367   4.576 -0.8396  0.8680  0.5529
 3834SOL     OW22960   0.662   4.152   8.187  0.0536  0.0001 -0.4362
 3834SOL    HW122961   0.745   4.197   8.169  0.1929 -0.3307 -0.6096
 3834SOL    HW222962   0.665   4.154   8.283  1.2395 -2.9063 -0.4138
 3835SOL     OW22963   3.201   2.749   2.146 -0.5279  0.2874 -0.0961
 3835SOL    HW122964   3.164   2.820   2.093 -1.6178 -1.1053 -1.1847
 3835SOL    HW222965   3.293   2.771   2.158 -0.3809 -1.3015  1.6671
 3836SOL     OW22966   1.941   0.886   9.878  0.6363 -0.4689 -0.4341
 3836SOL    HW122967   1.975   0.869   9.965 -0.3350  0.1915  0.0723
 3836SOL    HW222968   1.959   0.803   9.834  0.2245 -0.5373 -0.4805
 3837SOL     OW22969   4.267   1.841  14.315  0.3029  0.2231  0.0484
 3837SOL    HW122970   4.229   1.849  14.228 -0.6472 -0.5857  0.3845
 3837SOL    HW222971   4.200   1.889  14.364  0.1054 -0.6369  0.6222
 3838SOL     OW22972   4.421   1.449  16.046 -0.7147  0.5091 -0.5088
 3838SOL    HW122973   4.435   1.452  15.951  4.0693 -0.6736  0.1458
 3838SOL    HW222974   4.349   1.385  16.047  0.2159 -0.5599 -1.5815
 3839SOL     OW22975   1.643   4.656  15.894  0.6283 -0.5243  0.1126
 3839SOL    HW122976   1.603   4.605  15.965 -1.4445  0.3388 -0.4375
 3839SOL    HW222977   1.686   4.591  15.839  0.0146 -0.8724  0.0403
 3840SOL     OW22978   3.274   2.215  17.526  0.1050  0.3228  0.4740
 3840SOL    HW122979   3.188   2.242  17.557  0.0885 -0.7361  1.3820
 3840SOL    HW222980   3.330   2.235  17.601  0.7800 -0.6849  0.2492
 3841SOL     OW22981   1.195   4.708  12.866  0.2640 -0.0708 -0.1187
 3841SOL    HW122982   1.144   0.026  12.937 -3.0566 -0.7205 -2.1642
 3841SOL    HW222983   1.263   4.658  12.911  0.0346  1.9098  2.4346
 3842SOL     OW22984   0.712   3.711   0.530  0.1268 -0.1591  0.1310
 3842SOL    HW122985   0.675   3.703   0.442  0.3006 -0.1071  0.0546
 3842SOL    HW222986   0.633   3.690   0.581 -0.8778 -0.6276 -1.5934
 3843SOL     OW22987   0.927   2.860   4.472 -0.0407 -0.2841 -0.2397
 3843SOL    HW122988   0.945   2.774   4.433 -0.1070  0.7769 -2.6214
 3843SOL    HW222989   0.942   2.839   4.564  1.2272 -0.1234 -0.4146
 3844SOL     OW22990   3.618   3.187   4.232 -0.6305  0.3417  0.6008
 3844SOL    HW122991   3.593   3.274   4.262  4.0493  1.3322  1.6917
 3844SOL    HW222992   3.679   3.210   4.162 -0.1373 -0.0080  0.9206
 3845SOL     OW22993   1.974   4.400  14.055  0.2769  0.2824 -0.0394
 3845SOL    HW122994   1.979   4.427  13.963 -1.7300  1.6118  0.2381
 3845SOL    HW222995   1.883   4.369  14.054  0.2109  0.4631  0.2287
 3846SOL     OW22996   1.820   1.282  15.310  0.4665  0.0005 -0.3416
 3846SOL    HW122997   1.794   1.359  15.360 -0.8515  1.1382 -2.7317
 3846SOL    HW222998   1.746   1.224  15.327  0.0107  1.2184  1.7413
 3847SOL     OW22999   0.434   2.747  13.710 -0.3449 -0.5270 -0.0946
 3847SOL    HW123000   0.393   2.729  13.795 -0.0317 -0.3604  0.0947
 3847SOL    HW223001   0.359   2.742  13.652  1.0839  0.6313 -2.0460
 3848SOL     OW23002   2.448   0.789  17.110  0.3076 -0.4234 -0.1619
 3848SOL    HW123003   2.421   0.700  17.136  1.6997 -1.2846 -1.6414
 3848SOL    HW223004   2.540   0.783  17.134  0.2569 -2.2891 -0.4012
 3849SOL     OW23005   3.480   1.050   3.884  0.1009  0.6055  0.3387
 3849SOL    HW123006   3.482   0.968   3.835 -0.1422  0.4904  0.5213
 3849SOL    HW223007   3.398   1.045   3.932  0.6447  0.5294  1.2658
 3850SOL     OW23008   2.020   3.396   8.512 -0.0223 -0.4679  0.2263
 3850SOL    HW123009   2.005   3.485   8.544 -0.8383  0.1382 -1.8535
 3850SOL    HW223010   2.114   3.380   8.507 -0.2433 -1.2804 -1.3469
 3851SOL     OW23011   0.320   1.894   8.590 -0.1042 -0.0740  0.3942
 3851SOL    HW123012   0.290   1.985   8.589  0.5589  0.1636  2.3520
 3851SOL    HW223013   0.291   1.854   8.672 -1.6242 -2.0578 -1.0873
 3852SOL     OW23014   1.208   2.922   1.517  0.0839 -0.0987  0.9987
 3852SOL    HW123015   1.221   3.007   1.475  0.8597 -0.5908  0.2414
 3852SOL    HW223016   1.300   2.918   1.545  0.0513  0.9196  1.2291
 3853SOL     OW23017   3.723   1.566  12.201  0.0722 -0.3789 -0.0909
 3853SOL    HW123018   3.799   1.537  12.251  0.1227 -1.3943 -0.7409
 3853SOL    HW223019   3.711   1.502  12.130 -2.4193 -0.3977  0.3462
 3854SOL     OW23020   3.844   3.031   5.961 -0.1445  0.1717 -0.0737
 3854SOL    HW123021   3.931   3.025   5.923  1.0168  1.6760  2.3893
 3854SOL    HW223022   3.837   2.954   6.018  0.3694 -0.3738 -0.7444
 3855SOL     OW23023   1.664   4.628   1.348  0.0192 -0.4541  0.5696
 3855SOL    HW123024   1.737   4.632   1.287 -0.2600 -2.2763  0.1401
 3855SOL    HW223025   1.589   4.600   1.295  0.7685 -3.6029  1.2200
 3856SOL     OW23026   1.183   0.111   8.754  0.4043 -0.5066 -0.1782
 3856SOL    HW123027   1.248   0.173   8.722 -0.3179 -1.0590 -2.6679
 3856SOL    HW223028   1.222   0.103   8.841  1.6614 -1.2143 -0.8152
 3857SOL     OW23029   3.331   2.733   6.316  0.1432 -0.3844  0.1874
 3857SOL    HW123030   3.421   2.763   6.329  0.2241 -0.4359 -0.2494
 3857SOL    HW223031   3.311   2.776   6.233 -0.2838 -1.2568 -0.1694
 3858SOL     OW23032   2.328   1.312   4.994 -0.2128 -0.2485 -0.8616
 3858SOL    HW123033   2.275   1.383   5.030 -1.3095 -2.0031  1.0240
 3858SOL    HW223034   2.288   1.244   5.049  0.6864 -0.5519 -0.5844
 3859SOL     OW23035   2.859   1.463  16.481  0.0222 -0.0907 -0.1765
 3859SOL    HW123036   2.862   1.559  16.482  2.5094 -0.1734  0.9410
 3859SOL    HW223037   2.940   1.440  16.435  1.3464  0.5195  1.8148
 3860SOL     OW23038   2.076   0.074   5.616 -0.3715  0.2732 -0.3407
 3860SOL    HW123039   2.033   4.711   5.596  0.4228 -0.0838 -0.5600
 3860SOL    HW223040   1.998   0.128   5.601 -0.0295  0.3501 -1.8923
 3861SOL     OW23041   2.158   1.911  14.605  0.0236 -0.5315  0.7570
 3861SOL    HW123042   2.067   1.928  14.628 -0.6098 -1.5506 -1.0666
 3861SOL    HW223043   2.148   1.849  14.533 -1.9570  0.1447  0.4583
 3862SOL     OW23044   2.967   2.085   3.282  0.0204 -0.3000 -0.0129
 3862SOL    HW123045   2.983   2.177   3.306 -2.2931  0.6268 -1.9645
 3862SOL    HW223046   2.942   2.062   3.371  0.0004 -0.1602  0.0179
 3863SOL     OW23047   2.806   2.193   5.078  0.4383 -0.1519  0.2778
 3863SOL    HW123048   2.856   2.237   5.147 -0.8073 -1.5173  2.0547
 3863SOL    HW223049   2.739   2.143   5.123  0.4031 -0.8918 -0.6036
 3864SOL     OW23050   0.931   0.672   5.322 -0.1295  0.1091  0.1741
 3864SOL    HW123051   0.983   0.751   5.308 -0.9151  0.3947 -1.1139
 3864SOL    HW223052   0.884   0.691   5.404 -1.7266  1.9281 -1.1855
 3865SOL     OW23053   4.696   3.524   3.347 -0.1121  0.0254  0.3208
 3865SOL    HW123054   0.043   3.592   3.348  0.6166 -0.7036  1.5672
 3865SOL    HW223055   4.710   3.476   3.265 -0.9355  0.8667 -0.3152
 3866SOL     OW23056   1.577   2.527   5.668 -0.5942  0.0954  0.0273
 3866SOL    HW123057   1.571   2.454   5.729 -1.7817  1.1501  1.1556
 3866SOL    HW223058   1.636   2.489   5.602  1.2032  1.6066  0.7498
 3867SOL     OW23059   3.388   2.172   3.404 -0.3721  0.2406  0.4750
 3867SOL    HW123060   3.378   2.247   3.463 -0.2179  0.0005  0.8121
 3867SOL    HW223061   3.374   2.099   3.464  0.7829 -0.2267  0.1768
 3868SOL     OW23062   3.357   1.385  17.138  1.0386  0.0894 -0.1060
 3868SOL    HW123063   3.397   1.459  17.092 -1.3502  0.3245 -1.8015
 3868SOL    HW223064   3.268   1.399  17.105  1.0735 -2.8701 -1.5070
 3869SOL     OW23065   0.691   0.978   3.883  0.1011 -0.0778 -0.0047
 3869SOL    HW123066   0.606   1.010   3.852 -1.2547 -1.1014  2.6353
 3869SOL    HW223067   0.745   1.039   3.833  0.4682 -0.0396  0.4361
 3870SOL     OW23068   1.851   2.082   5.088 -0.5453  0.0748  0.3102
 3870SOL    HW123069   1.914   2.088   5.159 -1.3206 -3.3283  1.3062
 3870SOL    HW223070   1.906   2.059   5.013  1.5642 -1.8900  2.4436
 3871SOL     OW23071   1.339   1.308   2.589  0.2199 -0.2180 -0.2510
 3871SOL    HW123072   1.434   1.314   2.580  0.4242 -3.3237 -0.3150
 3871SOL    HW223073   1.323   1.400   2.572  4.0244  0.7018  1.1425
 3872SOL     OW23074   1.733   1.089   3.720  0.5424  0.0732 -0.3309
 3872SOL    HW123075   1.815   1.131   3.746 -0.6693  1.8550  0.6362
 3872SOL    HW223076   1.741   1.073   3.626  1.7884 -0.2573 -0.1667
 3873SOL     OW23077   4.545   2.044  10.053 -0.6018 -0.1613 -0.3400
 3873SOL    HW123078   4.575   2.079  10.136 -2.0928 -0.8367  0.4708
 3873SOL    HW223079   4.449   2.052  10.056 -0.5668  0.4050 -0.7299
 3874SOL     OW23080   4.084   3.280  15.781 -0.0620  0.3309 -0.1508
 3874SOL    HW123081   4.176   3.282  15.804 -0.2276  1.4745  0.4032
 3874SOL    HW223082   4.082   3.231  15.699  0.3459  2.5398 -1.4511
 3875SOL     OW23083   1.620   1.434   1.579  0.2941 -0.2013 -0.0592
 3875SOL    HW123084   1.707   1.469   1.595 -0.0760  1.0403 -0.7356
 3875SOL    HW223085   1.563   1.473   1.645 -1.7275 -2.0370 -0.6985
 3876SOL     OW23086   0.805   1.921   4.398  0.3838 -0.0265 -0.3682
 3876SOL    HW123087   0.752   1.843   4.380  0.1782  0.4510 -1.8470
 3876SOL    HW223088   0.831   1.947   4.309  2.3322 -1.5796 -0.2668
 3877SOL     OW23089   1.634   0.434  11.822  0.5161  0.3827  0.4097
 3877SOL    HW123090   1.709   0.396  11.867 -0.0196 -1.5133 -0.2945
 3877SOL    HW223091   1.558   0.389  11.861  0.9811 -0.4839  0.3130
 3878SOL     OW23092   2.827   2.358  11.910 -0.2602  0.0973 -0.7634
 3878SOL    HW123093   2.867   2.271  11.915 -1.0874 -0.1651  0.9348
 3878SOL    HW223094   2.883   2.413  11.964  0.4057 -1.3328  0.0114
 3879SOL     OW23095   4.649   1.023   3.760 -0.9259 -0.3636  0.0119
 3879SOL    HW123096   4.665   0.951   3.821  2.5484  0.6799  0.3458
 3879SOL    HW223097   4.576   0.982   3.713 -0.3738 -1.8400  0.4386
 3880SOL     OW23098   3.897   1.275   5.094 -0.0155 -0.2198  0.8775
 3880SOL    HW123099   3.828   1.315   5.147  0.2603  1.7797 -0.2715
 3880SOL    HW223100   3.844   1.237   5.023  0.8178  1.8804 -0.8771
 3881SOL     OW23101   1.536   4.696  12.808 -0.1468 -0.2039  0.0828
 3881SOL    HW123102   1.496   4.644  12.877  1.0275  3.5339  3.6265
 3881SOL    HW223103   1.547   4.625  12.746 -0.1623 -0.8219  0.7833
 3882SOL     OW23104   0.422   0.231  13.388 -0.1156 -0.4173 -0.1813
 3882SOL    HW123105   0.492   0.208  13.450 -1.2507 -0.2146  1.1627
 3882SOL    HW223106   0.350   0.172  13.409  1.7696 -2.7256 -0.2203
 3883SOL     OW23107   2.268   1.970   7.215 -0.3612  0.4017  0.5552
 3883SOL    HW123108   2.207   2.040   7.239  1.6921  2.4130 -0.1104
 3883SOL    HW223109   2.293   2.000   7.128 -0.7490 -0.3975  0.1723
 3884SOL     OW23110   4.062   1.269   7.882  0.1643 -0.3932  0.1849
 3884SOL    HW123111   4.017   1.201   7.832 -0.9798  0.2773  0.3184
 3884SOL    HW223112   4.136   1.218   7.916 -0.7718 -1.0055  1.3030
 3885SOL     OW23113   3.250   1.093   6.677 -0.0463 -0.3159  0.2057
 3885SOL    HW123114   3.249   1.020   6.739  0.5491  0.4172  1.0777
 3885SOL    HW223115   3.172   1.141   6.703 -1.1670 -0.7706 -2.3259
 3886SOL     OW23116   4.479   1.603   7.142 -0.3759  0.3462  0.0733
 3886SOL    HW123117   4.402   1.570   7.097 -0.9468  0.3498  1.0342
 3886SOL    HW223118   4.450   1.622   7.232  1.2604  0.5034  0.5734
 3887SOL     OW23119   2.959   0.847   7.554  0.2396  0.2353  0.1910
 3887SOL    HW123120   3.020   0.775   7.539  2.4989  2.4290 -1.0556
 3887SOL    HW223121   2.982   0.891   7.472  0.0464  1.0630  0.5775
 3888SOL     OW23122   1.212   2.188   7.526 -0.4296 -0.1078  0.1028
 3888SOL    HW123123   1.128   2.214   7.562 -0.0501 -0.8147  1.5320
 3888SOL    HW223124   1.189   2.176   7.434  1.3054  0.3654 -0.3973
 3889SOL     OW23125   3.432   3.118   8.089  0.0186 -0.4047  0.7990
 3889SOL    HW123126   3.460   3.146   8.176  0.4128 -0.1018  0.5742
 3889SOL    HW223127   3.348   3.074   8.103 -0.5348  1.0401  2.1320
 3890SOL     OW23128   1.488   1.394  13.570 -0.1877 -0.0416  0.1765
 3890SOL    HW123129   1.410   1.399  13.625 -0.5779  2.2365 -0.5698
 3890SOL    HW223130   1.463   1.325  13.508  2.4659  0.6313 -1.6238
 3891SOL     OW23131   2.852   0.240   8.332 -0.4508  0.0082 -0.0998
 3891SOL    HW123132   2.856   0.315   8.390  2.7725 -0.1496 -0.1285
 3891SOL    HW223133   2.933   0.201   8.365 -0.9601 -1.8397 -1.0142
 3892SOL     OW23134   1.769   1.701   1.177  0.1591 -0.4105 -0.1429
 3892SOL    HW123135   1.727   1.653   1.106  3.3121 -2.4875 -0.5902
 3892SOL    HW223136   1.861   1.701   1.148 -0.1563  1.3931 -1.1321
 3893SOL     OW23137   3.466   3.017   3.063  0.9463  0.1709  0.1137
 3893SOL    HW123138   3.487   3.055   2.977  3.9965  0.3544  0.9372
 3893SOL    HW223139   3.461   3.093   3.120 -0.1074  1.2641 -1.4195
 3894SOL     OW23140   1.162   3.624   4.190  0.0999  0.0718 -0.0822
 3894SOL    HW123141   1.106   3.557   4.151 -1.7781  0.5868  1.7225
 3894SOL    HW223142   1.095   3.688   4.219  1.0339  0.0009  2.2782
 3895SOL     OW23143   2.573   0.578  17.392 -0.4824  0.4878  0.6155
 3895SOL    HW123144   2.599   0.630  17.316  1.1666  0.3799  1.1151
 3895SOL    HW223145   2.640   0.510  17.395  0.4500  1.3569 -1.0844
 3896SOL     OW23146   4.142   0.354  10.842 -0.2791  0.1268  0.4994
 3896SOL    HW123147   4.113   0.434  10.798  0.2531  1.8247  3.2094
 3896SOL    HW223148   4.176   0.384  10.927  0.2848  0.7903  0.0430
 3897SOL     OW23149   2.759   3.359  17.145  0.3038  0.4389 -0.2864
 3897SOL    HW123150   2.714   3.277  17.125  0.3043  0.6994 -1.3709
 3897SOL    HW223151   2.718   3.375  17.230  0.1709  1.8904 -0.6267
 3898SOL     OW23152   3.309   4.577   6.328 -0.3964 -0.2599 -0.2435
 3898SOL    HW123153   3.390   4.542   6.364 -0.7142 -1.3878 -0.6351
 3898SOL    HW223154   3.322   4.541   6.240 -3.1018 -2.7001  0.3630
 3899SOL     OW23155   1.476   2.268   6.420  0.2010 -0.5878 -0.4263
 3899SOL    HW123156   1.452   2.254   6.329 -1.3131  0.9103 -0.2555
 3899SOL    HW223157   1.390   2.293   6.454 -0.3108 -1.7920 -0.8465
 3900SOL     OW23158   2.557   0.744   6.316  0.0987 -0.3679 -0.0031
 3900SOL    HW123159   2.466   0.740   6.344 -0.4496 -1.1008 -1.8628
 3900SOL    HW223160   2.576   0.838   6.314  1.3787 -0.6654 -2.1004
 3901SOL     OW23161   1.502   1.614   1.823  0.0742 -0.7048 -0.3000
 3901SOL    HW123162   1.495   1.709   1.836  0.8212 -0.6256 -0.5194
 3901SOL    HW223163   1.593   1.587   1.830 -0.4967 -2.2891  0.9630
 3902SOL     OW23164   4.592   3.562  13.391 -0.7284  0.1888  0.2391
 3902SOL    HW123165   4.575   3.489  13.331  1.2756 -1.2250  1.3901
 3902SOL    HW223166   4.619   3.636  13.337  1.6936 -0.8046  0.0838
 3903SOL     OW23167   2.918   4.543   4.619  0.2093 -0.1678 -0.4966
 3903SOL    HW123168   2.963   4.463   4.589  0.0082  0.2889 -2.0256
 3903SOL    HW223169   2.931   4.535   4.713 -0.4047  1.4089 -0.2842
 3904SOL     OW23170   0.640   3.337  17.129  0.1771  0.5706  0.0801
 3904SOL    HW123171   0.679   3.293  17.053  2.0699 -0.8662  1.8933
 3904SOL    HW223172   0.628   3.274  17.200 -0.6789  1.4258  0.6906
 3905SOL     OW23173   3.073   4.437   7.633 -0.2662 -0.1854 -0.2886
 3905SOL    HW123174   2.998   4.483   7.671 -0.9289 -2.1475  0.7986
 3905SOL    HW223175   3.062   4.352   7.676 -0.5793  0.4187  0.8532
 3906SOL     OW23176   0.514   1.959   5.242 -0.0463  0.0394 -0.2217
 3906SOL    HW123177   0.495   2.002   5.159 -3.2580 -1.5937 -0.3281
 3906SOL    HW223178   0.444   1.894   5.245  0.1013 -0.0370  1.6311
 3907SOL     OW23179   1.669   2.415   2.125  0.5561 -0.2706 -0.1116
 3907SOL    HW123180   1.655   2.383   2.036  2.2751 -1.2240 -0.0399
 3907SOL    HW223181   1.580   2.399   2.156 -0.4279  3.3450 -1.0653
 3908SOL     OW23182   3.341   1.963  13.770 -0.4205 -0.6267 -0.2354
 3908SOL    HW123183   3.272   1.984  13.708  0.1574 -1.3248 -1.1142
 3908SOL    HW223184   3.383   2.049  13.778  0.3907 -1.0215 -0.2209
 3909SOL     OW23185   3.675   0.796   2.869 -0.6509  0.4222  0.0704
 3909SOL    HW123186   3.693   0.799   2.774 -0.5622 -1.4985  0.0372
 3909SOL    HW223187   3.590   0.753   2.868 -0.4187 -0.0677  2.2049
 3910SOL     OW23188   0.346   0.258  15.062 -0.1801  0.3361  0.1498
 3910SOL    HW123189   0.363   0.323  15.130  0.5815  0.6892 -0.3704
 3910SOL    HW223190   0.388   0.182  15.104 -1.0832 -0.5249 -0.5094
 3911SOL     OW23191   1.650   3.406   6.963  0.3413  0.0508 -0.9484
 3911SOL    HW123192   1.677   3.378   6.875  0.7221 -2.3292 -0.0677
 3911SOL    HW223193   1.601   3.486   6.942 -1.7137 -1.0651 -0.3277
 3912SOL     OW23194   0.401   2.371   7.704  0.1299  0.4832 -0.7685
 3912SOL    HW123195   0.357   2.439   7.653 -2.6035  0.1394  1.1600
 3912SOL    HW223196   0.452   2.423   7.767  1.2536 -1.1085 -0.3549
 3913SOL     OW23197   0.501   0.460   8.262 -0.4970 -0.2732  0.1197
 3913SOL    HW123198   0.512   0.407   8.183 -0.9038  0.4815 -0.4447
 3913SOL    HW223199   0.443   0.411   8.320 -0.0173  0.0943  0.9190
 3914SOL     OW23200   2.320   3.718   8.111 -0.3029 -0.1013 -0.6566
 3914SOL    HW123201   2.320   3.638   8.058  1.1299 -1.4668  1.4008
 3914SOL    HW223202   2.287   3.781   8.048 -2.3095  0.0895  0.6019
 3915SOL     OW23203   3.982   2.277   1.203  0.1229  0.1424 -0.3043
 3915SOL    HW123204   3.891   2.282   1.230  0.2485  0.7080  0.0131
 3915SOL    HW223205   4.028   2.266   1.287 -1.1157  1.5760  0.5538
 3916SOL     OW23206   3.778   4.212  10.437  0.4057  0.1379  0.0843
 3916SOL    HW123207   3.727   4.151  10.490 -0.6048  0.8574 -0.0604
 3916SOL    HW223208   3.867   4.194  10.469  0.8931  1.9107 -0.2576
 3917SOL     OW23209   0.711   2.462   4.264  1.1704 -0.1960  0.0746
 3917SOL    HW123210   0.647   2.404   4.222 -0.2081  3.3445 -2.6599
 3917SOL    HW223211   0.732   2.410   4.342 -2.8312 -0.0458  1.2251
 3918SOL     OW23212   3.074   1.498   5.144 -0.0994  0.4332  0.3390
 3918SOL    HW123213   3.044   1.566   5.204 -0.6925  2.4476 -2.2012
 3918SOL    HW223214   3.041   1.421   5.191 -0.9450 -1.0817 -2.7268
 3919SOL     OW23215   4.355   3.361   8.295  0.0021 -0.2195  0.1447
 3919SOL    HW123216   4.353   3.280   8.346  0.0283 -1.0801 -1.2285
 3919SOL    HW223217   4.447   3.386   8.296  0.7409 -2.9690 -0.0620
 3920SOL     OW23218   1.292   4.008   7.418  0.3128  0.0782  0.4539
 3920SOL    HW123219   1.218   4.053   7.459  1.9748  0.6130  2.8283
 3920SOL    HW223220   1.245   3.948   7.359  2.2130 -0.4204 -0.5411
 3921SOL     OW23221   0.088   0.474  12.235  0.5963  0.2494 -0.5997
 3921SOL    HW123222   0.112   0.419  12.309 -3.8707 -0.8521  0.0721
 3921SOL    HW223223   0.160   0.535  12.247 -1.0319  1.9474  0.5617
 3922SOL     OW23224   2.386   2.990   1.474  0.0316 -0.1551  0.2447
 3922SOL    HW123225   2.371   2.905   1.433 -1.4992 -0.9365  2.4040
 3922SOL    HW223226   2.353   3.040   1.399 -1.0523 -2.0646 -0.5515
 3923SOL     OW23227   2.366   0.979  11.555  0.2795 -0.4594 -0.2916
 3923SOL    HW123228   2.314   0.898  11.558 -0.2852 -0.1863 -2.5134
 3923SOL    HW223229   2.383   0.980  11.461  1.9309  0.3285  0.0207
 3924SOL     OW23230   0.960   4.238   6.867  0.4645 -0.8346  0.0161
 3924SOL    HW123231   0.899   4.230   6.794 -1.4318 -1.8823  1.7292
 3924SOL    HW223232   1.036   4.257   6.811 -0.3661 -1.9966 -1.5162
 3925SOL     OW23233   0.980   4.295   2.216 -0.0872 -0.3032 -0.0706
 3925SOL    HW123234   1.045   4.227   2.198 -0.8593 -0.9228 -0.5437
 3925SOL    HW223235   0.923   4.287   2.139  2.5468  1.6186 -2.2110
 3926SOL     OW23236   0.319   3.883   8.544  0.4835 -0.2486 -0.2480
 3926SOL    HW123237   0.396   3.898   8.489 -0.0994  0.7523 -0.8036
 3926SOL    HW223238   0.268   3.964   8.532 -1.3887 -1.4275 -0.2737
 3927SOL     OW23239   0.812   0.589   0.271 -0.0812  0.1651 -0.2392
 3927SOL    HW123240   0.757   0.511   0.269 -0.3245  0.3353 -0.1156
 3927SOL    HW223241   0.857   0.573   0.354 -0.9436 -3.6471 -0.5182
 3928SOL     OW23242   0.245   1.115  14.140  0.5118  0.0703 -0.0236
 3928SOL    HW123243   0.226   1.187  14.200 -0.9643 -0.0762 -0.3291
 3928SOL    HW223244   0.244   1.040  14.200 -1.0761  1.5433  1.7600
 3929SOL     OW23245   2.738   2.302   3.680  0.1463 -0.3461  0.2475
 3929SOL    HW123246   2.692   2.218   3.689  0.6562 -0.6061  0.4618
 3929SOL    HW223247   2.683   2.365   3.727 -1.8763 -1.7040 -0.2684
 3930SOL     OW23248   2.785   2.847   8.307  0.1807  0.0492 -0.0836
 3930SOL    HW123249   2.805   2.759   8.337  0.5586  0.5341  1.1306
 3930SOL    HW223250   2.857   2.899   8.343 -0.1881  1.4020 -1.3010
 3931SOL     OW23251   0.980   2.662   4.679  0.1472 -0.2070 -0.0583
 3931SOL    HW123252   0.943   2.656   4.767  0.3356  4.8034  0.3134
 3931SOL    HW223253   0.970   2.573   4.643  1.1056 -0.3896  0.1304
 3932SOL     OW23254   3.678   2.212  15.727 -0.1996 -0.4677 -0.1772
 3932SOL    HW123255   3.641   2.292  15.689  1.3281  0.5075  0.3670
 3932SOL    HW223256   3.731   2.247  15.799  0.7485 -0.0550 -1.0780
 3933SOL     OW23257   2.373   2.566   6.430  0.7794 -0.4289  0.1517
 3933SOL    HW123258   2.315   2.535   6.360 -0.7747  0.8444  0.8758
 3933SOL    HW223259   2.408   2.641   6.381  0.6659 -1.3129 -1.2884
 3934SOL     OW23260   2.250   3.179   1.307 -0.2652  0.1152 -0.1297
 3934SOL    HW123261   2.225   3.199   1.217  2.6687  1.9012 -0.5614
 3934SOL    HW223262   2.330   3.232   1.312  0.3353 -1.0959  3.1528
 3935SOL     OW23263   0.234   0.556   1.776  0.0907  0.0377  0.1525
 3935SOL    HW123264   0.221   0.637   1.825  0.6661 -0.0274  0.4059
 3935SOL    HW223265   0.281   0.506   1.843  1.6619 -1.1795 -1.8537
 3936SOL     OW23266   4.516   1.539  14.125 -0.1407  0.0180 -0.7633
 3936SOL    HW123267   4.518   1.634  14.138 -0.4538 -0.2466  1.2608
 3936SOL    HW223268   4.533   1.536  14.031 -1.8335  1.6863 -1.1300
 3937SOL     OW23269   1.926   1.977   6.787  0.0139 -0.6535 -0.1836
 3937SOL    HW123270   1.933   1.949   6.879  0.9439 -1.3755 -0.4816
 3937SOL    HW223271   1.973   1.909   6.741 -2.2391 -0.9849 -2.0031
 3938SOL     OW23272   2.101   3.577   9.094  0.2381 -0.2392 -0.1806
 3938SOL    HW123273   2.032   3.512   9.104  0.2796 -0.7730 -3.3451
 3938SOL    HW223274   2.050   3.653   9.122 -1.1686 -1.2610  0.0247
 3939SOL     OW23275   2.314   1.890   5.502 -1.0293  0.2770 -0.6797
 3939SOL    HW123276   2.244   1.955   5.498 -1.4993 -0.3796 -3.6204
 3939SOL    HW223277   2.306   1.843   5.585 -1.3368 -0.3815 -1.0746
 3940SOL     OW23278   1.559   0.575   6.324  0.1899  0.6384  0.6720
 3940SOL    HW123279   1.521   0.571   6.236  0.9899 -0.6857  0.3783
 3940SOL    HW223280   1.646   0.542   6.304  0.4325 -0.7056  3.7701
 3941SOL     OW23281   2.724   2.101   3.138 -0.4900 -0.2106 -0.1589
 3941SOL    HW123282   2.727   2.095   3.043  1.4850  0.3217 -0.1314
 3941SOL    HW223283   2.815   2.121   3.158 -0.7048  0.2235  0.4179
 3942SOL     OW23284   1.358   0.801   8.869 -0.0428 -0.1882 -0.2443
 3942SOL    HW123285   1.420   0.728   8.863  0.4195  0.3938 -2.3283
 3942SOL    HW223286   1.298   0.774   8.800 -0.4316 -1.1586  0.4669
 3943SOL     OW23287   1.342   1.899   8.895 -0.5704 -0.0096  0.0653
 3943SOL    HW123288   1.291   1.884   8.975 -3.7839  1.0866 -1.7579
 3943SOL    HW223289   1.413   1.838   8.914 -0.6442 -0.0693  0.1537
 3944SOL     OW23290   0.491   4.325   7.728  0.2925  0.3547 -0.0228
 3944SOL    HW123291   0.402   4.360   7.727 -0.8987 -2.7551 -0.8242
 3944SOL    HW223292   0.484   4.284   7.815  0.3935  1.6111  0.5787
 3945SOL     OW23293   1.147   1.445   8.762  0.0560 -0.3326 -0.3315
 3945SOL    HW123294   1.080   1.436   8.694  2.3083  0.0651 -2.6024
 3945SOL    HW223295   1.202   1.514   8.725 -0.6530 -0.1927 -1.1228
 3946SOL     OW23296   2.927   2.221   7.678  0.2072 -0.2092 -0.0201
 3946SOL    HW123297   2.991   2.191   7.614 -0.9146 -1.6470 -0.4776
 3946SOL    HW223298   2.975   2.238   7.759 -0.0188 -1.3022  0.3441
 3947SOL     OW23299   4.286   4.406   4.272 -0.4810  0.0032  0.1935
 3947SOL    HW123300   4.307   4.318   4.243 -0.8069  0.8827 -2.6808
 3947SOL    HW223301   4.200   4.381   4.306 -0.4976  0.9004  0.8180
 3948SOL     OW23302   0.332   1.058  10.807 -0.1246  0.2130 -0.4589
 3948SOL    HW123303   0.382   0.999  10.862  0.4604  1.0259 -0.1114
 3948SOL    HW223304   0.263   1.100  10.858 -1.2903  0.4182 -2.2044
 3949SOL     OW23305   0.858   2.937   6.379  0.1685 -0.2317 -0.2395
 3949SOL    HW123306   0.939   2.913   6.334  0.2437  0.9186 -0.7374
 3949SOL    HW223307   0.812   2.986   6.312  1.5977  1.7821  0.2357
 3950SOL     OW23308   2.304   3.516  14.965  0.0648  0.6500 -0.4721
 3950SOL    HW123309   2.227   3.573  14.970 -1.9505 -1.9622 -1.8863
 3950SOL    HW223310   2.335   3.553  14.882  1.7620 -1.1997 -0.6550
 3951SOL     OW23311   3.662   3.388   7.476  0.2255 -0.3596  0.0769
 3951SOL    HW123312   3.680   3.466   7.424 -0.4784  0.1006  0.5383
 3951SOL    HW223313   3.740   3.335   7.458 -0.4885 -1.2294 -0.4536
 3952SOL     OW23314   1.961   0.998   9.483 -0.4116  0.4222  0.8256
 3952SOL    HW123315   2.054   1.016   9.500 -0.5088  0.2160  1.5398
 3952SOL    HW223316   1.915   1.047   9.551 -0.7989  0.2895  0.6580
 3953SOL     OW23317   2.875   0.997   3.980  0.1235 -0.0786  0.3327
 3953SOL    HW123318   2.802   0.945   4.016  0.8823 -1.4679 -0.1481
 3953SOL    HW223319   2.890   0.945   3.902 -2.0126 -3.1017  1.9160
 3954SOL     OW23320   0.813   1.740   4.104 -0.2701  0.3166 -0.3487
 3954SOL    HW123321   0.722   1.769   4.092 -0.8844 -1.2046  0.5474
 3954SOL    HW223322   0.814   1.656   4.057  1.2064 -0.4574  1.0904
 3955SOL     OW23323   3.770   1.882   3.471  0.0679 -0.3391  0.5628
 3955SOL    HW123324   3.851   1.869   3.521  0.3366  1.0471  0.4850
 3955SOL    HW223325   3.766   1.973   3.442  0.8267  0.0382  1.6361
 3956SOL     OW23326   4.470   3.030  15.323 -0.0872  0.2247 -0.1912
 3956SOL    HW123327   4.551   3.013  15.274  1.3848  0.8690  2.0431
 3956SOL    HW223328   4.406   3.022  15.252  0.6703 -1.4805 -0.6986
 3957SOL     OW23329   1.779   4.219   9.173  0.8474  0.0207 -0.4611
 3957SOL    HW123330   1.707   4.276   9.200 -1.2332 -2.5967 -0.3656
 3957SOL    HW223331   1.729   4.148   9.132 -1.0209  0.3395  1.2499
 3958SOL     OW23332   1.669   0.142   2.998 -0.2953  0.4906 -0.5225
 3958SOL    HW123333   1.621   0.164   2.919 -0.2648  1.9784 -0.1383
 3958SOL    HW223334   1.725   0.070   2.969 -0.7157  0.9847 -2.5268
 3959SOL     OW23335   3.662   4.264   4.425 -0.4239 -0.5528 -0.1065
 3959SOL    HW123336   3.738   4.231   4.474  0.8676  1.1644 -0.9749
 3959SOL    HW223337   3.639   4.345   4.469 -1.1070 -2.1852  2.5530
 3960SOL     OW23338   4.341   0.706   2.357 -0.4107  0.3723 -0.5748
 3960SOL    HW123339   4.350   0.643   2.429 -0.1783  1.0341 -0.0251
 3960SOL    HW223340   4.272   0.674   2.299  1.6041 -4.3976 -0.3793
 3961SOL     OW23341   1.733   3.638  11.314 -0.0968 -0.1723  0.3640
 3961SOL    HW123342   1.653   3.643  11.263 -0.0044 -2.3174 -0.0173
 3961SOL    HW223343   1.793   3.586  11.260 -0.9184  1.0924 -1.7329
 3962SOL     OW23344   3.662   4.105  11.409 -0.0421  0.1257  0.4182
 3962SOL    HW123345   3.578   4.139  11.438 -0.0329 -0.1019  0.7056
 3962SOL    HW223346   3.719   4.133  11.480  1.7359 -0.6720 -0.6938
 3963SOL     OW23347   3.457   2.083   4.835 -0.4735  0.5050 -0.9364
 3963SOL    HW123348   3.380   2.027   4.825 -0.2787  0.2776 -1.1959
 3963SOL    HW223349   3.439   2.129   4.916 -0.4543  0.4284 -0.8885
 3964SOL     OW23350   2.831   3.837  13.698 -0.4427  0.9279  0.7864
 3964SOL    HW123351   2.925   3.831  13.679 -0.8246 -0.0410 -0.7536
 3964SOL    HW223352   2.798   3.749  13.683 -1.6061  1.5573 -0.3970
 3965SOL     OW23353   1.105   3.932   3.239 -0.0978  0.0517 -0.4441
 3965SOL    HW123354   1.050   4.010   3.241  0.6247  0.4976  1.9034
 3965SOL    HW223355   1.108   3.919   3.144 -0.6272 -3.3633 -0.0189
 3966SOL     OW23356   2.631   0.475  15.240 -0.7619  0.2754 -0.0899
 3966SOL    HW123357   2.635   0.566  15.271 -0.5835 -0.0771  0.9060
 3966SOL    HW223358   2.555   0.484  15.182 -2.7857 -0.2001  2.4622
 3967SOL     OW23359   2.444   3.712   8.990 -0.2912 -0.0638  0.8298
 3967SOL    HW123360   2.429   3.689   9.081 -1.1470 -2.3128  0.1284
 3967SOL    HW223361   2.430   3.806   8.988 -1.2002 -0.2353 -1.3352
 3968SOL     OW23362   4.457   0.565  13.394 -0.0426  0.2456  0.1015
 3968SOL    HW123363   4.448   0.647  13.442 -0.9242  1.1467 -1.6276
 3968SOL    HW223364   4.545   0.541  13.423  0.6413  0.4317 -1.8347
 3969SOL     OW23365   2.573   2.066   4.834 -0.0048  0.6022 -0.3196
 3969SOL    HW123366   2.591   1.973   4.849 -0.5755  0.9173  2.2104
 3969SOL    HW223367   2.658   2.089   4.795 -0.7983 -0.0872 -2.4614
 3970SOL     OW23368   2.689   2.280   6.319  0.4313 -0.1022 -0.5405
 3970SOL    HW123369   2.748   2.356   6.318  0.5900 -0.2265 -0.6060
 3970SOL    HW223370   2.738   2.211   6.364 -0.6560 -0.1091  0.6221
 3971SOL     OW23371   1.199   4.073   9.460  0.1330  0.1158 -0.0755
 3971SOL    HW123372   1.191   4.010   9.531  0.5405  0.4521  0.2635
 3971SOL    HW223373   1.276   4.128   9.471  1.3014 -1.9514  2.0824
 3972SOL     OW23374   4.257   3.775   7.858  0.6468  0.4129  0.1283
 3972SOL    HW123375   4.230   3.689   7.891 -0.9229 -0.0189 -2.3589
 3972SOL    HW223376   4.239   3.835   7.931  0.6481  1.0152 -0.3703
 3973SOL     OW23377   2.463   4.420   4.484  0.4925 -0.4841  0.3388
 3973SOL    HW123378   2.454   4.444   4.576  0.6294 -0.3233  0.3089
 3973SOL    HW223379   2.485   4.505   4.447 -0.8723 -0.0630  0.4933
 3974SOL     OW23380   1.357   0.039   8.486  0.0468  0.2978 -0.2404
 3974SOL    HW123381   1.284   4.700   8.506  1.9307 -1.6965  0.7819
 3974SOL    HW223382   1.352   0.108   8.552 -1.9163  0.0171 -0.0985
 3975SOL     OW23383   1.920   0.506  12.683 -0.4036  0.4737  0.6537
 3975SOL    HW123384   1.914   0.424  12.634  1.6499  0.9418 -0.3866
 3975SOL    HW223385   1.952   0.480  12.769 -0.1315 -1.5504 -0.0632
 3976SOL     OW23386   3.326   2.121   7.681  0.3762 -0.8471  0.2203
 3976SOL    HW123387   3.347   2.049   7.622  0.9727  1.4776 -2.3605
 3976SOL    HW223388   3.265   2.072   7.738 -1.4322  1.0447 -0.0729
 3977SOL     OW23389   3.850   3.348  16.355  0.1479 -0.1993 -0.5440
 3977SOL    HW123390   3.801   3.423  16.320 -0.6246 -0.6789 -0.5006
 3977SOL    HW223391   3.810   3.335  16.441  0.7141 -1.6536 -0.5035
 3978SOL     OW23392   1.002   3.180  10.511 -0.0837 -0.1571 -0.1650
 3978SOL    HW123393   1.008   3.085  10.517 -0.2659 -0.1379  0.3270
 3978SOL    HW223394   0.931   3.185  10.448 -1.1401  2.6233  1.2222
 3979SOL     OW23395   0.441   1.259  13.900 -0.1102 -0.2622  0.2113
 3979SOL    HW123396   0.462   1.228  13.812  1.2397 -0.6243  0.6540
 3979SOL    HW223397   0.392   1.337  13.875 -2.0227 -1.4431  0.2666
 3980SOL     OW23398   0.598   0.186   5.793  0.7248  0.0689 -0.6780
 3980SOL    HW123399   0.608   0.275   5.759 -0.3064 -1.0678 -3.9622
 3980SOL    HW223400   0.504   0.171   5.778  0.6210 -0.0981  0.1237
 3981SOL     OW23401   3.667   4.704   3.832 -0.0578  0.1127 -0.5814
 3981SOL    HW123402   3.649   0.005   3.740 -0.7065  2.2467  0.0513
 3981SOL    HW223403   3.747   4.651   3.830  0.3804  0.7755 -0.6496
 3982SOL     OW23404   4.288   0.659   3.189 -0.2883 -0.0740 -0.1470
 3982SOL    HW123405   4.291   0.663   3.094  1.1142  0.0866 -0.0982
 3982SOL    HW223406   4.281   0.565   3.205 -0.2587  0.0763  0.7525
 3983SOL     OW23407   3.541   2.105   4.567  0.4797 -0.0670  0.3871
 3983SOL    HW123408   3.570   2.015   4.579  0.6133  0.0019  0.5812
 3983SOL    HW223409   3.511   2.125   4.656  0.5497 -0.5692  0.5222
 3984SOL     OW23410   4.277   3.484   1.443  0.2763 -0.4396 -0.3985
 3984SOL    HW123411   4.186   3.515   1.440  0.1187 -0.8048  0.7124
 3984SOL    HW223412   4.257   3.391   1.440 -0.8575 -0.2619  1.9483
 3985SOL     OW23413   3.284   1.059   7.385  0.2493 -0.6670  0.2731
 3985SOL    HW123414   3.313   1.036   7.296 -0.9615 -1.8960  0.2026
 3985SOL    HW223415   3.350   1.025   7.446  1.3620 -0.9827 -1.1051
 3986SOL     OW23416   1.898   4.025   7.373  0.4207  0.5013  0.5010
 3986SOL    HW123417   1.898   3.933   7.346  2.8841 -0.1921  2.7884
 3986SOL    HW223418   1.877   4.013   7.466  1.0021 -0.5695  0.5016
 3987SOL     OW23419   1.651   0.505   5.906 -0.7335  0.2393 -0.2457
 3987SOL    HW123420   1.636   0.410   5.901  0.0221  0.0056  1.7872
 3987SOL    HW223421   1.740   0.501   5.941 -1.1035  0.7056  0.7480
 3988SOL     OW23422   4.168   3.719   3.648  0.1707 -0.0155 -0.5564
 3988SOL    HW123423   4.104   3.781   3.613 -0.7394 -0.1592  0.8570
 3988SOL    HW223424   4.126   3.644   3.607 -1.4407  0.9123 -0.5730
 3989SOL     OW23425   1.515   3.038   3.875  0.0355  0.0496 -0.3504
 3989SOL    HW123426   1.456   3.010   3.945  0.4923  1.4995  0.6046
 3989SOL    HW223427   1.492   2.965   3.816 -1.9592  2.0365 -2.0359
 3990SOL     OW23428   3.951   0.616   7.305 -0.3375 -0.5075 -0.1553
 3990SOL    HW123429   3.929   0.659   7.388 -1.0238  1.7742 -1.5252
 3990SOL    HW223430   3.995   0.538   7.340 -0.5153 -0.4007  0.3063
 3991SOL     OW23431   0.337   4.146  11.817  0.4519  0.4671  0.2169
 3991SOL    HW123432   0.370   4.146  11.907  2.8430  1.6294 -0.6683
 3991SOL    HW223433   0.285   4.226  11.830 -0.9304 -0.6678  1.5869
 3992SOL     OW23434   3.872   0.555   8.145  0.6592  0.5282 -0.8290
 3992SOL    HW123435   3.942   0.514   8.198  0.1657  0.8269  0.0594
 3992SOL    HW223436   3.801   0.495   8.168  0.8887  0.9638  1.0862
 3993SOL     OW23437   3.988   3.155   3.984 -0.4507 -0.1174  0.0761
 3993SOL    HW123438   3.962   3.111   4.065 -0.5001 -2.9333 -1.4811
 3993SOL    HW223439   4.081   3.159   4.005 -1.0004 -0.3603  2.5093
 3994SOL     OW23440   0.646   1.009   8.290 -0.3510 -0.4162  0.4179
 3994SOL    HW123441   0.656   1.016   8.384 -1.7823 -0.3408  0.5736
 3994SOL    HW223442   0.657   0.915   8.273 -1.0580 -0.5163  0.5202
 3995SOL     OW23443   1.939   3.627   3.631 -0.3053  0.1020  0.2026
 3995SOL    HW123444   1.997   3.571   3.579  1.5986  0.0175  2.3802
 3995SOL    HW223445   1.988   3.709   3.626 -1.1619  0.6095  0.1481
 3996SOL     OW23446   2.345   3.156   5.098 -0.6294 -0.2560 -0.2641
 3996SOL    HW123447   2.318   3.193   5.182 -1.4428 -0.6203 -0.3665
 3996SOL    HW223448   2.397   3.225   5.057 -1.2540  0.4672  0.1699
 3997SOL     OW23449   4.344   0.110  11.355 -0.3208 -0.1514  0.3511
 3997SOL    HW123450   4.405   0.171  11.312  1.3674 -1.0499  1.4755
 3997SOL    HW223451   4.260   0.147  11.330 -0.1403  0.3348  0.4791
 3998SOL     OW23452   1.065   3.886   2.948 -0.2397 -0.4950 -0.8120
 3998SOL    HW123453   1.126   3.815   2.926 -0.0096 -0.6608  0.3533
 3998SOL    HW223454   1.079   3.950   2.878  2.3993  0.0795  0.2149
 3999SOL     OW23455   1.197   0.585   1.474 -0.2216  0.7609 -0.4172
 3999SOL    HW123456   1.221   0.522   1.406 -1.0439  0.1086 -0.0982
 3999SOL    HW223457   1.104   0.561   1.477 -0.1185  0.6926  1.8483
 4000SOL     OW23458   1.741   2.514   8.456 -0.0957  0.3490 -0.2852
 4000SOL    HW123459   1.756   2.576   8.528  2.0793 -1.5528  0.9162
 4000SOL    HW223460   1.782   2.571   8.391 -1.0311  0.1900 -1.0093
 4001SOL     OW23461   1.955   4.339   1.138 -0.5455 -0.1045  0.3301
 4001SOL    HW123462   1.908   4.329   1.221 -1.3045 -1.6719 -0.2831
 4001SOL    HW223463   1.896   4.311   1.068 -0.4730 -0.4913  0.4215
 4002SOL     OW23464   1.276   3.196   8.407  0.1500  0.0630 -0.0779
 4002SOL    HW123465   1.301   3.266   8.468 -1.1676 -0.1129  0.6904
 4002SOL    HW223466   1.258   3.124   8.467 -0.1042 -0.9261 -1.3642
 4003SOL     OW23467   1.042   0.722   0.130  0.3533 -0.7923  0.3291
 4003SOL    HW123468   1.108   0.670   0.174 -1.5567 -2.3641  1.3365
 4003SOL    HW223469   0.960   0.696   0.173 -0.7094  1.3489 -0.3931
 4004SOL     OW23470   2.566   1.977   3.337 -0.6846  0.3565  0.0235
 4004SOL    HW123471   2.635   2.005   3.276 -0.4406  0.8794  0.5448
 4004SOL    HW223472   2.491   1.986   3.278 -0.6054  2.3023  0.1937
 4005SOL     OW23473   1.242   4.175   4.308  0.3260  0.3022  0.2289
 4005SOL    HW123474   1.172   4.145   4.250  0.7521 -0.9523  0.3656
 4005SOL    HW223475   1.187   4.234   4.359 -1.3221  2.8362 -4.4939
 4006SOL     OW23476   4.387   3.721   5.431  0.2889 -0.1257 -0.4005
 4006SOL    HW123477   4.473   3.749   5.463  1.3693  0.1704 -3.5528
 4006SOL    HW223478   4.343   3.724   5.516  0.7695  1.1567 -0.2004
 4007SOL     OW23479   0.443   3.404   9.524  0.4109 -0.3743  0.2811
 4007SOL    HW123480   0.354   3.388   9.557  0.6471  0.1878  1.1960
 4007SOL    HW223481   0.445   3.499   9.527 -1.0676 -0.2972 -0.9812
 4008SOL     OW23482   2.284   0.960   4.283 -0.6722  0.2880 -0.2583
 4008SOL    HW123483   2.266   0.881   4.231  0.4537 -1.4116  1.9258
 4008SOL    HW223484   2.341   1.009   4.223 -0.5548 -0.6605 -0.9308
 4009SOL     OW23485   0.074   4.111   3.172 -0.4750 -0.0905  0.3201
 4009SOL    HW123486   0.110   4.198   3.190  1.4798 -0.5705 -1.3428
 4009SOL    HW223487   0.141   4.065   3.121 -0.7390  1.0513 -1.0483
 4010SOL     OW23488   2.539   0.042  11.621 -0.0601  0.2602  0.4220
 4010SOL    HW123489   2.454   0.052  11.577 -0.4548  0.0620  1.1388
 4010SOL    HW223490   2.512   4.717  11.701  0.6743 -0.4391  0.2744
 4011SOL     OW23491   4.632   2.153  10.296  0.2914 -0.4925 -0.0612
 4011SOL    HW123492   4.603   2.185  10.381 -1.8198 -0.7362 -0.7010
 4011SOL    HW223493   4.718   2.119  10.322  0.8432  1.4872  0.7019
 4012SOL     OW23494   0.706   3.091   9.260 -0.0712 -0.0238 -0.3101
 4012SOL    HW123495   0.750   3.156   9.206  0.1173 -0.8634 -1.1634
 4012SOL    HW223496   0.718   3.139   9.342  0.3918 -1.0726  0.2258
 4013SOL     OW23497   4.717   0.466  10.757  0.7172  0.6032 -0.4743
 4013SOL    HW123498   4.629   0.494  10.732  0.2701 -0.1238  0.3145
 4013SOL    HW223499   0.010   0.389  10.701 -3.7711 -0.4957  0.0049
 4014SOL     OW23500   1.534   3.977   0.820 -0.1403 -0.2638 -0.2218
 4014SOL    HW123501   1.455   3.928   0.802  0.3151 -1.0197 -0.1472
 4014SOL    HW223502   1.501   4.067   0.819 -0.0397 -0.2245 -0.0820
 4015SOL     OW23503   3.111   0.805  14.375 -0.4855  0.5767 -0.0434
 4015SOL    HW123504   3.170   0.756  14.317  0.8889 -0.2553  2.0664
 4015SOL    HW223505   3.110   0.887  14.325  1.2854 -0.3139 -1.5580
 4016SOL     OW23506   3.583   3.936   3.271 -0.3751 -0.5139 -0.4005
 4016SOL    HW123507   3.526   3.987   3.213 -0.1437 -1.6418 -1.6111
 4016SOL    HW223508   3.577   3.848   3.235  2.1371 -0.6746 -0.4422
 4017SOL     OW23509   1.603   1.998   4.616 -0.3059 -0.2836  0.4386
 4017SOL    HW123510   1.589   1.921   4.561 -2.7515  0.1793  0.4008
 4017SOL    HW223511   1.586   2.072   4.558  2.6765 -0.1461 -0.2631
 4018SOL     OW23512   2.374   4.059   3.065  0.3464  0.0356 -0.0221
 4018SOL    HW123513   2.307   4.006   3.109  1.9855 -0.9415  1.2485
 4018SOL    HW223514   2.385   4.135   3.121  0.4129  0.6073 -0.8017
 4019SOL     OW23515   1.318   2.308   5.455 -0.0070 -0.1844  0.0681
 4019SOL    HW123516   1.245   2.250   5.434  0.4045 -0.7934  0.3523
 4019SOL    HW223517   1.298   2.339   5.543  1.2066 -2.3903  1.1074
 4020SOL     OW23518   2.091   3.588   6.324 -0.1513  0.4767 -1.2092
 4020SOL    HW123519   2.066   3.649   6.254 -0.0507  4.3474  2.1351
 4020SOL    HW223520   2.056   3.508   6.285 -1.0518  1.4144 -2.3327
 4021SOL     OW23521   2.433   2.565   7.458 -0.0843  0.3276 -0.0783
 4021SOL    HW123522   2.420   2.498   7.391 -2.2097 -0.9578  1.5802
 4021SOL    HW223523   2.362   2.527   7.511  0.6628 -0.9940 -0.0111
 4022SOL     OW23524   3.375   3.140   5.852 -0.4850 -0.3713 -0.0882
 4022SOL    HW123525   3.405   3.183   5.932 -1.0380 -1.3070  0.6268
 4022SOL    HW223526   3.372   3.048   5.878  1.4917 -0.6770 -0.9822
 4023SOL     OW23527   4.577   3.797  14.951 -0.6984  0.2194 -0.3968
 4023SOL    HW123528   4.483   3.801  14.965 -0.7214  1.6930 -0.9686
 4023SOL    HW223529   4.612   3.859  15.015  2.0122 -0.7591 -0.9094
 4024SOL     OW23530   0.773   1.944   9.185 -0.5959  0.2270  0.3113
 4024SOL    HW123531   0.849   1.946   9.243 -0.9966  0.4785  0.8298
 4024SOL    HW223532   0.719   2.016   9.218  1.3255  2.5158 -1.5599
 4025SOL     OW23533   2.345   4.419   6.754 -0.0691  0.4727  0.3862
 4025SOL    HW123534   2.379   4.451   6.671  1.9938  1.0475  1.4566
 4025SOL    HW223535   2.370   4.328   6.742 -1.5663  0.2577 -0.9871
 4026SOL     OW23536   2.838   0.370   6.800  0.5212 -0.1100  0.1640
 4026SOL    HW123537   2.894   0.303   6.840  1.1768  0.6578  0.5368
 4026SOL    HW223538   2.899   0.419   6.745  0.5654 -0.7604 -0.3719
 4027SOL     OW23539   3.498   1.795  14.348 -0.1945  0.3450  0.0378
 4027SOL    HW123540   3.531   1.733  14.413 -0.1591 -0.4272 -0.7232
 4027SOL    HW223541   3.569   1.860  14.343 -1.0741  1.0670 -3.0109
 4028SOL     OW23542   1.883   4.517   4.545  0.0565  0.4366 -0.1399
 4028SOL    HW123543   1.866   4.468   4.465 -1.2175  0.5789  0.0401
 4028SOL    HW223544   1.799   4.489   4.582  1.0355  1.4695  2.9077
 4029SOL     OW23545   3.297   2.368   3.585  1.0368  0.9208 -0.2261
 4029SOL    HW123546   3.323   2.341   3.673 -2.2104  0.9996  0.7626
 4029SOL    HW223547   3.203   2.375   3.601  1.3419 -1.0600  2.4594
 4030SOL     OW23548   2.385   2.849   2.801 -0.2102 -0.5200 -0.0544
 4030SOL    HW123549   2.415   2.758   2.790  1.1442 -0.1854  0.8278
 4030SOL    HW223550   2.452   2.872   2.865 -1.2143 -0.7296  1.0757
 4031SOL     OW23551   1.917   3.735  10.371  0.6774  0.4481 -0.1424
 4031SOL    HW123552   2.008   3.756  10.393  0.8852 -2.3337  1.5724
 4031SOL    HW223553   1.903   3.677  10.445 -0.7225  2.5259  1.1922
 4032SOL     OW23554   0.914   0.741  12.603  0.0121 -0.4446 -0.3490
 4032SOL    HW123555   0.956   0.655  12.605 -1.3493 -1.0848  0.3457
 4032SOL    HW223556   0.961   0.769  12.524  2.6062 -3.6774  0.0518
 4033SOL     OW23557   1.746   3.349   3.648 -0.7388 -0.1393  0.2460
 4033SOL    HW123558   1.672   3.311   3.695  0.0138 -0.8303  0.8700
 4033SOL    HW223559   1.689   3.381   3.578 -0.1812 -0.3294 -0.2973
 4034SOL     OW23560   0.986   4.591   8.052  0.3663 -0.2337  0.3371
 4034SOL    HW123561   0.959   4.652   7.983  1.8193 -0.3926 -0.3532
 4034SOL    HW223562   0.965   4.652   8.123  1.2272  1.7700 -1.1442
 4035SOL     OW23563   2.915   4.315   4.301 -0.5912 -0.3475  0.5897
 4035SOL    HW123564   2.920   4.255   4.227  1.0856  0.2543  0.2120
 4035SOL    HW223565   2.851   4.381   4.274  2.8594  2.1286 -1.4600
 4036SOL     OW23566   1.076   1.826   5.697  0.5059 -0.5363 -0.0242
 4036SOL    HW123567   1.035   1.873   5.625 -1.6922  0.9094  2.1940
 4036SOL    HW223568   1.006   1.848   5.758 -0.2647 -0.2368 -1.0007
 4037SOL     OW23569   1.147   0.749   0.938 -0.1239  0.3471  0.0670
 4037SOL    HW123570   1.052   0.742   0.925 -0.0306 -0.8019  0.0019
 4037SOL    HW223571   1.146   0.839   0.903  1.8792  1.7750  3.7019
 4038SOL     OW23572   4.038   2.830   6.837 -0.0208 -0.1822 -0.2684
 4038SOL    HW123573   4.108   2.884   6.798 -0.3965  0.5928  0.1333
 4038SOL    HW223574   4.059   2.832   6.930 -0.8155 -1.0755 -0.0725
 4039SOL     OW23575   0.286   3.783  11.660  0.4426 -0.9357 -0.1561
 4039SOL    HW123576   0.231   3.762  11.585 -1.4087 -1.2291  1.2667
 4039SOL    HW223577   0.298   3.877  11.654  3.3040 -1.2607  0.5987
 4040SOL     OW23578   0.162   4.673   7.604 -0.2456 -0.3092 -0.4712
 4040SOL    HW123579   0.210   4.646   7.526  1.4139  0.1881  0.3732
 4040SOL    HW223580   0.151   0.046   7.587 -0.1537 -0.3655 -0.8267
 4041SOL     OW23581   3.390   4.567  12.061 -0.1322  0.0839  0.5524
 4041SOL    HW123582   3.459   4.552  12.126  1.4453 -0.6555 -1.2896
 4041SOL    HW223583   3.321   4.604  12.116  0.1191 -0.2045  1.0694
 4042SOL     OW23584   1.089   1.992   6.007 -0.5722 -0.7126  0.1615
 4042SOL    HW123585   1.105   1.910   6.053  0.1153  0.1258  1.3944
 4042SOL    HW223586   1.177   2.012   5.974 -1.0782  0.2508 -0.6071
 4043SOL     OW23587   2.739   1.665  14.706  0.5656  0.3420 -0.1130
 4043SOL    HW123588   2.760   1.574  14.724  1.1999  1.0728  2.7881
 4043SOL    HW223589   2.760   1.698  14.793  0.8508 -0.5582  0.1531
 4044SOL     OW23590   1.616   1.112   3.981  0.2775  0.0580  0.0574
 4044SOL    HW123591   1.593   1.205   3.971 -0.8957 -0.1544  0.7625
 4044SOL    HW223592   1.638   1.084   3.893 -0.0006 -0.9568  0.3147
 4045SOL     OW23593   3.396   0.768  10.946  0.2221 -0.7082 -0.5116
 4045SOL    HW123594   3.373   0.843  11.001  0.7533 -0.5029 -0.5704
 4045SOL    HW223595   3.370   0.695  11.002  0.0174 -0.8940 -0.8480
 4046SOL     OW23596   1.486   1.371  10.869 -0.1734 -0.1875  0.9250
 4046SOL    HW123597   1.498   1.278  10.889 -0.4594 -0.6728 -1.2077
 4046SOL    HW223598   1.406   1.356  10.820  1.3021  1.1978 -1.8947
 4047SOL     OW23599   3.077   3.817  13.392 -0.4374  0.0825  0.0611
 4047SOL    HW123600   3.052   3.740  13.443 -1.6258  1.1420  1.0783
 4047SOL    HW223601   3.105   3.881  13.458 -1.3980 -1.3466  1.8653
 4048SOL     OW23602   1.751   3.664   1.314  0.1060 -0.0534 -0.2330
 4048SOL    HW123603   1.755   3.572   1.337 -0.5939 -0.2967 -1.0653
 4048SOL    HW223604   1.657   3.683   1.322  0.5857  1.4854  1.7847
 4049SOL     OW23605   0.608   3.048   5.134  0.7495  0.3160 -0.2312
 4049SOL    HW123606   0.663   3.102   5.191  0.8846  0.8272 -0.8556
 4049SOL    HW223607   0.625   2.961   5.171 -1.6143 -0.9227 -2.0112
 4050SOL     OW23608   1.417   1.327   8.310 -0.1977  0.2870 -0.5008
 4050SOL    HW123609   1.455   1.322   8.222  2.1433  0.3541  0.5112
 4050SOL    HW223610   1.485   1.369   8.362 -1.7775  0.3402  1.5174
 4051SOL     OW23611   1.797   0.713   2.185 -0.0995  0.0486 -0.0226
 4051SOL    HW123612   1.888   0.727   2.158 -0.5274  0.7434 -1.0894
 4051SOL    HW223613   1.767   0.670   2.105 -1.0956  0.6672  0.0250
 4052SOL     OW23614   0.274   0.415   4.190 -0.3159  0.4220  0.0848
 4052SOL    HW123615   0.282   0.508   4.210  0.4446  0.3936 -0.0890
 4052SOL    HW223616   0.323   0.423   4.108 -1.8277 -0.3283 -0.8845
 4053SOL     OW23617   2.679   1.117   3.517  0.0376  0.0378  0.3097
 4053SOL    HW123618   2.693   1.047   3.580  0.1335 -1.4681 -1.3885
 4053SOL    HW223619   2.585   1.135   3.513  0.3032  1.3521  0.0942
 4054SOL     OW23620   0.335   1.030   0.649 -0.0482 -0.3281 -0.0744
 4054SOL    HW123621   0.399   1.062   0.585 -1.3965  1.2744 -0.6438
 4054SOL    HW223622   0.350   0.936   0.649  2.0271  0.0026 -1.0490
 4055SOL     OW23623   4.378   4.440   8.001  0.1017 -0.5221  0.0601
 4055SOL    HW123624   4.362   4.410   7.912  1.0244  0.6657 -0.5072
 4055SOL    HW223625   4.472   4.427   8.013  0.4416  3.5940  1.6940
 4056SOL     OW23626   3.529   3.814   5.525  0.1405 -0.2587 -0.6723
 4056SOL    HW123627   3.482   3.893   5.500  0.3152 -0.8891 -2.9825
 4056SOL    HW223628   3.618   3.847   5.524  0.0514 -0.0269 -0.8582
 4057SOL     OW23629   3.809   4.173   6.636  0.1987  0.2340 -0.4455
 4057SOL    HW123630   3.769   4.197   6.719  0.7893 -0.9151  0.1871
 4057SOL    HW223631   3.736   4.156   6.577  0.8674 -2.1416 -0.6161
 4058SOL     OW23632   0.332   4.548   2.725 -0.1557 -0.3049 -0.2285
 4058SOL    HW123633   0.285   4.632   2.727  0.4665  0.0332  0.5281
 4058SOL    HW223634   0.318   4.522   2.816  0.2359  0.3779  0.0356
 4059SOL     OW23635   1.056   2.905   6.740  0.2319 -0.0642 -0.4301
 4059SOL    HW123636   1.028   2.839   6.676 -0.0836 -3.0026  2.7939
 4059SOL    HW223637   1.031   2.845   6.810  2.5358  0.0396  0.4638
 4060SOL     OW23638   2.098   0.794   4.472  0.3110 -0.6328  0.1982
 4060SOL    HW123639   2.046   0.740   4.532  0.0181 -0.4582  0.1033
 4060SOL    HW223640   2.075   0.758   4.386 -0.2149  1.3571 -0.5146
 4061SOL     OW23641   3.595   3.490   6.413  0.1127  0.1028 -0.6285
 4061SOL    HW123642   3.571   3.399   6.432  1.9181 -0.3002 -0.2003
 4061SOL    HW223643   3.523   3.540   6.452  0.1574  0.6466 -1.2484
 4062SOL     OW23644   1.553   2.624  12.436  0.0025  0.3983 -0.3268
 4062SOL    HW123645   1.535   2.699  12.493 -0.5425  0.2910 -0.3556
 4062SOL    HW223646   1.465   2.587  12.440 -0.1973  1.1738  2.9688
 4063SOL     OW23647   2.590   1.731  16.795  0.1562  0.7722  0.3993
 4063SOL    HW123648   2.653   1.660  16.783  1.6416  2.4165 -1.6845
 4063SOL    HW223649   2.507   1.685  16.784  0.2314  0.7899 -0.2622
 4064SOL     OW23650   0.672   2.038  12.357 -0.2743 -0.5406 -0.7533
 4064SOL    HW123651   0.765   2.029  12.336 -0.3398  0.5257 -1.5025
 4064SOL    HW223652   0.671   2.133  12.353  2.4557 -0.4072  1.6608
 4065SOL     OW23653   3.441   3.306   2.377 -0.6850 -0.2257 -0.7751
 4065SOL    HW123654   3.446   3.311   2.282  0.2291  1.4964 -0.6208
 4065SOL    HW223655   3.361   3.253   2.373 -0.7364 -0.2978  1.2597
 4066SOL     OW23656   4.514   3.127   8.130  0.1377  0.3514 -0.1474
 4066SOL    HW123657   4.455   3.190   8.089  2.6825  2.3971 -0.6491
 4066SOL    HW223658   4.525   3.157   8.220  2.1945  0.3086 -0.3849
 4067SOL     OW23659   0.832   1.755   7.740 -0.5879 -0.5839 -0.2216
 4067SOL    HW123660   0.806   1.712   7.822  1.2409 -1.1489  0.0674
 4067SOL    HW223661   0.797   1.690   7.678  0.6206 -1.5940  0.1534
 4068SOL     OW23662   0.931   2.480   6.948  0.4526 -0.6701 -0.3306
 4068SOL    HW123663   0.998   2.478   6.880 -0.5790  2.4900 -1.4450
 4068SOL    HW223664   0.851   2.485   6.895 -0.6200 -2.4227  1.1215
 4069SOL     OW23665   2.020   0.865   6.830 -0.1561 -0.2714  0.5111
 4069SOL    HW123666   2.087   0.845   6.896  1.2608 -1.6928 -1.3728
 4069SOL    HW223667   2.045   0.954   6.803 -0.3329  0.2638  2.0730
 4070SOL     OW23668   1.702   0.418   7.465  0.2746  0.1353 -0.4354
 4070SOL    HW123669   1.702   0.466   7.547  0.8812  1.3138 -1.1266
 4070SOL    HW223670   1.611   0.390   7.459 -0.1965  1.6083 -0.1429
 4071SOL     OW23671   0.917   0.669   1.260  0.2219 -0.2187  0.0612
 4071SOL    HW123672   1.007   0.656   1.291  0.0872 -0.2968  0.4254
 4071SOL    HW223673   0.887   0.751   1.298 -4.2790 -0.8287 -2.0824
 4072SOL     OW23674   3.823   3.995  16.199 -0.0369  0.0375 -0.4612
 4072SOL    HW123675   3.828   4.050  16.121 -1.1005  2.9531  1.5448
 4072SOL    HW223676   3.760   3.935  16.159  0.5255 -0.8052 -0.0759
 4073SOL     OW23677   1.029   1.683   4.328 -0.4170  0.1019 -0.4039
 4073SOL    HW123678   0.994   1.748   4.267 -1.3751 -0.4964 -0.4873
 4073SOL    HW223679   0.949   1.653   4.372  1.3208 -0.6663  2.2115
 4074SOL     OW23680   0.733   3.180   5.327  0.2046  0.2988 -0.0077
 4074SOL    HW123681   0.731   3.272   5.353  2.5211 -0.0678  1.3861
 4074SOL    HW223682   0.689   3.146   5.405 -0.4180 -1.7660 -1.2417
 4075SOL     OW23683   2.520   0.707   1.734  0.4813 -0.0648 -0.3300
 4075SOL    HW123684   2.584   0.700   1.804 -0.0944  0.5168  0.2524
 4075SOL    HW223685   2.529   0.624   1.688 -0.3504  0.9149 -2.2838
 4076SOL     OW23686   4.103   0.969   0.757  0.0200 -0.1987 -0.5515
 4076SOL    HW123687   4.037   1.030   0.789  1.2563  2.1386 -2.4303
 4076SOL    HW223688   4.053   0.887   0.747  1.4223 -1.1681  0.4219
 4077SOL     OW23689   2.899   0.491   2.617  0.4824 -0.0131 -0.6333
 4077SOL    HW123690   2.843   0.563   2.649 -0.0898 -0.7576  0.0268
 4077SOL    HW223691   2.982   0.512   2.660  0.7889  0.1093 -1.2841
 4078SOL     OW23692   2.565   0.868   3.401 -0.0621  0.8724 -0.0013
 4078SOL    HW123693   2.574   0.898   3.492 -1.1472  0.6133  0.1972
 4078SOL    HW223694   2.645   0.881   3.352  0.4680  0.8302  0.8434
 4079SOL     OW23695   4.195   1.879   7.470  0.7693 -0.6908 -0.0246
 4079SOL    HW123696   4.150   1.822   7.532 -0.3875  2.0089  1.6518
 4079SOL    HW223697   4.152   1.862   7.386  0.0824 -0.7559  0.3343
 4080SOL     OW23698   1.796   4.523   5.348  0.0056 -0.3243 -0.2695
 4080SOL    HW123699   1.867   4.518   5.284  0.6236  1.1385  0.2913
 4080SOL    HW223700   1.718   4.488   5.304  1.3858 -0.5542 -2.5078
 4081SOL     OW23701   4.250   2.428   4.008  0.0768  0.2052  0.9244
 4081SOL    HW123702   4.302   2.442   4.088  2.1965 -0.1981 -0.3974
 4081SOL    HW223703   4.177   2.375   4.040  0.9791 -1.8150 -0.4197
 4082SOL     OW23704   2.621   0.309  10.329 -0.2116  0.6410  0.1451
 4082SOL    HW123705   2.626   0.405  10.335 -0.6694  0.7252 -0.9091
 4082SOL    HW223706   2.672   0.295  10.249 -0.6172  1.6647 -0.2927
 4083SOL     OW23707   4.200   3.512   6.943  0.9452  0.4098  0.4522
 4083SOL    HW123708   4.225   3.458   6.868 -1.3813 -1.4161  0.9549
 4083SOL    HW223709   4.238   3.594   6.912  2.4995 -1.2825 -2.0991
 4084SOL     OW23710   0.588   3.318   8.913 -0.4515  0.2812  0.3011
 4084SOL    HW123711   0.554   3.316   8.824  0.0862  0.9306  0.0870
 4084SOL    HW223712   0.528   3.383   8.948 -0.4096  0.6401 -0.3033
 4085SOL     OW23713   2.953   0.939   4.519 -0.0375  0.3669  0.1090
 4085SOL    HW123714   3.013   0.947   4.445  2.5958 -0.3704  2.1726
 4085SOL    HW223715   3.008   0.912   4.592 -0.2392 -1.0113 -0.2465
 4086SOL     OW23716   0.320   3.307  17.187  0.1141 -0.0171 -0.2083
 4086SOL    HW123717   0.324   3.390  17.235 -1.5024 -0.8863  1.4292
 4086SOL    HW223718   0.383   3.250  17.230 -1.2240 -1.2281  0.1150
 4087SOL     OW23719   4.184   1.615   7.042 -0.1251  0.3348 -0.2394
 4087SOL    HW123720   4.120   1.592   7.109 -0.1542  0.1212 -0.3399
 4087SOL    HW223721   4.164   1.553   6.972  0.6479  0.2072 -0.3504
 4088SOL     OW23722   0.495   4.301   4.332  0.4680 -0.2382  0.6653
 4088SOL    HW123723   0.499   4.331   4.423  0.5238 -1.0208  0.9141
 4088SOL    HW223724   0.486   4.206   4.338  0.9435 -0.2530  1.0978
 4089SOL     OW23725   4.036   3.503  14.294 -0.2679 -0.0915 -0.1928
 4089SOL    HW123726   4.092   3.472  14.365 -2.3604  0.6372  1.7581
 4089SOL    HW223727   3.972   3.433  14.304 -0.8597  0.4754 -0.0549
 4090SOL     OW23728   3.350   1.495   3.747 -0.0006 -0.3276  0.5486
 4090SOL    HW123729   3.420   1.538   3.797  0.8282  0.1533 -1.0301
 4090SOL    HW223730   3.382   1.499   3.657 -0.6752 -0.6403  0.2970
 4091SOL     OW23731   0.571   1.153  13.393  0.0038 -0.1552  0.4052
 4091SOL    HW123732   0.498   1.189  13.343  0.5966  0.7513  0.1900
 4091SOL    HW223733   0.596   1.072  13.350 -1.3211 -0.4544  0.1848
 4092SOL     OW23734   2.032   1.362  13.783  0.3676 -0.1224  0.0233
 4092SOL    HW123735   2.027   1.409  13.866 -1.1734 -0.8161  0.3074
 4092SOL    HW223736   2.090   1.418  13.731 -1.9765  1.2095 -1.1587
 4093SOL     OW23737   0.830   2.393   3.075 -0.3497  0.3650 -0.4917
 4093SOL    HW123738   0.885   2.464   3.106 -1.6430  1.8636 -1.6288
 4093SOL    HW223739   0.743   2.430   3.091 -0.2133 -0.3260  1.8222
 4094SOL     OW23740   0.655   1.080   5.469 -0.1221 -0.4897 -0.3683
 4094SOL    HW123741   0.657   1.166   5.512  0.3788 -0.6799  0.0003
 4094SOL    HW223742   0.711   1.091   5.392 -0.5936 -1.1388 -0.8052
 4095SOL     OW23743   3.172   1.943  12.106  0.5403 -0.2825  0.3026
 4095SOL    HW123744   3.098   1.885  12.087  0.7455 -0.1783 -0.7730
 4095SOL    HW223745   3.168   1.933  12.201 -3.3985 -1.4122  0.0151
 4096SOL     OW23746   0.027   0.336  17.464  0.1412  0.8984 -0.0935
 4096SOL    HW123747   0.067   0.423  17.470  0.0544  1.1477 -3.0122
 4096SOL    HW223748   4.691   0.345  17.387  1.8576 -1.7058 -1.6438
 4097SOL     OW23749   1.126   3.409   6.230 -0.6671  0.1451 -0.0241
 4097SOL    HW123750   1.160   3.498   6.224  1.3690 -0.6046  0.3050
 4097SOL    HW223751   1.190   3.378   6.295 -1.4241  0.5811  0.9276
 4098SOL     OW23752   2.431   1.198   6.532  0.2591  0.0101  0.1738
 4098SOL    HW123753   2.517   1.229   6.505  0.0825  0.2650 -0.0886
 4098SOL    HW223754   2.396   1.171   6.447  0.6013 -0.5505  0.2075
 4099SOL     OW23755   3.021   1.956   6.557 -0.3088 -0.0834 -0.4261
 4099SOL    HW123756   3.010   1.864   6.581  1.2851 -1.0907 -3.5000
 4099SOL    HW223757   3.005   1.946   6.463 -0.3755  0.0175 -0.4248
 4100SOL     OW23758   2.543   4.567   9.808 -0.2786  0.8213  0.1795
 4100SOL    HW123759   2.545   4.662   9.816  0.2612  0.7547  0.8711
 4100SOL    HW223760   2.488   4.542   9.882 -0.4321 -1.1601 -0.5924
 4101SOL     OW23761   1.232   3.840   2.690  1.4040  0.2010 -0.6995
 4101SOL    HW123762   1.214   3.747   2.676  2.0758  0.1793 -1.4329
 4101SOL    HW223763   1.158   3.877   2.641 -0.4926 -2.4331  0.1247
 4102SOL     OW23764   0.076   0.341   8.738 -0.2970  0.0269  0.2013
 4102SOL    HW123765   0.009   0.409   8.735  0.3123  0.6746  1.2525
 4102SOL    HW223766   0.127   0.358   8.817 -0.2009  1.8972 -0.2630
 4103SOL     OW23767   3.639   4.021   8.703 -0.3332  0.4824 -0.1048
 4103SOL    HW123768   3.544   4.036   8.695 -0.6788 -1.9741 -0.9561
 4103SOL    HW223769   3.672   4.065   8.625  1.6088 -1.0230 -0.1256
 4104SOL     OW23770   2.786   1.647   4.569  0.2569 -0.5020 -0.7037
 4104SOL    HW123771   2.864   1.600   4.599  0.7752  1.4076  0.9426
 4104SOL    HW223772   2.722   1.576   4.579  1.3047 -1.1498  1.3757
 4105SOL     OW23773   4.282   0.610   8.006  0.2681  0.0067 -0.2587
 4105SOL    HW123774   4.298   0.681   8.069 -0.4327 -2.4361  2.6372
 4105SOL    HW223775   4.187   0.607   8.017  0.4392 -0.5988  1.0759
 4106SOL     OW23776   1.026   1.484  10.064  0.1667 -0.6587 -0.0462
 4106SOL    HW123777   0.982   1.408  10.101 -1.3688  0.0008 -0.5293
 4106SOL    HW223778   1.090   1.507  10.132  0.1545  2.7036 -1.1693
 4107SOL     OW23779   3.078   0.325   2.267 -0.2063 -0.0376  0.0626
 4107SOL    HW123780   3.046   0.411   2.293  0.7887 -0.3554  2.2986
 4107SOL    HW223781   3.094   0.355   2.177 -4.3528  0.0451 -0.6629
 4108SOL     OW23782   4.503   2.637   1.109 -0.4282  0.0268  0.2844
 4108SOL    HW123783   4.570   2.637   1.041  1.6350 -0.5425  2.3172
 4108SOL    HW223784   4.553   2.632   1.190 -0.3676  0.1191  0.2514
 4109SOL     OW23785   4.085   3.743   2.128 -0.1049  0.6684  0.0137
 4109SOL    HW123786   4.164   3.796   2.136 -0.3379  1.0333 -0.1267
 4109SOL    HW223787   4.108   3.697   2.047 -3.4528 -1.8150  0.4799
 4110SOL     OW23788   0.784   4.518   5.702 -0.0799 -0.1932 -0.2884
 4110SOL    HW123789   0.785   4.432   5.659 -2.0727  0.3094 -1.3366
 4110SOL    HW223790   0.862   4.511   5.757  0.8279  1.8321 -1.3018
 4111SOL     OW23791   1.007   1.144  10.096  0.1443 -0.5076  0.2395
 4111SOL    HW123792   1.074   1.134  10.029 -0.0986  0.4142 -0.1531
 4111SOL    HW223793   0.932   1.097  10.061 -0.6353 -0.3505  1.6596
 4112SOL     OW23794   0.096   0.056   5.153 -0.0763  0.2860  0.3769
 4112SOL    HW123795   0.082   0.138   5.106 -4.6402  0.3913  1.8482
 4112SOL    HW223796   0.012   0.042   5.198  0.0066  2.1172  1.0893
 4113SOL     OW23797   0.397   3.367  16.901 -0.2044 -0.2186 -0.1361
 4113SOL    HW123798   0.424   3.336  16.987  0.6428  0.1307 -0.2734
 4113SOL    HW223799   0.394   3.462  16.910  0.9715 -0.2514  0.6510
 4114SOL     OW23800   1.996   0.116  15.654  0.0518 -0.2917  0.2199
 4114SOL    HW123801   1.914   0.160  15.677 -0.6732 -0.9761 -1.0803
 4114SOL    HW223802   1.976   0.084  15.566 -0.1858 -1.0183  0.5413
 4115SOL     OW23803   2.347   1.545   7.691  0.4615 -0.4186 -0.3039
 4115SOL    HW123804   2.338   1.463   7.642 -0.5509 -1.1886  1.1417
 4115SOL    HW223805   2.431   1.522   7.731  1.6139  3.1148 -0.7355
 4116SOL     OW23806   2.928   1.462   4.161 -0.3844  0.0748  0.1708
 4116SOL    HW123807   2.897   1.376   4.131  0.0826  1.3239 -3.9044
 4116SOL    HW223808   2.845   1.491   4.198 -1.7409 -2.1869 -1.1099
 4117SOL     OW23809   0.126   2.492   8.919 -0.4202  0.2543  0.2327
 4117SOL    HW123810   0.044   2.446   8.902 -1.0559  0.7489  1.9917
 4117SOL    HW223811   0.098   2.540   8.996  2.5103  0.5325  1.1156
 4118SOL     OW23812   3.618   0.812   5.502 -0.1042  0.2664  0.0389
 4118SOL    HW123813   3.544   0.789   5.558  2.0972 -2.0190  2.0229
 4118SOL    HW223814   3.686   0.784   5.563 -0.1738 -0.7665 -0.3555
 4119SOL     OW23815   4.315   1.511  14.329 -0.2169 -0.0792 -0.0004
 4119SOL    HW123816   4.382   1.520  14.260 -2.5327  3.1137 -1.8363
 4119SOL    HW223817   4.331   1.588  14.384 -0.1443  0.2070 -0.4201
 4120SOL     OW23818   1.768   3.574   1.024  0.0110 -0.3170 -0.0000
 4120SOL    HW123819   1.673   3.568   1.022 -0.2034  3.7618 -0.6673
 4120SOL    HW223820   1.784   3.621   1.106 -0.0792 -2.0125  0.9923
 4121SOL     OW23821   1.134   4.174   2.928  0.2380  0.6449 -0.1992
 4121SOL    HW123822   1.123   4.228   3.006 -0.5381  0.7512 -0.3859
 4121SOL    HW223823   1.045   4.162   2.896 -0.0436 -0.2113  0.8672
 4122SOL     OW23824   0.390   2.691   5.872  0.1909 -0.2183  0.0437
 4122SOL    HW123825   0.385   2.690   5.967  2.9005  1.1409  0.2147
 4122SOL    HW223826   0.472   2.647   5.849 -0.0234  0.0919 -1.3490
 4123SOL     OW23827   3.897   0.598   1.599  0.2997  0.0874  0.2956
 4123SOL    HW123828   3.890   0.691   1.578  1.0629  0.0411 -0.1530
 4123SOL    HW223829   3.890   0.553   1.515 -2.6016  0.9024  0.1180
 4124SOL     OW23830   4.700   4.329   2.904  0.1467 -0.2380 -0.2155
 4124SOL    HW123831   4.714   4.341   2.998 -1.7112  1.6919 -0.1866
 4124SOL    HW223832   4.610   4.362   2.896 -0.1010 -0.7020  0.6544
 4125SOL     OW23833   4.484   2.156  12.058 -0.1114  0.1488 -0.4614
 4125SOL    HW123834   4.430   2.116  12.125 -2.0583  0.3332 -1.9188
 4125SOL    HW223835   4.511   2.076  12.012  0.5909 -0.0763  0.3507
 4126SOL     OW23836   0.867   0.599   7.753  0.2018  1.0876  0.3399
 4126SOL    HW123837   0.944   0.565   7.708 -0.8597 -0.5158 -0.2697
 4126SOL    HW223838   0.864   0.537   7.826 -1.5278  3.2919  2.1648
 4127SOL     OW23839   0.133   2.132  11.260  0.0639  0.3698 -0.4288
 4127SOL    HW123840   0.214   2.104  11.303  0.7551  1.9502 -0.6999
 4127SOL    HW223841   0.084   2.051  11.246  0.0858  0.1606  0.7175
 4128SOL     OW23842   3.427   4.100   8.513  0.5762 -0.5976  0.8372
 4128SOL    HW123843   3.457   4.150   8.436  2.3337  0.3007  2.1024
 4128SOL    HW223844   3.435   4.009   8.483  0.7478 -0.0969 -0.6554
 4129SOL     OW23845   3.724   4.415   3.125  0.3897 -0.0202  0.4734
 4129SOL    HW123846   3.701   4.396   3.034 -1.0387  0.0885  0.8125
 4129SOL    HW223847   3.817   4.433   3.119  0.1210  0.7791 -1.1763
 4130SOL     OW23848   4.194   3.376   8.981  0.4108 -0.2472  0.1905
 4130SOL    HW123849   4.252   3.450   8.962  1.7162 -0.4964  3.2676
 4130SOL    HW223850   4.124   3.386   8.916 -0.1390 -1.5924  0.5748
 4131SOL     OW23851   1.887   3.603  13.766  0.0173 -0.3972 -0.2835
 4131SOL    HW123852   1.884   3.531  13.703  1.1949  0.2283 -1.0445
 4131SOL    HW223853   1.898   3.551  13.846  0.4091  0.4653  0.2092
 4132SOL     OW23854   0.110   1.802  16.681  0.7711 -0.0781  0.0287
 4132SOL    HW123855   0.136   1.818  16.772  2.0338 -0.0763 -0.3383
 4132SOL    HW223856   0.043   1.870  16.669  2.8214  1.5691 -1.8787
 4133SOL     OW23857   3.507   0.184   2.542  0.4008  0.7369 -0.1657
 4133SOL    HW123858   3.455   0.220   2.470 -0.5889 -0.0256  0.1796
 4133SOL    HW223859   3.484   0.092   2.550 -0.1401  0.8382 -0.5879
 4134SOL     OW23860   0.935   0.474  12.706  0.6298  0.3023  0.4551
 4134SOL    HW123861   0.941   0.404  12.771  0.2371  0.3620  0.5545
 4134SOL    HW223862   1.012   0.526  12.729  1.1948 -1.0729  1.6996
 4135SOL     OW23863   2.266   2.862   1.131  0.0823 -0.2202 -0.3426
 4135SOL    HW123864   2.297   2.939   1.083 -1.1017 -0.1513 -0.9884
 4135SOL    HW223865   2.318   2.795   1.085  0.0256 -0.5751  0.1078
 4136SOL     OW23866   2.704   1.340  11.560  0.0517 -0.3550  0.0732
 4136SOL    HW123867   2.614   1.339  11.592  0.1926 -3.4765  0.3320
 4136SOL    HW223868   2.684   1.378  11.474 -3.2019  2.4186  2.0469
 4137SOL     OW23869   0.129   4.633   7.918  0.5367 -0.5788  0.4195
 4137SOL    HW123870   0.216   4.626   7.956 -0.2304 -1.3006  2.0312
 4137SOL    HW223871   0.148   4.650   7.826 -0.5434 -2.1901 -0.1057
 4138SOL     OW23872   2.899   4.650   7.665  0.0626  0.0835 -0.0370
 4138SOL    HW123873   2.814   4.623   7.630  1.1981  1.5394 -3.8606
 4138SOL    HW223874   2.916   0.006   7.610  1.4846 -0.6532 -0.6061
 4139SOL     OW23875   0.419   0.033   6.632 -0.1154  0.3506 -0.0613
 4139SOL    HW123876   0.397   0.126   6.630 -2.2706 -0.1633 -0.2674
 4139SOL    HW223877   0.503   0.036   6.587  0.7608  2.5633  1.7454
 4140SOL     OW23878   3.404   4.505   4.134  0.0751  0.2652 -0.3361
 4140SOL    HW123879   3.475   4.567   4.149  1.5505 -1.5726  0.2533
 4140SOL    HW223880   3.347   4.544   4.200 -2.2445 -2.8266 -0.5412
 4141SOL     OW23881   3.019   3.446   7.380 -0.5533 -0.0743 -0.3952
 4141SOL    HW123882   3.035   3.360   7.420  0.1872  0.5440  0.6336
 4141SOL    HW223883   2.988   3.496   7.455 -0.0739  0.8670 -0.8346
 4142SOL     OW23884   2.793   2.719   1.632 -0.7118  0.8014 -0.1084
 4142SOL    HW123885   2.726   2.720   1.701  0.4369  1.1308  1.0030
 4142SOL    HW223886   2.733   2.695   1.561 -1.3429 -0.7192  0.9336
 4143SOL     OW23887   0.007   1.553   4.635  0.4298 -0.2792  0.0537
 4143SOL    HW123888   0.100   1.548   4.657 -0.2688 -3.0174  2.3911
 4143SOL    HW223889   4.692   1.525   4.720  1.3284 -3.3411 -0.5816
 4144SOL     OW23890   1.542   1.985   3.738  0.6684  0.6969  0.0597
 4144SOL    HW123891   1.625   1.980   3.691  1.8946  0.3152  2.2731
 4144SOL    HW223892   1.480   1.958   3.671 -0.8841  0.4382  1.6090
 4145SOL     OW23893   4.063   2.205   8.458 -0.3452 -0.5558  0.6315
 4145SOL    HW123894   3.987   2.147   8.449  1.3733 -2.5924 -0.7658
 4145SOL    HW223895   4.032   2.261   8.529  1.3943 -0.8882  1.6496
 4146SOL     OW23896   2.275   3.409   2.960 -0.1369  0.6807  0.1456
 4146SOL    HW123897   2.255   3.320   2.928  0.9018  0.9839 -1.3497
 4146SOL    HW223898   2.189   3.442   2.986  0.0963  0.4265  1.2329
 4147SOL     OW23899   2.102   4.597  12.509  0.1675  0.1304 -0.2874
 4147SOL    HW123900   2.130   4.650  12.584 -0.8822 -0.4446  0.5142
 4147SOL    HW223901   2.174   4.534  12.516 -0.2851 -0.0931  2.4745
 4148SOL     OW23902   4.086   2.274  11.359 -0.6359  0.2791  0.0157
 4148SOL    HW123903   4.049   2.286  11.271 -0.7267 -1.7718 -0.2400
 4148SOL    HW223904   4.163   2.220  11.340 -1.0208  0.4267 -2.0186
 4149SOL     OW23905   1.036   4.165  15.903 -0.0444  0.4109 -0.1992
 4149SOL    HW123906   0.968   4.208  15.852 -0.5044 -0.6461 -0.4723
 4149SOL    HW223907   1.110   4.207  15.859 -1.3113  1.1667 -1.5891
 4150SOL     OW23908   2.412   2.610  12.007 -0.6678  0.1009 -0.0758
 4150SOL    HW123909   2.466   2.555  11.949  0.8453 -0.0521  1.4759
 4150SOL    HW223910   2.341   2.615  11.943  1.5019 -1.5193 -2.6607
 4151SOL     OW23911   2.356   2.531  14.802 -0.1282  0.0712 -0.1085
 4151SOL    HW123912   2.289   2.556  14.739 -0.7987 -1.7432 -0.1234
 4151SOL    HW223913   2.428   2.564  14.748 -0.6940 -1.6611 -1.9194
 4152SOL     OW23914   2.725   4.460  10.087 -0.7203  0.8700  0.6537
 4152SOL    HW123915   2.648   4.516  10.084 -1.4671 -0.2148 -0.6034
 4152SOL    HW223916   2.701   4.405  10.163 -2.0822 -1.2958 -1.3271
 4153SOL     OW23917   2.972   0.983   0.417 -0.0935  0.5162  0.0576
 4153SOL    HW123918   2.974   1.072   0.381  1.5497  1.1429  1.6738
 4153SOL    HW223919   2.902   0.981   0.482  2.4347  3.4053  2.8695
 4154SOL     OW23920   2.305   4.188   9.205  0.3251  0.1507 -0.2820
 4154SOL    HW123921   2.218   4.222   9.189  0.3003 -0.3955 -1.2861
 4154SOL    HW223922   2.357   4.267   9.191  1.0282 -0.2155  0.2226
 4155SOL     OW23923   3.829   3.211  15.900  0.3670 -0.5375  0.3978
 4155SOL    HW123924   3.905   3.252  15.859  0.0858 -2.0927 -1.6769
 4155SOL    HW223925   3.865   3.138  15.950 -2.3659  0.2255  3.5069
 4156SOL     OW23926   4.046   2.475   6.791  0.1787  0.0411  0.4646
 4156SOL    HW123927   4.061   2.465   6.697  1.5766 -1.2725  0.8225
 4156SOL    HW223928   4.039   2.570   6.787 -1.2656 -0.0097  1.6921
 4157SOL     OW23929   1.914   1.152   9.919 -0.5951  0.0825 -0.3125
 4157SOL    HW123930   1.980   1.195   9.974  0.7495 -0.7114 -1.3083
 4157SOL    HW223931   1.913   1.058   9.934 -0.1116  0.2650  0.8531
 4158SOL     OW23932   0.839   1.855   2.743 -0.5573  0.2425  0.3213
 4158SOL    HW123933   0.815   1.775   2.696  1.0359  1.5284 -2.6673
 4158SOL    HW223934   0.934   1.853   2.739 -0.5800  1.4726 -0.8918
 4159SOL     OW23935   3.329   4.098  14.488 -0.0436  0.3880 -0.0485
 4159SOL    HW123936   3.234   4.089  14.501  0.2527 -1.6377  0.8346
 4159SOL    HW223937   3.347   4.176  14.437 -1.2477  1.5446  1.2859
 4160SOL     OW23938   2.083   1.145   6.795  0.4229 -0.0008 -0.0171
 4160SOL    HW123939   2.179   1.151   6.796  0.2862  2.0579 -1.4595
 4160SOL    HW223940   2.064   1.168   6.704  3.0316 -1.5185 -0.9564
 4161SOL     OW23941   3.844   3.456  17.440 -0.2979 -0.3230  0.3740
 4161SOL    HW123942   3.894   3.380  17.411 -0.7463  0.7160 -3.1201
 4161SOL    HW223943   3.863   3.443  17.533  5.3337  1.9009 -0.4978
 4162SOL     OW23944   3.205   3.164   4.959  0.4018 -0.4781  0.7039
 4162SOL    HW123945   3.288   3.206   4.936  0.5992  0.5132  3.2571
 4162SOL    HW223946   3.177   3.122   4.877  0.2781 -0.2087  0.6054
 4163SOL     OW23947   1.152   1.013   8.188 -0.0962  0.1585 -0.3444
 4163SOL    HW123948   1.225   1.031   8.248 -1.0740  3.4390 -0.1528
 4163SOL    HW223949   1.116   0.934   8.229 -1.6426  0.3045 -1.4133
 4164SOL     OW23950   1.987   2.132   2.168 -0.0849 -0.2810 -0.2418
 4164SOL    HW123951   1.918   2.078   2.130 -0.5699  0.0778  0.1218
 4164SOL    HW223952   2.055   2.065   2.160  1.5948  1.6220 -1.9974
 4165SOL     OW23953   2.382   0.311   3.842 -0.3882  0.0058  0.3319
 4165SOL    HW123954   2.476   0.315   3.823  0.1128 -1.3342  2.5509
 4165SOL    HW223955   2.377   0.267   3.927 -1.1666  0.3129  0.4439
 4166SOL     OW23956   2.178   3.988  11.108 -0.1482 -0.0499 -0.4360
 4166SOL    HW123957   2.097   4.030  11.135  1.1639  2.5503 -0.5441
 4166SOL    HW223958   2.203   3.947  11.191 -0.9036  1.0781  0.3501
 4167SOL     OW23959   4.550   0.629   7.858  0.1755  0.6621 -0.1804
 4167SOL    HW123960   4.525   0.719   7.837 -3.2063 -0.6336 -1.7681
 4167SOL    HW223961   4.480   0.597   7.915 -1.0797 -0.0901 -2.1282
 4168SOL     OW23962   3.519   3.143   8.810  0.3549 -0.0652 -0.0970
 4168SOL    HW123963   3.427   3.154   8.788  0.3398 -1.1317 -0.5615
 4168SOL    HW223964   3.516   3.069   8.871 -2.3726 -0.1174 -0.2811
 4169SOL     OW23965   2.091   4.117   5.565 -0.4544  0.2134 -0.2736
 4169SOL    HW123966   2.133   4.031   5.568 -0.5163  0.0727 -3.1456
 4169SOL    HW223967   2.000   4.086   5.569  0.3868 -2.4272 -1.5166
 4170SOL     OW23968   3.218   2.870  12.225 -0.2305  0.0073  0.6475
 4170SOL    HW123969   3.286   2.811  12.193  0.2567 -0.0581  1.7994
 4170SOL    HW223970   3.206   2.837  12.313  3.5194 -2.6968  0.1466
 4171SOL     OW23971   0.853   4.584   8.421 -0.1747  0.5556 -0.1808
 4171SOL    HW123972   0.885   4.663   8.378  0.5710  1.1402  1.4314
 4171SOL    HW223973   0.838   4.614   8.511  1.3919  1.1957 -0.1179
 4172SOL     OW23974   3.542   2.948   2.359  0.3559 -0.3622  0.2369
 4172SOL    HW123975   3.577   3.024   2.406  0.5827 -0.3498  0.0469
 4172SOL    HW223976   3.532   2.889   2.434  0.2218 -0.4379  0.1580
 4173SOL     OW23977   2.584   3.758  14.948  0.4403  0.0732 -0.6600
 4173SOL    HW123978   2.521   3.729  14.882  2.1620 -1.5818 -1.5660
 4173SOL    HW223979   2.639   3.679  14.945 -2.4588 -1.9597  0.2579
 4174SOL     OW23980   4.176   3.905   8.120 -0.5925  0.2636  0.5391
 4174SOL    HW123981   4.239   3.852   8.168 -1.6133 -1.9480 -0.5676
 4174SOL    HW223982   4.195   3.994   8.150  1.7571  0.1882 -0.7383
 4175SOL     OW23983   2.294   2.017  16.406  0.0888  0.0134 -0.0125
 4175SOL    HW123984   2.354   1.945  16.426 -0.4546  0.2190  2.4041
 4175SOL    HW223985   2.291   2.060  16.492 -2.2460 -0.1477 -0.0062
 4176SOL     OW23986   1.932   2.927  10.965 -0.2104 -0.3562  0.0607
 4176SOL    HW123987   1.988   3.004  10.964 -1.2823  0.3797 -2.3303
 4176SOL    HW223988   1.976   2.868  11.026 -0.2841 -0.7882 -0.3044
 4177SOL     OW23989   4.644   2.619   9.541  0.0634 -0.5392 -0.5979
 4177SOL    HW123990   0.005   2.588   9.501 -0.0705  0.4300 -1.6074
 4177SOL    HW223991   4.643   2.702   9.495 -0.0016 -0.3136 -0.1890
 4178SOL     OW23992   2.475   0.426   1.986  0.3813 -0.3685  0.1544
 4178SOL    HW123993   2.416   0.489   1.945  0.9877  0.9141  1.2321
 4178SOL    HW223994   2.448   0.345   1.943  1.0466 -0.1976 -0.5893
 4179SOL     OW23995   4.478   3.131   8.801  0.6204 -0.0717  0.3265
 4179SOL    HW123996   4.563   3.095   8.827  0.8549 -0.8944 -1.6482
 4179SOL    HW223997   4.494   3.225   8.815  1.7606 -0.5764  2.4543
 4180SOL     OW23998   0.063   2.004   7.043 -0.0866  0.0115 -0.7468
 4180SOL    HW123999   0.068   1.908   7.043  1.2089  0.1005  2.0903
 4180SOL    HW224000   4.710   2.020   6.983 -0.5792 -0.1901 -0.2009
 4181SOL     OW24001   1.521   4.358   2.873  0.0152 -0.1472 -0.1665
 4181SOL    HW124002   1.514   4.308   2.954  0.9690 -0.1417 -0.0873
 4181SOL    HW224003   1.461   4.431   2.891  2.2183  1.4496  0.6629
 4182SOL     OW24004   3.365   4.399   8.116 -0.2150 -0.7084 -0.3582
 4182SOL    HW124005   3.440   4.343   8.138  0.2356  0.2973  0.6714
 4182SOL    HW224006   3.410   4.474   8.076 -1.1932 -0.8738 -1.7748
 4183SOL     OW24007   1.724   0.556   7.223 -0.3745  0.1592  0.1855
 4183SOL    HW124008   1.710   0.515   7.308  1.3917 -1.4187 -0.2782
 4183SOL    HW224009   1.693   0.646   7.232  0.9569  0.5867  0.5768
 4184SOL     OW24010   2.746   2.394  11.559  0.1424 -0.1395  0.3517
 4184SOL    HW124011   2.800   2.321  11.587  1.6276  0.8529  0.1009
 4184SOL    HW224012   2.803   2.469  11.578  0.0646 -0.0988  0.4213
 4185SOL     OW24013   3.673   3.889   6.063  0.0214 -0.2470  0.4790
 4185SOL    HW124014   3.610   3.850   6.002  0.2136 -0.4021  0.3796
 4185SOL    HW224015   3.630   3.962   6.109 -0.9484 -1.3033  1.2763
 4186SOL     OW24016   2.930   4.226   4.054 -0.3349 -0.1623  0.2101
 4186SOL    HW124017   2.907   4.154   3.995  1.1307 -0.7687  0.4018
 4186SOL    HW224018   3.021   4.244   4.031  0.0979 -2.0178  0.4718
 4187SOL     OW24019   1.326   0.200   2.401 -0.8541  0.7822 -0.3124
 4187SOL    HW124020   1.404   0.244   2.434  1.4547 -0.6491 -3.7156
 4187SOL    HW224021   1.256   0.232   2.458 -1.6107  0.5135 -1.0874
 4188SOL     OW24022   1.021   4.093   4.181 -0.0720  0.5003 -0.0951
 4188SOL    HW124023   0.973   4.011   4.191  3.7409 -1.8292 -0.9261
 4188SOL    HW224024   0.966   4.150   4.235  1.0146  0.0419  1.4756
 4189SOL     OW24025   4.359   2.076   6.002 -0.6391  0.6796 -0.5205
 4189SOL    HW124026   4.360   2.088   6.097 -0.9222 -0.4400 -0.3832
 4189SOL    HW224027   4.336   1.983   5.995 -1.5326  0.6714  2.5068
 4190SOL     OW24028   1.048   2.692   2.051  0.0790  0.3502  0.0239
 4190SOL    HW124029   1.049   2.776   2.006  0.3268  0.9830  1.2005
 4190SOL    HW224030   1.075   2.722   2.138 -1.2385  1.4549  0.0526
 4191SOL     OW24031   3.998   2.589   6.169 -0.9207  0.3128 -0.3679
 4191SOL    HW124032   4.047   2.508   6.155 -1.3561  0.1578 -1.0105
 4191SOL    HW224033   4.054   2.651   6.121  2.3658 -1.2638  1.4738
 4192SOL     OW24034   0.909   2.342  14.348 -0.7914  0.2222 -0.1734
 4192SOL    HW124035   0.903   2.438  14.348  3.8717  0.5140 -0.8753
 4192SOL    HW224036   0.963   2.327  14.271  0.6458  1.2006  0.6361
 4193SOL     OW24037   4.152   0.024   6.709 -0.0053 -0.6138  0.3209
 4193SOL    HW124038   4.122   4.688   6.781  1.6558 -0.5554  1.0600
 4193SOL    HW224039   4.071   0.033   6.659 -1.2115 -3.3312  1.8096
 4194SOL     OW24040   0.971   2.747   9.423 -0.3793  0.0767  0.3336
 4194SOL    HW124041   1.064   2.754   9.446  0.4059 -2.6998 -2.0286
 4194SOL    HW224042   0.937   2.803   9.493  0.0350 -1.3353  1.6593
 4195SOL     OW24043   3.428   0.798   2.359 -0.4699 -0.2885  0.5225
 4195SOL    HW124044   3.421   0.707   2.332 -0.3801 -0.5206  1.2880
 4195SOL    HW224045   3.508   0.800   2.412 -0.1234 -0.6305  0.0098
 4196SOL     OW24046   1.906   1.737  16.176 -0.4229 -0.5457  0.3366
 4196SOL    HW124047   1.948   1.777  16.252 -0.3362  1.2045 -0.6440
 4196SOL    HW224048   1.887   1.816  16.126 -2.2073 -1.3631 -0.2809
 4197SOL     OW24049   4.638   3.825  11.645  0.5847  0.4969 -0.1992
 4197SOL    HW124050   4.696   3.807  11.571  0.3073 -2.4595  0.3394
 4197SOL    HW224051   4.689   3.900  11.678 -0.0480 -0.1194  2.1407
 4198SOL     OW24052   0.732   3.601   1.174  0.2177  0.0781  0.1315
 4198SOL    HW124053   0.700   3.532   1.232  0.6826  0.0814  0.3958
 4198SOL    HW224054   0.749   3.540   1.102 -0.4927 -0.3872  0.3601
 4199SOL     OW24055   2.857   1.769   9.324  0.6027 -0.0055  0.2024
 4199SOL    HW124056   2.787   1.755   9.388 -0.9955 -2.2002 -1.9996
 4199SOL    HW224057   2.858   1.864   9.310  0.9735 -0.1977 -1.0654
 4200SOL     OW24058   2.426   2.174   8.397 -0.0141 -0.5806  0.3801
 4200SOL    HW124059   2.447   2.199   8.307  0.3436 -1.8112  0.1232
 4200SOL    HW224060   2.502   2.204   8.447  2.1974  0.5701 -3.7344
 4201SOL     OW24061   4.277   2.271   0.763 -0.4338  0.1224 -0.2798
 4201SOL    HW124062   4.351   2.330   0.745 -0.5692 -0.2728 -2.1739
 4201SOL    HW224063   4.316   2.212   0.828  0.0998  1.1673  0.3529
 4202SOL     OW24064   2.349   2.893   6.657  0.2117 -0.5239 -0.0026
 4202SOL    HW124065   2.401   2.945   6.718 -0.3103 -1.4077  1.1948
 4202SOL    HW224066   2.378   2.808   6.690 -0.9994 -0.1522  2.0007
 4203SOL     OW24067   0.479   0.701  13.795  0.4865  0.1173 -0.0521
 4203SOL    HW124068   0.507   0.635  13.732 -2.4712  0.0306 -1.2851
 4203SOL    HW224069   0.421   0.643  13.845  0.4506 -1.7626 -2.2999
 4204SOL     OW24070   1.200   0.009  15.116  0.5501  0.7368  0.0410
 4204SOL    HW124071   1.222   4.639  15.140  0.3444 -0.2843 -3.5735
 4204SOL    HW224072   1.159   0.002  15.030 -0.7619  1.0150  0.6470
 4205SOL     OW24073   2.690   0.526   2.131  0.1781 -0.0433  0.1973
 4205SOL    HW124074   2.615   0.506   2.075 -1.0932  1.4762  1.3573
 4205SOL    HW224075   2.763   0.520   2.069  0.2757  1.3941  0.1637
 4206SOL     OW24076   4.394   4.420   3.078 -0.1628 -0.1992 -0.4002
 4206SOL    HW124077   4.422   4.511   3.068  0.2225 -0.2586  0.1541
 4206SOL    HW224078   4.369   4.406   2.986  1.1166  0.2088 -0.8181
 4207SOL     OW24079   0.231   1.426  11.694  0.2202  0.0644  0.3739
 4207SOL    HW124080   0.296   1.493  11.674  0.1481 -0.2602 -0.9320
 4207SOL    HW224081   0.281   1.390  11.768  0.7903 -0.1160 -0.0999
 4208SOL     OW24082   1.329   4.455   3.562 -0.5193 -0.1468 -0.0559
 4208SOL    HW124083   1.270   4.379   3.561 -0.9520  0.1882  0.3759
 4208SOL    HW224084   1.321   4.471   3.656 -1.2922 -1.8614  0.1852
 4209SOL     OW24085   4.695   2.526   6.733  0.1839 -0.0710 -0.6202
 4209SOL    HW124086   0.026   2.527   6.652  0.4322  1.1392 -0.4456
 4209SOL    HW224087   4.712   2.439   6.769 -0.5000  0.7416  1.6608
 4210SOL     OW24088   3.193   4.558   5.069 -0.3821 -0.1722 -0.3099
 4210SOL    HW124089   3.264   4.597   5.017  0.0304 -0.0722  0.3207
 4210SOL    HW224090   3.219   4.579   5.159  0.3639 -0.0438 -0.5524
 4211SOL     OW24091   4.515   4.672   3.066 -0.2426  0.1309  1.0241
 4211SOL    HW124092   4.591   4.668   3.008  0.0599  2.6964  1.2105
 4211SOL    HW224093   4.557   4.694   3.150  0.3653 -0.6405  0.9184
 4212SOL     OW24094   0.379   0.667   8.706  0.4118  0.2847 -0.0827
 4212SOL    HW124095   0.321   0.689   8.779  1.0150  0.2426  0.4106
 4212SOL    HW224096   0.308   0.650   8.644 -0.3929 -0.8322  1.1614
 4213SOL     OW24097   3.637   0.178  11.879  0.1100  0.1312 -0.6270
 4213SOL    HW124098   3.658   0.098  11.926  0.2980 -0.2957 -1.4505
 4213SOL    HW224099   3.723   0.214  11.858  0.0536 -0.8493 -2.5554
 4214SOL     OW24100   4.278   1.546   7.928  0.3288  0.3645  0.3388
 4214SOL    HW124101   4.211   1.509   7.986 -0.4878  1.6338  0.2064
 4214SOL    HW224102   4.255   1.639   7.924  1.3704  0.6366  0.6764
 4215SOL     OW24103   4.290   3.945  15.600 -0.3276  0.4109 -0.0039
 4215SOL    HW124104   4.332   3.934  15.685  1.3169  1.1464 -0.7119
 4215SOL    HW224105   4.289   3.856  15.565  1.9650 -0.8351  3.1164
 4216SOL     OW24106   3.324   4.595  15.497  0.3834 -0.2624  0.9133
 4216SOL    HW124107   3.310   4.504  15.474  2.8466 -0.2088 -0.7327
 4216SOL    HW224108   3.305   4.644  15.417  0.8752 -0.8993  0.4028
 4217SOL     OW24109   0.550   1.172   4.551  0.3861 -0.1018 -0.1511
 4217SOL    HW124110   0.561   1.089   4.597  1.2167  0.7072  1.0913
 4217SOL    HW224111   0.636   1.184   4.509  0.4438  0.0492  0.0119
 4218SOL     OW24112   3.653   2.054   9.206  0.1254  0.4372 -0.7645
 4218SOL    HW124113   3.684   1.964   9.196  0.7441  0.3146  2.2755
 4218SOL    HW224114   3.664   2.066   9.300 -0.1386 -0.5489 -0.6014
 4219SOL     OW24115   2.694   3.744   4.401 -0.1158 -0.3098  0.0915
 4219SOL    HW124116   2.775   3.725   4.448  0.4617  1.0583 -0.3557
 4219SOL    HW224117   2.720   3.783   4.317  0.6461  0.4549  0.6797
 4220SOL     OW24118   1.964   4.124  11.176 -0.0106 -0.1078  0.3111
 4220SOL    HW124119   1.933   4.172  11.253  0.7229  1.8720 -0.6359
 4220SOL    HW224120   1.877   4.101  11.142 -0.8214  1.6713  1.1666
 4221SOL     OW24121   4.504   3.874   6.947  0.7255  0.0597 -0.4814
 4221SOL    HW124122   4.413   3.903   6.940  0.7500  0.5236  1.0555
 4221SOL    HW224123   4.550   3.927   6.883  2.2878 -0.4115  0.2358
 4222SOL     OW24124   1.719   0.048  16.568 -0.0425 -0.3923  0.2607
 4222SOL    HW124125   1.670   0.120  16.608  0.3413 -0.8733  1.5730
 4222SOL    HW224126   1.778   0.094  16.508 -0.1072  0.3787  0.7874
 4223SOL     OW24127   2.642   0.401   2.520  0.4517 -0.0232  0.0771
 4223SOL    HW124128   2.620   0.478   2.572 -2.2754 -1.3708  0.8933
 4223SOL    HW224129   2.725   0.376   2.560  0.4425  0.9553  0.6927
 4224SOL     OW24130   4.696   1.596   9.908 -0.5055  0.0110  0.2956
 4224SOL    HW124131   4.620   1.584   9.850 -0.5176 -1.1851  0.5659
 4224SOL    HW224132   0.013   1.678   9.877  0.0096 -0.2189  0.3150
 4225SOL     OW24133   1.483   1.306   9.078  0.2839 -0.4619  0.3443
 4225SOL    HW124134   1.477   1.250   9.001 -0.5274  1.7164 -1.1523
 4225SOL    HW224135   1.484   1.234   9.142  0.1675  0.3392  1.2448
 4226SOL     OW24136   0.045   4.364   9.025 -0.2948  0.5140 -0.8963
 4226SOL    HW124137   0.058   4.451   9.062  0.2079 -0.3284  0.8658
 4226SOL    HW224138   0.079   4.380   8.937  0.7761  1.4741 -0.3039
 4227SOL     OW24139   2.271   4.672   2.121 -0.5210  0.2744 -0.1815
 4227SOL    HW124140   2.259   4.588   2.165 -1.4534 -0.7676 -2.4407
 4227SOL    HW224141   2.335   4.712   2.180 -0.8094 -0.2082  0.4629
 4228SOL     OW24142   4.563   4.413  15.810  0.3398 -0.3540 -0.1946
 4228SOL    HW124143   4.491   4.355  15.833  0.1705 -1.0022 -2.3846
 4228SOL    HW224144   4.613   4.354  15.753  1.4680  0.1406  0.2841
 4229SOL     OW24145   1.834   1.148   2.389 -0.1505  0.0624  0.3268
 4229SOL    HW124146   1.897   1.213   2.359  0.1317  0.1822  1.1609
 4229SOL    HW224147   1.823   1.100   2.307 -2.3770 -0.1779  0.7759
 4230SOL     OW24148   1.988   3.172   3.425  0.5774 -0.3727 -0.0663
 4230SOL    HW124149   1.984   3.199   3.516  1.0054  0.2404 -0.2261
 4230SOL    HW224150   2.075   3.208   3.407 -0.1843  0.3452 -2.4576
 4231SOL     OW24151   3.937   3.158   5.162  0.1327 -0.4082 -0.0388
 4231SOL    HW124152   3.868   3.103   5.198 -1.1248  1.2159  0.0794
 4231SOL    HW224153   3.903   3.240   5.199  2.4360  0.7969 -0.5924
 4232SOL     OW24154   3.309   2.897   7.581  0.3842 -0.8635 -0.0175
 4232SOL    HW124155   3.264   2.942   7.509  3.3561 -1.0293 -2.0061
 4232SOL    HW224156   3.245   2.892   7.651  0.8428 -0.5014  0.4310
 4233SOL     OW24157   0.842   0.747   6.308 -0.5396  0.0766  0.0406
 4233SOL    HW124158   0.820   0.741   6.215 -3.1455  0.7684  0.6257
 4233SOL    HW224159   0.750   0.741   6.333 -0.0655 -1.8837  1.3486
 4234SOL     OW24160   1.936   1.890   2.004 -0.0538  0.8936 -0.2077
 4234SOL    HW124161   1.863   1.867   2.062  1.0229 -3.0746 -0.4376
 4234SOL    HW224162   1.901   1.890   1.915 -2.9659 -0.3840  0.9142
 4235SOL     OW24163   1.766   2.043   9.127 -0.0701  0.8165 -0.3969
 4235SOL    HW124164   1.760   1.980   9.199  1.3323  1.6597  0.4658
 4235SOL    HW224165   1.748   2.118   9.185 -0.1744 -1.1569  2.1136
 4236SOL     OW24166   4.393   1.994  16.701  0.5452 -0.1862  0.0149
 4236SOL    HW124167   4.364   2.049  16.774 -1.3651  0.3548 -1.1411
 4236SOL    HW224168   4.340   1.916  16.716 -0.1720  0.5592  1.2899
 4237SOL     OW24169   0.237   0.307  11.310  0.5149  1.0762  0.5261
 4237SOL    HW124170   0.315   0.266  11.349  0.6951  1.4673  0.5805
 4237SOL    HW224171   0.278   0.384  11.269 -1.4805  1.2394 -1.1281
 4238SOL     OW24172   0.940   3.180  10.817  0.2443  0.0891  0.2799
 4238SOL    HW124173   1.016   3.133  10.852 -0.1918 -1.4017 -0.7762
 4238SOL    HW224174   0.873   3.112  10.806  0.4132  0.0739 -0.5920
 4239SOL     OW24175   4.623   3.561  16.634  0.0492  0.0725 -0.2470
 4239SOL    HW124176   4.716   3.539  16.628 -0.1502 -1.4441  2.1581
 4239SOL    HW224177   4.626   3.639  16.579  0.6047  0.9266  1.0264
 4240SOL     OW24178   1.129   4.243  14.856  0.1885  0.2368  0.0608
 4240SOL    HW124179   1.174   4.226  14.939  0.1119  0.5702  0.1697
 4240SOL    HW224180   1.121   4.337  14.868  0.4966  0.5702 -2.2748
 4241SOL     OW24181   0.842   2.548   0.818  0.0915  0.4944  0.3444
 4241SOL    HW124182   0.926   2.561   0.861  0.1355  2.7884 -0.4689
 4241SOL    HW224183   0.809   2.475   0.871  3.3155 -0.0068  1.6637
 4242SOL     OW24184   0.375   0.642   0.950 -0.0095  0.3918  0.3085
 4242SOL    HW124185   0.380   0.548   0.935 -2.5916  0.7109 -2.4490
 4242SOL    HW224186   0.399   0.655   1.042 -2.8293 -2.7540  1.4878
 4243SOL     OW24187   1.764   0.515   7.958  0.1194 -0.2526  0.5431
 4243SOL    HW124188   1.853   0.506   7.924 -0.3406  0.1317 -0.7751
 4243SOL    HW224189   1.764   0.598   8.006  1.1462  0.9315 -1.4982
 4244SOL     OW24190   2.489   1.920   2.219 -0.3088 -0.7123  0.1253
 4244SOL    HW124191   2.497   1.825   2.210 -0.4271 -0.7968  0.8575
 4244SOL    HW224192   2.568   1.947   2.172  0.9090  0.5829  2.9048
 4245SOL     OW24193   1.703   0.970  13.912  0.7729 -0.1897  0.3535
 4245SOL    HW124194   1.782   0.977  13.859 -1.5436  1.6390 -2.9163
 4245SOL    HW224195   1.685   0.880  13.885  2.0630 -0.0546 -0.9437
 4246SOL     OW24196   3.527   3.800  16.999 -0.8687  0.3626 -0.0521
 4246SOL    HW124197   3.533   3.844  17.084 -0.5145 -0.2490  0.2399
 4246SOL    HW224198   3.432   3.786  16.996 -0.6236 -1.7408  1.3393
 4247SOL     OW24199   0.719   2.487   6.234  0.0490  0.3837  0.1102
 4247SOL    HW124200   0.762   2.566   6.200  1.8133 -0.6637 -0.0814
 4247SOL    HW224201   0.802   2.439   6.235 -0.4924 -0.5386  0.5689
 4248SOL     OW24202   0.505   2.641  14.189  0.5289 -0.1382  0.6792
 4248SOL    HW124203   0.494   2.734  14.211  0.5949  0.3634 -1.4202
 4248SOL    HW224204   0.595   2.640  14.157  0.5128 -0.3625  0.6417
 4249SOL     OW24205   2.478   4.227  12.626  0.9138 -0.6970  0.0263
 4249SOL    HW124206   2.541   4.162  12.597  0.8165 -0.2777 -1.1496
 4249SOL    HW224207   2.504   4.249  12.715  0.4811 -1.3515  0.3087
 4250SOL     OW24208   0.067   2.960  17.078  0.1395  0.2104  0.3002
 4250SOL    HW124209   0.112   2.985  16.997 -1.1802 -0.4006 -0.6238
 4250SOL    HW224210   0.056   3.046  17.119  0.0305 -0.1394  0.9868
 4251SOL     OW24211   4.520   1.407   9.730  0.7638 -0.4144 -0.4492
 4251SOL    HW124212   4.471   1.325   9.741 -1.5214  1.1639  0.9530
 4251SOL    HW224213   4.583   1.390   9.660 -2.0146  0.5434 -3.1831
 4252SOL     OW24214   0.838   3.139   3.373  0.6989  0.5901  0.0937
 4252SOL    HW124215   0.829   3.044   3.386 -0.4842  1.2118  3.7763
 4252SOL    HW224216   0.756   3.188   3.367  0.7287  0.5292 -0.8114
 4253SOL     OW24217   3.726   1.081   8.131 -0.2961  0.3306 -0.2424
 4253SOL    HW124218   3.711   0.990   8.155  2.8302  0.3027  1.6991
 4253SOL    HW224219   3.644   1.127   8.148  0.8368  2.6554 -0.9570
 4254SOL     OW24220   1.552   1.147   6.232 -0.2028  0.1714  0.2479
 4254SOL    HW124221   1.598   1.228   6.210  1.2620 -0.2366  1.7819
 4254SOL    HW224222   1.572   1.093   6.155 -1.4376  0.3127 -0.1795
 4255SOL     OW24223   1.402   2.905   5.994 -0.0707 -0.0002  0.3638
 4255SOL    HW124224   1.458   2.898   5.916 -1.3610 -1.2500 -0.4594
 4255SOL    HW224225   1.403   3.000   6.009  0.8117  0.2812 -1.4653
 4256SOL     OW24226   0.134   0.341   6.271  0.1588 -0.2475  0.5284
 4256SOL    HW124227   0.166   0.293   6.194 -1.5621  2.5867 -1.9464
 4256SOL    HW224228   0.141   0.273   6.338  2.1542 -1.8190 -1.2691
 4257SOL     OW24229   1.741   4.068  11.593 -0.1668 -0.7066  0.7718
 4257SOL    HW124230   1.659   4.040  11.552 -0.3327  0.8806 -0.0028
 4257SOL    HW224231   1.711   4.139  11.650 -2.5709 -0.9563 -0.1700
 4258SOL     OW24232   3.271   1.860   4.869  0.5700 -0.6525  0.1941
 4258SOL    HW124233   3.359   1.823   4.867  1.1370  0.7597 -0.7285
 4258SOL    HW224234   3.231   1.813   4.942  0.7262 -0.0348  0.6796
 4259SOL     OW24235   4.431   2.958  10.076 -0.3590 -0.4564  0.5340
 4259SOL    HW124236   4.515   3.001  10.059 -1.0205  0.9789  0.8873
 4259SOL    HW224237   4.441   2.888  10.013 -0.0960  0.2190 -0.1741
 4260SOL     OW24238   0.577   2.513   7.898 -0.4115 -0.1713 -0.9727
 4260SOL    HW124239   0.577   2.599   7.942 -3.5341 -1.3296  1.3276
 4260SOL    HW224240   0.573   2.458   7.977 -0.7405 -0.5588 -1.2601
 4261SOL     OW24241   3.976   1.259   2.286  0.2884 -0.5037  0.3793
 4261SOL    HW124242   3.906   1.201   2.254  1.1849 -1.4921  0.2245
 4261SOL    HW224243   3.961   1.267   2.380  0.3810 -0.0462  0.3531
 4262SOL     OW24244   0.929   3.202   4.611 -0.1059  0.4579 -0.6343
 4262SOL    HW124245   1.001   3.152   4.573 -1.2884 -1.7721  0.0757
 4262SOL    HW224246   0.874   3.232   4.539 -1.5244  1.3569  0.7982
 4263SOL     OW24247   4.705   1.141   6.251 -0.4342 -0.1503 -0.7406
 4263SOL    HW124248   0.005   1.099   6.167  0.1635 -0.4584 -0.4442
 4263SOL    HW224249   4.624   1.100   6.279  0.0931 -0.1068  0.8493
 4264SOL     OW24250   1.676   0.513   3.964 -0.6072 -0.0416  0.0973
 4264SOL    HW124251   1.596   0.507   3.912 -1.5640  0.6782  1.5148
 4264SOL    HW224252   1.716   0.432   3.931  1.1504  1.0727 -0.5128
 4265SOL     OW24253   4.458   0.446   1.610 -0.0249  0.0810 -0.0719
 4265SOL    HW124254   4.505   0.397   1.677 -0.4319  0.5126  0.5252
 4265SOL    HW224255   4.420   0.518   1.661 -1.2551  2.1487 -3.8121
 4266SOL     OW24256   2.091   4.464   6.695  0.4988  0.4751 -0.6586
 4266SOL    HW124257   2.178   4.445   6.729  0.0645 -0.6557 -0.1864
 4266SOL    HW224258   2.098   4.552   6.658  1.4655  1.5525  2.0380
 4267SOL     OW24259   0.459   0.452   2.855 -0.1584 -0.1397  0.0820
 4267SOL    HW124260   0.376   0.471   2.898 -0.9687 -0.9311 -1.1548
 4267SOL    HW224261   0.464   0.513   2.781  0.7438 -0.9845 -0.5552
 4268SOL     OW24262   4.039   1.133  13.649 -0.2513  0.0085  0.4040
 4268SOL    HW124263   4.028   1.201  13.582  0.5367 -0.5553 -0.2931
 4268SOL    HW224264   4.003   1.057  13.604  2.3707 -1.5759  0.9738
 4269SOL     OW24265   2.589   0.772   7.934 -0.0296  0.4790  0.2497
 4269SOL    HW124266   2.559   0.683   7.915  0.1647  0.7162 -1.1786
 4269SOL    HW224267   2.641   0.791   7.856  0.5299 -0.4942  0.3895
 4270SOL     OW24268   4.252   2.781  15.315 -0.2571  1.2393  0.4008
 4270SOL    HW124269   4.259   2.687  15.305 -0.8341  1.4230 -1.7005
 4270SOL    HW224270   4.326   2.817  15.266  0.5909 -1.3077 -0.1360
 4271SOL     OW24271   4.499   2.988   3.499  0.5079  0.8777 -0.0290
 4271SOL    HW124272   4.507   2.994   3.403  0.0112  0.0605 -0.1191
 4271SOL    HW224273   4.559   2.914   3.510 -1.1323 -0.3716  0.4968
 4272SOL     OW24274   1.499   4.269   5.395 -0.0158 -0.7618  0.5334
 4272SOL    HW124275   1.419   4.316   5.418  0.0368 -1.0099  1.2285
 4272SOL    HW224276   1.526   4.323   5.320  1.8396 -1.1473  0.9262
 4273SOL     OW24277   1.163   2.619  11.947  0.7562 -0.8069  0.0289
 4273SOL    HW124278   1.172   2.625  11.852  0.8556 -0.3790  0.0618
 4273SOL    HW224279   1.145   2.713  11.959 -0.1778 -0.6405 -2.8101
 4274SOL     OW24280   2.109   1.084   2.288  0.0550  0.4354 -0.1156
 4274SOL    HW124281   2.114   1.163   2.233 -2.0390  0.4567 -0.2697
 4274SOL    HW224282   2.024   1.049   2.261 -0.0680  1.6535 -1.3017
 4275SOL     OW24283   0.917   2.545   9.230  0.2110 -0.1738  0.1342
 4275SOL    HW124284   0.935   2.636   9.207  0.5461 -0.8008 -2.0881
 4275SOL    HW224285   0.881   2.569   9.315  1.8673  1.5156  0.3554
 4276SOL     OW24286   0.825   0.545  11.246  0.0265 -0.3444 -0.1634
 4276SOL    HW124287   0.889   0.615  11.259  1.2569 -1.0770 -2.1879
 4276SOL    HW224288   0.853   0.486  11.315 -0.9765 -0.4544  0.1428
 4277SOL     OW24289   0.431   0.403   1.913  0.5904  0.1603  0.3998
 4277SOL    HW124290   0.438   0.310   1.892 -1.1579 -0.2321  1.6447
 4277SOL    HW224291   0.513   0.446   1.887 -0.4726  0.7466 -2.0247
 4278SOL     OW24292   1.874   0.962  10.717 -0.1256 -0.0640 -0.3581
 4278SOL    HW124293   1.950   0.905  10.732  0.3613  0.8784  0.7665
 4278SOL    HW224294   1.812   0.915  10.773  0.6809  0.1390  0.7083
 4279SOL     OW24295   3.979   2.444   8.611  0.8702  0.5873  0.2163
 4279SOL    HW124296   3.949   2.446   8.520 -1.5225  1.9736  1.0476
 4279SOL    HW224297   3.900   2.469   8.658  0.9327 -1.9310  1.6904
 4280SOL     OW24298   0.428   3.379   7.448 -0.0905 -0.1500  0.2692
 4280SOL    HW124299   0.390   3.296   7.420 -1.1120  0.6737 -0.7916
 4280SOL    HW224300   0.381   3.404   7.527 -1.1569 -1.6848  0.1257
 4281SOL     OW24301   4.638   2.561   2.727 -0.3913  0.3685  1.0707
 4281SOL    HW124302   4.568   2.621   2.752  0.9025  1.9568  0.8995
 4281SOL    HW224303   4.620   2.545   2.634 -0.9146 -0.7882  1.3662
 4282SOL     OW24304   4.683   3.638  17.262  0.0335 -0.0946  0.1521
 4282SOL    HW124305   0.047   3.626  17.217  0.1693 -0.3147  0.4688
 4282SOL    HW224306   4.631   3.645  17.182  1.1891  1.2161 -0.4741
 4283SOL     OW24307   3.479   3.979  15.593 -0.0395 -1.5568 -0.0052
 4283SOL    HW124308   3.515   4.012  15.676  2.0132  0.2846 -1.6022
 4283SOL    HW224309   3.436   4.051  15.547  1.8390 -1.2009 -1.2236
 4284SOL     OW24310   2.491   2.057  17.051  0.3243 -0.1555 -0.1509
 4284SOL    HW124311   2.425   2.008  17.002 -0.2444 -0.0286  0.4941
 4284SOL    HW224312   2.550   1.984  17.068  1.8225  1.2884  0.7930
 4285SOL     OW24313   2.460   1.922   8.206  0.0824  0.2760  0.3125
 4285SOL    HW124314   2.373   1.888   8.227 -0.0031 -1.0901 -2.2507
 4285SOL    HW224315   2.440   2.014   8.222 -1.8975  0.3012 -2.2184
 4286SOL     OW24316   1.528   2.583   2.504 -0.2600 -0.1777  0.3936
 4286SOL    HW124317   1.575   2.575   2.421 -0.0084 -1.3746  0.6580
 4286SOL    HW224318   1.562   2.662   2.545  0.9006 -1.1406  1.2642
 4287SOL     OW24319   2.202   2.502  16.294 -0.4563  0.4615 -0.8398
 4287SOL    HW124320   2.195   2.408  16.274  2.3665 -0.0601  0.5665
 4287SOL    HW224321   2.235   2.496  16.384 -1.7195 -2.8177 -0.5801
 4288SOL     OW24322   2.342   2.972   6.417 -0.2217 -0.1523 -0.1594
 4288SOL    HW124323   2.424   3.020   6.410 -0.3045  0.1274  0.7880
 4288SOL    HW224324   2.346   2.942   6.508  0.6396 -0.6524 -0.3684
 4289SOL     OW24325   1.713   0.243   5.950  0.6416 -0.2571 -0.0493
 4289SOL    HW124326   1.799   0.215   5.981  1.3644  1.7051 -0.2791
 4289SOL    HW224327   1.660   0.172   5.987 -0.5496  1.1334  0.9138
 4290SOL     OW24328   1.700   3.814   2.940  0.4752 -0.5167 -0.1182
 4290SOL    HW124329   1.642   3.790   2.868 -0.3047  1.2720 -0.0630
 4290SOL    HW224330   1.676   3.905   2.954  0.1185 -0.4375 -1.2423
 4291SOL     OW24331   1.804   3.423  12.575  0.0769 -0.1718  0.2627
 4291SOL    HW124332   1.793   3.345  12.629 -1.0349  1.0758  1.8459
 4291SOL    HW224333   1.863   3.388  12.508  0.6337  0.6871  0.2936
 4292SOL     OW24334   3.878   2.606   4.601  0.4606  0.3305 -0.4620
 4292SOL    HW124335   3.789   2.639   4.593  0.3211  0.2710  0.7625
 4292SOL    HW224336   3.857   2.513   4.591  0.3368  0.4561 -1.3443
 4293SOL     OW24337   2.310   1.347   1.022 -0.0607 -0.6254  0.6500
 4293SOL    HW124338   2.378   1.402   1.061  0.0127  0.7581 -1.3724
 4293SOL    HW224339   2.252   1.329   1.095  1.7606 -1.4604  1.8745
 4294SOL     OW24340   1.060   1.508   9.794  0.0815  0.0306 -0.2987
 4294SOL    HW124341   1.086   1.418   9.774 -1.1096 -0.3442 -0.1554
 4294SOL    HW224342   1.063   1.504   9.889  0.2231  1.4888 -0.2394
 4295SOL     OW24343   1.552   0.547  17.193 -0.4648 -0.2269 -0.1274
 4295SOL    HW124344   1.536   0.529  17.100  0.8789  1.8215 -0.7699
 4295SOL    HW224345   1.471   0.550  17.242 -1.9525 -1.4373 -2.5193
 4296SOL     OW24346   1.994   3.702  14.095  0.1709  0.6479 -0.0351
 4296SOL    HW124347   2.084   3.706  14.061  0.0001 -1.7132 -0.7428
 4296SOL    HW224348   1.963   3.621  14.055  0.1780 -0.0493  1.4057
 4297SOL     OW24349   1.272   2.243   5.813 -0.7611 -0.2570 -0.6204
 4297SOL    HW124350   1.323   2.169   5.846 -1.6029  0.1818  1.6174
 4297SOL    HW224351   1.238   2.201   5.734  1.5266 -3.5998  0.1723
 4298SOL     OW24352   1.916   1.092  14.023 -0.3822  0.0837  0.2939
 4298SOL    HW124353   1.833   1.052  14.000 -0.7056  0.1335  1.3663
 4298SOL    HW224354   1.894   1.140  14.103  1.1511 -0.4524  1.0487
 4299SOL     OW24355   2.045   3.400   2.566  0.4115 -0.0180 -0.3553
 4299SOL    HW124356   2.137   3.378   2.554 -0.2680 -2.8857 -0.3163
 4299SOL    HW224357   1.999   3.318   2.549 -0.2968 -0.2774  2.6875
 4300SOL     OW24358   2.839   2.878   2.940  0.1826 -0.1615 -0.3463
 4300SOL    HW124359   2.853   2.863   2.847 -0.0520  2.1408 -0.7676
 4300SOL    HW224360   2.843   2.974   2.946 -1.3822 -0.2289  1.7991
 4301SOL     OW24361   1.059   0.654   9.332  0.6765 -0.0254 -0.3860
 4301SOL    HW124362   0.965   0.652   9.348  1.2053 -1.6579  2.6313
 4301SOL    HW224363   1.093   0.670   9.420 -0.0003  3.3391 -0.7525
 4302SOL     OW24364   1.867   3.553   8.257 -0.4128 -0.2112  0.0031
 4302SOL    HW124365   1.959   3.559   8.283 -0.5279  0.1091  0.3304
 4302SOL    HW224366   1.851   3.468   8.297 -1.4816  0.1148  0.2718
 4303SOL     OW24367   0.039   1.675   6.353  0.2216  0.7644  0.3146
 4303SOL    HW124368   0.065   1.583   6.359  1.8657  1.2115 -0.0018
 4303SOL    HW224369   4.710   1.688   6.434 -0.6706  0.2005 -0.1411
 4304SOL     OW24370   0.916   1.470   0.502 -0.5418  0.1445 -0.1164
 4304SOL    HW124371   0.844   1.417   0.534 -0.8228  1.1830  1.0023
 4304SOL    HW224372   0.898   1.484   0.409 -0.4392 -0.9782 -0.2960
 4305SOL     OW24373   0.509   1.008   4.786 -0.2864  0.1533 -0.2273
 4305SOL    HW124374   0.484   1.028   4.876  2.3649  1.0111  0.3063
 4305SOL    HW224375   0.603   1.007   4.801 -0.3450  0.4495  0.1607
 4306SOL     OW24376   4.203   4.344   1.362 -0.3762 -0.0351  0.3336
 4306SOL    HW124377   4.263   4.374   1.294 -0.0421 -0.7353  0.3205
 4306SOL    HW224378   4.160   4.426   1.386  0.1546  0.2989  0.1416
 4307SOL     OW24379   3.149   0.073   4.330  0.1700  0.0163  0.1142
 4307SOL    HW124380   3.180   0.162   4.314 -0.3224  0.2821  0.6628
 4307SOL    HW224381   3.064   0.098   4.366  1.0477  1.6328  1.0603
 4308SOL     OW24382   0.973   0.858   1.904  0.2370  0.0560 -0.1311
 4308SOL    HW124383   0.910   0.930   1.896  1.5161  0.9440 -2.2462
 4308SOL    HW224384   0.942   0.819   1.986 -1.5668  2.1396  0.1779
 4309SOL     OW24385   0.478   0.574   6.186 -0.2201 -0.0350  0.5220
 4309SOL    HW124386   0.400   0.627   6.167  0.5562  0.0966 -2.3453
 4309SOL    HW224387   0.460   0.508   6.119  0.9885  2.3174 -2.1394
 4310SOL     OW24388   2.363   1.515   7.342 -0.5705  0.1427  0.1272
 4310SOL    HW124389   2.301   1.585   7.319  0.9131  1.3411 -0.1963
 4310SOL    HW224390   2.309   1.437   7.354 -0.6000  0.4105  1.8357
 4311SOL     OW24391   1.937   1.000   1.252  0.1802  0.4406 -0.2320
 4311SOL    HW124392   1.902   0.912   1.238 -0.1816  0.4593  0.6032
 4311SOL    HW224393   1.863   1.038   1.298  2.9938  0.6367  4.0846
 4312SOL     OW24394   3.828   3.752   4.568  0.3255 -0.5086 -0.1643
 4312SOL    HW124395   3.834   3.722   4.477 -1.4606 -0.3130 -0.3478
 4312SOL    HW224396   3.806   3.665   4.602  1.7036 -0.8875 -0.2516
 4313SOL     OW24397   2.352   3.296   7.031  0.2319  0.1073  0.0434
 4313SOL    HW124398   2.390   3.261   7.112 -0.8011 -0.8280  0.1309
 4313SOL    HW224399   2.263   3.263   7.046  0.6584 -0.1093  2.2273
 4314SOL     OW24400   3.922   0.199  12.456  0.2226 -0.2219 -0.3039
 4314SOL    HW124401   3.996   0.166  12.507 -0.8952 -0.5944  1.0849
 4314SOL    HW224402   3.938   0.293  12.464 -0.7175  0.0828 -2.1021
 4315SOL     OW24403   1.202   4.110  11.847 -0.1277  0.0941 -0.2698
 4315SOL    HW124404   1.133   4.157  11.894 -0.3906 -1.8199  1.2720
 4315SOL    HW224405   1.173   4.019  11.855  1.0343 -0.2542  0.1134
 4316SOL     OW24406   0.329   1.787  14.522  0.3334 -0.3626 -0.2440
 4316SOL    HW124407   0.270   1.793  14.447 -0.2547 -1.1606  0.1580
 4316SOL    HW224408   0.291   1.711  14.565  2.4119 -2.0071 -1.3288
 4317SOL     OW24409   4.500   3.567   7.789  0.2331 -0.5204 -0.7543
 4317SOL    HW124410   4.405   3.574   7.796  0.4510  0.1044  1.5622
 4317SOL    HW224411   4.511   3.656   7.823  0.3262 -0.2853 -1.3817
 4318SOL     OW24412   1.462   0.528   5.549  0.2216  0.2650 -0.0176
 4318SOL    HW124413   1.499   0.482   5.474  2.1943  1.1533  0.4197
 4318SOL    HW224414   1.545   0.573   5.564  0.2776  1.0112 -2.6297
 4319SOL     OW24415   1.160   3.370   6.908 -0.6033 -0.0882  0.4420
 4319SOL    HW124416   1.198   3.314   6.975 -0.7167 -0.1535  0.4513
 4319SOL    HW224417   1.147   3.302   6.842  1.3963 -0.8421  0.8193
 4320SOL     OW24418   0.929   2.152   7.259 -0.1536 -0.0621 -0.2917
 4320SOL    HW124419   0.896   2.241   7.270 -2.2966 -0.7491 -1.2312
 4320SOL    HW224420   0.884   2.144   7.175  1.1658  1.2498 -1.1268
 4321SOL     OW24421   0.348   1.729   6.885 -0.2216 -0.4377 -0.3387
 4321SOL    HW124422   0.416   1.705   6.949 -0.5991  1.7383  0.8919
 4321SOL    HW224423   0.280   1.671   6.918 -1.7866  2.1473  0.9871
 4322SOL     OW24424   3.895   1.270  14.076  0.1451  0.2050  0.6769
 4322SOL    HW124425   3.873   1.305  13.989  0.9185 -0.1262  0.3507
 4322SOL    HW224426   3.894   1.175  14.068 -1.1889  0.2761 -0.0417
 4323SOL     OW24427   4.319   0.105   0.331  0.1442  0.5443 -0.2412
 4323SOL    HW124428   4.286   0.187   0.369 -0.2352  0.0067  0.5707
 4323SOL    HW224429   4.363   0.147   0.257 -1.5645  1.7752 -0.5567
 4324SOL     OW24430   4.047   2.754   6.393  0.6360  0.1271 -0.2804
 4324SOL    HW124431   4.050   2.672   6.344  0.4451 -0.9683  1.5578
 4324SOL    HW224432   3.953   2.756   6.413  0.8195 -0.8539  0.6329
 4325SOL     OW24433   1.671   3.093   1.909 -0.1397  0.3990 -0.7567
 4325SOL    HW124434   1.721   3.174   1.912  2.4160 -1.1505 -1.5907
 4325SOL    HW224435   1.614   3.109   1.834 -0.2753  0.7938 -0.5679
 4326SOL     OW24436   3.857   2.887   1.034  0.4087 -0.1641 -0.4896
 4326SOL    HW124437   3.825   2.884   0.944 -3.2168  2.4640  0.7425
 4326SOL    HW224438   3.908   2.968   1.033  2.3128 -1.3313  2.2972
 4327SOL     OW24439   2.015   2.488   7.842 -0.1003  0.3861 -0.7892
 4327SOL    HW124440   2.018   2.583   7.851 -1.1585  0.4820 -1.4091
 4327SOL    HW224441   1.923   2.466   7.824 -0.5249  0.5708  1.1818
 4328SOL     OW24442   4.543   1.589   4.284 -0.2219  0.4966 -0.3788
 4328SOL    HW124443   4.519   1.532   4.211  3.1458 -0.7285 -0.4987
 4328SOL    HW224444   4.595   1.664   4.256  0.3945  0.4795  0.7085
 4329SOL     OW24445   4.703   2.527   3.750  0.0259 -0.0022 -0.2621
 4329SOL    HW124446   0.045   2.553   3.818  0.3364  1.1775 -1.0200
 4329SOL    HW224447   4.624   2.579   3.769  0.9769  1.9410 -1.6709
 4330SOL     OW24448   2.530   4.087   7.554 -0.5765  0.0858 -0.5261
 4330SOL    HW124449   2.541   4.053   7.643 -0.3773  0.2388 -0.4910
 4330SOL    HW224450   2.458   4.144   7.581  0.8732  2.3639 -1.4825
 4331SOL     OW24451   2.010   4.136   0.480 -0.0286  0.4099  0.3917
 4331SOL    HW124452   1.973   4.114   0.395  0.5503 -0.0830  0.2648
 4331SOL    HW224453   2.071   4.205   0.455  0.3826  0.1934  0.7958
 4332SOL     OW24454   1.570   1.492  11.949 -0.0045  0.7932 -0.6270
 4332SOL    HW124455   1.579   1.418  12.009  0.8279 -0.1637 -1.9286
 4332SOL    HW224456   1.637   1.457  11.891  0.4503  3.2247 -1.5830
 4333SOL     OW24457   0.973   2.993   5.969 -0.0398 -0.6969 -0.3521
 4333SOL    HW124458   0.878   2.993   5.960 -0.0021 -0.8555 -0.7631
 4333SOL    HW224459   0.988   2.946   5.887  0.4868 -0.2320 -0.5191
 4334SOL     OW24460   1.974   0.124   0.829 -0.0083 -0.1457 -0.4166
 4334SOL    HW124461   1.881   0.118   0.804  0.4664 -2.6952 -1.5646
 4334SOL    HW224462   2.023   0.138   0.748  0.0795  1.5229 -0.0866
 4335SOL     OW24463   0.664   0.808   0.215 -0.2528  0.2975  0.0402
 4335SOL    HW124464   0.725   0.735   0.204 -0.6670 -0.1251  0.5076
 4335SOL    HW224465   0.648   0.825   0.123 -1.2900 -1.3834 -0.0745
 4336SOL     OW24466   2.176   3.525   7.300  0.5220  0.2907 -0.2366
 4336SOL    HW124467   2.167   3.447   7.354 -0.1652  0.9103  0.5536
 4336SOL    HW224468   2.143   3.492   7.216 -0.7119 -0.6625  0.6231
 4337SOL     OW24469   2.344   4.703   0.506 -0.0800 -0.5711 -0.3018
 4337SOL    HW124470   2.334   4.608   0.507 -2.1825 -0.3510 -1.2175
 4337SOL    HW224471   2.360   0.001   0.598 -0.4204 -0.9734 -0.1613
 4338SOL     OW24472   4.368   1.369  12.435  0.0591 -0.3711 -0.3904
 4338SOL    HW124473   4.311   1.297  12.462 -1.1561  1.7468  2.6899
 4338SOL    HW224474   4.410   1.379  12.520  0.8962  0.2959 -0.8802
 4339SOL     OW24475   4.691   0.576   8.714  0.1348  0.4872 -0.1579
 4339SOL    HW124476   0.031   0.578   8.639  3.3765 -0.6728  2.4000
 4339SOL    HW224477   4.676   0.670   8.708  0.6806  0.6821  1.5279
 4340SOL     OW24478   1.606   2.922   9.715 -0.1374 -0.5094 -0.0830
 4340SOL    HW124479   1.604   2.828   9.732  2.6244 -0.6722 -0.5966
 4340SOL    HW224480   1.679   2.935   9.776 -0.3762 -0.2912  0.1602
 4341SOL     OW24481   2.131   0.564   2.860 -0.1682 -0.2118  0.1345
 4341SOL    HW124482   2.059   0.624   2.843 -0.7792 -0.7796  0.7310
 4341SOL    HW224483   2.150   0.584   2.951 -0.8282 -0.7724  0.3937
 4342SOL     OW24484   1.042   3.245   4.143  0.4246  0.3172 -0.3036
 4342SOL    HW124485   1.127   3.278   4.114  0.6387 -0.3383 -0.4301
 4342SOL    HW224486   0.984   3.312   4.107 -0.4880  0.7839  2.0365
 4343SOL     OW24487   2.045   3.801   5.184 -0.5645  0.3674  1.0733
 4343SOL    HW124488   2.074   3.857   5.256 -1.2904  1.6920  0.3439
 4343SOL    HW224489   2.119   3.741   5.180 -0.5888  0.1280  4.1476
 4344SOL     OW24490   4.586   2.499  10.439  0.0104 -0.0345  0.0402
 4344SOL    HW124491   4.563   2.592  10.445  2.1452  0.4557  0.4967
 4344SOL    HW224492   4.682   2.502  10.435  0.0338  0.0662  0.6932
 4345SOL     OW24493   2.995   2.982   8.671 -0.0860 -0.0643  0.1303
 4345SOL    HW124494   3.046   2.934   8.605 -2.3391 -0.7608 -1.1040
 4345SOL    HW224495   2.999   3.069   8.631  1.1224  0.0123  0.4104
 4346SOL     OW24496   3.896   0.324   3.181 -0.1043  0.1422  0.3653
 4346SOL    HW124497   3.840   0.393   3.146 -0.8627 -0.3594  0.5796
 4346SOL    HW224498   3.931   0.301   3.095  0.9750 -1.0746  1.1243
 4347SOL     OW24499   3.930   3.192   3.654  0.0690  0.2037  0.0993
 4347SOL    HW124500   3.906   3.099   3.654  0.2749  0.1534 -0.1277
 4347SOL    HW224501   3.837   3.214   3.650  0.9683  4.2042  1.6870
 4348SOL     OW24502   3.767   3.456  14.541 -0.0104 -0.3509  0.2321
 4348SOL    HW124503   3.836   3.520  14.559  1.6885 -2.0179 -0.3618
 4348SOL    HW224504   3.794   3.412  14.461 -0.4267  1.0722 -0.6915
 4349SOL     OW24505   0.401   0.237   9.914 -0.3814  0.3634 -0.6728
 4349SOL    HW124506   0.370   0.291   9.841 -0.0715 -0.3990 -1.3580
 4349SOL    HW224507   0.365   0.293   9.983 -1.6890 -0.1640 -0.9343
 4350SOL     OW24508   3.793   2.960  10.649 -0.0378 -0.4691 -0.0398
 4350SOL    HW124509   3.737   2.973  10.573  0.8966  2.9761 -0.1083
 4350SOL    HW224510   3.755   3.024  10.709 -0.0849  1.0871 -1.7401
 4351SOL     OW24511   4.033   0.518  11.682 -0.4480  0.7663  0.3119
 4351SOL    HW124512   4.110   0.462  11.698 -2.2707 -1.8875 -0.1843
 4351SOL    HW224513   4.068   0.549  11.599  0.2440 -0.0668  0.2888
 4352SOL     OW24514   0.495   0.061  11.316 -0.2358  0.1378  0.2570
 4352SOL    HW124515   0.549   4.710  11.350  0.3629  0.2781 -0.3860
 4352SOL    HW224516   0.557   0.134  11.315 -0.9995  0.7836 -1.0144
 4353SOL     OW24517   0.033   2.832   5.145 -0.2927 -0.6008  0.4207
 4353SOL    HW124518   0.040   2.924   5.120 -0.2964 -0.1254  2.1077
 4353SOL    HW224519   4.660   2.810   5.153 -0.7955  1.0384 -0.9824
 4354SOL     OW24520   2.655   1.461   2.567 -0.1287  0.2387 -0.1988
 4354SOL    HW124521   2.746   1.461   2.536 -0.0775 -0.6923 -0.0644
 4354SOL    HW224522   2.615   1.545   2.548 -0.2036  0.3632  0.4815
 4355SOL     OW24523   4.324   0.402   7.451  0.0274  0.3815  0.0433
 4355SOL    HW124524   4.360   0.463   7.514  3.8388  1.6258 -3.3911
 4355SOL    HW224525   4.374   0.325   7.476 -0.1990  0.2373  0.0592
 4356SOL     OW24526   2.146   3.635   5.565 -0.2296  0.0688 -0.7049
 4356SOL    HW124527   2.218   3.577   5.591 -0.4406  0.6375  1.1863
 4356SOL    HW224528   2.183   3.721   5.586  0.2152 -0.1567 -0.5657
 4357SOL     OW24529   3.560   1.567   9.308  0.1225  0.7739 -0.0611
 4357SOL    HW124530   3.573   1.524   9.224 -2.4811 -1.0390  0.4858
 4357SOL    HW224531   3.605   1.649   9.288  0.0312  0.7768 -0.2505
 4358SOL     OW24532   3.085   0.125   2.943 -0.0958  0.1903  0.5547
 4358SOL    HW124533   3.104   0.212   2.908 -1.7411 -0.4108 -1.8760
 4358SOL    HW224534   3.049   0.075   2.869  1.9430 -0.7092  0.1575
 4359SOL     OW24535   1.544   3.071   9.343 -0.2544 -0.2372  0.0798
 4359SOL    HW124536   1.591   3.045   9.423 -0.1041 -1.6378 -0.4518
 4359SOL    HW224537   1.454   3.065   9.374 -0.0001 -1.5890  0.5662
 4360SOL     OW24538   4.540   0.038  11.077  0.7800  0.4749 -0.3824
 4360SOL    HW124539   4.534   0.132  11.092 -2.7062  0.0775  0.8180
 4360SOL    HW224540   4.450   0.015  11.054  0.5571  1.1657 -0.2031
 4361SOL     OW24541   4.133   0.141   6.398 -0.0765  0.6458 -0.6515
 4361SOL    HW124542   4.120   0.236   6.396  0.3012  0.7359  0.8916
 4361SOL    HW224543   4.071   0.115   6.466 -0.6338  0.0991 -1.3740
 4362SOL     OW24544   2.909   0.982   6.212 -0.3560 -0.8155 -0.5497
 4362SOL    HW124545   2.927   1.075   6.227  1.0557 -1.2672  0.5924
 4362SOL    HW224546   2.962   0.969   6.134  0.2493 -0.5011 -0.1936
 4363SOL     OW24547   0.499   2.907   0.506  0.0955 -0.0644 -0.1769
 4363SOL    HW124548   0.462   2.826   0.471  0.2204 -0.1214 -0.1742
 4363SOL    HW224549   0.565   2.926   0.440  1.3849 -0.1035  1.0951
 4364SOL     OW24550   0.603   4.001   4.339 -0.2064 -0.6916  0.0707
 4364SOL    HW124551   0.528   3.997   4.399 -0.8465  0.0056 -0.6858
 4364SOL    HW224552   0.557   4.025   4.259  1.7791  1.1286 -0.5371
 4365SOL     OW24553   3.508   2.707   5.926 -0.4490 -0.2759  0.4763
 4365SOL    HW124554   3.515   2.774   5.993 -0.1489 -1.2358  1.4030
 4365SOL    HW224555   3.422   2.740   5.901  1.2476  2.5823 -1.5996
 4366SOL     OW24556   2.643   1.573   1.835 -0.2205  0.4329  0.0318
 4366SOL    HW124557   2.676   1.573   1.924 -0.2559 -2.6750  0.0528
 4366SOL    HW224558   2.555   1.539   1.847 -0.2315  1.3902  2.6096
 4367SOL     OW24559   2.814   4.473   2.379 -0.5988  0.2185 -0.0171
 4367SOL    HW124560   2.827   4.564   2.351 -1.1103 -0.4651 -2.4189
 4367SOL    HW224561   2.724   4.457   2.349 -0.2035 -1.2081 -0.4159
 4368SOL     OW24562   1.567   2.500   3.348 -0.1416  1.0205 -0.3771
 4368SOL    HW124563   1.603   2.580   3.387 -1.3164  0.2784  2.2597
 4368SOL    HW224564   1.518   2.478   3.427 -0.4867 -2.4502 -1.5368
 4369SOL     OW24565   1.771   2.857   1.926 -0.4651  0.0069 -0.7372
 4369SOL    HW124566   1.790   2.853   1.833  0.6345  0.0908 -0.5144
 4369SOL    HW224567   1.735   2.946   1.925 -0.5988 -0.0419 -0.3536
 4370SOL     OW24568   0.697   2.508   4.903  0.2300 -0.5431  0.1783
 4370SOL    HW124569   0.679   2.602   4.893 -1.2160 -0.8037  0.4042
 4370SOL    HW224570   0.629   2.480   4.841  0.9315 -0.5839 -0.5808
 4371SOL     OW24571   2.645   4.142   8.806 -0.2917  1.0785  0.1885
 4371SOL    HW124572   2.629   4.172   8.895  1.5921  2.1929  0.1490
 4371SOL    HW224573   2.565   4.168   8.760 -0.8321  2.6022  1.9927
 4372SOL     OW24574   1.406   1.675   1.364  0.2699 -0.5500  0.1415
 4372SOL    HW124575   1.401   1.745   1.299 -2.9379  0.1608  1.1629
 4372SOL    HW224576   1.499   1.653   1.369  0.1125 -0.6113  2.9217
 4373SOL     OW24577   3.379   0.262   8.662  0.6474 -0.3823 -0.1328
 4373SOL    HW124578   3.353   0.198   8.729 -0.4295  0.5890  0.3769
 4373SOL    HW224579   3.318   0.334   8.678  0.3856 -0.2734 -1.6082
 4374SOL     OW24580   1.143   2.177   9.958  0.2468 -0.1130  0.0273
 4374SOL    HW124581   1.146   2.247  10.024  3.9077 -0.8440  0.6470
 4374SOL    HW224582   1.064   2.132   9.990  1.0176 -1.3124  0.2312
 4375SOL     OW24583   2.568   4.155   4.415  0.2101 -0.1799 -0.2637
 4375SOL    HW124584   2.574   4.243   4.454 -1.0157 -0.3909  0.3998
 4375SOL    HW224585   2.488   4.150   4.363 -1.0751 -1.7822  1.8650
 4376SOL     OW24586   4.671   3.189  16.416 -0.5874  0.0571 -0.4401
 4376SOL    HW124587   4.686   3.244  16.493 -0.1298 -0.9037  0.1555
 4376SOL    HW224588   0.015   3.232  16.360 -0.8453  0.9889 -0.0113
 4377SOL     OW24589   4.338   2.496   6.082  0.3738  0.2644  0.0729
 4377SOL    HW124590   4.404   2.459   6.141 -0.0622  1.0083  1.0313
 4377SOL    HW224591   4.391   2.537   6.014 -2.3404 -0.4982 -2.4997
 4378SOL     OW24592   2.926   1.220  14.876  0.0893 -0.2678  0.0810
 4378SOL    HW124593   2.839   1.194  14.907 -1.1968  1.0894 -2.4047
 4378SOL    HW224594   2.964   1.133  14.861 -0.3444 -0.6533  1.2033
 4379SOL     OW24595   0.004   1.945   4.686 -0.4307 -0.4285  0.4408
 4379SOL    HW124596   0.082   1.898   4.716  1.5330  1.3964 -1.8762
 4379SOL    HW224597   0.028   1.947   4.594  0.4739 -0.6739  0.6702
 4380SOL     OW24598   1.223   1.235   0.937 -0.0482 -0.0360 -0.4909
 4380SOL    HW124599   1.241   1.316   0.888  3.1507 -0.2051  0.4593
 4380SOL    HW224600   1.135   1.257   0.969 -0.3778  1.6545 -2.5162
 4381SOL     OW24601   3.952   2.961   2.861 -0.2981  0.2860 -0.1453
 4381SOL    HW124602   4.039   2.926   2.880  0.4821  1.2289 -1.9728
 4381SOL    HW224603   3.923   2.940   2.949  0.3036 -0.1349 -0.0490
 4382SOL     OW24604   0.193   0.752   7.589 -0.1405  0.6183  0.2999
 4382SOL    HW124605   0.244   0.710   7.658 -1.2153 -1.4137 -0.1311
 4382SOL    HW224606   0.127   0.684   7.579  0.9167 -0.7200  2.3734
 4383SOL     OW24607   2.959   3.908  14.128  0.4155 -0.0848 -0.2304
 4383SOL    HW124608   2.949   3.952  14.044 -1.3582  0.2628  0.1629
 4383SOL    HW224609   3.032   3.957  14.166  0.3859 -0.2962  0.1039
 4384SOL     OW24610   2.095   2.832   8.233  0.3203  0.3324  0.7715
 4384SOL    HW124611   2.173   2.793   8.193  2.2397  2.6925  2.2420
 4384SOL    HW224612   2.124   2.850   8.322 -1.6082  0.0210  1.4566
 4385SOL     OW24613   1.739   3.749   2.368  0.4976  0.4019  0.4485
 4385SOL    HW124614   1.826   3.712   2.381  0.2264 -0.2573  0.3557
 4385SOL    HW224615   1.683   3.675   2.343  0.1518  0.9035 -0.2438
 4386SOL     OW24616   1.683   3.925   3.651 -0.1520  0.0870  0.6611
 4386SOL    HW124617   1.680   3.939   3.746 -1.3473 -2.3228  0.9796
 4386SOL    HW224618   1.710   4.011   3.618 -1.9030 -0.4463 -2.1366
 4387SOL     OW24619   3.813   0.027  10.031 -0.2062  0.4691 -0.4782
 4387SOL    HW124620   3.805   4.652  10.034 -0.2316  0.4900  0.0502
 4387SOL    HW224621   3.898   0.037  10.073 -0.1246 -0.3747 -0.4419
 4388SOL     OW24622   3.677   0.585   7.568 -0.1704 -0.4537 -0.1177
 4388SOL    HW124623   3.615   0.594   7.641  0.9164  1.1990  0.6009
 4388SOL    HW224624   3.682   0.494   7.539 -1.0064  0.1984 -2.2802
 4389SOL     OW24625   0.163   0.712   5.235  0.3514  0.1327 -0.4511
 4389SOL    HW124626   0.118   0.712   5.150 -2.4064 -1.6533  0.9861
 4389SOL    HW224627   0.221   0.638   5.219 -0.3788 -0.9577  1.9536
 4390SOL     OW24628   1.207   0.802   9.542  0.2567 -0.0953 -0.1313
 4390SOL    HW124629   1.149   0.837   9.609 -1.1269 -0.4718 -1.1133
 4390SOL    HW224630   1.275   0.869   9.536 -1.4220  1.3801 -2.7868
 4391SOL     OW24631   1.764   4.448   5.919 -0.1406  0.2662 -1.0818
 4391SOL    HW124632   1.727   4.489   5.840 -0.4881  0.3168 -0.8903
 4391SOL    HW224633   1.796   4.525   5.967  1.6461 -1.1854  0.0762
 4392SOL     OW24634   1.436   0.569   6.101  0.0788 -0.1382  0.4392
 4392SOL    HW124635   1.362   0.542   6.047 -0.3841 -1.4219  1.6766
 4392SOL    HW224636   1.502   0.569   6.031 -0.3749 -1.2568  0.0018
 4393SOL     OW24637   2.707   4.175   8.409  0.0466  0.0754  0.3378
 4393SOL    HW124638   2.782   4.196   8.466  0.9984  1.4882 -1.4003
 4393SOL    HW224639   2.655   4.115   8.461 -0.3362 -0.4937 -0.7056
 4394SOL     OW24640   1.573   1.726   6.485  0.2790  0.0052 -0.5273
 4394SOL    HW124641   1.572   1.817   6.454 -0.0558  0.4705  0.8588
 4394SOL    HW224642   1.575   1.744   6.579 -0.0208 -0.5932 -0.4050
 4395SOL     OW24643   2.087   2.671   8.504  0.4693 -0.3202 -0.1196
 4395SOL    HW124644   2.043   2.639   8.426  1.5709  3.5097 -2.3120
 4395SOL    HW224645   2.054   2.760   8.519 -1.9867 -1.3513  0.6221
 4396SOL     OW24646   2.100   0.504   5.778  0.2435 -0.1639  0.4638
 4396SOL    HW124647   2.147   0.588   5.777  0.3748 -0.2373  0.4625
 4396SOL    HW224648   2.183   0.457   5.792  0.5872  0.2950 -0.0466
 4397SOL     OW24649   0.924   1.407   6.432  0.3983  0.2667  0.3500
 4397SOL    HW124650   0.964   1.323   6.455 -2.0589 -1.1027 -0.3541
 4397SOL    HW224651   0.994   1.467   6.457  0.9813  0.4644 -1.7451
 4398SOL     OW24652   2.394   1.388   0.393 -0.3634  0.1885 -0.3108
 4398SOL    HW124653   2.448   1.465   0.377  1.3940 -1.3929 -2.0047
 4398SOL    HW224654   2.311   1.434   0.379  0.0106  0.5255 -1.4012
 4399SOL     OW24655   4.108   2.618   2.023  0.5357 -0.1724  0.4699
 4399SOL    HW124656   4.055   2.660   2.091  1.8501  0.5426  1.0540
 4399SOL    HW224657   4.056   2.538   2.015 -0.2000  0.6261 -3.0710
 4400SOL     OW24658   1.978   0.076  15.379  0.3522 -0.1312  0.2263
 4400SOL    HW124659   2.033   0.047  15.306  0.1878 -3.1508  1.2803
 4400SOL    HW224660   1.895   0.042  15.346  0.5805 -1.6870  1.2622
 4401SOL     OW24661   2.107   3.279  10.416 -0.0360 -0.3725 -0.2924
 4401SOL    HW124662   2.040   3.254  10.479 -1.2075  2.0987 -0.5499
 4401SOL    HW224663   2.175   3.261  10.481 -1.0063  0.2126  0.8835
 4402SOL     OW24664   4.182   2.802  16.601  0.4496 -0.4374 -0.3871
 4402SOL    HW124665   4.170   2.896  16.590  2.4658 -0.3103 -1.4707
 4402SOL    HW224666   4.276   2.790  16.614  0.2853 -1.4285 -0.1030
 4403SOL     OW24667   3.763   3.546   6.618  0.3715 -0.1507  0.3754
 4403SOL    HW124668   3.670   3.554   6.638  0.2980  2.9065 -1.1113
 4403SOL    HW224669   3.754   3.509   6.530  1.4597  0.8913 -0.1766
 4404SOL     OW24670   4.032   3.086  16.992  0.4378  0.4131 -0.3108
 4404SOL    HW124671   4.036   3.001  16.948 -1.2793  0.9074 -1.4013
 4404SOL    HW224672   4.098   3.127  16.936 -0.2251 -1.1427 -2.2188
 4405SOL     OW24673   3.547   3.426   8.349 -0.1881 -0.2835  0.3865
 4405SOL    HW124674   3.564   3.335   8.326  1.4915 -0.5595  2.6250
 4405SOL    HW224675   3.495   3.423   8.429  1.3849  1.1364  1.4766
 4406SOL     OW24676   2.830   4.586   3.573 -0.0921  0.0868 -0.0875
 4406SOL    HW124677   2.890   4.656   3.598 -0.6481  0.5223  0.0295
 4406SOL    HW224678   2.746   4.623   3.600 -0.6204 -0.4805 -0.9734
 4407SOL     OW24679   4.626   2.148  11.599  0.1566  0.5726 -0.0117
 4407SOL    HW124680   4.662   2.197  11.525 -0.2368 -0.3325 -0.8120
 4407SOL    HW224681   4.534   2.173  11.608 -0.7292 -3.1754  1.3443
 4408SOL     OW24682   0.182   0.129   8.599  0.3849  0.3795  0.1405
 4408SOL    HW124683   0.154   0.202   8.654  0.3199  0.0976  0.4839
 4408SOL    HW224684   0.216   0.076   8.671  1.1110  1.5219  0.6354
 4409SOL     OW24685   2.233   1.115  10.353 -0.1514  0.0785  0.2413
 4409SOL    HW124686   2.188   1.122  10.437 -2.1823 -0.3636 -0.8082
 4409SOL    HW224687   2.310   1.170  10.366 -0.7447  1.0207 -0.2680
 4410SOL     OW24688   3.271   0.036   0.725  0.7771  0.3194 -0.2940
 4410SOL    HW124689   3.243   4.681   0.673 -0.8318 -0.1027  1.2001
 4410SOL    HW224690   3.294   4.710   0.807  0.9362  0.4198 -0.2818
 4411SOL     OW24691   2.605   0.665   5.911  0.1451  0.2424 -0.9884
 4411SOL    HW124692   2.560   0.745   5.885 -2.9523 -0.8222  1.0560
 4411SOL    HW224693   2.590   0.613   5.832  0.2228 -0.9108 -0.2500
 4412SOL     OW24694   2.659   3.640  13.702  0.2914 -0.0426 -0.0099
 4412SOL    HW124695   2.573   3.680  13.686 -0.0017 -0.1261  1.3606
 4412SOL    HW224696   2.627   3.562  13.748 -0.1858  0.6765  0.8804
 4413SOL     OW24697   4.063   0.364   9.713  0.0485  0.3077  0.0744
 4413SOL    HW124698   4.003   0.318   9.772  1.3996  1.8491  2.6172
 4413SOL    HW224699   4.140   0.350   9.768 -0.2510 -0.6671  0.2419
 4414SOL     OW24700   0.801   3.832   8.985 -0.0222  0.4710 -0.1600
 4414SOL    HW124701   0.721   3.778   8.984  1.7046 -2.0695 -0.7588
 4414SOL    HW224702   0.823   3.837   9.078 -0.0839 -0.4407 -0.0903
 4415SOL     OW24703   1.238   0.252  12.635 -0.2004 -0.0769  0.2658
 4415SOL    HW124704   1.209   0.175  12.584  1.8890 -0.6871 -0.0007
 4415SOL    HW224705   1.161   0.258  12.692 -0.0240  0.9665  0.3788
 4416SOL     OW24706   3.925   2.132  10.623 -0.3995  0.3384  0.8640
 4416SOL    HW124707   3.974   2.050  10.609  0.2161  0.7595  0.5219
 4416SOL    HW224708   3.989   2.187  10.669  1.9688 -1.5905 -0.0732
 4417SOL     OW24709   0.377   3.458   2.171  0.3540 -0.0199  0.1443
 4417SOL    HW124710   0.332   3.520   2.229 -0.4009 -0.1719 -0.2841
 4417SOL    HW224711   0.295   3.415   2.146 -0.7113  0.4134  2.9095
 4418SOL     OW24712   4.403   3.896  17.323 -0.2170 -0.0814 -0.6000
 4418SOL    HW124713   4.365   3.914  17.237  1.8173 -0.1627 -1.5187
 4418SOL    HW224714   4.406   3.978  17.371  1.9780 -0.0456 -0.7655
 4419SOL     OW24715   3.209   2.516   7.709 -0.5623 -0.5162 -0.3387
 4419SOL    HW124716   3.235   2.488   7.797  1.6475 -1.0634 -1.1682
 4419SOL    HW224717   3.224   2.434   7.662  0.6296 -0.3173 -0.3215
 4420SOL     OW24718   1.407   4.185  14.730  0.3461 -0.1879 -0.3975
 4420SOL    HW124719   1.337   4.151  14.675 -0.2464  1.1577 -0.4658
 4420SOL    HW224720   1.415   4.274  14.696 -0.2829  0.1349  0.3023
 4421SOL     OW24721   2.140   3.220   2.814 -0.2646  0.0377  0.5055
 4421SOL    HW124722   2.137   3.135   2.859  1.3140  0.7980  2.0185
 4421SOL    HW224723   2.079   3.204   2.742 -0.0690 -0.4194  0.4364
 4422SOL     OW24724   4.289   4.326  11.356  0.0049  0.9715  0.0491
 4422SOL    HW124725   4.266   4.304  11.266 -0.4552 -0.4137  0.5078
 4422SOL    HW224726   4.334   4.409  11.338 -0.2708  1.6988  2.6690
 4423SOL     OW24727   1.224   3.476   5.391 -0.0674 -0.2399  0.6188
 4423SOL    HW124728   1.298   3.439   5.342  3.1632  1.1895  4.3381
 4423SOL    HW224729   1.215   3.554   5.336  2.4132  1.3782  2.4560
 4424SOL     OW24730   1.802   2.994  15.397  0.0777  0.3056  0.5845
 4424SOL    HW124731   1.748   2.920  15.420  1.4867 -1.5004 -1.9259
 4424SOL    HW224732   1.862   2.956  15.332 -1.6444  0.3735 -1.0243
 4425SOL     OW24733   0.802   3.743  14.094  0.0083 -0.7145 -0.1979
 4425SOL    HW124734   0.879   3.729  14.039 -1.3990  0.1992 -2.3940
 4425SOL    HW224735   0.778   3.832  14.067 -1.5225 -1.1229 -0.1754
 4426SOL     OW24736   1.635   3.692   3.519  0.0158  0.2357 -0.8796
 4426SOL    HW124737   1.664   3.766   3.572 -0.5335 -0.8929  1.0162
 4426SOL    HW224738   1.713   3.680   3.465  1.0104 -0.0074  0.5924
 4427SOL     OW24739   3.494   2.337  13.575  0.3791 -0.1063 -0.2592
 4427SOL    HW124740   3.473   2.296  13.659 -1.6708 -0.2353 -0.8550
 4427SOL    HW224741   3.423   2.400  13.569 -1.0187 -1.6116  0.6023
 4428SOL     OW24742   4.541   3.650  14.713 -0.2680 -0.1302  0.3619
 4428SOL    HW124743   4.492   3.586  14.764 -0.5135 -1.7581 -1.9007
 4428SOL    HW224744   4.575   3.699  14.788  0.8156  0.9360 -0.8281
 4429SOL     OW24745   1.262   0.440   3.095 -0.4077 -0.3249  0.7954
 4429SOL    HW124746   1.238   0.475   3.010  2.5070 -1.2280 -0.4001
 4429SOL    HW224747   1.355   0.460   3.102  0.2693 -3.2984  0.3522
 4430SOL     OW24748   2.166   1.121   3.341 -0.0150  0.6159  0.2946
 4430SOL    HW124749   2.087   1.079   3.307 -0.3286  0.5867  1.0549
 4430SOL    HW224750   2.212   1.122   3.257 -1.1377  1.3155 -0.3219
 4431SOL     OW24751   1.093   0.461   8.253 -0.3028 -0.0767  0.0291
 4431SOL    HW124752   1.000   0.459   8.233 -0.5643 -0.2002  1.2410
 4431SOL    HW224753   1.115   0.369   8.240 -2.7285 -0.3762 -1.8639
 4432SOL     OW24754   0.173   1.288  16.483 -0.5889 -0.1216  0.1464
 4432SOL    HW124755   0.186   1.381  16.464 -2.0978 -0.3366 -1.9313
 4432SOL    HW224756   0.262   1.261  16.504 -0.4928  1.2643  1.5812
 4433SOL     OW24757   1.059   4.512  14.832 -0.0176  0.2481 -0.4643
 4433SOL    HW124758   1.114   4.590  14.825  1.4960 -0.8262 -0.5510
 4433SOL    HW224759   0.969   4.539  14.846  0.4395  1.0065  1.0199
 4434SOL     OW24760   2.283   1.894   2.505 -0.2236  0.0077  0.6620
 4434SOL    HW124761   2.273   1.967   2.444  0.1405 -0.1682  0.3970
 4434SOL    HW224762   2.288   1.957   2.577 -1.6043  0.8563  0.0379
 4435SOL     OW24763   3.783   4.179  13.255 -0.0454 -0.1137  0.7491
 4435SOL    HW124764   3.718   4.211  13.192  1.0597  0.0491 -0.3031
 4435SOL    HW224765   3.851   4.161  13.191 -0.1322  0.4343  0.5002
 4436SOL     OW24766   1.935   1.404   0.988  0.2136 -0.4744  0.0782
 4436SOL    HW124767   2.007   1.373   1.042 -0.3615 -0.3053  0.9473
 4436SOL    HW224768   1.948   1.496   1.013  2.5919 -0.8759  0.2702
 4437SOL     OW24769   3.019   4.112   6.541  0.0517  0.0077  0.1517
 4437SOL    HW124770   3.069   4.054   6.600  0.7693  0.3688 -0.0998
 4437SOL    HW224771   2.943   4.057   6.526 -0.8763  1.2116  0.4488
 4438SOL     OW24772   4.327   4.081   1.425  0.6073 -0.8137  0.1124
 4438SOL    HW124773   4.265   4.038   1.366 -0.6243  0.2050  0.6623
 4438SOL    HW224774   4.339   4.158   1.370  1.0088  0.9376  2.6290
 4439SOL     OW24775   0.478   2.065   8.408 -0.3142 -0.5142  0.9276
 4439SOL    HW124776   0.459   2.007   8.482 -2.1280 -1.7336 -0.4774
 4439SOL    HW224777   0.471   2.012   8.328 -0.3020  0.4347  0.2959
 4440SOL     OW24778   2.265   2.227   6.036  0.3206  0.1871  0.1522
 4440SOL    HW124779   2.333   2.284   6.001  0.9706  0.9584  2.7125
 4440SOL    HW224780   2.293   2.188   6.118 -2.5116 -1.0308  0.5578
 4441SOL     OW24781   1.345   1.559   2.494 -0.1020  0.0372 -0.0092
 4441SOL    HW124782   1.377   1.641   2.530  0.6920 -1.1575  2.0390
 4441SOL    HW224783   1.343   1.575   2.400 -1.2777  0.2421  0.0593
 4442SOL     OW24784   4.231   0.115   5.831 -0.4815 -0.0270  0.8283
 4442SOL    HW124785   4.179   0.190   5.860 -0.5302  0.7230 -1.2348
 4442SOL    HW224786   4.165   0.061   5.787 -0.6480 -0.5022  1.6541
 4443SOL     OW24787   3.265   0.560  11.786  0.2478 -0.2485 -0.1928
 4443SOL    HW124788   3.278   0.589  11.696  1.7913  0.0263  0.1219
 4443SOL    HW224789   3.323   0.485  11.801  0.8812  0.5659  1.4385
 4444SOL     OW24790   2.448   1.502   6.383  0.0867 -0.6557  0.2647
 4444SOL    HW124791   2.381   1.503   6.315 -0.6391  0.5678  0.9929
 4444SOL    HW224792   2.527   1.507   6.330 -1.3847 -0.6744 -1.9112
 4445SOL     OW24793   4.379   2.185  11.269 -0.3327  0.0428  0.2528
 4445SOL    HW124794   4.453   2.242  11.290 -0.7830  0.2958  1.1545
 4445SOL    HW224795   4.373   2.196  11.174 -0.4227  0.6109  0.3241
 4446SOL     OW24796   4.395   2.410  11.966  0.0148  0.0453 -0.3385
 4446SOL    HW124797   4.435   2.472  12.027 -1.6681  2.1495 -1.3650
 4446SOL    HW224798   4.403   2.325  12.011  2.5354 -0.1608 -1.1985
 4447SOL     OW24799   3.692   4.276   6.870 -0.1984  0.1100 -0.1232
 4447SOL    HW124800   3.680   4.270   6.964  0.5462  1.3257  0.0466
 4447SOL    HW224801   3.602   4.271   6.838 -0.7839 -0.7736  1.6564
 4448SOL     OW24802   4.648   2.282   3.697 -0.2928  0.0796  0.3406
 4448SOL    HW124803   0.017   2.252   3.682 -1.2922 -1.9628 -1.5332
 4448SOL    HW224804   4.664   2.376   3.688  1.8783 -0.5664 -2.4685
 4449SOL     OW24805   3.705   2.272  14.761  0.2003  0.1656  0.5829
 4449SOL    HW124806   3.636   2.246  14.821 -0.1852 -1.8441 -0.7562
 4449SOL    HW224807   3.670   2.356  14.731 -0.9526 -0.3571  0.4537
 4450SOL     OW24808   2.445   1.958   6.602 -0.1927 -0.2035  0.6248
 4450SOL    HW124809   2.411   2.046   6.621 -0.3501  0.5394 -3.0903
 4450SOL    HW224810   2.370   1.901   6.619 -1.8071  2.2441  1.7831
 4451SOL     OW24811   3.073   3.065   4.197 -0.8133 -0.2647 -0.2159
 4451SOL    HW124812   3.115   3.074   4.111 -0.7089 -0.2474 -0.1636
 4451SOL    HW224813   3.073   2.970   4.208 -0.2813  0.0805  2.8150
 4452SOL     OW24814   2.383   1.998  15.057 -0.4321  0.1749 -0.1761
 4452SOL    HW124815   2.330   1.919  15.046 -2.1352  1.5275 -1.6199
 4452SOL    HW224816   2.472   1.967  15.039 -0.5360  1.3089 -2.5880
 4453SOL     OW24817   0.531   1.703   8.486  0.2700 -0.1156 -1.0250
 4453SOL    HW124818   0.582   1.778   8.516 -0.7056  0.3557 -0.5409
 4453SOL    HW224819   0.448   1.750   8.500 -0.7568 -0.7281 -5.1034
 4454SOL     OW24820   1.100   1.147   1.863  0.5018 -0.1505  0.0404
 4454SOL    HW124821   1.143   1.158   1.779 -2.3413  0.9661 -1.2283
 4454SOL    HW224822   1.013   1.179   1.843 -0.1857  0.1648  3.4428
 4455SOL     OW24823   0.172   4.224   4.491  0.0950 -0.4464  0.4353
 4455SOL    HW124824   0.160   4.309   4.448  1.4737 -0.6073 -0.2710
 4455SOL    HW224825   0.128   4.226   4.576 -1.7868 -1.8299 -0.5036
 4456SOL     OW24826   1.747   4.180   2.584 -0.1676 -0.4685  0.5330
 4456SOL    HW124827   1.785   4.201   2.499 -0.6108 -2.4121 -0.1560
 4456SOL    HW224828   1.695   4.108   2.550 -1.0824  0.4365  0.0374
 4457SOL     OW24829   2.497   2.714   3.513 -1.0262 -0.1560 -1.4905
 4457SOL    HW124830   2.433   2.772   3.472 -0.4824  1.0256 -0.6565
 4457SOL    HW224831   2.461   2.627   3.499 -2.2330  0.0380  0.4791
 4458SOL     OW24832   0.302   1.285  15.707 -0.1471 -0.3006 -0.7355
 4458SOL    HW124833   0.241   1.240  15.648  0.4996 -0.5938 -1.1728
 4458SOL    HW224834   0.260   1.371  15.705 -0.0649 -0.2398  0.1580
 4459SOL     OW24835   0.782   3.946   7.150 -0.0994  0.6239 -0.7028
 4459SOL    HW124836   0.688   3.960   7.158 -0.4542 -0.5501 -2.6140
 4459SOL    HW224837   0.775   3.852   7.134 -2.4013  0.6187  0.4713
 4460SOL     OW24838   2.356   1.144   2.123 -0.5765 -0.2694 -0.2187
 4460SOL    HW124839   2.380   1.121   2.212  1.4975  3.2045  0.1023
 4460SOL    HW224840   2.425   1.101   2.073 -0.7331 -2.5553  1.5451
 4461SOL     OW24841   2.030   2.735  11.161  0.2686 -0.3425 -0.1263
 4461SOL    HW124842   2.061   2.650  11.131 -0.2071 -0.5027 -0.1608
 4461SOL    HW224843   2.037   2.726  11.256 -0.3234  0.5963  0.0031
 4462SOL     OW24844   0.659   1.549   6.386  0.5777  0.2182 -0.1199
 4462SOL    HW124845   0.742   1.511   6.416 -0.3720 -2.0985 -0.3800
 4462SOL    HW224846   0.606   1.494   6.442  0.5419  0.8003  0.4142
 4463SOL     OW24847   1.907   3.725   2.069  0.0540  0.2688  0.4298
 4463SOL    HW124848   1.919   3.635   2.102 -2.1568 -0.2536 -0.1682
 4463SOL    HW224849   1.992   3.739   2.029  0.1933 -0.6314  0.3945
 4464SOL     OW24850   3.230   0.530   8.457  0.6139 -0.4225  0.0416
 4464SOL    HW124851   3.278   0.596   8.507 -0.6282 -0.8236  1.7758
 4464SOL    HW224852   3.196   0.578   8.382 -0.2806 -0.5832  0.3381
 4465SOL     OW24853   1.038   4.260   5.995 -0.1349 -0.0926 -0.0344
 4465SOL    HW124854   0.957   4.258   5.944  1.3317  0.9827 -2.4049
 4465SOL    HW224855   1.073   4.173   5.978  0.0657 -0.0493  0.1694
 4466SOL     OW24856   3.987   4.297  15.757 -0.0811  0.1204 -0.1607
 4466SOL    HW124857   4.060   4.267  15.703 -0.3917 -2.3283  0.7696
 4466SOL    HW224858   3.918   4.315  15.693  1.2887 -1.0731 -1.9716
 4467SOL     OW24859   2.217   1.803   0.696 -0.3839 -0.1261 -0.4349
 4467SOL    HW124860   2.231   1.780   0.604  0.1965 -2.3121  0.1854
 4467SOL    HW224861   2.266   1.885   0.692 -0.1090 -0.1601  1.8527
 4468SOL     OW24862   1.645   0.780   9.490 -0.5124  0.4872 -0.2133
 4468SOL    HW124863   1.661   0.855   9.433 -1.3930  1.6046  1.0204
 4468SOL    HW224864   1.552   0.761   9.477 -0.0622  0.1837 -2.9814
 4469SOL     OW24865   1.987   2.599   4.019  0.2358  0.3854  0.3049
 4469SOL    HW124866   2.039   2.636   4.089  0.5334  0.2207  0.1743
 4469SOL    HW224867   1.905   2.643   4.042  0.6459  1.3737 -0.1322
 4470SOL     OW24868   0.787   3.462   3.190  0.1802 -0.4419  0.5951
 4470SOL    HW124869   0.747   3.406   3.123 -0.7138 -0.4228  1.1170
 4470SOL    HW224870   0.798   3.542   3.139  2.3423 -0.6777  0.6615
 4471SOL     OW24871   3.961   2.657  17.203  0.2712 -0.2918  0.0749
 4471SOL    HW124872   3.893   2.643  17.138  0.3734  0.2308 -0.1406
 4471SOL    HW224873   4.029   2.690  17.144  1.8093  1.2288  2.6707
 4472SOL     OW24874   4.198   3.796   4.615  0.9283  0.1630  0.1144
 4472SOL    HW124875   4.246   3.877   4.628 -1.8563  1.6890  0.7900
 4472SOL    HW224876   4.182   3.804   4.521 -0.1069 -2.1218  0.0740
 4473SOL     OW24877   2.806   4.697   8.550  0.5448 -0.0780  0.0993
 4473SOL    HW124878   2.832   4.617   8.504 -0.4830 -0.7726  0.7298
 4473SOL    HW224879   2.729   4.717   8.497  0.9992  0.3922 -0.3845
 4474SOL     OW24880   3.429   1.832   8.242  0.0658  0.1365  0.1052
 4474SOL    HW124881   3.444   1.795   8.155  0.4309 -3.8388  1.8425
 4474SOL    HW224882   3.356   1.893   8.230  1.3342  1.7011  0.3519
 4475SOL     OW24883   4.194   1.120   6.752 -0.0133 -0.0097  0.2287
 4475SOL    HW124884   4.275   1.127   6.702 -0.1137  0.7465  0.1686
 4475SOL    HW224885   4.229   1.130   6.840  1.0308  0.0438 -0.1979
 4476SOL     OW24886   4.527   4.105   8.027 -0.3966  0.7539  0.4672
 4476SOL    HW124887   4.533   4.088   7.933  1.0621 -0.3874  0.7699
 4476SOL    HW224888   4.549   4.016   8.056 -1.5064  0.6320  0.9351
 4477SOL     OW24889   1.112   0.179  17.659 -0.1537 -0.2284 -0.1312
 4477SOL    HW124890   1.053   0.243   0.018  0.5446 -0.2921  0.9549
 4477SOL    HW224891   1.192   0.196   0.025  0.1124  0.4254 -0.7945
 4478SOL     OW24892   4.454   1.255   7.906  0.6026  0.3843  0.1844
 4478SOL    HW124893   4.432   1.348   7.901  2.7210  0.7873 -1.6126
 4478SOL    HW224894   4.493   1.246   7.819 -1.6788  1.9874 -1.0061
 4479SOL     OW24895   0.919   1.826   5.176  0.1236  0.6796  0.0344
 4479SOL    HW124896   0.853   1.756   5.175  0.2363  0.5913 -0.7825
 4479SOL    HW224897   0.858   1.900   5.176  0.5499  1.0304  0.8657
 4480SOL     OW24898   0.884   2.692   7.183 -0.2635  0.1609 -0.3966
 4480SOL    HW124899   0.795   2.719   7.207  0.5777  2.4983  0.0723
 4480SOL    HW224900   0.879   2.596   7.175  0.1389  0.1187 -0.1537
 4481SOL     OW24901   2.665   1.056  17.658 -0.2031  0.0912  0.0823
 4481SOL    HW124902   2.743   1.104   0.005  0.2950  0.1304 -1.2682
 4481SOL    HW224903   2.698   0.969  17.637  1.2234  0.5266  0.5146
 4482SOL     OW24904   0.755   3.037  17.159  0.1972  0.5132  0.3572
 4482SOL    HW124905   0.732   3.062  17.248 -1.8419 -1.5943  0.4444
 4482SOL    HW224906   0.794   3.116  17.122  1.5337  0.0342  0.7366
 4483SOL     OW24907   1.490   3.204  16.398  0.4303  0.3887 -0.0840
 4483SOL    HW124908   1.506   3.265  16.326  0.3147  1.2180  0.5911
 4483SOL    HW224909   1.489   3.262  16.474  1.8162  0.1398  0.1160
 4484SOL     OW24910   0.902   1.417   1.684  0.4576  0.2765  0.4484
 4484SOL    HW124911   0.938   1.378   1.605 -1.4106 -0.8380  0.1567
 4484SOL    HW224912   0.903   1.345   1.747  1.5525 -0.2607 -0.2027
 4485SOL     OW24913   1.561   0.326   2.117 -0.0331 -0.4158  0.7726
 4485SOL    HW124914   1.479   0.348   2.073 -1.2239 -2.8577  1.7991
 4485SOL    HW224915   1.549   0.356   2.207  2.0955  0.6620  0.6939
 4486SOL     OW24916   1.694   3.071   4.146  0.1127 -0.1808 -0.0695
 4486SOL    HW124917   1.721   3.011   4.077  0.9322  1.9538 -1.6134
 4486SOL    HW224918   1.741   3.149   4.115 -0.6167  0.0751 -0.5056
 4487SOL     OW24919   1.492   4.569  10.257  0.2578 -0.1227 -0.2497
 4487SOL    HW124920   1.532   4.649  10.292 -1.9463  0.6561  0.5008
 4487SOL    HW224921   1.401   4.570  10.288  0.5538 -2.4510  0.6709
 4488SOL     OW24922   4.006   0.975   8.463 -0.2132 -0.4364 -0.8054
 4488SOL    HW124923   3.911   0.985   8.471 -0.3998 -1.4335 -1.7430
 4488SOL    HW224924   4.025   0.931   8.545 -1.2814 -1.1591 -0.9413
 4489SOL     OW24925   1.249   3.768  17.295  0.6312  0.3311  0.2051
 4489SOL    HW124926   1.175   3.795  17.349  1.0922  0.1453  0.9376
 4489SOL    HW224927   1.207   3.696  17.247  0.0551  1.7874 -1.4651
 4490SOL     OW24928   2.967   0.188  13.877 -0.5683 -0.3102 -0.9441
 4490SOL    HW124929   2.999   0.216  13.963  0.2189 -0.2343 -1.2716
 4490SOL    HW224930   2.878   0.156  13.894 -0.5214 -0.3756 -0.8175
 4491SOL     OW24931   3.426   4.250   7.124 -0.4417  0.0287 -0.4833
 4491SOL    HW124932   3.362   4.295   7.180 -0.6277  2.0327 -2.3146
 4491SOL    HW224933   3.403   4.161   7.150  0.0081 -0.1510 -0.6962
 4492SOL     OW24934   0.452   3.232   9.305 -0.3666 -0.2501 -0.1012
 4492SOL    HW124935   0.458   3.148   9.258 -1.5624 -0.3160 -0.1394
 4492SOL    HW224936   0.357   3.234   9.320 -0.5134 -1.1219 -0.8885
 4493SOL     OW24937   2.634   1.302  10.929  0.0191 -0.2687 -0.2998
 4493SOL    HW124938   2.610   1.365  10.861 -0.1163 -1.0925 -1.0206
 4493SOL    HW224939   2.575   1.231  10.902  0.0131 -0.1880 -0.5029
 4494SOL     OW24940   4.295   0.151  10.228 -0.3125 -1.0029  0.4840
 4494SOL    HW124941   4.326   0.180  10.143  3.2118 -2.4128  1.2810
 4494SOL    HW224942   4.315   0.234  10.272 -1.9706  1.0290 -2.6569
 4495SOL     OW24943   0.458   2.088   6.961  0.3083 -0.1376  0.3404
 4495SOL    HW124944   0.416   2.077   7.047 -0.8226  1.6806  0.0174
 4495SOL    HW224945   0.413   2.167   6.930 -0.5107 -0.1157  1.5821
 4496SOL     OW24946   0.877   0.866   0.710 -0.6772  0.3036 -0.2189
 4496SOL    HW124947   0.822   0.843   0.635  0.2920 -1.6620 -0.3414
 4496SOL    HW224948   0.828   0.831   0.785 -1.1524  3.3664  0.8807
 4497SOL     OW24949   4.318   1.160   7.615 -0.4216  0.2356  0.0018
 4497SOL    HW124950   4.266   1.144   7.694  1.0602 -0.2493  0.8843
 4497SOL    HW224951   4.407   1.133   7.637 -0.8533 -0.3069  1.1129
 4498SOL     OW24952   3.140   0.419  10.464 -0.1268 -0.2981  0.2268
 4498SOL    HW124953   3.180   0.444  10.548 -2.2083  3.4138  0.1173
 4498SOL    HW224954   3.067   0.377  10.511  0.7332 -0.9809  0.9588
 4499SOL     OW24955   3.670   2.898  10.409 -0.0484 -0.3724 -0.4687
 4499SOL    HW124956   3.668   2.833  10.339 -1.0342 -0.2269 -0.5639
 4499SOL    HW224957   3.706   2.975  10.363  2.0530 -1.7308 -1.1179
 4500SOL     OW24958   2.919   0.881   6.470  0.7868 -0.5237 -0.5512
 4500SOL    HW124959   2.941   0.958   6.522 -1.2036 -1.3988  1.6069
 4500SOL    HW224960   2.907   0.917   6.383  1.8720  3.3327  0.9170
 4501SOL     OW24961   0.474   0.592   2.191  0.1065 -0.8812  0.1554
 4501SOL    HW124962   0.501   0.501   2.175  1.1170 -0.4985 -0.3200
 4501SOL    HW224963   0.388   0.598   2.147 -0.6079 -3.1795  1.2410
 4502SOL     OW24964   0.850   1.066  13.037 -0.0572 -0.1260  0.0898
 4502SOL    HW124965   0.802   1.130  12.985  0.1814 -0.8469 -1.0175
 4502SOL    HW224966   0.774   1.062  13.095  0.0948 -0.6444  0.2549
 4503SOL     OW24967   3.624   0.712  10.131 -0.5159  0.2057  0.0559
 4503SOL    HW124968   3.588   0.786  10.082  1.8283  1.1703 -0.2006
 4503SOL    HW224969   3.570   0.716  10.210 -1.4368  1.3509 -0.6317
 4504SOL     OW24970   1.908   0.717  12.507  0.3992 -0.2975 -0.0464
 4504SOL    HW124971   1.903   0.667  12.588  0.1680  2.9922  1.9791
 4504SOL    HW224972   1.952   0.648  12.457 -1.3060 -1.4190  0.0087
 4505SOL     OW24973   2.745   2.376   8.208  0.0971 -0.5466 -0.3088
 4505SOL    HW124974   2.781   2.314   8.144 -0.1455  1.6893 -2.6018
 4505SOL    HW224975   2.763   2.332   8.291  0.1697  0.6427  0.2968
 4506SOL     OW24976   4.567   3.699   2.875 -0.3429 -0.0164 -0.6208
 4506SOL    HW124977   4.514   3.729   2.801  0.4425  0.4235 -0.9986
 4506SOL    HW224978   4.608   3.618   2.843  1.5362  1.3702 -1.7251
 4507SOL     OW24979   3.332   1.391   6.525  0.6596 -0.8334  0.7677
 4507SOL    HW124980   3.383   1.346   6.593  0.1363 -0.3573  1.4773
 4507SOL    HW224981   3.407   1.431   6.481 -1.7207  0.7401 -1.7980
 4508SOL     OW24982   2.888   0.155   8.734 -0.0049  0.0242  0.4500
 4508SOL    HW124983   2.859   0.088   8.673 -4.0982  0.0642  2.3909
 4508SOL    HW224984   2.982   0.150   8.717 -0.0342  1.0486 -0.0111
 4509SOL     OW24985   3.412   4.481   6.964  0.1004  0.1723  0.8225
 4509SOL    HW124986   3.413   4.386   6.958  1.3481  0.1263  1.7178
 4509SOL    HW224987   3.322   4.505   6.984  0.1180  0.9892 -0.0699
 4510SOL     OW24988   0.496   1.751   7.120  0.4597 -0.1992  0.3219
 4510SOL    HW124989   0.544   1.678   7.159  1.2055 -1.4374 -2.8682
 4510SOL    HW224990   0.550   1.824   7.149  0.8830 -0.2269 -0.3979
 4511SOL     OW24991   2.583   1.630   0.739  0.2233 -0.4045  0.0473
 4511SOL    HW124992   2.562   1.685   0.664  2.1029  1.8339  1.1299
 4511SOL    HW224993   2.584   1.539   0.712  1.5015 -0.6896  1.0347
 4512SOL     OW24994   2.016   4.402   2.086  0.2425  0.5459 -0.0515
 4512SOL    HW124995   2.098   4.381   2.130  1.3883  0.3382 -2.2591
 4512SOL    HW224996   1.971   4.320   2.063 -2.6802  1.7535  1.3532
 4513SOL     OW24997   0.987   0.524   3.236 -0.5658  0.0053  0.4222
 4513SOL    HW124998   1.071   0.510   3.190 -0.6947  2.4922 -0.5689
 4513SOL    HW224999   0.921   0.490   3.175  2.0698 -2.3015 -1.1966
 4514SOL     OW25000   4.387   1.076   8.487 -0.8075  0.0716 -0.3066
 4514SOL    HW125001   4.411   1.003   8.431  1.6771  0.9420 -0.3657
 4514SOL    HW225002   4.434   1.149   8.448 -2.6244  0.7243 -1.2788
 4515SOL     OW25003   0.608   4.261  10.631 -1.1333 -0.0238 -0.1358
 4515SOL    HW125004   0.601   4.257  10.536 -0.1403 -1.5221 -0.1522
 4515SOL    HW225005   0.551   4.335  10.650 -0.1001  0.8567 -0.5142
 4516SOL     OW25006   0.375   2.391   8.511  0.1867  0.6084  0.2380
 4516SOL    HW125007   0.295   2.337   8.512  1.8562 -1.8892 -0.0751
 4516SOL    HW225008   0.436   2.329   8.552  0.5555  0.5898 -0.3492
 4517SOL     OW25009   2.587   2.669  16.202 -0.1413  0.4144  0.2336
 4517SOL    HW125010   2.672   2.709  16.222 -1.1410  2.4162  0.5446
 4517SOL    HW225011   2.587   2.672  16.106  1.4593  0.8175  0.2480
 4518SOL     OW25012   3.962   0.230   6.851  0.1402 -0.5481 -0.0625
 4518SOL    HW125013   4.021   0.176   6.904 -0.3572 -2.2298 -1.2301
 4518SOL    HW225014   3.916   0.282   6.917  0.1359 -1.3564  0.5645
 4519SOL     OW25015   2.351   0.556   7.132 -0.1843  0.7157  0.2148
 4519SOL    HW125016   2.308   0.638   7.157  0.9503  0.7043  2.1380
 4519SOL    HW225017   2.368   0.518   7.218 -0.0527  0.5558  0.1169
 4520SOL     OW25018   2.335   1.847  12.233 -0.0445 -0.0949  0.3798
 4520SOL    HW125019   2.383   1.765  12.247  1.2802  1.1054  2.8817
 4520SOL    HW225020   2.247   1.815  12.256  0.4198 -1.0552  0.8261
 4521SOL     OW25021   2.579   3.975  13.870  0.1940  0.0351 -0.3449
 4521SOL    HW125022   2.620   3.938  13.792  0.0574 -0.2749 -0.2691
 4521SOL    HW225023   2.599   3.907  13.934  2.6927 -0.1672 -1.3187
 4522SOL     OW25024   3.337   3.274   3.758  0.0333 -0.0131 -0.3786
 4522SOL    HW125025   3.426   3.251   3.784  0.6793 -0.4501 -2.9928
 4522SOL    HW225026   3.349   3.344   3.694 -0.9814  0.8126  0.3316
 4523SOL     OW25027   2.487   3.522   2.829 -0.4029 -0.1788 -0.1036
 4523SOL    HW125028   2.415   3.489   2.882  0.2274  3.0173  2.6944
 4523SOL    HW225029   2.458   3.473   2.752 -2.3411  2.1592 -0.8623
 4524SOL     OW25030   0.528   1.209  16.011  0.3412 -0.3101 -0.8806
 4524SOL    HW125031   0.443   1.193  15.972  0.2870  1.1439 -1.3329
 4524SOL    HW225032   0.507   1.298  16.040 -0.5435 -0.0918 -2.1853
 4525SOL     OW25033   0.111   1.335   7.238 -0.0188 -0.3727  0.0825
 4525SOL    HW125034   0.170   1.269   7.201 -3.0536 -1.8388 -2.1181
 4525SOL    HW225035   0.031   1.324   7.187  1.0559  1.2716 -1.9652
 4526SOL     OW25036   2.877   3.648   8.412 -0.8920 -0.8332 -0.2193
 4526SOL    HW125037   2.902   3.646   8.504  0.9585 -0.3868 -0.7014
 4526SOL    HW225038   2.842   3.737   8.408 -1.3726 -1.0461 -0.7530
 4527SOL     OW25039   2.135   3.384   1.449 -0.2193 -0.6071 -0.2832
 4527SOL    HW125040   2.117   3.291   1.435  0.4112 -0.4863 -1.8997
 4527SOL    HW225041   2.222   3.399   1.410 -1.0679 -0.3709 -2.0906
 4528SOL     OW25042   2.303   0.748   6.461  0.2296 -0.0784  0.0058
 4528SOL    HW125043   2.229   0.809   6.458  1.2671  1.2259  1.0169
 4528SOL    HW225044   2.260   0.682   6.516  0.9974 -0.8315 -0.3096
 4529SOL     OW25045   4.501   0.196   4.661 -0.3042 -0.1438  0.4552
 4529SOL    HW125046   4.580   0.145   4.645  2.5132  4.1039  0.7185
 4529SOL    HW225047   4.435   0.132   4.635 -0.2727  0.5814 -1.4192
 4530SOL     OW25048   2.278   1.654   6.555  0.7079  0.3234  0.5292
 4530SOL    HW125049   2.257   1.704   6.476  2.1531  0.0678 -0.0196
 4530SOL    HW225050   2.347   1.595   6.524  0.2616 -0.4658  1.0092
 4531SOL     OW25051   3.991   3.810  14.823  0.1966 -0.3987 -0.1462
 4531SOL    HW125052   3.958   3.893  14.788 -0.6882  0.9800  3.9645
 4531SOL    HW225053   4.084   3.813  14.800 -0.1588  1.6825 -1.3229
 4532SOL     OW25054   0.636   0.207   9.799  0.5537  0.9047 -0.4630
 4532SOL    HW125055   0.560   0.213   9.856  1.1974  0.5118  0.4262
 4532SOL    HW225056   0.586   0.249   9.729  0.0294 -2.2801 -2.0442
 4533SOL     OW25057   2.095   0.753  14.933 -0.8237 -0.4022  0.9816
 4533SOL    HW125058   2.088   0.844  14.961 -1.7671 -0.3046  0.4588
 4533SOL    HW225059   2.162   0.723  14.993  0.4193 -0.8304 -0.6374
 4534SOL     OW25060   4.485   0.034   8.707  0.2492  0.3183 -0.3784
 4534SOL    HW125061   4.546   0.006   8.639 -1.7389 -1.6193 -1.3886
 4534SOL    HW225062   4.398   0.005   8.680 -0.5327  1.5516  0.8152
 4535SOL     OW25063   0.132   3.186  14.134  0.1200 -0.7627  0.0600
 4535SOL    HW125064   0.214   3.146  14.162 -0.8807 -1.5008  1.9364
 4535SOL    HW225065   0.143   3.194  14.040 -0.8404  1.3016  0.1173
 4536SOL     OW25066   3.853   2.117   6.911  0.5576 -0.4055  0.0628
 4536SOL    HW125067   3.902   2.194   6.882 -0.4554  0.0497 -0.4134
 4536SOL    HW225068   3.763   2.148   6.918  0.8974 -0.2655  3.8514
 4537SOL     OW25069   0.156   1.487   1.519  1.0105 -0.6085 -0.4450
 4537SOL    HW125070   0.117   1.517   1.601  0.2075 -0.6532 -0.8163
 4537SOL    HW225071   0.244   1.526   1.522  0.7338 -0.2174  2.7201
 4538SOL     OW25072   2.275   4.345   3.010 -0.3779  0.0738  0.2942
 4538SOL    HW125073   2.336   4.374   2.942  0.1565 -0.2167  0.6518
 4538SOL    HW225074   2.279   4.251   2.993 -1.3682  0.4141 -1.9414
 4539SOL     OW25075   1.656   0.244   5.298  0.1181  0.1109  0.6331
 4539SOL    HW125076   1.595   0.318   5.297 -1.2365 -1.0287 -1.0485
 4539SOL    HW225077   1.689   0.245   5.208 -1.0145  1.3798  0.2373
 4540SOL     OW25078   1.309   3.173   7.909  0.0273 -0.3584  0.1146
 4540SOL    HW125079   1.283   3.165   8.001 -0.7049 -1.0629 -0.1514
 4540SOL    HW225080   1.295   3.267   7.897  0.9867 -0.2967 -0.5765
 4541SOL     OW25081   0.631   3.274   9.794 -0.3880  0.0059  0.0126
 4541SOL    HW125082   0.580   3.224   9.858  0.6615 -0.3614  0.5597
 4541SOL    HW225083   0.614   3.365   9.818 -1.3210 -0.8447  2.5016
 4542SOL     OW25084   2.522   0.237   4.417 -0.3293  0.1665  0.3999
 4542SOL    HW125085   2.522   0.333   4.422 -0.2613  0.1708  0.3139
 4542SOL    HW225086   2.477   0.219   4.500 -0.0152  0.8077  0.7110
 4543SOL     OW25087   2.266   0.334   7.829  0.1686 -0.5511 -0.5435
 4543SOL    HW125088   2.358   0.345   7.853  0.5892  0.4135 -2.5840
 4543SOL    HW225089   2.281   0.260   7.769  0.5057  0.2704 -1.4710
 4544SOL     OW25090   1.975   2.161   8.997 -0.3050 -0.5691  0.1941
 4544SOL    HW125091   1.982   2.216   9.075 -0.1445  1.5448 -1.3206
 4544SOL    HW225092   1.892   2.118   9.021 -1.1833 -0.0090 -1.9140
 4545SOL     OW25093   4.353   1.651   9.617  0.0410  0.6077  0.0742
 4545SOL    HW125094   4.382   1.563   9.639 -0.2077  0.8766  1.4542
 4545SOL    HW225095   4.280   1.622   9.561  0.5173  1.1502 -0.8345
 4546SOL     OW25096   4.008   2.283   5.548 -0.5885  0.0739 -0.7848
 4546SOL    HW125097   3.925   2.310   5.509 -1.3048  0.6778  1.1329
 4546SOL    HW225098   4.055   2.246   5.474  1.1306 -2.1317  1.4157
 4547SOL     OW25099   1.306   3.138   8.750 -0.3055 -0.6277  0.0969
 4547SOL    HW125100   1.217   3.156   8.780 -0.6955 -0.6705 -1.0386
 4547SOL    HW225101   1.284   3.065   8.692  1.3099 -1.7487  0.9087
 4548SOL     OW25102   0.820   1.639   6.798 -0.0803  0.6554  0.1372
 4548SOL    HW125103   0.780   1.670   6.717 -1.4433  0.7155  0.8381
 4548SOL    HW225104   0.904   1.685   6.797  0.3506 -0.1454 -0.5452
 4549SOL     OW25105   2.167   4.638   1.561  0.0643  0.4535  0.1463
 4549SOL    HW125106   2.236   4.581   1.595 -0.5103  0.0558  0.6462
 4549SOL    HW225107   2.203   4.718   1.600  3.6701 -0.6720 -0.8546
 4550SOL     OW25108   1.153   1.841  11.993 -0.3235 -0.0248  0.3771
 4550SOL    HW125109   1.174   1.899  11.919  1.6675 -0.5323  0.5493
 4550SOL    HW225110   1.219   1.772  11.989 -1.2134 -0.8109 -1.1049
 4551SOL     OW25111   4.397   1.662  15.511 -0.1802  0.6847  0.0495
 4551SOL    HW125112   4.387   1.756  15.528  0.7576  1.0766 -1.5358
 4551SOL    HW225113   4.343   1.631  15.583 -2.1532 -1.7134 -2.4585
 4552SOL     OW25114   0.884   0.030  12.875  0.1450 -0.7551  0.2568
 4552SOL    HW125115   0.918   4.681  12.932  1.0055  0.2684  0.9921
 4552SOL    HW225116   0.795   0.048  12.907  0.8923  4.9031 -0.7386
 4553SOL     OW25117   2.582   2.303   2.811 -0.6353 -0.0228 -0.3606
 4553SOL    HW125118   2.530   2.304   2.891  1.5555 -2.0173  1.0797
 4553SOL    HW225119   2.656   2.250   2.840  0.3997  1.2050 -0.7548
 4554SOL     OW25120   2.650   0.384   3.947  0.1179 -0.0454 -0.4808
 4554SOL    HW125121   2.668   0.292   3.967 -0.4717  0.5547  2.8274
 4554SOL    HW225122   2.694   0.393   3.862  0.3080 -2.1171 -0.6025
 4555SOL     OW25123   1.606   0.096   3.274  0.7082  0.8590  0.1907
 4555SOL    HW125124   1.688   0.127   3.313  1.3214  0.7684 -1.0281
 4555SOL    HW225125   1.611   0.112   3.179 -2.0727 -2.3492 -0.4724
 4556SOL     OW25126   4.098   1.777   2.895 -0.0554  0.0477  0.5660
 4556SOL    HW125127   4.071   1.819   2.976  1.3650 -1.8342  1.9998
 4556SOL    HW225128   4.037   1.816   2.832 -0.3711  2.2533  2.2411
 4557SOL     OW25129   1.725   4.367   3.252  0.0772  0.3702  0.2119
 4557SOL    HW125130   1.640   4.404   3.229  0.0733 -0.1236 -0.5606
 4557SOL    HW225131   1.705   4.357   3.345  3.4105 -1.0674  0.8070
 4558SOL     OW25132   1.337   2.040   7.765 -0.3018  0.1969 -0.5815
 4558SOL    HW125133   1.280   2.060   7.692 -0.8909  2.3433  0.4872
 4558SOL    HW225134   1.294   1.983   7.829  4.3859 -3.1467 -0.3376
 4559SOL     OW25135   1.154   0.665   1.877 -0.0188 -0.4589  0.0795
 4559SOL    HW125136   1.101   0.600   1.831 -0.1088  0.4423 -1.0986
 4559SOL    HW225137   1.103   0.746   1.883  1.3547  0.2912  1.7278
 4560SOL     OW25138   0.871   1.917   5.865 -0.0179 -0.4313 -0.3538
 4560SOL    HW125139   0.943   1.963   5.906 -0.9116 -0.4301  1.2023
 4560SOL    HW225140   0.792   1.965   5.893 -1.3700 -1.2949 -2.6403
 4561SOL     OW25141   1.665   2.644   6.535 -0.1897  0.0222 -0.1056
 4561SOL    HW125142   1.641   2.701   6.463  0.8048  0.2447 -0.2677
 4561SOL    HW225143   1.664   2.708   6.606 -1.6908  0.2185 -0.3141
 4562SOL     OW25144   1.790   1.984  13.834  0.2608  0.4127  0.4047
 4562SOL    HW125145   1.725   1.953  13.771 -0.5550 -2.1441  2.4769
 4562SOL    HW225146   1.784   2.079  13.832  1.4076  0.4883  0.1161
 4563SOL     OW25147   2.947   4.297   2.768 -0.4158 -0.2088  0.2649
 4563SOL    HW125148   2.946   4.213   2.814  0.7665  0.2988  1.2162
 4563SOL    HW225149   3.041   4.310   2.760 -0.6314 -0.1587 -2.1371
 4564SOL     OW25150   3.898   3.229  11.448  0.3312 -0.3160 -0.6033
 4564SOL    HW125151   3.946   3.173  11.387  0.2877 -0.5979 -0.3792
 4564SOL    HW225152   3.961   3.226  11.520 -0.3188  1.9967  0.0448
 4565SOL     OW25153   4.648   3.438   8.563  0.1612  0.2562  0.2851
 4565SOL    HW125154   0.006   3.386   8.582 -1.0264 -1.4673  0.4165
 4565SOL    HW225155   4.596   3.429   8.642  0.5734  1.8142  0.7209
 4566SOL     OW25156   2.164   4.700   5.312 -0.0867  0.2940 -0.2643
 4566SOL    HW125157   2.116   4.623   5.281 -1.3799  0.3085  1.6912
 4566SOL    HW225158   2.241   4.692   5.256  2.2848  1.5967  2.8582
 4567SOL     OW25159   1.448   0.402  12.578 -0.6207 -0.6450  0.0728
 4567SOL    HW125160   1.366   0.368  12.614  0.3353 -2.1886  0.7850
 4567SOL    HW225161   1.500   0.328  12.610  0.5016  0.6063  1.1331
 4568SOL     OW25162   1.989   4.162   8.628  0.0992  0.4048  0.0785
 4568SOL    HW125163   2.066   4.172   8.683  0.6279  2.1092 -0.9767
 4568SOL    HW225164   1.954   4.086   8.675 -0.0153  1.1002  1.1312
 4569SOL     OW25165   0.656   3.818   6.513 -0.0315  0.7354  0.0252
 4569SOL    HW125166   0.736   3.849   6.470  1.1950  0.8781  2.4439
 4569SOL    HW225167   0.704   3.775   6.583 -1.6206 -1.2704 -0.1155
 4570SOL     OW25168   0.185   1.571   5.541 -0.1149  0.4357  0.2199
 4570SOL    HW125169   0.218   1.659   5.522 -2.6217  1.3106 -0.1573
 4570SOL    HW225170   0.267   1.534   5.571  0.0459  1.1558  0.6872
 4571SOL     OW25171   1.705   1.304   9.505 -0.1000  0.2132 -0.3176
 4571SOL    HW125172   1.733   1.247   9.576 -0.9469  1.0174  0.6657
 4571SOL    HW225173   1.638   1.360   9.544  1.2899  0.7614  1.2945
 4572SOL     OW25174   2.197   1.376  13.142 -0.2742 -0.4465 -0.3269
 4572SOL    HW125175   2.233   1.335  13.064 -2.0124 -1.4895 -0.5673
 4572SOL    HW225176   2.114   1.330  13.133 -1.1726  1.0532  0.3240
 4573SOL     OW25177   3.786   4.461  10.031  0.1452  0.1420  0.1256
 4573SOL    HW125178   3.865   4.450   9.977 -1.1748 -3.1608 -1.1052
 4573SOL    HW225179   3.771   4.372  10.061  0.0770  0.3037  0.5852
 4574SOL     OW25180   3.733   4.426   5.503  0.5667  0.7842  0.1871
 4574SOL    HW125181   3.677   4.478   5.446  1.4101  1.4698 -0.0195
 4574SOL    HW225182   3.712   4.336   5.479 -0.2917  1.4439 -1.5758
 4575SOL     OW25183   1.274   3.763   8.464  0.7335  0.3020  0.0563
 4575SOL    HW125184   1.293   3.857   8.461 -1.9235  0.9295  2.8390
 4575SOL    HW225185   1.199   3.757   8.524  0.6396 -0.5392 -0.1462
 4576SOL     OW25186   4.595   1.893  12.187 -0.2112 -0.7023 -0.1837
 4576SOL    HW125187   4.639   1.847  12.115  2.0266 -0.9232  1.3257
 4576SOL    HW225188   4.673   1.918  12.236  1.2598 -0.4415 -2.6494
 4577SOL     OW25189   2.773   2.970  12.722  0.1191  0.1922  0.2654
 4577SOL    HW125190   2.741   2.880  12.723  2.1704 -0.5206  3.3928
 4577SOL    HW225191   2.704   3.020  12.679 -1.4545 -0.1747  2.3737
 4578SOL     OW25192   4.630   0.310   4.339  0.0104  0.5217  0.5197
 4578SOL    HW125193   4.537   0.322   4.324 -0.0194  0.0357  0.3115
 4578SOL    HW225194   4.633   0.222   4.379  2.5533  0.3319 -0.0815
 4579SOL     OW25195   0.891   2.840   6.953  0.1866  0.2633  0.6617
 4579SOL    HW125196   0.887   2.920   7.006 -0.6169 -1.2782  2.8911
 4579SOL    HW225197   0.926   2.774   7.012 -0.6904 -0.6775  0.1098
 4580SOL     OW25198   1.565   2.013   6.483  0.1632 -0.0926 -0.1651
 4580SOL    HW125199   1.597   2.033   6.571  0.6966  0.0093 -0.3818
 4580SOL    HW225200   1.536   2.102   6.466  2.0951  0.3124 -1.3060
 4581SOL     OW25201   4.173   0.272   1.725 -0.0341  0.0943  0.6012
 4581SOL    HW125202   4.170   0.343   1.790 -0.5279  1.8840 -1.3364
 4581SOL    HW225203   4.092   0.228   1.752 -0.2438 -0.4515 -0.9128
 4582SOL     OW25204   1.130   0.849  15.944  0.4857  0.0807  0.3880
 4582SOL    HW125205   1.099   0.879  15.859  3.7399 -0.5698 -1.0536
 4582SOL    HW225206   1.222   0.831  15.923  0.8301  1.5983  0.5559
 4583SOL     OW25207   2.942   2.857  12.035  0.7401 -0.2592 -0.2289
 4583SOL    HW125208   2.963   2.937  12.084  1.3802  1.0548 -2.6729
 4583SOL    HW225209   2.938   2.799  12.111  1.6813 -1.7058 -1.2875
 4584SOL     OW25210   4.401   0.706  10.862 -0.5011 -0.1397 -0.2578
 4584SOL    HW125211   4.494   0.687  10.851 -0.4842 -0.3111  0.1779
 4584SOL    HW225212   4.369   0.650  10.791  0.2109 -1.1929  0.2431
 4585SOL     OW25213   2.531   4.566   5.232 -0.4101 -0.2603  0.3770
 4585SOL    HW125214   2.533   4.650   5.279  2.1905  0.4448 -0.9972
 4585SOL    HW225215   2.450   4.583   5.184  0.5278 -3.0000 -2.1472
 4586SOL     OW25216   2.949   2.390  12.171  0.0912 -0.1257 -0.5137
 4586SOL    HW125217   3.036   2.354  12.152  0.1458 -0.2445 -0.0390
 4586SOL    HW225218   2.910   2.313  12.211  0.0641 -0.3858 -1.0446
 4587SOL     OW25219   0.396   4.585   4.832 -0.2626 -0.0281  0.0883
 4587SOL    HW125220   0.376   4.647   4.902 -1.2634  0.3939 -0.5783
 4587SOL    HW225221   0.308   4.577   4.795 -0.6868  2.0692  0.6482
 4588SOL     OW25222   1.336   4.569   4.522  0.0717 -0.3651  0.8160
 4588SOL    HW125223   1.258   4.596   4.571  0.5880 -1.1991  2.1087
 4588SOL    HW225224   1.321   4.607   4.435 -0.5148  2.1851  2.0264
 4589SOL     OW25225   1.597   0.270   8.117 -0.0233 -0.1025  0.9483
 4589SOL    HW125226   1.643   0.189   8.137  0.0268 -0.2986  0.0008
 4589SOL    HW225227   1.666   0.324   8.078 -1.6109  0.4197 -1.1234
 4590SOL     OW25228   1.895   0.937  14.863 -0.9235 -0.2223  0.5203
 4590SOL    HW125229   1.909   0.848  14.833 -1.2846 -0.5292  1.2736
 4590SOL    HW225230   1.885   0.988  14.783  1.9098  0.9914  0.9114
 4591SOL     OW25231   3.219   0.814  14.625  0.2022 -0.3197  0.2782
 4591SOL    HW125232   3.188   0.727  14.652 -2.2476  0.5936  0.4015
 4591SOL    HW225233   3.191   0.818  14.534 -2.1240 -3.9585  0.8098
 4592SOL     OW25234   0.330   1.090   8.222  0.1918  0.2155 -0.0445
 4592SOL    HW125235   0.378   1.092   8.304  1.7352  1.0427 -0.9790
 4592SOL    HW225236   0.273   1.013   8.231  0.3758 -0.3923 -3.8211
 4593SOL     OW25237   0.830   1.591   4.494 -0.2235 -0.4336 -0.0455
 4593SOL    HW125238   0.755   1.594   4.553 -0.0718 -0.9814  0.1733
 4593SOL    HW225239   0.791   1.566   4.410  1.6364 -0.4565 -0.8982
 4594SOL     OW25240   2.590   0.581   2.948  0.6073 -0.3808  0.6452
 4594SOL    HW125241   2.653   0.542   3.007  2.3653  1.1853 -0.2059
 4594SOL    HW225242   2.622   0.672   2.950  0.1065 -0.1873  0.0097
 4595SOL     OW25243   3.041   2.239   0.182  0.1952  0.0285 -0.1998
 4595SOL    HW125244   3.102   2.192   0.239  1.4379  0.4917 -1.1396
 4595SOL    HW225245   2.997   2.165   0.140  2.7349 -0.2053 -2.4513
 4596SOL     OW25246   2.271   0.134   8.211 -0.1349  0.1074  0.2917
 4596SOL    HW125247   2.342   0.193   8.186  0.9770 -1.2300  0.3058
 4596SOL    HW225248   2.248   0.180   8.292  0.6699  0.4080  0.3454
 4597SOL     OW25249   3.069   0.654  10.805 -0.0979  0.6957 -0.1055
 4597SOL    HW125250   3.023   0.588  10.858 -0.1690 -1.5429 -2.9733
 4597SOL    HW225251   3.152   0.607  10.798 -0.9650 -0.7895 -0.4937
 4598SOL     OW25252   3.787   1.881   4.347  0.2752 -0.2988 -0.2394
 4598SOL    HW125253   3.813   1.864   4.438 -2.6993  4.3017  1.4691
 4598SOL    HW225254   3.864   1.932   4.320 -0.0716  0.0378 -0.5848
 4599SOL     OW25255   0.020   2.228   9.106 -0.0206 -0.0939  0.3899
 4599SOL    HW125256   4.669   2.208   9.045 -1.4247  2.6511  1.1452
 4599SOL    HW225257   4.695   2.207   9.187 -1.4308  0.1806 -0.3282
 4600SOL     OW25258   4.513   3.745   3.253  0.3041 -0.1918 -0.6000
 4600SOL    HW125259   4.560   3.684   3.309 -0.4642  2.8881  3.4526
 4600SOL    HW225260   4.487   3.693   3.177  0.2575 -0.0264 -0.6982
 4601SOL     OW25261   3.726   1.366  11.024  0.4199  0.5307 -0.3931
 4601SOL    HW125262   3.647   1.402  10.984 -0.6871  0.3425  1.6231
 4601SOL    HW225263   3.685   1.294  11.073 -0.9772  1.1483 -0.6451
 4602SOL     OW25264   2.891   4.718   0.277  0.3894  0.1669 -0.4339
 4602SOL    HW125265   2.897   4.684   0.187  1.5251 -0.1165 -0.2548
 4602SOL    HW225266   2.914   0.089   0.258  0.7998  0.8672  3.4317
 4603SOL     OW25267   1.805   3.762   9.465  0.2547  1.1292 -0.6388
 4603SOL    HW125268   1.887   3.730   9.502  0.7571 -0.7455 -3.3386
 4603SOL    HW225269   1.758   3.778   9.546 -0.3875 -1.3481 -0.5275
 4604SOL     OW25270   3.179   0.944   2.330 -0.1997  0.2192 -0.0461
 4604SOL    HW125271   3.270   0.953   2.304 -0.4529  0.3976 -0.8708
 4604SOL    HW225272   3.188   0.858   2.372  1.1280 -1.4394 -3.7859
 4605SOL     OW25273   2.842   4.031   8.658 -0.5839  0.6081  0.3650
 4605SOL    HW125274   2.901   4.106   8.659 -2.0615  1.7774 -0.8740
 4605SOL    HW225275   2.765   4.059   8.708 -0.4099  0.4026  0.7524
 4606SOL     OW25276   2.959   0.829   3.496 -0.3151  0.2221 -0.6247
 4606SOL    HW125277   3.014   0.905   3.514  0.7459 -0.8852  0.8078
 4606SOL    HW225278   3.029   0.767   3.479 -1.1018 -1.0007  0.5246
 4607SOL     OW25279   0.615   1.154   8.739  0.2622 -0.6951  0.4221
 4607SOL    HW125280   0.610   1.128   8.831  3.0378  0.5068  0.9270
 4607SOL    HW225281   0.566   1.084   8.695  0.0341 -0.0468 -0.3599
 4608SOL     OW25282   2.034   4.297   3.932  0.3504  0.7075  0.0715
 4608SOL    HW125283   2.015   4.308   3.839  2.4613 -1.3572 -0.6005
 4608SOL    HW225284   2.074   4.210   3.937  1.1906  1.1559  1.3368
 4609SOL     OW25285   0.458   1.347  14.643 -0.0141  0.3958  0.2514
 4609SOL    HW125286   0.528   1.293  14.680 -0.7533  0.7893  2.2275
 4609SOL    HW225287   0.448   1.407  14.717  1.6199  1.8539 -0.7227
 4610SOL     OW25288   4.578   2.532  12.712  0.7001 -0.0301  0.2823
 4610SOL    HW125289   4.537   2.458  12.757  1.9088 -0.3613  0.8544
 4610SOL    HW225290   4.508   2.596  12.700 -0.1799 -1.3478 -1.5619
 4611SOL     OW25291   2.503   0.964   5.820  0.3776  0.2870  0.2655
 4611SOL    HW125292   2.569   0.999   5.761  0.6002  1.9743  1.5069
 4611SOL    HW225293   2.508   1.023   5.896 -1.1679 -2.4876  2.5256
 4612SOL     OW25294   2.510   0.313   2.867  0.1302 -0.4537  0.1089
 4612SOL    HW125295   2.434   0.348   2.822  0.3313 -1.0026 -0.6500
 4612SOL    HW225296   2.547   0.396   2.896 -0.5935 -0.1808  0.2450
 4613SOL     OW25297   3.871   4.698   7.616 -0.1390  0.4043 -0.0374
 4613SOL    HW125298   3.900   4.609   7.638  2.3588  1.6658  1.7028
 4613SOL    HW225299   3.790   4.704   7.667 -1.7056 -0.0033 -2.4545
 4614SOL     OW25300   3.619   4.610   7.063  0.1987 -0.0553  0.1793
 4614SOL    HW125301   3.549   4.553   7.031  0.4415  0.3005 -0.9814
 4614SOL    HW225302   3.668   4.547   7.116 -0.1150  1.2320  2.0106
 4615SOL     OW25303   3.820   3.526  12.730  0.7890 -0.0014 -0.1041
 4615SOL    HW125304   3.828   3.504  12.823  1.5305  0.9964  0.0659
 4615SOL    HW225305   3.757   3.597  12.738 -0.0209 -0.6339 -0.8618
 4616SOL     OW25306   3.959   4.663   3.689 -0.2350  0.6213  0.1145
 4616SOL    HW125307   4.048   4.668   3.724 -1.1829  1.0918  2.4187
 4616SOL    HW225308   3.978   4.577   3.652  1.5640  1.2379 -0.4088
 4617SOL     OW25309   2.695   2.187  12.415  0.2797  0.2532  0.0663
 4617SOL    HW125310   2.661   2.241  12.486  1.0387 -2.7410  2.7284
 4617SOL    HW225311   2.634   2.200  12.341  0.8447 -3.1469 -0.9891
 4618SOL     OW25312   2.303   1.688   4.052 -0.1185  0.5205 -0.0327
 4618SOL    HW125313   2.246   1.722   4.121 -0.6795  0.8079 -0.6330
 4618SOL    HW225314   2.249   1.704   3.974  0.4737  1.9448 -0.1537
 4619SOL     OW25315   0.161   1.901   6.242 -0.2417 -0.1313  0.4348
 4619SOL    HW125316   0.224   1.851   6.190 -1.1442  2.3342 -3.0637
 4619SOL    HW225317   0.103   1.832   6.274 -0.7260  0.5898  1.0977
 4620SOL     OW25318   4.385   1.416   5.469  0.7141 -0.0336 -0.3408
 4620SOL    HW125319   4.374   1.370   5.386 -2.4281 -1.8677  1.0846
 4620SOL    HW225320   4.475   1.449   5.474  0.2489  0.8001  2.8403
 4621SOL     OW25321   3.897   0.637   3.354  0.2334 -0.0929 -0.4253
 4621SOL    HW125322   3.836   0.710   3.339 -1.7726 -1.5145  0.7727
 4621SOL    HW225323   3.844   0.560   3.376 -1.9283  1.6672  0.5616
 4622SOL     OW25324   2.084   3.909  13.782 -0.1819 -0.5439  0.0251
 4622SOL    HW125325   2.163   3.939  13.827 -0.0646 -1.6827  0.5814
 4622SOL    HW225326   2.026   3.981  13.807  0.7278  1.0510 -2.4034
 4623SOL     OW25327   0.826   1.058   0.154  0.1979 -0.2797 -0.2082
 4623SOL    HW125328   0.777   0.977   0.166  0.1968 -0.0894  1.1011
 4623SOL    HW225329   0.892   1.042   0.087  0.4776 -1.0879  0.2675
 4624SOL     OW25330   3.239   1.213   7.020 -0.0206 -0.3086 -0.3599
 4624SOL    HW125331   3.301   1.264   7.073 -0.2462 -2.4201  1.9058
 4624SOL    HW225332   3.246   1.133   7.071  0.0519  0.3180  0.6147
 4625SOL     OW25333   4.540   4.636   2.140 -0.7600  0.3216 -0.7499
 4625SOL    HW125334   4.601   4.644   2.213 -1.4497 -2.3242  0.0900
 4625SOL    HW225335   4.605   4.640   2.069  0.3335 -2.4573  0.1226
 4626SOL     OW25336   0.458   4.537   7.206  0.1393 -0.0943  0.0305
 4626SOL    HW125337   0.474   4.470   7.140  3.7905 -0.2841  1.0880
 4626SOL    HW225338   0.520   4.600   7.170 -0.8381  0.5727 -0.4716
 4627SOL     OW25339   2.218   4.381  16.460 -0.2357  0.3763  0.0755
 4627SOL    HW125340   2.277   4.455  16.476 -0.0167 -0.3434  2.5830
 4627SOL    HW225341   2.256   4.311  16.512 -0.5509  0.0160 -0.1865
 4628SOL     OW25342   1.443   4.014   5.348 -0.3559  0.5927 -0.0833
 4628SOL    HW125343   1.460   4.101   5.383  0.4916  0.8413 -1.1220
 4628SOL    HW225344   1.483   4.025   5.262 -0.2181 -0.6216 -0.1805
 4629SOL     OW25345   2.151   0.277   3.711 -0.0278  0.4737 -0.2152
 4629SOL    HW125346   2.196   0.266   3.628 -0.9460  0.9015 -0.7663
 4629SOL    HW225347   2.231   0.279   3.764 -1.1587 -1.5317  1.5456
 4630SOL     OW25348   0.106   2.293   6.451 -0.1019 -0.0794  0.3630
 4630SOL    HW125349   0.169   2.280   6.523  0.0866  0.2225  0.2520
 4630SOL    HW225350   0.167   2.345   6.398  0.3623 -0.0198  0.9430
 4631SOL     OW25351   3.580   4.144   4.788 -0.1545 -0.0437  0.0813
 4631SOL    HW125352   3.540   4.111   4.708 -0.7619  0.4608  0.1763
 4631SOL    HW225353   3.659   4.090   4.793 -0.8790 -1.3276 -2.6590
 4632SOL     OW25354   4.513   4.658   1.111  0.2521  0.1193  0.5363
 4632SOL    HW125355   4.557   4.716   1.172  2.6911 -1.3219  0.1572
 4632SOL    HW225356   4.514   4.576   1.162 -1.8950  0.1422  0.6242
 4633SOL     OW25357   1.619   0.081   6.135  0.7104 -0.2614 -0.3263
 4633SOL    HW125358   1.608   0.139   6.211 -1.7139  0.1559 -1.0066
 4633SOL    HW225359   1.693   0.024   6.157 -0.5181 -1.3245  1.0031
 4634SOL     OW25360   4.226   3.385   5.781 -0.1888 -0.1883 -0.4528
 4634SOL    HW125361   4.320   3.401   5.781 -0.1453 -0.4455 -1.9869
 4634SOL    HW225362   4.207   3.356   5.870 -2.3282  2.3552 -0.0600
 4635SOL     OW25363   2.396   0.518   9.225  0.1932 -0.3779  0.0104
 4635SOL    HW125364   2.324   0.496   9.284  1.1930 -1.4072  0.8413
 4635SOL    HW225365   2.476   0.497   9.274  0.4838 -0.2648 -0.4125
 4636SOL     OW25366   4.336   4.270  14.833  0.1089 -0.4158  0.6408
 4636SOL    HW125367   4.370   4.321  14.760 -1.1454  1.0179  1.0629
 4636SOL    HW225368   4.322   4.341  14.896 -0.0925 -0.4875  0.6774
 4637SOL     OW25369   1.156   3.718  10.425  0.3964  0.3997 -0.4040
 4637SOL    HW125370   1.192   3.792  10.376 -0.0600 -0.4521 -2.0156
 4637SOL    HW225371   1.197   3.641  10.387 -1.5438 -0.8459  0.0084
 4638SOL     OW25372   4.267   1.672   8.891 -0.1128  0.4912  0.5587
 4638SOL    HW125373   4.189   1.633   8.853  0.5834  1.5225 -1.9614
 4638SOL    HW225374   4.232   1.753   8.928 -0.5309  1.0457 -1.0290
 4639SOL     OW25375   0.310   2.635   2.617 -0.2104  0.5506  0.4310
 4639SOL    HW125376   0.395   2.592   2.621 -0.6604 -0.4204 -0.1882
 4639SOL    HW225377   0.271   2.608   2.534  1.7476  0.3618 -0.4233
 4640SOL     OW25378   0.930   0.472   6.050  0.1921  0.2334  0.5010
 4640SOL    HW125379   0.880   0.427   6.118  0.2203  0.5658  0.7435
 4640SOL    HW225380   0.858   0.492   5.990  0.3453 -1.7673 -0.3528
 4641SOL     OW25381   2.255   3.382  10.847  0.2805  0.4085 -0.2421
 4641SOL    HW125382   2.271   3.334  10.766  1.3984  2.0807 -1.0087
 4641SOL    HW225383   2.294   3.469  10.836 -2.7576  1.9758  1.5319
 4642SOL     OW25384   3.908   2.249   2.869  0.2154  0.8422  0.7248
 4642SOL    HW125385   3.935   2.191   2.798  1.1645  1.4145  0.6243
 4642SOL    HW225386   3.994   2.250   2.910  0.7364  0.8473 -0.3592
 4643SOL     OW25387   2.297   0.470  13.641 -0.2553 -0.2345  0.0804
 4643SOL    HW125388   2.365   0.498  13.580 -1.2447 -0.1261 -0.9710
 4643SOL    HW225389   2.336   0.491  13.726 -1.3201 -2.1058  1.0295
 4644SOL     OW25390   3.931   3.869   7.982 -0.2661 -0.7730 -0.5578
 4644SOL    HW125391   3.911   3.808   8.052  1.2409 -1.6820 -0.9165
 4644SOL    HW225392   4.019   3.895   8.009 -0.3597 -0.3903 -0.6111
 4645SOL     OW25393   2.865   2.342   7.379 -0.0395  0.6525  0.6255
 4645SOL    HW125394   2.862   2.257   7.336 -3.3302  0.9075  0.3167
 4645SOL    HW225395   2.940   2.335   7.439  1.2113  1.3692 -0.8490
 4646SOL     OW25396   2.967   0.387   5.051 -0.2009  0.1675  0.2150
 4646SOL    HW125397   2.955   0.421   4.963 -1.8482  0.3091  0.5064
 4646SOL    HW225398   2.886   0.339   5.066  0.4359  0.1223  3.5976
 4647SOL     OW25399   3.065   2.729   7.149 -0.0676 -0.0283 -0.2370
 4647SOL    HW125400   3.020   2.667   7.207 -0.7003 -0.8222 -1.5963
 4647SOL    HW225401   3.154   2.709   7.178  0.3954  0.0258 -1.6609
 4648SOL     OW25402   0.944   4.349   4.014  0.4039  0.7522 -0.1204
 4648SOL    HW125403   0.978   4.270   4.057 -1.6461  0.3493  0.7302
 4648SOL    HW225404   1.027   4.390   3.990  1.0176  0.1531  0.9772
 4649SOL     OW25405   4.143   3.137   6.802 -0.3497 -0.4762 -0.0220
 4649SOL    HW125406   4.193   3.128   6.883  1.1943 -0.2290 -0.9578
 4649SOL    HW225407   4.180   3.222   6.779  0.2644 -0.9180 -0.6508
 4650SOL     OW25408   3.237   1.674  16.281 -0.4993  0.6355  0.3143
 4650SOL    HW125409   3.239   1.579  16.267  0.7477  0.7311 -0.1914
 4650SOL    HW225410   3.245   1.676  16.376 -1.3383 -1.2589  0.4271
 4651SOL     OW25411   0.755   3.657   4.100 -0.5868  0.5346  0.0049
 4651SOL    HW125412   0.691   3.629   4.166 -0.4816 -2.2253 -1.0511
 4651SOL    HW225413   0.692   3.673   4.029 -1.2904 -0.9336  0.2995
 4652SOL     OW25414   1.990   2.074   0.445  0.2202  0.0883 -0.3522
 4652SOL    HW125415   1.998   2.022   0.365  1.5651  1.2383 -0.9719
 4652SOL    HW225416   1.976   2.006   0.510 -2.8386  1.0673  0.0112
 4653SOL     OW25417   2.050   3.705   0.734  0.0286 -0.5319 -0.3650
 4653SOL    HW125418   2.132   3.706   0.684  0.0867  1.6453 -0.2509
 4653SOL    HW225419   2.037   3.798   0.752 -0.5203 -0.5707 -0.5618
 4654SOL     OW25420   1.104   2.410   9.088 -0.0815  0.0245  0.1083
 4654SOL    HW125421   1.035   2.465   9.125 -0.8378 -0.0059 -1.2502
 4654SOL    HW225422   1.179   2.467   9.101 -1.5324  2.1898 -1.1296
 4655SOL     OW25423   0.923   2.129   7.901 -0.1259  0.3814 -0.2306
 4655SOL    HW125424   0.972   2.079   7.836  1.5514  0.6062  0.8697
 4655SOL    HW225425   0.993   2.167   7.953 -0.9844  0.2165  1.0359
 4656SOL     OW25426   0.685   4.625   2.808 -0.5078 -0.0917  0.6884
 4656SOL    HW125427   0.628   4.661   2.740  1.1360 -1.6969 -1.5138
 4656SOL    HW225428   0.767   4.627   2.758 -0.3634 -0.8068  0.9083
 4657SOL     OW25429   4.054   1.854   8.024 -0.1704 -0.0698  0.0626
 4657SOL    HW125430   4.002   1.932   8.038  0.4373  0.0355  1.7899
 4657SOL    HW225431   3.981   1.792   8.024 -0.4759  0.2982 -0.9224
 4658SOL     OW25432   4.406   4.537   3.845 -0.2016 -0.2453 -0.0306
 4658SOL    HW125433   4.393   4.517   3.938 -2.9582 -1.7029 -0.7122
 4658SOL    HW225434   4.341   4.606   3.830  0.1059 -0.6581 -3.1947
 4659SOL     OW25435   0.254   4.202   2.746  0.1675  0.4150 -0.2224
 4659SOL    HW125436   0.345   4.179   2.764 -0.3272 -0.7713  0.7392
 4659SOL    HW225437   0.232   4.276   2.804 -0.8558  0.9902 -1.3420
 4660SOL     OW25438   0.880   3.032   3.713  0.0043 -0.3564  0.4373
 4660SOL    HW125439   0.926   3.032   3.797  2.2402  3.0711 -0.8228
 4660SOL    HW225440   0.850   3.123   3.716 -1.4859 -0.8286  0.2631
 4661SOL     OW25441   4.067   2.932   8.348 -0.0981  0.0600  0.1663
 4661SOL    HW125442   4.126   2.857   8.348  2.3179  1.9945 -1.6206
 4661SOL    HW225443   4.054   2.943   8.254 -1.3384  0.5925  0.3984
 4662SOL     OW25444   4.027   2.550   2.727  0.0480  0.2689  0.3134
 4662SOL    HW125445   3.935   2.540   2.702 -0.3925  0.5871  1.8048
 4662SOL    HW225446   4.031   2.486   2.799 -0.5499  2.1113  1.9709
 4663SOL     OW25447   1.025   1.389   3.716 -0.7457  0.7163  0.1443
 4663SOL    HW125448   1.114   1.422   3.729 -0.0522 -1.3497  0.6693
 4663SOL    HW225449   1.036   1.338   3.636  0.6107  2.7365 -0.9747
 4664SOL     OW25450   4.148   0.126   2.479 -0.0051  1.0669 -0.4603
 4664SOL    HW125451   4.136   0.080   2.562 -0.5047 -1.8705 -2.1732
 4664SOL    HW225452   4.191   0.059   2.425 -1.2088 -0.5001  0.5313
 4665SOL     OW25453   0.443   0.242   8.811 -0.3203 -0.5564 -0.0526
 4665SOL    HW125454   0.369   0.290   8.848 -0.0710 -0.8126  0.7820
 4665SOL    HW225455   0.459   0.187   8.888  1.0696 -2.8135 -1.9197
 4666SOL     OW25456   3.354   2.798   7.276  0.1635 -0.0467  0.4576
 4666SOL    HW125457   3.309   2.879   7.302 -0.5854  0.3299 -2.0461
 4666SOL    HW225458   3.437   2.838   7.251  0.9825 -2.3760 -0.5053
 4667SOL     OW25459   2.965   3.967   6.911  0.9570 -0.1671  0.5437
 4667SOL    HW125460   2.944   3.903   6.843 -0.3812 -0.3658  1.1545
 4667SOL    HW225461   2.994   3.912   6.984 -1.3205 -0.9804  0.8380
 4668SOL     OW25462   1.801   1.354  12.293 -1.0200  0.3416 -0.5510
 4668SOL    HW125463   1.888   1.389  12.277 -1.2101 -0.8028 -4.0647
 4668SOL    HW225464   1.820   1.285  12.356  0.4309  0.4353 -0.8823
 4669SOL     OW25465   0.914   2.606   8.325  0.4705  0.3563 -0.9691
 4669SOL    HW125466   0.996   2.602   8.275  0.9502 -0.5150 -0.1304
 4669SOL    HW225467   0.928   2.547   8.400 -1.7960  0.3911 -0.5343
 4670SOL     OW25468   2.739   1.779   8.934  0.2686  0.3185 -0.0879
 4670SOL    HW125469   2.720   1.688   8.955 -1.3742  0.8834  0.8459
 4670SOL    HW225470   2.691   1.828   9.001  1.9118  0.5241  0.9357
 4671SOL     OW25471   4.652   0.693   2.972 -0.9499 -0.0084 -0.5437
 4671SOL    HW125472   4.686   0.670   3.058  0.2265 -2.4415 -1.6522
 4671SOL    HW225473   4.650   0.611   2.922  1.0849  0.7326 -1.8126
 4672SOL     OW25474   4.167   3.987   9.283  0.3805 -0.1235 -0.0974
 4672SOL    HW125475   4.138   4.077   9.273  1.0735  0.2620  1.4074
 4672SOL    HW225476   4.130   3.970   9.369  0.0729 -1.6434 -0.5384
 4673SOL     OW25477   0.514   3.679   9.577 -0.3059  0.4444 -0.7271
 4673SOL    HW125478   0.483   3.697   9.489 -1.4064  0.8915 -0.2460
 4673SOL    HW225479   0.523   3.771   9.602  0.3026  0.7656 -2.1338
 4674SOL     OW25480   2.659   2.626   4.443  0.0287  0.0449 -0.2677
 4674SOL    HW125481   2.648   2.539   4.404  0.3456  0.0624 -0.3971
 4674SOL    HW225482   2.604   2.677   4.383 -2.1593 -2.1398 -0.1249
 4675SOL     OW25483   0.051   3.767   5.867 -0.5856  0.1472  0.5343
 4675SOL    HW125484   0.068   3.698   5.802 -0.7241 -0.2210  0.8893
 4675SOL    HW225485   4.690   3.747   5.914  0.0153 -2.3318  0.4990
 4676SOL     OW25486   0.102   0.103   6.722 -0.7321 -0.3664 -0.2227
 4676SOL    HW125487   0.159   0.169   6.761 -2.3289 -0.6771  2.6628
 4676SOL    HW225488   0.016   0.121   6.761 -0.0481  1.1585  0.5784
 4677SOL     OW25489   1.334   1.078  17.615 -0.9411 -0.2670  0.5611
 4677SOL    HW125490   1.422   1.063  17.581 -1.8898 -0.2431 -1.9271
 4677SOL    HW225491   1.288   1.098  17.533  1.4621  0.0649 -0.7008
 4678SOL     OW25492   1.284   3.296  10.913  0.1726 -0.2766  0.1365
 4678SOL    HW125493   1.231   3.219  10.894 -0.7003  0.2506  0.4377
 4678SOL    HW225494   1.284   3.298  11.008 -2.9537 -0.2337  0.1073
 4679SOL     OW25495   2.823   1.762  16.421 -0.2004 -0.2546 -0.2719
 4679SOL    HW125496   2.836   1.837  16.479  0.6803 -1.2150  0.7984
 4679SOL    HW225497   2.903   1.772  16.369 -2.2910  1.2617 -3.1645
 4680SOL     OW25498   1.726   0.953   4.192 -0.2478  0.0698 -0.1701
 4680SOL    HW125499   1.737   0.872   4.142 -0.3001  0.6816 -1.1685
 4680SOL    HW225500   1.667   1.001   4.135  1.6850  2.8322  0.1729
 4681SOL     OW25501   3.467   0.850   0.633 -0.5981  0.1796 -0.5242
 4681SOL    HW125502   3.387   0.897   0.609 -0.0439  1.6511  0.4878
 4681SOL    HW225503   3.431   0.783   0.691  0.1718  0.2599  0.0423
 4682SOL     OW25504   0.389   1.221   7.841  0.0392  0.1929  0.1436
 4682SOL    HW125505   0.483   1.206   7.846  0.2375  0.8189 -1.6640
 4682SOL    HW225506   0.354   1.140   7.804 -1.2111  0.0187  1.7048
 4683SOL     OW25507   1.363   2.108   7.051 -0.3902  0.2516 -0.6303
 4683SOL    HW125508   1.370   2.186   6.994 -0.3478  1.0668  0.4902
 4683SOL    HW225509   1.318   2.139   7.130  0.7224 -0.2041  0.1785
 4684SOL     OW25510   4.700   1.728  13.161 -0.2743  0.0790  0.3593
 4684SOL    HW125511   0.066   1.744  13.200  0.1151 -0.1443 -0.4107
 4684SOL    HW225512   0.002   1.677  13.083 -1.4316 -0.9042  0.6786
 4685SOL     OW25513   0.525   1.451  12.072  0.2142  0.2349 -0.2265
 4685SOL    HW125514   0.483   1.473  12.155 -0.4271 -3.5548  0.4466
 4685SOL    HW225515   0.609   1.489  12.096 -0.8460  2.2626  0.3000
 4686SOL     OW25516   1.496   0.649   4.175  0.6220 -0.0333 -0.3984
 4686SOL    HW125517   1.496   0.693   4.091 -0.2390  2.7883  1.0986
 4686SOL    HW225518   1.541   0.570   4.145 -0.9379 -1.1065  0.1086
 4687SOL     OW25519   2.402   2.174   4.589  0.2671 -0.4563 -0.0355
 4687SOL    HW125520   2.391   2.081   4.612 -0.6467  0.4346  3.0830
 4687SOL    HW225521   2.342   2.225   4.643 -0.3964 -1.1859 -0.0880
 4688SOL     OW25522   1.167   0.574   2.478 -0.2358  0.4166  0.1592
 4688SOL    HW125523   1.099   0.557   2.413 -0.4357  0.4472  0.3618
 4688SOL    HW225524   1.167   0.497   2.534 -4.1178  1.3271  1.4046
 4689SOL     OW25525   1.462   3.143   2.101 -0.1544 -0.4690  0.2387
 4689SOL    HW125526   1.516   3.093   2.041  0.4665  3.5572 -2.6084
 4689SOL    HW225527   1.383   3.162   2.050  0.4389 -1.2393 -0.9589
 4690SOL     OW25528   2.379   2.398   3.616  0.0121 -0.1681  0.7228
 4690SOL    HW125529   2.363   2.439   3.531  2.4410 -0.0145  0.3383
 4690SOL    HW225530   2.338   2.312   3.605  1.6028 -0.4441 -2.6678
 4691SOL     OW25531   1.009   4.242  12.880 -0.1160  0.1756  0.7347
 4691SOL    HW125532   1.003   4.284  12.966 -1.8200 -0.9962  1.2030
 4691SOL    HW225533   0.967   4.308  12.826 -0.8007 -0.9459 -0.1168
 4692SOL     OW25534   3.802   0.583   7.880 -0.2497  0.1909  0.2440
 4692SOL    HW125535   3.836   0.574   7.968 -2.9375 -0.8055  1.1912
 4692SOL    HW225536   3.879   0.591   7.824 -1.0447  2.9970 -0.4579
 4693SOL     OW25537   0.716   3.191   2.400  0.1203  0.0632 -0.8906
 4693SOL    HW125538   0.763   3.134   2.340 -1.8076 -2.1930 -0.2552
 4693SOL    HW225539   0.664   3.130   2.452 -0.3316 -0.8618 -2.4297
 4694SOL     OW25540   3.311   0.483   7.395 -0.4962  0.3645 -0.4520
 4694SOL    HW125541   3.334   0.412   7.335 -2.3343  1.1280 -2.0523
 4694SOL    HW225542   3.354   0.444   7.471  0.0134  1.4163 -0.2041
 4695SOL     OW25543   2.123   2.552   5.242  0.2724 -0.2384  0.3183
 4695SOL    HW125544   2.065   2.626   5.226  0.1273 -0.8302 -1.8937
 4695SOL    HW225545   2.199   2.578   5.190 -0.0465 -0.1629 -0.1173
 4696SOL     OW25546   2.619   3.076   2.438 -0.2963  0.1067  0.1305
 4696SOL    HW125547   2.542   3.062   2.492  0.9454 -0.8984  1.6242
 4696SOL    HW225548   2.592   3.143   2.375 -0.8975  0.6502  0.9695
 4697SOL     OW25549   2.033   4.470   8.298 -0.0998  0.4490  0.2390
 4697SOL    HW125550   1.977   4.456   8.374 -0.9750  1.9141 -0.1482
 4697SOL    HW225551   2.014   4.554   8.255 -0.3322 -1.4337 -3.3684
 4698SOL     OW25552   3.626   1.780   0.195  0.1435  0.5997  0.7984
 4698SOL    HW125553   3.577   1.863   0.192 -2.1869 -0.7630  1.4359
 4698SOL    HW225554   3.647   1.774   0.288 -0.8049 -0.8051  0.9030
 4699SOL     OW25555   1.990   2.054   3.546  0.1360 -0.1278 -0.0673
 4699SOL    HW125556   1.937   2.082   3.621  1.0931  2.5534 -0.3663
 4699SOL    HW225557   1.932   2.054   3.470  0.6565 -1.4036 -0.4628
 4700SOL     OW25558   1.667   2.590   2.816  0.2310 -0.3056  0.2132
 4700SOL    HW125559   1.575   2.612   2.801  1.3188  3.2114 -1.5139
 4700SOL    HW225560   1.678   2.642   2.896 -2.1430 -0.4474  0.6205
 4701SOL     OW25561   4.067   4.448   3.528 -0.3256  0.0130 -1.0592
 4701SOL    HW125562   4.053   4.507   3.455 -2.8930 -0.4730 -0.9605
 4701SOL    HW225563   3.986   4.398   3.514  0.4856 -2.2065  2.0665
 4702SOL     OW25564   2.966   3.919  14.831  0.2117 -0.1214  0.0147
 4702SOL    HW125565   2.875   3.943  14.847  0.3034  0.3999 -0.2735
 4702SOL    HW225566   2.955   3.844  14.772 -1.2565 -1.1622  1.5927
 4703SOL     OW25567   4.322   0.809   5.530  0.1656 -0.0842  0.2627
 4703SOL    HW125568   4.388   0.804   5.599  1.4486  0.6449 -0.9261
 4703SOL    HW225569   4.265   0.735   5.550  0.5093 -1.1448 -2.6762
 4704SOL     OW25570   2.903   1.161   0.011  0.1552  0.2962  0.2703
 4704SOL    HW125571   2.891   1.246  17.651  1.0096 -0.0212 -0.5994
 4704SOL    HW225572   2.990   1.134  17.664 -0.5236  1.5462 -2.8351
 4705SOL     OW25573   4.400   4.109   9.508 -0.6485  0.1685  0.1633
 4705SOL    HW125574   4.476   4.112   9.450 -0.2712  0.1491  0.6576
 4705SOL    HW225575   4.330   4.097   9.444 -1.7526  0.7529  1.2701
 4706SOL     OW25576   2.919   4.283   7.068  0.6341 -0.2119 -0.2819
 4706SOL    HW125577   2.969   4.233   7.003 -1.2844 -1.5316 -0.7474
 4706SOL    HW225578   2.855   4.318   7.006 -1.3713 -1.3539  1.1486
 4707SOL     OW25579   4.444   4.128  12.767 -0.1883  0.0493  0.3142
 4707SOL    HW125580   4.411   4.151  12.680 -0.5746 -0.6312  0.2818
 4707SOL    HW225581   4.539   4.136  12.762 -0.1712  0.0684  0.6308
 4708SOL     OW25582   1.808   1.781   5.934 -0.2919  0.7304 -0.2754
 4708SOL    HW125583   1.719   1.778   5.897  0.6411 -2.9687 -2.2418
 4708SOL    HW225584   1.791   1.782   6.029  0.1186 -1.4182 -0.1728
 4709SOL     OW25585   1.159   1.044   7.931  0.4879  0.1783 -0.3749
 4709SOL    HW125586   1.135   1.033   8.023 -1.6058  0.5335 -0.8738
 4709SOL    HW225587   1.116   1.128   7.914  0.5982  0.6185  1.5122
 4710SOL     OW25588   4.294   4.632   4.989 -0.5635 -0.2418 -0.2620
 4710SOL    HW125589   4.328   0.001   4.994 -0.0712 -0.5371  1.7346
 4710SOL    HW225590   4.379   4.591   4.972  0.3104  2.6353 -2.9067
 4711SOL     OW25591   4.347   3.465   2.258 -0.5264  0.1866 -0.0611
 4711SOL    HW125592   4.263   3.420   2.262 -1.3313  1.4385 -2.7352
 4711SOL    HW225593   4.385   3.445   2.344 -0.3557 -0.3452 -0.2619
 4712SOL     OW25594   1.013   1.045   2.634 -0.4009 -0.1617 -0.1018
 4712SOL    HW125595   1.039   1.069   2.546  1.0760 -1.9561 -0.1521
 4712SOL    HW225596   1.044   0.955   2.645 -1.0197 -0.6410 -2.3482
 4713SOL     OW25597   0.896   2.898   0.465  0.2104 -0.0659  0.0623
 4713SOL    HW125598   0.870   2.874   0.554  0.4133 -2.2001 -0.4710
 4713SOL    HW225599   0.817   2.891   0.412 -0.5409  0.1247  1.1558
 4714SOL     OW25600   3.857   3.191  14.582  0.3387  0.1579  0.1658
 4714SOL    HW125601   3.809   3.272  14.568 -1.1793 -0.6482  0.7096
 4714SOL    HW225602   3.915   3.223  14.651  1.1599 -2.4940  0.7278
 4715SOL     OW25603   0.323   2.552   8.312  0.1169 -0.2420  0.2201
 4715SOL    HW125604   0.368   2.506   8.383  3.6114  1.3484 -0.9469
 4715SOL    HW225605   0.273   2.473   8.291  0.6053 -0.3672 -0.4798
 4716SOL     OW25606   1.893   3.641   5.847 -0.0242 -0.4652  0.2532
 4716SOL    HW125607   1.814   3.679   5.806 -1.7585 -0.0893  3.8961
 4716SOL    HW225608   1.855   3.590   5.918  0.0831 -1.3189 -0.3033
 4717SOL     OW25609   1.083   1.510   5.435 -0.3649 -0.0416  0.0359
 4717SOL    HW125610   1.138   1.588   5.438 -1.4216  0.6851  0.1036
 4717SOL    HW225611   1.023   1.525   5.507  0.0875  2.4473 -0.0944
 4718SOL     OW25612   0.873   3.801   0.160 -0.2993  0.1338  0.0224
 4718SOL    HW125613   0.815   3.860   0.207  1.1653  1.4175  0.2042
 4718SOL    HW225614   0.907   3.744   0.229  2.3730  0.5930 -0.9473
 4719SOL     OW25615   2.415   2.336   5.777  0.0634 -0.5822  0.0045
 4719SOL    HW125616   2.492   2.337   5.834 -0.8136 -1.2295  1.2080
 4719SOL    HW225617   2.437   2.409   5.719  0.0483  0.5775  1.4375
 4720SOL     OW25618   1.645   1.056   4.898  0.0099  0.6013  0.2739
 4720SOL    HW125619   1.640   1.042   4.804 -1.3808 -1.0128  0.5648
 4720SOL    HW225620   1.621   0.968   4.929  0.7578 -0.0736 -1.0943
 4721SOL     OW25621   2.780   2.262   6.711 -0.3757  0.1687  0.6521
 4721SOL    HW125622   2.765   2.335   6.652  0.3094 -0.1134  0.1311
 4721SOL    HW225623   2.798   2.304   6.795  0.8076  1.5774 -0.3222
 4722SOL     OW25624   2.651   2.242   7.638 -0.6580  0.4100  0.0729
 4722SOL    HW125625   2.744   2.262   7.631 -0.6502  0.0816 -0.7062
 4722SOL    HW225626   2.643   2.149   7.619  0.2080  0.2156  0.6885
 4723SOL     OW25627   3.763   0.427  11.318 -0.0412  0.3841 -0.0339
 4723SOL    HW125628   3.760   0.488  11.392 -0.7481 -0.1591  0.3957
 4723SOL    HW225629   3.755   0.344  11.366 -0.8669  1.0512  0.9960
 4724SOL     OW25630   4.424   3.234  14.613  0.8858  0.7058 -0.0784
 4724SOL    HW125631   4.421   3.191  14.528  1.4336 -0.8826  0.6974
 4724SOL    HW225632   4.429   3.158  14.671  0.9455 -0.2758 -1.3717
 4725SOL     OW25633   1.118   2.513   1.218  0.6775  0.2087  0.4950
 4725SOL    HW125634   1.105   2.577   1.288  1.5986  2.5447 -1.4468
 4725SOL    HW225635   1.073   2.565   1.151 -0.9111 -0.8981  0.7162
 4726SOL     OW25636   0.363   1.330   0.919  0.2309  0.2868  0.4181
 4726SOL    HW125637   0.340   1.382   0.997 -0.8333  1.4922 -0.7061
 4726SOL    HW225638   0.420   1.391   0.873 -1.6018  1.0608 -0.8270
 4727SOL     OW25639   3.956   3.506   4.867  0.2537 -0.0728  0.2153
 4727SOL    HW125640   3.894   3.578   4.861  0.3802 -0.0814 -1.2634
 4727SOL    HW225641   3.948   3.484   4.960  0.2178  0.0449  0.2401
 4728SOL     OW25642   0.739   0.451  16.261  0.2268  0.5506  0.0241
 4728SOL    HW125643   0.829   0.470  16.287  0.1122 -1.1597  1.6608
 4728SOL    HW225644   0.711   0.399  16.336 -1.7770  1.0521 -0.3857
 4729SOL     OW25645   2.632   1.756   6.629  0.0000  0.0079  0.3479
 4729SOL    HW125646   2.573   1.829   6.611 -0.4752 -0.0881  1.5053
 4729SOL    HW225647   2.661   1.732   6.540  1.2041  0.8072  0.5280
 4730SOL     OW25648   0.197   1.549  10.815 -0.8974  0.0103  0.9619
 4730SOL    HW125649   0.217   1.496  10.738 -0.7371  2.3409 -0.5989
 4730SOL    HW225650   0.246   1.501  10.882  1.2214 -0.1730 -0.7280
 4731SOL     OW25651   3.204   3.686   8.636  0.4516 -0.5224 -0.2044
 4731SOL    HW125652   3.114   3.716   8.644  0.8596  1.0592 -1.6807
 4731SOL    HW225653   3.231   3.715   8.549  1.0597  0.3170  0.2688
 4732SOL     OW25654   0.853   4.005  14.299 -0.1746 -0.1451 -0.2256
 4732SOL    HW125655   0.799   3.927  14.287 -0.4564 -0.0272  0.2769
 4732SOL    HW225656   0.810   4.071  14.245  3.6110  0.8238 -2.0593
 4733SOL     OW25657   4.536   3.595  12.283  1.2614  0.4432  0.2808
 4733SOL    HW125658   4.580   3.546  12.353 -2.3643 -0.6671  1.7843
 4733SOL    HW225659   4.476   3.525  12.256 -0.1142  1.7957 -0.1404
 4734SOL     OW25660   4.161   0.605   4.270 -0.2871  0.7344 -0.7336
 4734SOL    HW125661   4.102   0.649   4.209 -4.1685 -2.7234  0.5462
 4734SOL    HW225662   4.227   0.674   4.274  1.0159 -0.6079  1.0063
 4735SOL     OW25663   3.248   1.120  17.238  0.3991 -0.4047  0.4678
 4735SOL    HW125664   3.265   1.214  17.236  1.8756 -0.7340 -2.0307
 4735SOL    HW225665   3.327   1.086  17.195 -0.2662 -0.6694 -0.5294
 4736SOL     OW25666   3.822   0.635  11.798 -0.3206  0.4136 -0.0982
 4736SOL    HW125667   3.908   0.603  11.769 -0.0796 -0.2058  1.3222
 4736SOL    HW225668   3.790   0.659  11.711  0.8941 -0.6846 -0.8598
 4737SOL     OW25669   1.527   0.009   0.634  0.5798 -0.3590  0.0565
 4737SOL    HW125670   1.549   4.654   0.689  1.7350  1.6194  2.2869
 4737SOL    HW225671   1.496   4.693   0.551  0.5552  0.9856 -0.5237
 4738SOL     OW25672   2.890   3.233   4.690  0.1625 -0.0916 -0.6923
 4738SOL    HW125673   2.941   3.165   4.734 -0.0672  0.2070  0.0300
 4738SOL    HW225674   2.829   3.183   4.635  0.4872 -1.9401  0.6401
 4739SOL     OW25675   1.040   4.249   1.524 -0.2974 -0.1488  0.1787
 4739SOL    HW125676   0.985   4.310   1.572 -1.3585 -1.1373  0.2233
 4739SOL    HW225677   0.971   4.205   1.474 -1.2354 -0.7908  2.0339
 4740SOL     OW25678   2.340   1.373   6.123 -0.2631  0.1456  0.2553
 4740SOL    HW125679   2.346   1.304   6.189 -0.1555 -0.9890 -0.9486
 4740SOL    HW225680   2.272   1.337   6.067  1.4639 -0.6114 -1.3554
 4741SOL     OW25681   0.691   1.971   3.138 -0.1899  0.1979 -0.4091
 4741SOL    HW125682   0.713   1.886   3.099 -0.8486  0.4908 -1.4074
 4741SOL    HW225683   0.660   2.024   3.064 -1.7383 -0.7697 -0.4436
 4742SOL     OW25684   1.394   4.397   3.256 -0.1925  0.1103 -0.3347
 4742SOL    HW125685   1.384   4.342   3.334  0.5794 -1.8513 -1.6191
 4742SOL    HW225686   1.411   4.331   3.189  0.7003  1.6151 -1.5600
 4743SOL     OW25687   3.281   3.594   2.494  0.0739  0.3334  0.2515
 4743SOL    HW125688   3.217   3.664   2.489  0.0701  0.2624 -0.5756
 4743SOL    HW225689   3.257   3.550   2.413 -0.5733 -0.0759  0.6706
 4744SOL     OW25690   0.861   4.224   3.490  0.1477 -0.4393  0.5361
 4744SOL    HW125691   0.914   4.240   3.568 -1.1570  0.8925  1.1507
 4744SOL    HW225692   0.825   4.312   3.475  1.9705  0.0677 -0.8824
 4745SOL     OW25693   3.519   3.413  11.053 -0.4428  0.2929 -0.3858
 4745SOL    HW125694   3.567   3.496  11.052  0.2133 -0.0800  0.0362
 4745SOL    HW225695   3.496   3.411  11.146  0.6910 -0.0905 -0.1117
 4746SOL     OW25696   2.626   4.534   7.021  0.1617 -0.3057  0.3655
 4746SOL    HW125697   2.664   4.475   6.956 -0.9333 -0.7904  0.1630
 4746SOL    HW225698   2.546   4.489   7.049 -0.2214  1.2246  1.7574
 4747SOL     OW25699   3.765   3.035   5.366  0.0128  0.2612  0.5019
 4747SOL    HW125700   3.691   2.976   5.351 -0.0449  0.5997 -0.5682
 4747SOL    HW225701   3.748   3.065   5.455 -1.0555 -2.2144  1.1375
 4748SOL     OW25702   4.319   1.676  10.406 -0.9268  0.5870  0.1547
 4748SOL    HW125703   4.237   1.721  10.428 -0.9595  1.3496 -1.4766
 4748SOL    HW225704   4.387   1.730  10.446 -1.2411  0.4303  0.8897
 4749SOL     OW25705   3.341   1.815  16.914  0.3874 -0.0242 -0.1659
 4749SOL    HW125706   3.371   1.724  16.910 -0.0095 -0.1257 -0.8531
 4749SOL    HW225707   3.339   1.838  17.007 -4.0911 -2.0855  0.2276
 4750SOL     OW25708   4.302   2.143   4.748  0.3636  0.0133 -0.1316
 4750SOL    HW125709   4.361   2.210   4.782  1.8405 -1.2624 -0.1789
 4750SOL    HW225710   4.222   2.196   4.751  0.0091 -0.3832 -2.1000
 4751SOL     OW25711   2.386   1.616   2.409 -0.2688 -0.0257 -0.2485
 4751SOL    HW125712   2.452   1.614   2.340 -1.5239  0.9920 -1.5007
 4751SOL    HW225713   2.397   1.698   2.458  1.7511 -1.2218  1.2531
 4752SOL     OW25714   1.154   0.437   4.962 -0.1646 -0.1229  0.0693
 4752SOL    HW125715   1.150   0.407   5.053  0.2865 -0.0266  0.1180
 4752SOL    HW225716   1.111   0.359   4.926 -1.8847  0.9653 -0.2530
 4753SOL     OW25717   1.525   3.494   4.074 -0.4589  0.1086  0.1680
 4753SOL    HW125718   1.596   3.554   4.050 -1.5370  0.9621 -0.9118
 4753SOL    HW225719   1.550   3.485   4.166 -0.4670 -0.1235  0.1471
 4754SOL     OW25720   2.529   3.947   5.892 -0.3678 -0.2292 -0.0755
 4754SOL    HW125721   2.521   4.028   5.842  1.3551  0.1554  0.2812
 4754SOL    HW225722   2.440   3.944   5.927 -0.6690 -3.7189 -1.1836
 4755SOL     OW25723   1.427   2.328  14.335  0.2162 -0.0800 -0.6054
 4755SOL    HW125724   1.457   2.332  14.425 -0.6997 -1.7153 -0.2423
 4755SOL    HW225725   1.424   2.423  14.322  1.0223  0.3396  2.2962
 4756SOL     OW25726   0.046   0.837  17.316 -0.8839 -0.5881 -0.1611
 4756SOL    HW125727   4.672   0.818  17.317 -0.8421 -0.8492 -0.7772
 4756SOL    HW225728   0.064   0.892  17.392  0.5838 -0.8063 -0.3464
 4757SOL     OW25729   3.989   1.021   7.475 -0.3220 -0.4880 -0.3965
 4757SOL    HW125730   4.031   1.060   7.398  0.8763 -1.0686 -0.0382
 4757SOL    HW225731   4.031   0.935   7.478 -0.5958 -0.5962  0.6217
 4758SOL     OW25732   2.802   0.626  13.517 -0.3477 -0.0506 -0.0466
 4758SOL    HW125733   2.883   0.596  13.558 -0.4498  0.7436  0.7565
 4758SOL    HW225734   2.829   0.623  13.426  3.0358 -0.3004  0.9521
 4759SOL     OW25735   1.883   4.005   8.809 -0.2343  0.3844 -0.2647
 4759SOL    HW125736   1.794   3.992   8.775 -0.2554 -0.1559  0.0023
 4759SOL    HW225737   1.907   3.918   8.842 -1.7398  0.0160 -0.1293
 4760SOL     OW25738   1.566   4.128   4.870 -0.1982  0.2670 -0.1365
 4760SOL    HW125739   1.540   4.090   4.786  0.5753 -2.3022  0.8053
 4760SOL    HW225740   1.565   4.048   4.922 -0.6043  1.7173  2.1028
 4761SOL     OW25741   2.253   4.402  15.762 -0.1947  0.5669  0.4940
 4761SOL    HW125742   2.210   4.317  15.754 -1.3114  1.4486 -2.5296
 4761SOL    HW225743   2.172   4.446  15.788  0.1992  2.0015 -0.7088
 4762SOL     OW25744   0.506   2.139   7.888 -0.1692  0.3256  0.2742
 4762SOL    HW125745   0.567   2.103   7.953 -0.7270  2.1512  1.8037
 4762SOL    HW225746   0.556   2.137   7.807  0.7700 -0.5095  0.8669
 4763SOL     OW25747   4.520   2.676  12.041  0.1392  0.6038 -0.2742
 4763SOL    HW125748   4.507   2.655  12.134 -2.1282  0.9845 -0.5089
 4763SOL    HW225749   4.601   2.630  12.019 -0.1659  0.7408 -1.6807
 4764SOL     OW25750   2.499   0.945  12.200  0.0172 -0.4830 -0.0687
 4764SOL    HW125751   2.512   1.005  12.274  3.3805 -0.0983 -0.9660
 4764SOL    HW225752   2.443   0.877  12.237 -0.3685  0.4298  1.0117
 4765SOL     OW25753   2.880   1.014  15.679  0.2020  0.0682 -0.1541
 4765SOL    HW125754   2.925   0.936  15.647 -0.9930 -1.6059  2.2415
 4765SOL    HW225755   2.807   1.031  15.620 -0.0642 -1.5811 -0.3141
 4766SOL     OW25756   0.525   0.029   5.373 -0.0393 -0.3178 -0.1543
 4766SOL    HW125757   0.450   4.716   5.423 -1.1129  0.4925 -1.2387
 4766SOL    HW225758   0.587   0.027   5.446  0.9719 -1.4471 -1.0406
 4767SOL     OW25759   2.177   1.268   4.722  0.3653 -0.1454 -0.2248
 4767SOL    HW125760   2.220   1.248   4.805 -0.4898  3.1735  1.0438
 4767SOL    HW225761   2.200   1.358   4.701 -0.4646  0.5642  1.8879
 4768SOL     OW25762   3.891   1.973  15.801  0.2206  0.3540 -0.6682
 4768SOL    HW125763   3.978   1.937  15.781  0.2592 -0.3750  0.7589
 4768SOL    HW225764   3.893   2.053  15.748  2.7448 -0.3634 -1.7033
 4769SOL     OW25765   2.666   2.289  14.291 -0.1105  0.5070 -0.4454
 4769SOL    HW125766   2.595   2.276  14.354 -0.4838  0.3564 -0.8914
 4769SOL    HW225767   2.616   2.267  14.212  0.2529 -1.2738 -0.1843
 4770SOL     OW25768   0.951   0.055   8.245 -0.1999 -0.4230 -0.2544
 4770SOL    HW125769   0.900   0.108   8.307  0.5234  1.0896 -0.9572
 4770SOL    HW225770   1.034   0.098   8.267 -1.5063  1.6789  0.6091
 4771SOL     OW25771   3.090   2.555  14.336  0.2437 -0.4711 -0.1195
 4771SOL    HW125772   3.141   2.549  14.416 -2.2600 -1.5940  1.3922
 4771SOL    HW225773   3.011   2.513  14.368  0.1282 -0.7183 -0.7241
 4772SOL     OW25774   3.039   1.862   3.123 -0.0769  0.0095  0.6569
 4772SOL    HW125775   3.009   1.943   3.165  0.0428  0.7253 -0.6471
 4772SOL    HW225776   3.083   1.900   3.046 -1.5184 -1.2752 -0.7778
 4773SOL     OW25777   0.223   3.803   7.619 -0.4840  0.3252 -0.0311
 4773SOL    HW125778   0.253   3.796   7.529  1.5054 -1.0718  0.7294
 4773SOL    HW225779   0.293   3.760   7.668 -1.5644 -0.6022  0.7073
 4774SOL     OW25780   3.172   4.478   8.842  0.0070  0.4325 -0.3497
 4774SOL    HW125781   3.207   4.493   8.754 -2.4619 -1.9305 -1.7306
 4774SOL    HW225782   3.185   4.383   8.852  0.1201  0.4345 -0.4703
 4775SOL     OW25783   2.865   2.418  14.428 -0.4230 -0.0309  0.1819
 4775SOL    HW125784   2.815   2.370  14.362  0.3279  2.3464 -2.0907
 4775SOL    HW225785   2.813   2.395  14.505 -1.5951  0.5220 -0.4495
 4776SOL     OW25786   1.498   2.273   9.772  0.1769 -0.2352  0.0450
 4776SOL    HW125787   1.531   2.349   9.820  1.4949 -0.4018 -0.5897
 4776SOL    HW225788   1.403   2.288   9.772 -0.1172 -2.0226 -0.2015
 4777SOL     OW25789   4.245   3.468   5.375  0.3414  0.0301  0.4399
 4777SOL    HW125790   4.234   3.499   5.285  2.8225  0.8658  0.4194
 4777SOL    HW225791   4.318   3.526   5.394  0.4742  0.4906 -1.4627
 4778SOL     OW25792   0.894   0.952   5.564  0.2786  0.4814 -0.1465
 4778SOL    HW125793   0.863   0.900   5.638  0.0347 -2.0131 -2.0001
 4778SOL    HW225794   0.826   1.019   5.562  0.0602  0.0985 -4.1487
 4779SOL     OW25795   1.802   3.151   8.877  0.0272 -0.0216 -0.1857
 4779SOL    HW125796   1.745   3.152   8.954 -0.2061  0.3262 -0.3619
 4779SOL    HW225797   1.743   3.193   8.814 -0.2220 -2.9196 -1.8580
 4780SOL     OW25798   1.253   1.795   0.434 -0.3903 -0.2028 -0.5598
 4780SOL    HW125799   1.284   1.868   0.486 -0.4063 -1.2219  0.8976
 4780SOL    HW225800   1.171   1.824   0.393 -1.3466  0.0458  1.5215
 4781SOL     OW25801   1.823   4.207   0.697 -0.0229  0.4416 -0.1149
 4781SOL    HW125802   1.743   4.206   0.646  0.2555 -2.0050 -0.5039
 4781SOL    HW225803   1.883   4.188   0.624 -1.0686  0.2783 -0.9193
 4782SOL     OW25804   4.451   2.291   2.279  0.0822 -0.1785 -0.0940
 4782SOL    HW125805   4.399   2.220   2.315 -0.5772  0.7599  0.7976
 4782SOL    HW225806   4.508   2.243   2.219 -1.3512  0.8205 -2.2587
 4783SOL     OW25807   1.724   1.740  14.254 -0.3666  0.3218 -0.0968
 4783SOL    HW125808   1.789   1.740  14.324 -0.5585  0.7859  0.0811
 4783SOL    HW225809   1.776   1.772  14.180  1.5894  0.2220  1.2098
 4784SOL     OW25810   0.699   4.413   5.358  0.0558 -0.5072 -0.5753
 4784SOL    HW125811   0.709   4.360   5.437  1.0264  1.7112  0.7859
 4784SOL    HW225812   0.664   4.347   5.299  0.9031 -1.4698  0.0115
 4785SOL     OW25813   3.213   4.118  12.643 -0.3736 -0.5120  0.3537
 4785SOL    HW125814   3.140   4.063  12.616 -1.4047  0.6031  0.8451
 4785SOL    HW225815   3.192   4.201  12.601  1.6230  0.2765  0.8891
 4786SOL     OW25816   3.952   1.393   9.219  0.2165 -0.1238  0.1486
 4786SOL    HW125817   4.034   1.346   9.235  0.8507  1.0578  0.4064
 4786SOL    HW225818   3.890   1.328   9.188  0.9296  0.7792 -3.1671
 4787SOL     OW25819   3.308   4.523   1.345 -0.1089 -0.3033  0.5591
 4787SOL    HW125820   3.383   4.542   1.289 -1.2539  0.7137 -0.6425
 4787SOL    HW225821   3.241   4.513   1.276  1.0181  2.6721 -0.9643
 4788SOL     OW25822   0.523   3.824  11.216  0.5907 -0.0452  0.1754
 4788SOL    HW125823   0.473   3.836  11.297  0.3751 -0.4707  0.1006
 4788SOL    HW225824   0.484   3.894  11.164  2.0224 -0.1581 -1.0455
 4789SOL     OW25825   4.073   2.842  16.846  0.5441 -0.6346 -0.3177
 4789SOL    HW125826   4.090   2.843  16.751 -2.4804  1.1892 -0.8408
 4789SOL    HW225827   3.978   2.829  16.847  0.5174 -0.3604  0.5386
 4790SOL     OW25828   0.470   3.019   2.980 -0.0294  0.3433  0.2529
 4790SOL    HW125829   0.553   2.971   2.979 -0.1165  0.1898  0.2855
 4790SOL    HW225830   0.431   3.002   2.894  0.1053 -1.0142  0.4620
 4791SOL     OW25831   3.029   1.835   4.455  0.2297 -0.0071 -0.4247
 4791SOL    HW125832   2.961   1.846   4.522 -0.2614  1.6010 -1.1746
 4791SOL    HW225833   2.973   1.826   4.378  0.4727 -0.2741 -0.5691
 4792SOL     OW25834   3.000   2.689  16.993 -0.7500  0.2143 -0.3387
 4792SOL    HW125835   3.067   2.652  17.051 -0.8807  0.5156  0.0016
 4792SOL    HW225836   3.022   2.636  16.915 -0.6686  0.4699 -0.4892
 4793SOL     OW25837   0.273   0.574  10.770 -0.4114  0.0052  0.1707
 4793SOL    HW125838   0.184   0.540  10.777 -0.9888  1.0370 -2.2303
 4793SOL    HW225839   0.289   0.622  10.851  0.0498  2.7107 -1.5013
 4794SOL     OW25840   3.320   2.991  12.652 -0.3907 -0.0854  0.0584
 4794SOL    HW125841   3.329   3.068  12.595 -0.0491  0.5501  0.9773
 4794SOL    HW225842   3.285   2.925  12.592  0.2747  1.9756 -2.5944
 4795SOL     OW25843   4.445   3.139  15.055 -0.4458 -0.0680 -0.0611
 4795SOL    HW125844   4.458   3.097  14.969 -1.7533  0.1156 -0.3516
 4795SOL    HW225845   4.535   3.157  15.080 -1.1765 -0.0271  2.5133
 4796SOL     OW25846   0.403   1.474   8.534 -0.0152 -0.3242 -0.5063
 4796SOL    HW125847   0.451   1.556   8.525  0.7508 -0.9260 -1.9052
 4796SOL    HW225848   0.388   1.481   8.628  1.6286  4.2047 -0.5422
 4797SOL     OW25849   2.581   0.399   5.268  0.2498 -0.1181  0.2062
 4797SOL    HW125850   2.651   0.339   5.242  0.9291  2.5858 -4.2139
 4797SOL    HW225851   2.510   0.335   5.275 -1.7430  2.3232  2.3598
 4798SOL     OW25852   0.516   2.552   6.404 -0.0597  0.1265  0.2025
 4798SOL    HW125853   0.548   2.627   6.454  0.1601 -0.4652  0.9528
 4798SOL    HW225854   0.594   2.533   6.353 -1.2365  0.0233 -1.5396
 4799SOL     OW25855   3.130   3.764   0.349  0.1847 -0.5478  0.4427
 4799SOL    HW125856   3.113   3.721   0.433  1.0859  0.1079  0.9592
 4799SOL    HW225857   3.170   3.688   0.306 -0.7265 -0.8685  0.1676
 4800SOL     OW25858   3.299   4.662   5.336  0.0191  0.4167 -0.3479
 4800SOL    HW125859   3.204   4.671   5.346  0.1450 -0.1707  1.4601
 4800SOL    HW225860   3.338   4.719   5.402  0.5129  1.8558 -1.8813
 4801SOL     OW25861   3.923   2.300  17.004  0.4356 -0.3858 -0.0488
 4801SOL    HW125862   4.004   2.295  17.055 -0.0967  4.4007  1.3313
 4801SOL    HW225863   3.917   2.206  16.989 -2.7972 -0.0459 -0.9604
 4802SOL     OW25864   4.558   2.924   2.385  0.1401  0.1465  0.5891
 4802SOL    HW125865   4.489   2.979   2.347 -0.7660 -0.7933  0.8814
 4802SOL    HW225866   4.538   2.846   2.334  0.6341  1.8108 -2.1873
 4803SOL     OW25867   1.152   0.620  12.778  0.3414 -0.2935  0.5000
 4803SOL    HW125868   1.173   0.603  12.870  1.8057  0.7242  0.3401
 4803SOL    HW225869   1.205   0.698  12.764 -1.6272  0.8384 -0.7484
 4804SOL     OW25870   2.241   0.295   8.428  0.0925  0.1468 -0.1750
 4804SOL    HW125871   2.263   0.388   8.435 -1.3366  0.3698  1.3698
 4804SOL    HW225872   2.199   0.276   8.512  1.1400 -1.4145 -0.0087
 4805SOL     OW25873   4.701   3.837   1.639  0.3111 -0.6391  0.1045
 4805SOL    HW125874   0.000   3.925   1.606  0.7987  0.1247  2.4059
 4805SOL    HW225875   4.636   3.815   1.572 -0.1801  0.2563  0.2909
 4806SOL     OW25876   1.137   3.587   3.241  0.1599 -0.8231  0.4082
 4806SOL    HW125877   1.149   3.492   3.246  0.2119 -0.7865  0.9684
 4806SOL    HW225878   1.214   3.621   3.287 -0.1262 -1.5653  1.4237
 4807SOL     OW25879   0.900   3.529  15.691  0.3338  0.4613 -0.3953
 4807SOL    HW125880   0.936   3.453  15.644 -3.2138 -0.2650 -1.9261
 4807SOL    HW225881   0.848   3.572  15.623 -1.9231 -2.0453 -0.2729
 4808SOL     OW25882   4.450   3.436   0.958  0.1197 -0.4669  0.0552
 4808SOL    HW125883   4.513   3.454   1.028  0.6284  2.2635 -1.1291
 4808SOL    HW225884   4.463   3.512   0.902  1.7806 -0.9481 -0.2174
 4809SOL     OW25885   4.608   1.953   5.421 -0.0867  0.3020 -0.2626
 4809SOL    HW125886   4.608   1.864   5.385  2.0422  1.1089 -2.2414
 4809SOL    HW225887   4.611   1.941   5.516 -0.2418  0.2055 -0.2692
 4810SOL     OW25888   2.883   2.544   9.909 -0.0792  0.0950  0.6673
 4810SOL    HW125889   2.937   2.493   9.849  1.1279  0.3118  1.5685
 4810SOL    HW225890   2.796   2.545   9.868 -0.4690  1.6240  1.5373
 4811SOL     OW25891   2.061   1.775  13.471 -0.0733  0.0759 -0.4869
 4811SOL    HW125892   2.087   1.865  13.452 -1.7950  0.8012  0.5518
 4811SOL    HW225893   2.023   1.753  13.386 -1.4288 -0.4792  0.2554
 4812SOL     OW25894   2.990   1.823   5.889  0.3254  0.2435  0.2354
 4812SOL    HW125895   3.047   1.756   5.850  1.6219  0.9341  0.9387
 4812SOL    HW225896   2.968   1.781   5.972  0.3597  1.2453  0.7520
 4813SOL     OW25897   1.797   2.684   7.483  0.2665 -0.4044 -0.9648
 4813SOL    HW125898   1.730   2.641   7.430 -1.3453  1.2505 -0.2636
 4813SOL    HW225899   1.754   2.756   7.529  0.8884  0.3635 -1.5991
 4814SOL     OW25900   0.542   2.404   5.218 -0.1159  0.3862 -0.1098
 4814SOL    HW125901   0.516   2.437   5.131 -0.5742  0.2190 -0.0353
 4814SOL    HW225902   0.485   2.455   5.276  0.4582 -0.1828  0.9536
 4815SOL     OW25903   3.269   1.796   5.593 -0.2555  0.2703  0.3340
 4815SOL    HW125904   3.359   1.771   5.571 -0.8210  0.0285 -1.6947
 4815SOL    HW225905   3.285   1.887   5.619  0.2383  0.4198 -0.4871
 4816SOL     OW25906   4.482   3.369   2.475 -0.1224 -0.3375  0.0678
 4816SOL    HW125907   4.437   3.291   2.506 -1.9003  0.4877 -0.4911
 4816SOL    HW225908   4.562   3.329   2.440 -0.6463  1.6513 -3.3893
 4817SOL     OW25909   0.171   4.604  16.736  0.2252  0.0971  0.4086
 4817SOL    HW125910   0.218   4.687  16.728  2.0065 -0.6121  3.6137
 4817SOL    HW225911   0.105   4.612  16.667  0.9380 -2.4129 -0.5593
 4818SOL     OW25912   0.109   1.068   8.492  0.0135 -0.1015  0.1536
 4818SOL    HW125913   0.195   1.104   8.472  0.0731 -0.0265  0.5389
 4818SOL    HW225914   0.093   1.118   8.572  1.3137 -0.8713  0.8900
 4819SOL     OW25915   3.363   0.273   7.199 -0.4433 -0.0655 -0.4500
 4819SOL    HW125916   3.443   0.280   7.147 -0.8692 -0.9517 -1.2201
 4819SOL    HW225917   3.321   0.197   7.158 -2.0813 -0.3849  1.8029
 4820SOL     OW25918   4.611   4.095   3.384 -0.8481 -0.3269  0.2515
 4820SOL    HW125919   4.592   4.151   3.459  2.5764 -0.0733  0.9747
 4820SOL    HW225920   4.682   4.151   3.350  0.1680 -1.8432 -0.1390
 4821SOL     OW25921   0.490   1.381   8.207  0.5149  0.2136  0.0560
 4821SOL    HW125922   0.494   1.337   8.292 -0.0704 -0.4433 -0.2621
 4821SOL    HW225923   0.516   1.472   8.223  4.7145 -0.6633 -1.5664
 4822SOL     OW25924   0.866   0.113   1.115  0.4741 -0.1836 -0.0374
 4822SOL    HW125925   0.907   0.030   1.090  2.7498  0.7005  0.7151
 4822SOL    HW225926   0.773   0.097   1.099  0.8086 -1.3075 -0.9162
 4823SOL     OW25927   0.427   3.758   4.758 -0.3730 -0.0593  0.2362
 4823SOL    HW125928   0.386   3.776   4.842  2.6570  3.7896  0.8873
 4823SOL    HW225929   0.461   3.847   4.745 -0.8181 -0.6200 -4.9613
 4824SOL     OW25930   4.469   1.644   5.043  0.1433  0.6594 -0.0542
 4824SOL    HW125931   4.485   1.687   4.959 -0.9696  1.6709  0.2485
 4824SOL    HW225932   4.441   1.555   5.022 -0.1987  0.9270 -0.7046
 4825SOL     OW25933   3.764   0.536   6.159  0.0956 -0.1321  0.2131
 4825SOL    HW125934   3.700   0.566   6.223 -0.1605  0.8666 -0.4879
 4825SOL    HW225935   3.782   0.445   6.182  1.4210 -0.1525 -0.9405
 4826SOL     OW25936   2.598   3.481   7.987  0.2350  0.3773  0.3293
 4826SOL    HW125937   2.502   3.485   7.990  0.1897  0.3672 -1.3977
 4826SOL    HW225938   2.616   3.400   8.036  0.4184 -0.8936 -1.8546
 4827SOL     OW25939   0.731   2.018   6.197  0.2377  0.0013  0.1548
 4827SOL    HW125940   0.714   1.924   6.196  1.7415 -0.3149  2.5701
 4827SOL    HW225941   0.732   2.036   6.291  0.9371 -2.7865  0.6782
 4828SOL     OW25942   4.435   4.395   8.367 -0.1247  0.7528 -0.4781
 4828SOL    HW125943   4.498   4.446   8.316 -0.7404  0.7795 -1.1965
 4828SOL    HW225944   4.460   4.306   8.342  1.4218  1.1377 -0.3631
 4829SOL     OW25945   4.398   2.814   8.365 -0.0227 -0.0847 -0.3723
 4829SOL    HW125946   4.397   2.841   8.457  1.0440 -0.3653 -0.2754
 4829SOL    HW225947   4.342   2.736   8.358  1.6626 -1.4941  1.7293
 4830SOL     OW25948   2.432   0.119   3.034 -0.3011 -0.0677  0.2733
 4830SOL    HW125949   2.458   0.026   3.035  1.3544  0.3848 -0.0492
 4830SOL    HW225950   2.482   0.154   2.961 -0.7592  0.4502  0.2140
 4831SOL     OW25951   3.702   0.087   3.228 -0.6723 -0.4275  0.0685
 4831SOL    HW125952   3.765   0.158   3.240  2.3426 -2.9880 -0.6274
 4831SOL    HW225953   3.745   0.043   3.154 -0.4548 -2.5258  1.4643
 4832SOL     OW25954   0.438   1.570   3.926 -0.0488 -0.2469  0.3064
 4832SOL    HW125955   0.374   1.622   3.876  1.5511  0.7122 -0.7699
 4832SOL    HW225956   0.440   1.487   3.879 -1.3916  0.7023 -1.4789
 4833SOL     OW25957   1.663   2.770  13.617  0.8427  0.2079  0.1167
 4833SOL    HW125958   1.610   2.697  13.584  1.1982  0.5610 -1.2334
 4833SOL    HW225959   1.667   2.758  13.712  0.8764 -1.2414 -0.0649
 4834SOL     OW25960   2.842   1.255  15.822 -0.0165 -1.1108 -0.0339
 4834SOL    HW125961   2.859   1.182  15.762 -0.4471 -0.7330 -0.6277
 4834SOL    HW225962   2.811   1.216  15.903  1.3016  1.0112  1.4681
 4835SOL     OW25963   1.029   1.504   4.671  0.3269 -0.1554 -0.2674
 4835SOL    HW125964   0.953   1.522   4.616  0.6313  1.0951 -0.2641
 4835SOL    HW225965   1.085   1.479   4.598  1.3447 -1.1466  0.8558
 4836SOL     OW25966   2.194   3.542  13.774  0.4714  0.2326  0.6079
 4836SOL    HW125967   2.155   3.455  13.763  0.2185  0.3572  0.5271
 4836SOL    HW225968   2.180   3.580  13.688 -1.9807 -0.9591  0.4849
 4837SOL     OW25969   0.520   0.875   8.575  0.3425  0.2114 -0.4052
 4837SOL    HW125970   0.470   0.804   8.615 -0.5470  0.8965 -0.2717
 4837SOL    HW225971   0.472   0.936   8.632 -1.4478 -1.9067  0.3311
 4838SOL     OW25972   3.368   0.186   7.797 -0.6755  0.0667  0.6971
 4838SOL    HW125973   3.273   0.182   7.788 -0.6643  0.3817  0.4295
 4838SOL    HW225974   3.380   0.170   7.890 -0.1308  1.3451  0.8369
 4839SOL     OW25975   0.953   1.755  13.012 -0.0687  0.0790 -0.0679
 4839SOL    HW125976   0.898   1.814  12.960 -0.7861 -1.2508 -0.7988
 4839SOL    HW225977   1.037   1.791  12.983  0.5259 -2.9546 -2.0821
 4840SOL     OW25978   0.210   2.682  10.195 -0.7623  0.2362  0.5768
 4840SOL    HW125979   0.280   2.703  10.133 -0.1637  0.1662  1.2344
 4840SOL    HW225980   0.176   2.770  10.207 -1.2934  0.5680 -3.2697
 4841SOL     OW25981   4.700   3.532   4.936  0.1376 -0.2903 -0.5512
 4841SOL    HW125982   0.069   3.561   4.915 -1.2644  2.6772 -2.4562
 4841SOL    HW225983   4.677   3.602   4.998  0.7038 -0.5867 -0.0040
 4842SOL     OW25984   1.613   0.688   0.188  0.3006 -0.2095  0.5182
 4842SOL    HW125985   1.524   0.682   0.221  0.3137 -1.7210  0.2812
 4842SOL    HW225986   1.621   0.781   0.170  2.1188 -0.6223 -0.7919
 4843SOL     OW25987   3.620   2.778   3.117 -0.1708 -0.8247  0.1992
 4843SOL    HW125988   3.569   2.732   3.183  1.5299  0.0679  2.1518
 4843SOL    HW225989   3.558   2.841   3.080  1.4940 -0.2058 -1.5931
 4844SOL     OW25990   1.229   0.832   2.596 -0.0506  0.0241  0.3718
 4844SOL    HW125991   1.194   0.773   2.530  2.2416 -0.3059 -0.5417
 4844SOL    HW225992   1.323   0.817   2.587  0.0054 -0.8709  2.4348
 4845SOL     OW25993   2.256   4.142   0.733  0.1998  0.1316 -0.0608
 4845SOL    HW125994   2.174   4.105   0.701  0.6688 -0.1922 -0.8795
 4845SOL    HW225995   2.257   4.100   0.819 -0.7716  0.6743  0.2160
 4846SOL     OW25996   2.198   2.904   3.885  0.2182 -0.0918 -0.3091
 4846SOL    HW125997   2.165   2.896   3.796 -0.3357  2.5409 -0.3475
 4846SOL    HW225998   2.293   2.908   3.877  0.0363  0.1380 -2.1346
 4847SOL     OW25999   4.432   0.755   4.196  0.3291  0.3614  0.7637
 4847SOL    HW126000   4.457   0.832   4.144 -0.2767 -0.3435 -0.5720
 4847SOL    HW226001   4.414   0.788   4.284 -1.5514 -2.3828  1.3955
 4848SOL     OW26002   3.455   0.100   6.829 -0.6975 -0.5992  0.3085
 4848SOL    HW126003   3.492   0.103   6.740  1.3544 -0.0747  1.1734
 4848SOL    HW226004   3.395   0.025   6.831  1.0767 -2.1033 -1.5308
 4849SOL     OW26005   1.420   4.708   2.039  0.2211  0.2889 -0.3521
 4849SOL    HW126006   1.453   0.035   1.963 -1.6638  2.1481 -0.0178
 4849SOL    HW226007   1.478   0.021   2.108 -0.2862  2.0899 -0.7935
 4850SOL     OW26008   2.964   1.467  17.436  0.0738  0.5272 -0.2670
 4850SOL    HW126009   2.900   1.397  17.422  0.4443  0.2519 -0.5456
 4850SOL    HW226010   2.968   1.460  17.532  3.7429  0.3772 -0.4564
 4851SOL     OW26011   2.205   4.025   5.832 -0.1070 -0.7850 -0.0159
 4851SOL    HW126012   2.117   4.055   5.811  0.3525  0.3094 -0.3540
 4851SOL    HW226013   2.180   3.934   5.851  0.1845 -0.3016  2.5987
 4852SOL     OW26014   3.077   2.798   4.180  0.1115  0.3609 -1.2014
 4852SOL    HW126015   2.993   2.751   4.182 -1.7571  3.7937  0.4597
 4852SOL    HW226016   3.096   2.779   4.272  0.2674 -0.3986 -1.3869
 4853SOL     OW26017   1.584   3.926  13.802  0.0194 -0.3859  0.1045
 4853SOL    HW126018   1.547   3.838  13.799  1.8535 -1.2361  1.9062
 4853SOL    HW226019   1.659   3.901  13.857 -1.2174 -0.2933  1.8470
 4854SOL     OW26020   2.920   1.096   8.494 -0.3136 -0.0677  0.0826
 4854SOL    HW126021   2.869   1.175   8.477 -0.3733  0.0584  0.8732
 4854SOL    HW226022   2.861   1.020   8.501  1.8306 -1.8413 -0.9807
 4855SOL     OW26023   4.661   1.744   6.985 -0.4945  0.3283 -0.0588
 4855SOL    HW126024   4.604   1.806   6.940 -2.2856 -0.6245  0.8814
 4855SOL    HW226025   4.597   1.702   7.044  0.2805 -0.4484  0.2230
 4856SOL     OW26026   0.735   2.986   1.250 -0.2536  0.5011 -0.1517
 4856SOL    HW126027   0.736   3.063   1.193  0.2007  0.3579 -0.3300
 4856SOL    HW226028   0.642   2.963   1.247  0.2228 -1.5240  0.9035
 4857SOL     OW26029   4.143   0.609   5.628  0.1461  0.0928  0.5700
 4857SOL    HW126030   4.085   0.562   5.569 -0.8406  0.2935  1.3868
 4857SOL    HW226031   4.129   0.562   5.710  2.0629  0.2706  1.0189
 4858SOL     OW26032   3.673   3.792  15.395 -0.4559  0.3703 -0.2952
 4858SOL    HW126033   3.609   3.841  15.447  0.4224  1.4221 -0.2021
 4858SOL    HW226034   3.764   3.815  15.412 -1.2234  1.2843  2.5540
 4859SOL     OW26035   3.205   2.362  14.809 -0.2318  0.7121 -0.0526
 4859SOL    HW126036   3.232   2.432  14.867 -0.7864  1.1560 -0.3271
 4859SOL    HW226037   3.270   2.299  14.838 -0.7179  0.5247  0.6117
 4860SOL     OW26038   0.284   1.214   3.098  0.0195 -0.4145 -0.0908
 4860SOL    HW126039   0.307   1.151   3.030 -0.3410 -0.0880 -0.5181
 4860SOL    HW226040   0.188   1.214   3.095  0.0388 -0.4012 -0.6096
 4861SOL     OW26041   0.557   1.515   5.330 -0.0644  0.2304 -0.4381
 4861SOL    HW126042   0.562   1.570   5.409 -1.1807  0.9473 -0.8717
 4861SOL    HW226043   0.650   1.510   5.308 -0.0073  2.1789 -0.6636
 4862SOL     OW26044   2.530   0.655   9.027 -0.1331  0.1811  0.1658
 4862SOL    HW126045   2.617   0.636   9.061  0.4194  1.3326 -0.6269
 4862SOL    HW226046   2.474   0.622   9.098 -2.3912  0.8102 -1.3250
 4863SOL     OW26047   0.834   1.337  15.406 -0.2748 -0.0696  0.0789
 4863SOL    HW126048   0.842   1.273  15.335  1.5220 -0.2112  0.4223
 4863SOL    HW226049   0.795   1.408  15.355 -1.0072  0.0529  0.8063
 4864SOL     OW26050   3.766   2.294   4.230  0.5410  0.1863 -0.2529
 4864SOL    HW126051   3.718   2.376   4.215  0.3738  0.1940  0.3284
 4864SOL    HW226052   3.690   2.236   4.228  0.7428 -0.0746 -0.4022
 4865SOL     OW26053   3.676   0.404   8.276  0.3045  0.1451 -0.0679
 4865SOL    HW126054   3.603   0.387   8.335  0.8874  2.1790  1.2171
 4865SOL    HW226055   3.691   0.315   8.242 -3.0965 -0.8686  0.9946
 4866SOL     OW26056   1.572   1.706   7.736 -0.1480 -0.1814  0.5554
 4866SOL    HW126057   1.637   1.642   7.705 -0.1339 -0.9517  2.1603
 4866SOL    HW226058   1.607   1.722   7.824 -1.1020 -3.4056  1.5427
 4867SOL     OW26059   1.192   4.040   6.049  0.2425 -0.3578 -0.0292
 4867SOL    HW126060   1.286   4.048   6.068  0.6753 -0.9558 -1.8480
 4867SOL    HW226061   1.154   4.033   6.136 -1.5920 -0.5891 -0.8573
 4868SOL     OW26062   4.345   0.134  11.625 -0.0502 -0.1006  0.2404
 4868SOL    HW126063   4.340   0.113  11.532  1.1070  0.4013  0.0571
 4868SOL    HW226064   4.416   0.198  11.620  0.1942 -0.6352 -3.2170
 4869SOL     OW26065   0.231   0.962   3.230 -0.0340  0.2166  0.8695
 4869SOL    HW126066   0.269   1.050   3.234  0.4034  0.0559  0.2530
 4869SOL    HW226067   0.283   0.937   3.154  0.2425 -1.0785  1.4792
 4870SOL     OW26068   4.664   2.872   7.205  0.1061  0.1303  0.4843
 4870SOL    HW126069   0.024   2.819   7.195 -0.0249 -0.2064  1.2309
 4870SOL    HW226070   4.703   2.953   7.239  0.6253  0.3546 -0.6319
 4871SOL     OW26071   1.218   1.570   7.659  0.4905  0.1606 -0.0769
 4871SOL    HW126072   1.182   1.655   7.684  0.8010 -0.4387  2.4158
 4871SOL    HW226073   1.142   1.527   7.621 -1.6526  1.1694  3.0953
 4872SOL     OW26074   1.906   3.344   7.599 -0.4977 -0.4769 -0.6166
 4872SOL    HW126075   1.985   3.357   7.547 -0.3525 -1.5747 -0.6732
 4872SOL    HW226076   1.907   3.254   7.633  2.3281 -0.0853  0.3767
 4873SOL     OW26077   3.756   3.628   6.219 -0.3362 -0.6134  0.3801
 4873SOL    HW126078   3.698   3.595   6.287 -0.7627  1.7668  1.1718
 4873SOL    HW226079   3.712   3.704   6.181  2.8630  1.0414 -0.0199
 4874SOL     OW26080   2.605   4.265   6.362  0.0600  0.0727 -0.4048
 4874SOL    HW126081   2.512   4.285   6.357 -0.3284 -1.5145  0.4053
 4874SOL    HW226082   2.614   4.288   6.455  0.9473 -0.8815 -0.2489
 4875SOL     OW26083   0.812   2.959   1.652  0.1787  0.2028  0.2211
 4875SOL    HW126084   0.825   3.034   1.710 -2.2560  1.6483 -1.0893
 4875SOL    HW226085   0.797   2.885   1.710  2.2098  0.2989  0.8627
 4876SOL     OW26086   2.293   3.241  14.742  0.0767  0.1850 -0.2756
 4876SOL    HW126087   2.306   3.179  14.671  0.9072 -2.7396  2.4633
 4876SOL    HW226088   2.370   3.296  14.729  1.7270 -1.5687  2.1004
 4877SOL     OW26089   2.019   0.436  15.105  0.5146 -0.4429  0.0491
 4877SOL    HW126090   2.106   0.474  15.100 -0.1457  0.9327 -1.0818
 4877SOL    HW226091   2.020   0.396  15.192  1.9768 -0.3932  0.0452
 4878SOL     OW26092   2.007   2.592   6.556 -0.5485 -0.3964 -0.0202
 4878SOL    HW126093   2.084   2.538   6.575 -0.9933 -0.6653  0.9935
 4878SOL    HW226094   1.956   2.570   6.634 -0.9756  1.4773  0.2169
 4879SOL     OW26095   2.316   3.807   0.671 -0.0897 -0.4929 -0.5553
 4879SOL    HW126096   2.336   3.852   0.589 -0.8928 -1.6941 -1.4137
 4879SOL    HW226097   2.352   3.868   0.737  0.7876 -1.0300 -0.5339
 4880SOL     OW26098   4.347   3.257   7.652  0.0841 -0.2624 -0.2244
 4880SOL    HW126099   4.285   3.253   7.579  0.9264  0.0231 -0.9638
 4880SOL    HW226100   4.294   3.321   7.699 -1.6097 -2.7441  1.2312
 4881SOL     OW26101   0.757   0.362   6.480 -0.2325 -0.0906  0.3104
 4881SOL    HW126102   0.688   0.420   6.513  0.7869  0.3123  1.7428
 4881SOL    HW226103   0.824   0.362   6.549 -0.1486  1.8898  0.2384
 4882SOL     OW26104   1.996   3.703   7.974 -0.3448  0.3287 -0.4508
 4882SOL    HW126105   1.957   3.705   8.062  0.8337 -1.7689  0.1162
 4882SOL    HW226106   1.970   3.788   7.939  1.7636  0.9596 -0.5027
 4883SOL     OW26107   3.020   1.602  14.767 -0.0303  0.0123 -0.1574
 4883SOL    HW126108   3.043   1.635  14.681  1.8945 -0.2629  0.2440
 4883SOL    HW226109   2.954   1.539  14.740  1.7483 -0.8572 -2.4004
 4884SOL     OW26110   2.275   4.561  11.369  0.0295  0.9203 -0.2756
 4884SOL    HW126111   2.241   4.485  11.417  0.3646  0.6051 -0.5344
 4884SOL    HW226112   2.368   4.542  11.357 -0.5784 -1.8544 -0.6279
 4885SOL     OW26113   1.438   0.816   4.894 -0.0074  0.0078 -0.0503
 4885SOL    HW126114   1.448   0.819   4.798  3.4618  2.1321  0.3789
 4885SOL    HW226115   1.345   0.798   4.908 -0.0711  0.9481  0.7070
 4886SOL     OW26116   1.620   1.676   9.129  0.5362  0.6160  0.2193
 4886SOL    HW126117   1.610   1.726   9.048  2.9225 -0.5140 -0.7700
 4886SOL    HW226118   1.532   1.650   9.158  0.2045  2.6940  1.0986
 4887SOL     OW26119   2.062   3.245  14.069 -0.5259  0.0896  0.4364
 4887SOL    HW126120   1.970   3.224  14.089 -0.1992 -1.3798  0.4183
 4887SOL    HW226121   2.113   3.226  14.148 -0.0188  0.0944  0.1081
 4888SOL     OW26122   3.168   0.268   7.603  0.7602  0.1213 -0.0190
 4888SOL    HW126123   3.124   0.197   7.650  2.8264 -2.4527 -1.9511
 4888SOL    HW226124   3.220   0.224   7.536  1.7761 -1.1180  1.5886
 4889SOL     OW26125   1.580   0.268   6.339  0.2946 -0.3180 -0.5206
 4889SOL    HW126126   1.510   0.296   6.280 -1.4910 -0.4695  1.5392
 4889SOL    HW226127   1.576   0.342   6.398  0.2493 -2.9989  2.8285
 4890SOL     OW26128   1.692   1.240  13.626  0.2314 -0.0290 -0.1895
 4890SOL    HW126129   1.635   1.239  13.703  0.9985  2.6696  0.4325
 4890SOL    HW226130   1.645   1.302  13.571 -0.7495  1.5339  2.4047
 4891SOL     OW26131   2.852   3.603  10.626 -0.1803 -0.1063 -0.1963
 4891SOL    HW126132   2.892   3.523  10.590 -1.9673 -0.8950 -0.4161
 4891SOL    HW226133   2.809   3.644  10.551  0.8184  1.9314  0.3554
 4892SOL     OW26134   2.129   1.827  10.491 -0.2165 -0.0389 -0.2129
 4892SOL    HW126135   2.132   1.816  10.586 -1.0017 -1.9350 -0.4221
 4892SOL    HW226136   2.053   1.885  10.486  0.1343  0.3623 -0.8041
 4893SOL     OW26137   2.419   2.213   2.096 -0.0457 -0.3466 -0.1835
 4893SOL    HW126138   2.513   2.227   2.084  0.0299 -0.6103  0.0857
 4893SOL    HW226139   2.410   2.118   2.091 -0.6476 -0.3292  0.7024
 4894SOL     OW26140   2.459   2.343   3.875 -0.2767 -0.6828 -0.2430
 4894SOL    HW126141   2.392   2.411   3.879 -1.0908 -1.5712  0.9544
 4894SOL    HW226142   2.455   2.327   3.780 -0.0399 -0.7581 -0.2406
 4895SOL     OW26143   1.455   2.845   2.004  0.7880  0.0965 -0.5471
 4895SOL    HW126144   1.549   2.861   2.001  0.4166  2.0693 -1.5010
 4895SOL    HW226145   1.431   2.803   1.921  0.2486 -0.5917 -0.0417
 4896SOL     OW26146   4.574   4.472  10.523 -0.0169 -0.1794  0.1868
 4896SOL    HW126147   4.640   4.537  10.500 -0.7578 -0.3888 -2.5317
 4896SOL    HW226148   4.568   4.418  10.444 -2.7242  1.0299 -0.4598
 4897SOL     OW26149   2.904   0.823  11.754 -0.4977  0.1300 -0.0564
 4897SOL    HW126150   2.831   0.775  11.791 -0.5712  1.5477  1.5941
 4897SOL    HW226151   2.930   0.885  11.822  0.9229  0.5603 -0.9773
 4898SOL     OW26152   3.420   1.670   7.989 -0.2320  0.0161 -0.2862
 4898SOL    HW126153   3.392   1.648   7.900  1.9750 -0.5437 -0.8455
 4898SOL    HW226154   3.495   1.609   7.986  0.2476  0.5984 -0.1207
 4899SOL     OW26155   0.097   2.981   3.798 -0.3729  0.0345 -0.5597
 4899SOL    HW126156   0.177   3.031   3.781  0.6773 -1.5539 -0.2511
 4899SOL    HW226157   0.061   3.045   3.860  0.3389 -1.0040  0.9121
 4900SOL     OW26158   1.885   1.397   3.677  0.4891 -0.2079  0.4010
 4900SOL    HW126159   1.824   1.461   3.639 -0.4223 -1.4753 -0.2776
 4900SOL    HW226160   1.934   1.371   3.599  0.7427  0.3441  0.3778
 4901SOL     OW26161   3.343   4.624   4.437  0.0891  0.6111 -0.2176
 4901SOL    HW126162   3.278   4.692   4.419 -1.1325 -1.1908 -2.5989
 4901SOL    HW226163   3.339   4.623   4.532 -3.7276 -1.2470 -0.4098
 4902SOL     OW26164   2.543   3.337   3.370 -0.0615 -0.3662 -0.1697
 4902SOL    HW126165   2.565   3.399   3.439 -0.2347  1.9725 -2.2136
 4902SOL    HW226166   2.581   3.379   3.292  0.4331  0.7787  0.6937
 4903SOL     OW26167   1.670   0.478  15.470 -0.1887 -0.3360 -0.2173
 4903SOL    HW126168   1.640   0.503  15.558  0.4088  1.0938 -0.4301
 4903SOL    HW226169   1.621   0.396  15.463 -1.3190  0.3176  0.0793
 4904SOL     OW26170   1.870   0.787   6.287 -0.2234 -0.7446 -0.3687
 4904SOL    HW126171   1.831   0.701   6.274 -2.8741  0.8344 -3.0511
 4904SOL    HW226172   1.803   0.839   6.241 -2.3434 -1.5196  1.8568
 4905SOL     OW26173   0.467   2.749   7.723  0.0770 -0.3511 -0.1687
 4905SOL    HW126174   0.509   2.827   7.760  1.4352 -0.3883 -1.6335
 4905SOL    HW226175   0.442   2.694   7.797  2.2828 -0.7835  0.2617
 4906SOL     OW26176   0.013   2.898   0.710 -0.6934  0.0075  0.1698
 4906SOL    HW126177   0.075   2.838   0.670 -0.5656 -0.6081  1.2945
 4906SOL    HW226178   0.074   2.970   0.724  0.1954 -0.8035  0.4394
 4907SOL     OW26179   2.953   1.969   5.387  0.4099 -0.1182  0.4708
 4907SOL    HW126180   3.022   2.022   5.426  1.3381 -0.6375 -0.4929
 4907SOL    HW226181   2.877   1.985   5.443  0.6982  1.8387  0.2840
 4908SOL     OW26182   2.611   3.648  16.249 -0.2344  0.1554 -0.1242
 4908SOL    HW126183   2.671   3.693  16.190  2.3193 -0.9278  1.6034
 4908SOL    HW226184   2.639   3.557  16.239 -0.3414 -0.1936  2.7745
 4909SOL     OW26185   3.702   1.749   7.832 -0.8105 -0.3399  0.1705
 4909SOL    HW126186   3.739   1.757   7.744 -0.7253 -1.4840  0.0995
 4909SOL    HW226187   3.656   1.832   7.843 -0.9602 -0.3945 -0.0537
 4910SOL     OW26188   0.470   0.083   3.336  0.5070 -0.3751  0.0230
 4910SOL    HW126189   0.471   0.154   3.399 -2.5848  1.1499 -1.6314
 4910SOL    HW226190   0.436   0.122   3.255  0.8068  0.5120  0.3218
 4911SOL     OW26191   1.469   2.312  10.316 -0.1648 -0.3786 -0.1343
 4911SOL    HW126192   1.488   2.219  10.325  1.7019 -0.4433 -4.8247
 4911SOL    HW226193   1.513   2.327  10.233  0.5815 -2.4843 -0.0999
 4912SOL     OW26194   1.450   1.130   2.231  0.1900  0.0998  0.4548
 4912SOL    HW126195   1.486   1.215   2.256 -1.9891  1.4021 -0.8492
 4912SOL    HW226196   1.525   1.070   2.238 -0.8811 -1.1420  1.3000
 4913SOL     OW26197   0.583   3.122   6.871  0.6071  0.2319 -0.0709
 4913SOL    HW126198   0.520   3.083   6.931  1.9597 -0.6828  0.7747
 4913SOL    HW226199   0.624   3.048   6.827 -0.8228 -0.5024 -0.1703
 4914SOL     OW26200   2.040   4.592   2.295 -0.2095  0.6946 -0.0302
 4914SOL    HW126201   2.055   4.597   2.200  0.7209  2.4529  0.1964
 4914SOL    HW226202   2.002   4.677   2.314 -0.8415  0.1008  1.3315
 4915SOL     OW26203   3.351   0.205   0.517 -0.2392  0.2908  0.2693
 4915SOL    HW126204   3.312   0.164   0.594 -3.1495  1.2739 -0.6693
 4915SOL    HW226205   3.353   0.135   0.453  0.4689  0.0649  0.5319
 4916SOL     OW26206   2.237   1.758   0.409  0.3702 -0.1596  0.3130
 4916SOL    HW126207   2.256   1.694   0.341  0.3884 -0.6730  0.7934
 4916SOL    HW226208   2.159   1.796   0.369 -0.1390  0.1685  1.5880
 4917SOL     OW26209   3.713   1.451   8.144  0.1236 -1.0835  0.6870
 4917SOL    HW126210   3.666   1.435   8.062 -1.0951 -2.2260  1.6240
 4917SOL    HW226211   3.783   1.387   8.147  0.9075 -0.3049 -0.6362
 4918SOL     OW26212   0.812   4.534  10.849 -0.0937 -0.3638 -0.2089
 4918SOL    HW126213   0.780   4.586  10.775 -0.0410  0.3382  0.2587
 4918SOL    HW226214   0.904   4.525  10.824 -0.5616 -1.3977 -1.5458
 4919SOL     OW26215   2.338   3.130   3.727  0.5702  0.3935  0.4357
 4919SOL    HW126216   2.389   3.054   3.752  1.4472  0.5115 -0.9591
 4919SOL    HW226217   2.297   3.114   3.642 -0.1390  0.5025  0.7641
 4920SOL     OW26218   3.063   3.676   6.823 -0.7004 -0.1860 -0.4350
 4920SOL    HW126219   3.083   3.621   6.899 -1.3787  0.6267  0.3276
 4920SOL    HW226220   3.064   3.617   6.748  3.2276 -1.5977  0.7355
 4921SOL     OW26221   3.558   2.481   7.666  0.7562  0.2606  0.1727
 4921SOL    HW126222   3.589   2.399   7.706  0.2520  0.1430  0.3257
 4921SOL    HW226223   3.613   2.501   7.591  1.5722 -0.1416  0.6630
 4922SOL     OW26224   1.559   2.623   7.411 -0.2539  0.5024 -0.4726
 4922SOL    HW126225   1.495   2.552   7.416  0.1535  0.1052 -0.8862
 4922SOL    HW226226   1.512   2.684   7.468 -2.2144 -0.9731 -0.5086
 4923SOL     OW26227   3.415   2.049   7.237 -0.2011 -0.3356  0.3418
 4923SOL    HW126228   3.337   2.010   7.276 -0.1383 -0.2353  0.5696
 4923SOL    HW226229   3.472   2.065   7.312  1.0497  0.8598 -0.8758
 4924SOL     OW26230   2.286   1.177   6.313 -0.6616  0.0628  0.0265
 4924SOL    HW126231   2.212   1.185   6.374  0.2324  0.4972  1.0579
 4924SOL    HW226232   2.259   1.102   6.260 -0.8288 -0.3237  0.6460
 4925SOL     OW26233   2.504   0.425   5.987 -0.3143 -0.5735 -0.0432
 4925SOL    HW126234   2.464   0.388   5.909  1.2785 -0.6663 -0.8282
 4925SOL    HW226235   2.556   0.500   5.959  2.2488 -2.2186  0.2932
 4926SOL     OW26236   3.159   1.233   2.959 -0.7014  0.1193  0.1862
 4926SOL    HW126237   3.116   1.218   2.875 -4.0452 -1.8535  2.2217
 4926SOL    HW226238   3.143   1.326   2.975  0.6740  0.3059  0.4499
 4927SOL     OW26239   2.612   3.841   9.279 -0.7187 -0.3880 -0.0536
 4927SOL    HW126240   2.642   3.889   9.202  2.0498  0.6713  1.7207
 4927SOL    HW226241   2.532   3.884   9.309  0.1663  1.2329 -0.0116
 4928SOL     OW26242   3.840   0.261   9.076  0.0918  0.3937  0.1897
 4928SOL    HW126243   3.890   0.299   9.148 -0.1332  1.5374 -0.2728
 4928SOL    HW226244   3.858   0.167   9.086 -1.4179 -0.0275 -1.1960
 4929SOL     OW26245   2.662   1.699   9.481 -0.2518  0.2518 -0.0531
 4929SOL    HW126246   2.609   1.670   9.407  0.2479  1.5469 -0.9175
 4929SOL    HW226247   2.604   1.678   9.554  1.0588  1.0290  1.2103
 4930SOL     OW26248   3.567   4.204   6.104 -0.0947 -0.4774  0.1857
 4930SOL    HW126249   3.492   4.172   6.154 -0.4748  1.0396  0.6067
 4930SOL    HW226250   3.561   4.300   6.111 -0.2791 -0.2731 -2.7361
 4931SOL     OW26251   2.275   2.000  13.697 -0.3360 -0.4858  0.3423
 4931SOL    HW126252   2.257   2.007  13.603 -3.1900 -0.1651  0.9043
 4931SOL    HW226253   2.191   1.957  13.715  0.1847 -1.4284  0.4689
 4932SOL     OW26254   2.448   3.178   8.286 -0.2459 -0.1736  0.0430
 4932SOL    HW126255   2.451   3.173   8.381 -1.5659 -1.0455  0.0364
 4932SOL    HW226256   2.399   3.259   8.272 -2.3502 -1.7165 -1.4863
 4933SOL     OW26257   0.577   1.611   4.583  0.3457  0.2078  0.3860
 4933SOL    HW126258   0.553   1.530   4.629 -1.8688  0.8037  0.2436
 4933SOL    HW226259   0.536   1.676   4.639 -1.1331  0.4356 -0.9620
 4934SOL     OW26260   0.088   3.535  13.786  0.5573  0.5856  0.1497
 4934SOL    HW126261   0.151   3.541  13.714  1.2789  0.6971  0.7917
 4934SOL    HW226262   0.010   3.560  13.738  0.6480 -0.9039 -0.7943
 4935SOL     OW26263   0.263   3.557   7.952  0.2198 -0.3962  0.2052
 4935SOL    HW126264   0.286   3.564   7.859  0.1068 -1.0147  0.1299
 4935SOL    HW226265   0.351   3.575   7.986 -0.0281  0.6307  0.3073
 4936SOL     OW26266   2.010   2.070  11.554 -0.0913  0.0750 -0.5079
 4936SOL    HW126267   2.072   2.060  11.483  2.3617 -0.5972  1.7393
 4936SOL    HW226268   1.996   1.981  11.586  2.7728 -1.1100 -2.5620
 4937SOL     OW26269   4.451   3.930  14.522  0.5809  0.2468 -0.6703
 4937SOL    HW126270   4.494   3.993  14.463 -1.8262  1.5289 -1.0252
 4937SOL    HW226271   4.472   3.971  14.606  0.1968  1.1211 -0.9987
 4938SOL     OW26272   1.828   2.956   9.460 -0.7997 -0.2182  0.3209
 4938SOL    HW126273   1.838   2.862   9.474 -0.2122  0.0306  1.5270
 4938SOL    HW226274   1.871   2.990   9.538  0.3246 -1.1286  0.0872
 4939SOL     OW26275   2.695   0.958   4.272  0.2437  0.0752 -0.2512
 4939SOL    HW126276   2.777   0.928   4.310 -0.7127  0.4248  2.0861
 4939SOL    HW226277   2.700   0.901   4.195 -2.1731 -0.2366 -0.1689
 4940SOL     OW26278   1.851   0.717   4.553 -0.3421  0.4509 -0.1970
 4940SOL    HW126279   1.841   0.621   4.551 -0.7513  0.4982 -0.5299
 4940SOL    HW226280   1.781   0.744   4.493 -2.4923 -1.7319  1.3019
 4941SOL     OW26281   4.559   2.880  13.235  0.1362  0.2019  0.8207
 4941SOL    HW126282   4.490   2.938  13.203 -0.6894 -1.1020  0.2092
 4941SOL    HW226283   4.589   2.845  13.151  2.0293 -0.6190  1.8488
 4942SOL     OW26284   2.747   0.886   8.371  0.9271  0.1678 -0.4011
 4942SOL    HW126285   2.814   0.849   8.428 -0.3986 -0.1466  0.9897
 4942SOL    HW226286   2.747   0.823   8.300 -3.1261  0.8234 -1.0168
 4943SOL     OW26287   0.522   1.681  10.705  0.1502 -0.0426 -0.0507
 4943SOL    HW126288   0.503   1.708  10.615  0.3057  0.3065  0.0224
 4943SOL    HW226289   0.609   1.641  10.699 -0.7573 -1.7911 -1.6234
 4944SOL     OW26290   3.177   3.820  14.577  0.3937  0.2492 -0.4433
 4944SOL    HW126291   3.218   3.733  14.587  0.1314  0.3654  1.7255
 4944SOL    HW226292   3.088   3.792  14.599  0.5170  0.6251  0.5758
 4945SOL     OW26293   2.584   2.569  14.629 -0.3091  0.3845  0.0319
 4945SOL    HW126294   2.608   2.476  14.637  0.1820  0.5441  0.4207
 4945SOL    HW226295   2.660   2.614  14.667  0.6759 -2.8384  1.9207
 4946SOL     OW26296   4.321   2.769  17.481  0.4221  0.2261 -0.3359
 4946SOL    HW126297   4.251   2.720  17.436  2.0265 -2.4559  0.0578
 4946SOL    HW226298   4.393   2.740  17.425  1.4931  0.9960  0.6659
 4947SOL     OW26299   3.653   0.908   6.628  0.1970  0.2774 -0.0601
 4947SOL    HW126300   3.654   0.819   6.665 -0.6755  1.1771  2.1297
 4947SOL    HW226301   3.665   0.894   6.534 -2.2762 -1.1981 -0.1692
 4948SOL     OW26302   1.613   4.222   7.186  0.2591  0.3454 -0.4009
 4948SOL    HW126303   1.587   4.154   7.248  0.5169 -0.9640 -1.7224
 4948SOL    HW226304   1.552   4.290   7.214 -1.4379 -1.0870 -0.5754
 4949SOL     OW26305   0.202   1.779   9.450 -0.0130 -0.5983 -0.5256
 4949SOL    HW126306   0.251   1.795   9.370 -0.6512 -0.5696 -0.9046
 4949SOL    HW226307   0.118   1.752   9.414 -1.1272  0.3194  1.3412
 4950SOL     OW26308   2.671   4.026  12.563  0.0784  0.2691  0.4114
 4950SOL    HW126309   2.730   3.976  12.506  1.7456  1.3130  1.2034
 4950SOL    HW226310   2.683   3.975  12.644 -2.0239  0.7259  1.0040
 4951SOL     OW26311   4.389   4.144  13.509 -0.6035 -0.5927 -0.4492
 4951SOL    HW126312   4.343   4.103  13.436  0.6889  0.3369 -1.7873
 4951SOL    HW226313   4.431   4.218  13.466  2.9692 -0.6872  2.9114
 4952SOL     OW26314   1.628   1.922  17.215  0.1308  0.3344  0.0406
 4952SOL    HW126315   1.637   2.010  17.179  0.4816 -0.8628 -2.7602
 4952SOL    HW226316   1.639   1.957  17.304 -0.4197  0.4636  0.0518
 4953SOL     OW26317   3.737   0.349   1.179  0.1372  0.5159 -0.2253
 4953SOL    HW126318   3.700   0.261   1.178  0.0196  0.5828 -1.8031
 4953SOL    HW226319   3.783   0.352   1.096 -0.8940 -0.1960 -0.8170
 4954SOL     OW26320   2.161   0.004  11.944 -0.3078 -0.0664 -0.3442
 4954SOL    HW126321   2.087   0.063  11.932 -1.3998 -1.0519  1.5578
 4954SOL    HW226322   2.192   0.035  12.029 -0.8875 -0.7629  0.1185
 4955SOL     OW26323   4.351   0.567   6.740 -0.1609 -0.5450 -0.2979
 4955SOL    HW126324   4.269   0.537   6.780 -0.0668 -0.0145  0.3007
 4955SOL    HW226325   4.350   0.503   6.669 -0.5720 -1.5376  0.6036
 4956SOL     OW26326   4.153   3.982   8.938 -0.7464  0.5167  0.0009
 4956SOL    HW126327   4.123   3.920   9.004 -0.2375  0.5005  0.2199
 4956SOL    HW226328   4.084   4.048   8.933 -0.6868  0.6892  1.4250
 4957SOL     OW26329   1.366   0.012   6.602  0.0495 -0.2505 -0.1889
 4957SOL    HW126330   1.372   0.018   6.507 -1.9848  3.0983 -0.1037
 4957SOL    HW226331   1.458   4.714   6.620  0.6022  0.0646 -2.7883
 4958SOL     OW26332   4.133   3.392  12.080 -0.8602 -0.6100 -0.1201
 4958SOL    HW126333   4.190   3.462  12.048  0.4600 -1.1951  0.9466
 4958SOL    HW226334   4.185   3.363  12.155  0.0500 -0.1678 -0.5905
 4959SOL     OW26335   3.436   0.097  11.694  0.1660 -0.0374  0.1309
 4959SOL    HW126336   3.413   0.053  11.776  1.1753  1.0867  1.0185
 4959SOL    HW226337   3.520   0.134  11.720 -0.9424  3.5173 -1.3631
 4960SOL     OW26338   0.002   0.410   7.207 -0.3915 -0.8735 -0.2229
 4960SOL    HW126339   0.026   0.497   7.175 -0.8220 -0.9807 -0.8345
 4960SOL    HW226340   4.688   0.421   7.296 -1.3178  2.1759 -0.9333
 4961SOL     OW26341   2.429   3.943  14.668 -1.0071  0.6002 -0.5032
 4961SOL    HW126342   2.506   3.966  14.615 -0.9052 -0.2345 -0.7276
 4961SOL    HW226343   2.411   4.028  14.708 -3.0473 -0.6906  1.3125
 4962SOL     OW26344   0.401   1.877  14.903  0.1855  0.7549  0.4570
 4962SOL    HW126345   0.348   1.800  14.924  0.3640  0.1353 -1.3208
 4962SOL    HW226346   0.331   1.941  14.891 -1.3207 -0.5605  2.2878
 4963SOL     OW26347   4.034   4.619   6.910 -0.2376  0.2828  0.2164
 4963SOL    HW126348   4.056   4.527   6.901  0.5506  0.5223 -0.2734
 4963SOL    HW226349   3.989   4.616   6.995 -0.8944 -2.0422 -0.2315
 4964SOL     OW26350   1.173   1.084   3.952 -0.4362  0.3625  0.0633
 4964SOL    HW126351   1.134   1.068   4.038 -1.6083  0.4919 -0.4426
 4964SOL    HW226352   1.267   1.092   3.969 -0.5252  0.7153  0.4142
 4965SOL     OW26353   0.976   3.397   9.201  0.0260 -0.0875  0.3077
 4965SOL    HW126354   1.068   3.371   9.208 -0.3219 -1.1203  0.9226
 4965SOL    HW226355   0.961   3.446   9.281  0.3989 -0.7041  0.7550
 4966SOL     OW26356   4.672   2.834   3.606 -0.5452 -0.1608 -0.4493
 4966SOL    HW126357   0.001   2.758   3.574  1.5104  0.9534  0.0680
 4966SOL    HW226358   0.018   2.867   3.667 -1.8469  0.0502  0.8617
 4967SOL     OW26359   3.449   2.792   0.306 -0.1793 -0.8491  0.0583
 4967SOL    HW126360   3.371   2.750   0.271 -0.0548  0.8170 -2.2087
 4967SOL    HW226361   3.516   2.742   0.259 -2.2721 -0.5164 -3.2907
 4968SOL     OW26362   2.474   1.440  13.248  0.4818  0.0426  0.3346
 4968SOL    HW126363   2.404   1.453  13.184  2.3588  0.8863 -1.5234
 4968SOL    HW226364   2.429   1.412  13.328 -2.8550  0.9820 -1.2089
 4969SOL     OW26365   1.861   2.199  16.209 -0.0454 -0.1485 -0.7054
 4969SOL    HW126366   1.794   2.266  16.191  0.2244  0.2651 -0.1461
 4969SOL    HW226367   1.854   2.197  16.304 -2.5071  1.7893 -0.8363
 4970SOL     OW26368   3.704   2.701   9.955 -0.1861 -0.6708 -0.1809
 4970SOL    HW126369   3.688   2.792   9.931  0.2516 -0.8040 -0.9676
 4970SOL    HW226370   3.761   2.713  10.031 -0.9368  0.3731  0.2120
 4971SOL     OW26371   2.461   2.325  16.584 -0.3697  0.4801 -0.3471
 4971SOL    HW126372   2.491   2.340  16.495 -0.4436 -1.9814 -0.7600
 4971SOL    HW226373   2.390   2.390  16.585  0.7084  1.6610 -0.1981
 4972SOL     OW26374   2.685   3.704  10.023 -1.0281  0.8637 -0.4189
 4972SOL    HW126375   2.740   3.629  10.042  0.7384  2.3043  0.1540
 4972SOL    HW226376   2.736   3.767   9.972  0.8269 -1.8340 -1.8674
 4973SOL     OW26377   1.996   3.262   3.663  0.1107 -0.3011  0.0831
 4973SOL    HW126378   1.989   3.204   3.739  1.4926 -0.0337  0.4098
 4973SOL    HW226379   1.906   3.295   3.656  0.3869  0.1247 -1.5607
 4974SOL     OW26380   1.096   0.666   6.205  0.0631  0.1550 -0.0980
 4974SOL    HW126381   1.041   0.699   6.276 -0.4519 -1.0927  0.0754
 4974SOL    HW226382   1.031   0.620   6.152  0.0279  0.3573 -0.2332
 4975SOL     OW26383   0.156   0.590  17.467  0.1757  0.4872  0.2400
 4975SOL    HW126384   0.128   0.677  17.436 -0.5620  0.4311  0.7647
 4975SOL    HW226385   0.248   0.614  17.477  0.0764  1.4020 -0.9480
 4976SOL     OW26386   1.221   3.404  15.755  0.5708 -0.1040  0.0301
 4976SOL    HW126387   1.315   3.392  15.771 -0.0782 -3.2169  1.5191
 4976SOL    HW226388   1.183   3.318  15.771 -2.0858  0.9026 -0.9472
 4977SOL     OW26389   4.199   0.451   0.688  0.6023 -0.6771 -0.2892
 4977SOL    HW126390   4.253   0.486   0.758 -1.5960  0.6133  0.7470
 4977SOL    HW226391   4.150   0.387   0.740 -1.4502  0.0449 -1.3247
 4978SOL     OW26392   0.476   3.610   6.164 -0.4688  0.3328  0.3224
 4978SOL    HW126393   0.397   3.614   6.110  0.2432 -0.3640 -0.7666
 4978SOL    HW226394   0.496   3.703   6.172  1.7725  0.0311 -1.9500
 4979SOL     OW26395   3.657   2.688   4.072  0.8220  0.2176  0.0643
 4979SOL    HW126396   3.646   2.611   4.128  0.1971  0.5003  0.3286
 4979SOL    HW226397   3.572   2.694   4.029  0.1074 -1.2945  1.2875
 4980SOL     OW26398   1.926   4.715   1.618 -0.3056 -0.4074 -0.0630
 4980SOL    HW126399   2.020   4.720   1.601 -0.6596 -1.3598 -2.2790
 4980SOL    HW226400   1.925   4.646   1.685 -0.1212 -0.8996 -0.5632
 4981SOL     OW26401   0.606   4.420   2.218  0.3753 -0.4035  0.0446
 4981SOL    HW126402   0.551   4.345   2.195 -0.8886  0.5711 -0.1255
 4981SOL    HW226403   0.660   4.375   2.283 -0.7341  0.0570  1.2959
 4982SOL     OW26404   0.769   3.933  11.410 -0.6689 -0.3319 -0.2292
 4982SOL    HW126405   0.725   3.989  11.346 -1.5506 -2.0344 -1.1261
 4982SOL    HW226406   0.858   3.968  11.411 -0.5000 -0.7455 -0.4174
 4983SOL     OW26407   1.657   2.490  11.095 -0.3968 -0.2866  0.0321
 4983SOL    HW126408   1.701   2.487  11.180  0.9312  1.5864 -0.5917
 4983SOL    HW226409   1.564   2.477  11.109 -0.7323 -1.7219 -3.6057
 4984SOL     OW26410   4.295   4.690   2.308 -0.3644  0.1278  0.1052
 4984SOL    HW126411   4.375   4.666   2.260  0.9336  1.4240  1.6129
 4984SOL    HW226412   4.249   4.607   2.317  0.6009 -0.3190  0.8760
 4985SOL     OW26413   0.860   2.810   0.719  0.6435 -0.0868  0.0994
 4985SOL    HW126414   0.836   2.718   0.725  1.6975 -0.3330  0.5194
 4985SOL    HW226415   0.818   2.837   0.800  0.5811 -0.2813  0.1295
 4986SOL     OW26416   3.493   2.761  10.578  0.1265  0.1638 -0.1642
 4986SOL    HW126417   3.560   2.821  10.544  1.2838 -0.1839  1.5353
 4986SOL    HW226418   3.410   2.797  10.548 -1.6733 -1.8156  2.4353
 4987SOL     OW26419   1.661   3.851  14.299 -0.3800  0.3176 -0.2574
 4987SOL    HW126420   1.628   3.826  14.386 -1.8636  1.3340 -0.5397
 4987SOL    HW226421   1.755   3.856  14.320 -0.7601 -0.5896  1.7305
 4988SOL     OW26422   3.629   1.114   4.118  0.1179  0.4067 -0.3634
 4988SOL    HW126423   3.563   1.139   4.182  1.4754 -0.6596  1.4503
 4988SOL    HW226424   3.583   1.098   4.036  2.0903 -2.4764 -0.8970
 4989SOL     OW26425   0.173   1.653   2.097 -0.5015  0.1945 -0.0962
 4989SOL    HW126426   0.082   1.644   2.069 -1.1805  3.0304  1.2395
 4989SOL    HW226427   0.221   1.665   2.015  0.5680  0.5880  0.5865
 4990SOL     OW26428   1.510   1.711   5.479  0.2913 -0.3037  0.9501
 4990SOL    HW126429   1.416   1.720   5.490  0.2999  0.0933  0.6755
 4990SOL    HW226430   1.501   1.649   5.407  0.5486 -1.4491  1.8899
 4991SOL     OW26431   4.019   1.455   7.240  0.1838  0.3872 -0.9527
 4991SOL    HW126432   4.106   1.447   7.278 -0.3452  0.9620  0.3908
 4991SOL    HW226433   3.977   1.517   7.299 -0.0926 -2.3090  1.6690
 4992SOL     OW26434   4.073   3.600   5.524  0.3058  0.1673  0.0546
 4992SOL    HW126435   4.107   3.538   5.460  1.5745 -0.1742  1.0568
 4992SOL    HW226436   4.152   3.613   5.576  0.5073 -0.8500 -0.0010
 4993SOL     OW26437   0.773   3.691   6.034  0.1712  0.1242  0.1703
 4993SOL    HW126438   0.855   3.712   5.989  1.2661  1.7044  2.8914
 4993SOL    HW226439   0.808   3.681   6.123 -0.9366 -1.0109  0.4718
 4994SOL     OW26440   3.119   2.573   3.186  0.5349 -0.0088  0.2772
 4994SOL    HW126441   3.145   2.646   3.243  2.3539  0.4092 -1.0998
 4994SOL    HW226442   3.029   2.601   3.170  0.5644 -0.0110  0.1058
 4995SOL     OW26443   0.290   3.525   4.911 -0.1802 -0.4711  0.4472
 4995SOL    HW126444   0.376   3.483   4.924  0.7349  1.3294  0.1885
 4995SOL    HW226445   0.262   3.500   4.823  0.6128  0.7314 -0.1383
 4996SOL     OW26446   4.676   1.731   9.383 -0.2414  0.5008  0.0288
 4996SOL    HW126447   4.644   1.748   9.471 -0.4293  1.2616 -0.1834
 4996SOL    HW226448   4.603   1.773   9.337 -0.6556 -0.8256 -0.5066
 4997SOL     OW26449   4.026   4.302   4.270  0.0891  0.3125  0.0762
 4997SOL    HW126450   3.973   4.342   4.340  2.5005  1.7240  1.1055
 4997SOL    HW226451   3.955   4.262   4.221  0.7019 -1.2915  0.5066
 4998SOL     OW26452   0.852   4.158  14.732 -0.1965  0.3832 -0.4407
 4998SOL    HW126453   0.901   4.079  14.710  1.9713  1.0500  1.9507
 4998SOL    HW226454   0.897   4.176  14.814  0.5079  1.7825 -1.1329
 4999SOL     OW26455   0.938   0.148   8.919 -0.0445 -0.0526 -0.2816
 4999SOL    HW126456   1.013   0.199   8.890  0.1395 -0.2823 -0.2128
 4999SOL    HW226457   0.868   0.211   8.930  0.3723  0.1430  1.1508
 5000SOL     OW26458   0.013   0.675   7.131 -0.5886 -0.2372  0.0953
 5000SOL    HW126459   0.076   0.694   7.200 -0.2730  0.8961 -0.5040
 5000SOL    HW226460   4.650   0.712   7.160 -0.7247 -0.9794  0.6741
 5001SOL     OW26461   3.225   1.862   7.932 -0.4592 -0.1384 -0.4931
 5001SOL    HW126462   3.242   1.922   8.005  1.1316 -0.5037 -0.5707
 5001SOL    HW226463   3.273   1.785   7.963 -0.9499  0.0792  0.8052
 5002SOL     OW26464   2.348   0.802   0.416  0.2178  0.4197  0.6469
 5002SOL    HW126465   2.438   0.794   0.382  0.2287 -0.9684  0.9957
 5002SOL    HW226466   2.334   0.895   0.398 -1.0946 -0.4933 -3.0214
 5003SOL     OW26467   0.082   1.995   4.445 -0.4924 -0.0988 -0.6029
 5003SOL    HW126468   0.046   1.938   4.377  0.2589 -0.2253 -0.9004
 5003SOL    HW226469   0.164   2.018   4.401  0.1291  0.7621  1.0138
 5004SOL     OW26470   4.667   3.136   2.945 -0.1918 -0.3679  0.1321
 5004SOL    HW126471   4.700   3.064   2.999  2.7522  0.9809  0.1280
 5004SOL    HW226472   4.712   3.128   2.861 -1.8313  1.5706 -0.9407
 5005SOL     OW26473   3.970   0.407   2.721  0.2124  0.4855  0.0786
 5005SOL    HW126474   3.946   0.334   2.778 -0.3219 -0.6805 -1.6416
 5005SOL    HW226475   3.924   0.478   2.768  1.4117 -0.0437  2.0433
 5006SOL     OW26476   1.292   4.671  15.578  0.0143  0.0470  0.0238
 5006SOL    HW126477   1.255   0.024  15.628  2.5524  1.2807  0.1113
 5006SOL    HW226478   1.280   4.710  15.491 -1.6703 -0.5620 -0.0156
 5007SOL     OW26479   3.464   0.553   3.078 -0.6977  0.0328 -0.1537
 5007SOL    HW126480   3.453   0.560   2.983  3.4892 -2.6706 -0.8638
 5007SOL    HW226481   3.433   0.642   3.094 -2.6940 -0.5660 -0.7221
 5008SOL     OW26482   4.346   4.630   3.341  0.5165 -0.5821 -0.0801
 5008SOL    HW126483   4.332   4.627   3.436 -2.0909  1.4462 -0.3962
 5008SOL    HW226484   4.440   4.648   3.346 -0.2542  2.6839  2.5207
 5009SOL     OW26485   0.873   1.106   0.578 -0.1707 -0.2279 -0.0443
 5009SOL    HW126486   0.856   1.023   0.621  0.2921 -0.2512  0.1019
 5009SOL    HW226487   0.882   1.170   0.649  0.1028 -0.4244  0.0985
 5010SOL     OW26488   3.212   2.275  13.972 -0.0717 -0.4191 -0.0175
 5010SOL    HW126489   3.232   2.347  14.031 -2.5324  0.7197 -0.5744
 5010SOL    HW226490   3.296   2.233  13.955  0.3678  1.0522 -1.5404
 5011SOL     OW26491   1.940   3.449   5.502 -0.4850  0.0111  0.1928
 5011SOL    HW126492   1.911   3.442   5.593  1.3124  1.4120  0.8738
 5011SOL    HW226493   2.015   3.507   5.513  0.0053 -0.0632 -2.8117
 5012SOL     OW26494   0.450   0.632  10.577  0.0026 -0.1474  0.4366
 5012SOL    HW126495   0.405   0.594  10.653  0.2400 -0.3390  0.4816
 5012SOL    HW226496   0.390   0.707  10.572 -0.1943 -0.5086 -2.6432
 5013SOL     OW26497   3.532   2.399   3.987  0.2530 -0.5680 -0.5842
 5013SOL    HW126498   3.469   2.445   4.042  1.0823 -1.2257  0.9082
 5013SOL    HW226499   3.509   2.417   3.896  0.5899  0.2844 -0.5042
 5014SOL     OW26500   3.379   3.507   2.110 -0.0450  0.3861  0.2518
 5014SOL    HW126501   3.469   3.485   2.136  0.8957  2.4370 -1.2857
 5014SOL    HW226502   3.368   3.470   2.023  0.1169 -0.7196  0.7036
 5015SOL     OW26503   0.976   0.347   6.687 -0.2215  0.1833  0.1267
 5015SOL    HW126504   1.047   0.410   6.674  1.3506 -1.6124  0.0751
 5015SOL    HW226505   0.944   0.363   6.776 -2.5057  1.0838 -0.8464
 5016SOL     OW26506   3.475   2.071  12.174  0.2626  0.2346  0.1545
 5016SOL    HW126507   3.414   2.077  12.248 -1.9239  1.1254 -1.7024
 5016SOL    HW226508   3.514   2.158  12.167  0.4370  0.0291 -1.4491
 5017SOL     OW26509   4.358   0.673  16.330  0.3477 -0.3037 -0.5053
 5017SOL    HW126510   4.331   0.655  16.420 -1.8387  0.3699 -1.0249
 5017SOL    HW226511   4.382   0.586  16.299 -2.1310 -1.2403  0.2150
 5018SOL     OW26512   4.306   3.026  10.426  0.3196 -0.2538 -0.4056
 5018SOL    HW126513   4.213   3.025  10.450 -0.0027 -0.4346 -1.6410
 5018SOL    HW226514   4.338   2.945  10.466 -0.3386 -0.0578  0.5256
 5019SOL     OW26515   1.777   4.507   6.398  0.5969  0.3076  0.8419
 5019SOL    HW126516   1.735   4.568   6.459  0.0409 -0.1207  0.8949
 5019SOL    HW226517   1.700   4.458   6.369  2.1785 -0.7106 -1.6401
 5020SOL     OW26518   3.378   1.954   3.229 -0.1976  0.3115 -0.0115
 5020SOL    HW126519   3.357   1.998   3.146 -1.6406 -0.0990  0.1310
 5020SOL    HW226520   3.371   2.031   3.285 -0.0363 -0.3569  0.9149
 5021SOL     OW26521   2.930   4.688  12.806  0.1464  0.5073  0.2048
 5021SOL    HW126522   2.947   4.629  12.880 -1.3471 -0.6450 -0.3540
 5021SOL    HW226523   2.841   0.003  12.809  0.1433  0.5650 -0.4689
 5022SOL     OW26524   0.885   1.815  10.943 -0.0685  0.5547  0.2225
 5022SOL    HW126525   0.795   1.789  10.958 -0.2577  1.3720  0.4977
 5022SOL    HW226526   0.923   1.733  10.912  1.0352  1.8507 -1.8746
 5023SOL     OW26527   3.723   3.243   2.006 -0.5883 -0.1330  0.2676
 5023SOL    HW126528   3.782   3.179   2.048 -0.2899  0.3199  0.5336
 5023SOL    HW226529   3.663   3.179   1.967  2.4457 -0.9264 -3.1597
 5024SOL     OW26530   0.100   3.859  17.097  0.0051  0.2480 -0.0416
 5024SOL    HW126531   0.103   3.764  17.100 -0.2285  0.2751  1.1830
 5024SOL    HW226532   0.176   3.884  17.150 -1.0380  0.8895  1.1549
 5025SOL     OW26533   3.263   2.159   6.201 -0.1907 -0.6655  0.0949
 5025SOL    HW126534   3.336   2.120   6.249 -0.2051 -0.7697  0.0327
 5025SOL    HW226535   3.294   2.250   6.205  0.4972 -0.8776 -0.3157
 5026SOL     OW26536   1.191   0.207   5.594 -0.4096 -0.1425 -0.4966
 5026SOL    HW126537   1.157   0.122   5.568 -3.5232  0.9079  0.0968
 5026SOL    HW226538   1.177   0.204   5.688  1.1581  3.0568 -0.1435
 5027SOL     OW26539   2.802   4.583  15.272  0.4145 -0.1841 -0.2452
 5027SOL    HW126540   2.786   4.677  15.257 -1.9995 -1.0403 -2.9782
 5027SOL    HW226541   2.715   4.543  15.274 -0.6620  2.2149  0.9186
 5028SOL     OW26542   2.292   4.401   4.008 -0.4286 -0.1523 -0.2668
 5028SOL    HW126543   2.344   4.380   3.930 -0.4973  1.7105 -0.8122
 5028SOL    HW226544   2.203   4.416   3.976 -0.8949 -0.9735  0.6386
 5029SOL     OW26545   0.499   4.514   9.000 -0.2093  0.6432  0.1619
 5029SOL    HW126546   0.459   4.449   9.058  0.9572 -1.0374 -0.9259
 5029SOL    HW226547   0.495   4.587   9.062 -1.2132 -1.4497  2.5572
 5030SOL     OW26548   2.739   4.023  15.252  0.1519 -0.3853 -0.0436
 5030SOL    HW126549   2.652   4.009  15.290 -0.0769 -2.6622 -1.3544
 5030SOL    HW226550   2.793   3.991  15.324 -1.1678  0.7296  1.4371
 5031SOL     OW26551   1.132   4.704  11.423  0.1823 -0.4199  0.0838
 5031SOL    HW126552   1.063   0.028  11.473  0.9171  2.0703 -1.0781
 5031SOL    HW226553   1.103   4.680  11.335  0.1135  0.8575 -0.2351
 5032SOL     OW26554   3.903   0.839  14.761 -0.8400 -0.2532 -0.5173
 5032SOL    HW126555   3.942   0.825  14.675  0.8290 -0.1454  0.2173
 5032SOL    HW226556   3.946   0.914  14.802 -0.0140 -1.0726  0.0861
 5033SOL     OW26557   0.399   2.898   4.050  0.1463 -0.4154  0.1554
 5033SOL    HW126558   0.454   2.892   4.128 -0.8840  2.8362  1.1281
 5033SOL    HW226559   0.331   2.957   4.083 -0.8148 -1.1407 -0.5178
 5034SOL     OW26560   3.078   3.949   9.592 -0.0551 -0.8224  0.3134
 5034SOL    HW126561   3.085   3.878   9.529 -1.3123  2.2798 -3.3377
 5034SOL    HW226562   2.984   3.955   9.577  0.3917  0.7679 -1.7449
 5035SOL     OW26563   0.885   0.796   1.529 -0.0112 -0.2851  0.9861
 5035SOL    HW126564   0.877   0.888   1.556  0.2609  0.1711 -0.4992
 5035SOL    HW226565   0.932   0.769   1.608  1.6153  0.7827  0.3879
 5036SOL     OW26566   0.228   1.553  14.660 -0.1970  0.1148  0.6395
 5036SOL    HW126567   0.314   1.511  14.653 -0.0243  0.6081 -0.3512
 5036SOL    HW226568   0.164   1.488  14.631  2.4466 -2.3134  0.2737
 5037SOL     OW26569   1.820   0.493   2.385 -0.7844 -0.3185 -0.1730
 5037SOL    HW126570   1.800   0.554   2.314  1.4609  1.9075  1.1074
 5037SOL    HW226571   1.915   0.492   2.392 -0.6844 -1.3489 -1.5903
 5038SOL     OW26572   0.624   4.541   1.706  0.0739 -0.1994  0.4226
 5038SOL    HW126573   0.593   4.464   1.659 -0.9207 -0.3391  1.3101
 5038SOL    HW226574   0.552   4.563   1.766 -1.8386  0.4771 -2.1461
 5039SOL     OW26575   0.238   1.677   8.089 -0.0898 -0.2630 -0.3108
 5039SOL    HW126576   0.251   1.632   8.173 -0.4029 -0.5710 -0.4273
 5039SOL    HW226577   0.306   1.633   8.039  0.2623  0.5518 -0.5372
 5040SOL     OW26578   1.654   1.108  11.786  0.0862  0.0325  0.1578
 5040SOL    HW126579   1.695   1.195  11.792 -2.1255  1.0916  0.0358
 5040SOL    HW226580   1.564   1.133  11.767  0.2318  0.3129 -0.1852
 5041SOL     OW26581   0.088   4.379   3.247  0.8494 -0.4046  0.1215
 5041SOL    HW126582   0.108   4.425   3.329 -2.0742  1.3601 -0.1406
 5041SOL    HW226583   0.058   4.455   3.196 -0.2513 -1.7285 -1.2238
 5042SOL     OW26584   3.626   1.873  16.825  0.2256  0.3025 -0.4175
 5042SOL    HW126585   3.625   1.904  16.735 -1.9758  1.7958  0.1046
 5042SOL    HW226586   3.545   1.822  16.825 -0.3208  1.1687 -0.9555
 5043SOL     OW26587   4.713   0.064   4.524  0.3059  0.0113  0.0892
 5043SOL    HW126588   0.047   0.054   4.446  1.6850  1.5544  0.8301
 5043SOL    HW226589   0.058   0.105   4.581  2.4598 -0.2663 -2.1854
 5044SOL     OW26590   0.635   4.718   3.915 -0.3777  0.1361 -0.2640
 5044SOL    HW126591   0.543   4.713   3.889  0.0592 -1.0616 -1.5740
 5044SOL    HW226592   0.677   4.677   3.839  0.2099  0.3908 -0.0779
 5045SOL     OW26593   2.639   4.265   9.052  0.0666 -0.1512 -0.3630
 5045SOL    HW126594   2.604   4.222   9.130  0.2647 -0.2648 -0.3360
 5045SOL    HW226595   2.630   4.358   9.071  0.7871 -0.4002  1.1379
 5046SOL     OW26596   1.206   1.528   0.237 -0.4041 -0.4559  0.0339
 5046SOL    HW126597   1.204   1.503   0.329 -0.4835  0.9087  0.3975
 5046SOL    HW226598   1.207   1.440   0.199 -0.7143 -0.9205  1.0909
 5047SOL     OW26599   3.378   0.848  11.518 -0.0088  0.4468 -0.3131
 5047SOL    HW126600   3.297   0.869  11.564  2.0701  1.5702  2.8162
 5047SOL    HW226601   3.369   0.757  11.487  0.3915  0.0340  0.7956
 5048SOL     OW26602   3.983   3.848   5.605 -0.5081 -0.1924  0.0576
 5048SOL    HW126603   4.008   3.777   5.546 -0.8214  0.1691 -0.5118
 5048SOL    HW226604   4.059   3.904   5.594  0.0456 -0.7077  1.2874
 5049SOL     OW26605   4.365   0.041   4.445 -0.2532  1.4465  0.2898
 5049SOL    HW126606   4.340   0.003   4.529 -0.8421 -3.1341 -1.9435
 5049SOL    HW226607   4.444   4.708   4.430  0.2293  2.2827 -0.1228
 5050SOL     OW26608   0.522   1.090  15.719 -0.2431  0.0679  0.1174
 5050SOL    HW126609   0.464   1.020  15.749  0.3783 -1.2925 -1.8562
 5050SOL    HW226610   0.460   1.163  15.720  2.0405  1.9922  0.8843
 5051SOL     OW26611   2.071   4.353   9.379 -0.5270  0.0739  0.2149
 5051SOL    HW126612   2.105   4.279   9.430 -2.5904  0.1531  1.7354
 5051SOL    HW226613   1.988   4.368   9.425  0.2074  1.5293  1.0788
 5052SOL     OW26614   0.079   1.340   8.294 -0.2661 -0.1325 -0.1939
 5052SOL    HW126615   0.127   1.296   8.224 -0.5314 -0.6563 -0.0465
 5052SOL    HW226616   0.020   1.270   8.322  1.4978 -1.1538  0.9655
 5053SOL     OW26617   2.947   3.500   1.704  0.3898  0.0440 -0.5192
 5053SOL    HW126618   2.962   3.582   1.656  3.2177 -0.0590  0.2049
 5053SOL    HW226619   3.032   3.484   1.744  0.1261 -0.4276 -0.1522
 5054SOL     OW26620   3.278   2.600  16.797  0.4955 -0.4294  0.1590
 5054SOL    HW126621   3.211   2.583  16.864  1.4212 -4.9046 -0.0285
 5054SOL    HW226622   3.346   2.644  16.849 -0.9547 -0.9156  2.4848
 5055SOL     OW26623   3.329   1.125   5.337  0.1691 -0.0822 -0.0464
 5055SOL    HW126624   3.422   1.130   5.315  0.9201  1.7666  3.5715
 5055SOL    HW226625   3.319   1.196   5.400 -0.3703 -0.0815 -0.1333
 5056SOL     OW26626   3.984   4.147  15.978 -0.3473  0.0312  0.4000
 5056SOL    HW126627   4.003   4.194  15.898  0.7628  1.4276  1.4860
 5056SOL    HW226628   4.028   4.062  15.978 -0.5539 -0.0781  0.7859
 5057SOL     OW26629   1.810   3.339   0.902 -0.3573 -0.5950 -0.3400
 5057SOL    HW126630   1.809   3.431   0.928 -2.9364 -0.2692 -1.5361
 5057SOL    HW226631   1.811   3.305   0.992 -0.2848 -0.0329 -0.1314
 5058SOL     OW26632   1.754   1.340   2.967  0.2980 -0.4276 -0.4394
 5058SOL    HW126633   1.759   1.300   2.880  0.7818 -1.8839  0.2441
 5058SOL    HW226634   1.846   1.338   2.992  0.4140 -1.8905 -0.9845
 5059SOL     OW26635   3.936   2.906   3.619  0.3280 -0.0255  0.5065
 5059SOL    HW126636   3.920   2.871   3.532  0.7071  0.9310  0.0564
 5059SOL    HW226637   4.001   2.845   3.653  3.2172  1.0879 -3.1529
 5060SOL     OW26638   0.908   2.916  15.337  0.1248  0.5425  0.3652
 5060SOL    HW126639   0.974   2.971  15.295  0.3268  0.2313  0.2756
 5060SOL    HW226640   0.925   2.932  15.430 -0.5340 -3.3730  1.1727
 5061SOL     OW26641   4.586   4.100   6.819 -0.2658  0.9400 -0.1112
 5061SOL    HW126642   4.672   4.141   6.825  0.2422 -0.2483  0.8429
 5061SOL    HW226643   4.531   4.174   6.793 -1.2527 -0.2204 -1.3566
 5062SOL     OW26644   4.123   1.455   5.070  0.1483  0.0807 -0.8090
 5062SOL    HW126645   4.063   1.524   5.041  1.6971  1.2039 -1.3509
 5062SOL    HW226646   4.059   1.384   5.071  2.7983 -2.2857 -0.4550
 5063SOL     OW26647   0.619   3.678   8.701  0.3930 -0.2528  0.2415
 5063SOL    HW126648   0.563   3.685   8.778  0.1280 -0.9064  0.1066
 5063SOL    HW226649   0.624   3.772   8.686  1.4792 -0.2608  0.4812
 5064SOL     OW26650   3.747   3.855  16.849  0.3664  0.5337  0.0252
 5064SOL    HW126651   3.676   3.863  16.785 -1.2510 -0.3720  1.7159
 5064SOL    HW226652   3.698   3.854  16.931  1.5543 -3.0393  0.6544
 5065SOL     OW26653   1.511   2.605   4.393  0.0110 -0.2045  0.3565
 5065SOL    HW126654   1.592   2.625   4.439 -1.7755  2.9328  2.0658
 5065SOL    HW226655   1.486   2.538   4.456 -0.0103  1.2648  1.9038
 5066SOL     OW26656   2.789   1.258   8.974  0.1538  0.1568 -0.3302
 5066SOL    HW126657   2.875   1.250   9.016  0.2922 -0.5055 -0.7319
 5066SOL    HW226658   2.758   1.168   8.961 -1.5366  0.6536  0.2274
 5067SOL     OW26659   1.121   0.304   2.605  0.4510  0.5960 -0.0038
 5067SOL    HW126660   1.026   0.313   2.603  0.2337 -1.8495 -0.9668
 5067SOL    HW226661   1.125   0.263   2.692  0.1172 -1.0360 -0.7469
 5068SOL     OW26662   3.279   4.709   0.353  0.3664  0.0549  0.0528
 5068SOL    HW126663   3.275   4.632   0.411 -0.4759 -0.0688 -0.1797
 5068SOL    HW226664   3.297   4.663   0.271  0.1969 -2.5083  1.4423
 5069SOL     OW26665   2.435   3.613  10.025  0.7801 -0.3410  0.5754
 5069SOL    HW126666   2.516   3.660  10.040  2.9168 -4.0445  0.7255
 5069SOL    HW226667   2.369   3.642  10.089 -0.3067 -1.8496  0.1584
 5070SOL     OW26668   4.399   2.342   4.246  0.0288 -0.2947  0.3676
 5070SOL    HW126669   4.327   2.312   4.302 -0.4701  1.3660  0.6225
 5070SOL    HW226670   4.440   2.257   4.231  0.4472 -0.0813  0.2958
 5071SOL     OW26671   1.554   2.419   8.130  0.2339 -0.7087 -0.0674
 5071SOL    HW126672   1.608   2.359   8.078 -1.2035 -1.3829 -0.7867
 5071SOL    HW226673   1.591   2.397   8.216  0.9107  0.5143 -0.0464
 5072SOL     OW26674   0.888   0.711   2.164 -0.1657  0.7625 -0.5237
 5072SOL    HW126675   0.938   0.784   2.201  0.5694 -1.2799  2.5341
 5072SOL    HW226676   0.899   0.642   2.230 -0.5782  0.2675 -0.9711
 5073SOL     OW26677   4.621   1.212   1.273 -0.0027 -0.1006 -0.4178
 5073SOL    HW126678   4.714   1.232   1.282 -0.1517  0.2983  0.2860
 5073SOL    HW226679   4.597   1.214   1.365  0.4283 -0.6953 -0.2966
 5074SOL     OW26680   4.539   1.376   2.592  0.0718  0.2600  0.1719
 5074SOL    HW126681   4.587   1.415   2.519 -1.3915 -0.1064 -0.9732
 5074SOL    HW226682   4.452   1.372   2.553  0.6644 -2.0452 -0.9049
 5075SOL     OW26683   2.301   4.204   0.345 -0.1240  0.4419  0.1570
 5075SOL    HW126684   2.254   4.221   0.264 -2.2587 -2.9111  0.7057
 5075SOL    HW226685   2.386   4.169   0.317 -0.5415 -0.5954  0.2064
 5076SOL     OW26686   0.863   0.943  11.313  1.0819 -0.1943  0.0755
 5076SOL    HW126687   0.937   0.994  11.346  0.2098  0.4262  1.0819
 5076SOL    HW226688   0.911   0.860  11.305  1.4970  0.0686 -0.1614
 5077SOL     OW26689   3.923   4.505   4.443 -0.1369  0.0148 -0.2367
 5077SOL    HW126690   3.955   4.593   4.464  0.4295 -0.5358  1.2065
 5077SOL    HW226691   3.884   4.489   4.529 -1.3151  0.3703 -0.7017
 5078SOL     OW26692   4.606   2.915  14.336 -0.0771  0.1543 -0.0070
 5078SOL    HW126693   4.528   2.948  14.380  0.0376 -2.9307  2.5057
 5078SOL    HW226694   4.603   2.825  14.368 -2.5491 -0.1061 -0.9522
 5079SOL     OW26695   1.128   1.002   0.836 -0.2276  0.8212 -0.0831
 5079SOL    HW126696   1.150   1.091   0.864 -0.4287  1.4046 -1.7880
 5079SOL    HW226697   1.052   1.019   0.780 -0.0320 -3.5852 -1.6523
 5080SOL     OW26698   2.535   3.564   0.435  0.1782 -0.6445 -0.1459
 5080SOL    HW126699   2.558   3.655   0.420 -1.7218 -0.1107  0.2827
 5080SOL    HW226700   2.465   3.549   0.372 -0.0680 -1.8260  0.4100
 5081SOL     OW26701   4.617   0.972   5.290  0.1444 -0.6011 -0.0738
 5081SOL    HW126702   4.602   1.054   5.336 -0.1802 -1.1096  0.7490
 5081SOL    HW226703   4.703   0.961   5.330  0.3114 -1.5135 -0.6782
 5082SOL     OW26704   3.879   3.348   5.589 -0.3538  0.1886 -0.4804
 5082SOL    HW126705   3.926   3.428   5.612 -0.0754  0.2160 -1.1267
 5082SOL    HW226706   3.953   3.292   5.567 -0.9420  0.0877 -2.2264
 5083SOL     OW26707   2.820   3.545   7.855 -0.0703  0.1948  0.0405
 5083SOL    HW126708   2.744   3.512   7.904 -0.2995 -1.4458 -1.4258
 5083SOL    HW226709   2.875   3.590   7.919 -0.7181  0.9314  0.0977
 5084SOL     OW26710   3.636   1.681   6.875 -0.1955 -0.3731  0.0201
 5084SOL    HW126711   3.595   1.598   6.899 -0.3428 -0.9834 -2.3804
 5084SOL    HW226712   3.585   1.682   6.795  3.1256  1.1143 -2.0631
 5085SOL     OW26713   2.460   0.567   1.003 -0.3695  0.0021 -0.2646
 5085SOL    HW126714   2.396   0.501   1.031  0.0515 -0.5801 -0.6797
 5085SOL    HW226715   2.425   0.583   0.915 -0.6251 -1.2924 -0.3987
 5086SOL     OW26716   0.706   1.515  10.050  0.0066 -0.0839  0.1068
 5086SOL    HW126717   0.726   1.430  10.011  1.3039  0.1797  0.2133
 5086SOL    HW226718   0.671   1.488  10.135 -0.7460  1.4585  0.3003
 5087SOL     OW26719   1.636   3.928   8.753  0.6653  0.0343 -0.0933
 5087SOL    HW126720   1.607   3.915   8.663  0.6040 -3.4111  0.4254
 5087SOL    HW226721   1.600   3.854   8.802 -1.1787  1.7266  1.0908
 5088SOL     OW26722   1.693   1.167   8.029 -0.0135  0.4020  0.5812
 5088SOL    HW126723   1.610   1.134   7.993  0.0940  0.2962  0.4289
 5088SOL    HW226724   1.674   1.157   8.122 -1.1479 -0.7066  0.2416
 5089SOL     OW26725   3.858   3.710   5.808  0.0636  0.3123  0.2736
 5089SOL    HW126726   3.882   3.755   5.727  0.0362 -1.1727 -0.5661
 5089SOL    HW226727   3.770   3.748   5.815 -0.5979 -1.2629  0.3821
 5090SOL     OW26728   3.216   3.501  12.011 -0.1345 -0.2214  0.0090
 5090SOL    HW126729   3.210   3.476  12.104  1.7495  3.2203  1.0640
 5090SOL    HW226730   3.233   3.418  11.967 -1.8242 -0.9963  0.7814
 5091SOL     OW26731   1.277   3.352   4.042  0.2124  0.3049  0.5001
 5091SOL    HW126732   1.301   3.440   4.069 -0.6957  1.3495 -2.0997
 5091SOL    HW226733   1.358   3.313   4.074 -1.5396 -2.6517  1.3681
 5092SOL     OW26734   1.243   2.995   3.315  0.3344  0.2573  0.1482
 5092SOL    HW126735   1.323   3.013   3.267  0.3414 -0.5205 -0.1433
 5092SOL    HW226736   1.249   3.062   3.383 -0.3604 -1.0305  1.4799
 5093SOL     OW26737   0.575   1.621   3.294 -0.4138  0.2753 -0.2005
 5093SOL    HW126738   0.577   1.637   3.388  0.2048 -1.8483  0.1638
 5093SOL    HW226739   0.669   1.604   3.280 -0.2402  1.1694 -0.0952
 5094SOL     OW26740   4.685   4.088  10.907  0.0835  0.3347 -0.1661
 5094SOL    HW126741   4.713   4.094  10.816  2.6230 -0.8012  0.5284
 5094SOL    HW226742   0.051   4.073  10.947 -1.1202 -1.0427  1.8816
 5095SOL     OW26743   0.161   1.723   3.493  0.1281 -0.3351 -0.3090
 5095SOL    HW126744   0.183   1.744   3.403  1.0128  0.2199  0.0472
 5095SOL    HW226745   0.082   1.777   3.488 -0.3232 -0.8361  1.4906
 5096SOL     OW26746   4.513   0.381  16.506  0.2501 -0.2129 -0.0642
 5096SOL    HW126747   4.515   0.389  16.601 -2.8523  1.7814 -0.1787
 5096SOL    HW226748   4.468   0.296  16.512  0.9373 -0.4737  1.2952
 5097SOL     OW26749   2.137   2.786   3.610 -0.8607  0.0792  0.0779
 5097SOL    HW126750   2.206   2.803   3.545  0.0433  0.1213  1.0505
 5097SOL    HW226751   2.128   2.692   3.600  0.3458  0.0708 -0.9613
 5098SOL     OW26752   4.353   0.271   4.292  0.0263  0.3947  0.2564
 5098SOL    HW126753   4.320   0.320   4.367  1.0187  0.9818  0.3148
 5098SOL    HW226754   4.348   0.179   4.316  3.1624  0.1826  0.0507
 5099SOL     OW26755   1.430   0.603  13.332  0.3335  0.4005  0.2075
 5099SOL    HW126756   1.478   0.587  13.413 -2.1745 -0.9751  1.4570
 5099SOL    HW226757   1.420   0.512  13.302  3.2590 -0.5006  1.9769
 5100SOL     OW26758   2.472   4.592  12.098 -0.4660 -0.6015  0.2145
 5100SOL    HW126759   2.386   4.626  12.072 -0.2562  0.7924  1.3420
 5100SOL    HW226760   2.528   4.669  12.086  0.5159 -1.2836  0.4786
 5101SOL     OW26761   3.786   3.375  13.160  0.8022 -0.0863 -0.0335
 5101SOL    HW126762   3.732   3.380  13.238 -0.2237  1.6742 -0.8453
 5101SOL    HW226763   3.762   3.458  13.118 -0.9110 -1.0287 -0.8972
 5102SOL     OW26764   0.969   4.533  13.042  0.7189 -0.0445 -0.6988
 5102SOL    HW126765   1.047   4.508  13.091 -0.5267 -0.1484  1.2400
 5102SOL    HW226766   0.906   4.468  13.074 -0.6862  1.3895 -0.5654
 5103SOL     OW26767   2.182   4.384   2.672  0.3719  0.3345 -0.0399
 5103SOL    HW126768   2.150   4.312   2.726 -4.4124  1.0070 -1.9338
 5103SOL    HW226769   2.106   4.443   2.673 -1.9744 -2.6678  0.7005
 5104SOL     OW26770   4.021   1.984   2.256 -0.0867 -0.6002  0.1338
 5104SOL    HW126771   4.053   1.941   2.176  0.0875 -2.6751  1.2989
 5104SOL    HW226772   3.992   1.909   2.308 -1.0207  0.0736  0.5852
 5105SOL     OW26773   0.395   1.832  11.834  0.6423  0.0643 -0.0459
 5105SOL    HW126774   0.399   1.869  11.922 -0.9339  0.7905 -0.2699
 5105SOL    HW226775   0.392   1.910  11.778 -0.7211  0.2712  0.3035
 5106SOL     OW26776   3.063   2.960   3.589 -0.4795  0.2380  0.1579
 5106SOL    HW126777   3.155   2.982   3.604 -0.0674 -1.0315 -0.5292
 5106SOL    HW226778   3.040   2.973   3.681 -0.4174  1.6058 -0.0234
 5107SOL     OW26779   4.040   2.521   7.225 -0.7066 -0.2264  0.2094
 5107SOL    HW126780   4.084   2.606   7.232  2.0332 -1.5323 -1.3395
 5107SOL    HW226781   3.950   2.556   7.226  0.1112  1.8814  1.9157
 5108SOL     OW26782   1.541   2.096   2.956  0.9536 -0.1983  0.4364
 5108SOL    HW126783   1.560   2.188   2.934  1.8169  0.1225  2.5358
 5108SOL    HW226784   1.502   2.074   2.871  0.1657  1.8202  0.2758
 5109SOL     OW26785   3.752   1.620  13.890  0.3768  0.3503 -0.4122
 5109SOL    HW126786   3.756   1.644  13.797 -0.6384  0.4040 -0.4452
 5109SOL    HW226787   3.846   1.613  13.906 -0.0514 -1.9892  1.0479
 5110SOL     OW26788   1.757   0.273   3.878 -0.3252  0.3735  0.4992
 5110SOL    HW126789   1.796   0.202   3.929 -0.2410 -0.0117 -0.1104
 5110SOL    HW226790   1.778   0.243   3.790 -0.1657  1.6178  0.1057
 5111SOL     OW26791   2.264   3.232   3.408 -0.2502  0.2460 -0.1333
 5111SOL    HW126792   2.359   3.233   3.417 -0.2646 -0.0761  0.0569
 5111SOL    HW226793   2.248   3.305   3.348 -1.0986  0.0430 -0.1532
 5112SOL     OW26794   1.227   1.937   4.144  0.3176  0.0660 -0.2645
 5112SOL    HW126795   1.202   1.997   4.214 -0.1915  0.8062 -1.0725
 5112SOL    HW226796   1.319   1.950   4.121  0.6531 -1.4070  0.2749
 5113SOL     OW26797   0.955   4.625   3.106 -0.5826  0.6230 -0.1026
 5113SOL    HW126798   0.994   4.708   3.079  1.5363 -1.2063 -2.7040
 5113SOL    HW226799   0.860   4.635   3.099 -0.5846  0.7247  0.0667
 5114SOL     OW26800   4.435   3.607   1.637 -0.1296 -0.5683 -0.7035
 5114SOL    HW126801   4.367   3.562   1.588  0.8024  0.3565 -2.8336
 5114SOL    HW226802   4.516   3.569   1.604  2.0381  1.1844  2.5916
 5115SOL     OW26803   1.211   4.427   6.755  0.3304 -0.1302  0.3857
 5115SOL    HW126804   1.170   4.508   6.727  0.7111 -0.1584 -0.2665
 5115SOL    HW226805   1.293   4.425   6.706 -0.8557 -0.5283 -1.5641
 5116SOL     OW26806   1.453   3.699   0.390 -0.0441 -0.2701 -0.4704
 5116SOL    HW126807   1.533   3.748   0.372  0.8350 -1.9809 -1.1808
 5116SOL    HW226808   1.471   3.662   0.476 -2.4488 -0.0130  0.1409
 5117SOL     OW26809   4.299   3.838  13.189 -0.2224  0.4730 -0.6175
 5117SOL    HW126810   4.277   3.922  13.230 -0.9600  0.1686 -0.3761
 5117SOL    HW226811   4.228   3.826  13.125  0.2528  3.2704 -1.7067
 5118SOL     OW26812   2.959   0.849   5.149  0.3075 -0.0487  0.0148
 5118SOL    HW126813   3.050   0.875   5.164  0.3710  0.0730 -0.5645
 5118SOL    HW226814   2.956   0.778   5.213  0.7639 -0.4933 -0.4533
 5119SOL     OW26815   1.746   2.087  11.336  0.5664  0.3654 -0.4020
 5119SOL    HW126816   1.720   2.000  11.305 -0.9148 -0.1288  2.2883
 5119SOL    HW226817   1.703   2.093  11.421  2.0153  0.7055  0.3058
 5120SOL     OW26818   3.460   3.743   0.341 -0.3486  0.6268  0.6479
 5120SOL    HW126819   3.445   3.654   0.374  0.5315  0.1840 -0.1296
 5120SOL    HW226820   3.555   3.741   0.329 -0.4382  1.5888 -0.2752
 5121SOL     OW26821   1.374   0.971   4.105 -0.2886  0.0681 -0.2400
 5121SOL    HW126822   1.438   1.031   4.068  1.7568 -0.9980  1.5288
 5121SOL    HW226823   1.381   0.900   4.041 -0.4225 -0.0392 -0.1362
 5122SOL     OW26824   2.602   1.515  14.987  0.0131 -0.0050 -0.0048
 5122SOL    HW126825   2.548   1.478  15.056  0.6037 -1.8208 -0.5153
 5122SOL    HW226826   2.634   1.595  15.028 -0.7492  0.0045  0.5677
 5123SOL     OW26827   2.511   4.338  12.876 -0.2149  0.8179 -0.3990
 5123SOL    HW126828   2.604   4.352  12.894  0.1471 -1.3138 -0.6320
 5123SOL    HW226829   2.467   4.406  12.927  0.7274  1.4260 -0.3839
 5124SOL     OW26830   2.967   2.511   0.220 -0.0519  0.3024 -0.1165
 5124SOL    HW126831   2.874   2.500   0.198 -0.2130  2.5888 -0.5944
 5124SOL    HW226832   2.994   2.424   0.250 -3.9439 -0.8871  0.0053
 5125SOL     OW26833   4.462   2.803   9.633  0.6729  0.1988 -0.1714
 5125SOL    HW126834   4.496   2.802   9.543 -0.3849 -0.9993 -0.5492
 5125SOL    HW226835   4.498   2.889   9.658  0.5252  0.6873 -1.6289
 5126SOL     OW26836   2.774   0.047   6.684  0.4668 -0.1325 -0.6794
 5126SOL    HW126837   2.744   0.002   6.763 -1.0651  2.4339  0.2012
 5126SOL    HW226838   2.858   0.087   6.708  1.7915 -1.0469 -3.7837
 5127SOL     OW26839   3.732   2.481  14.189 -0.7873  0.6844 -0.0305
 5127SOL    HW126840   3.763   2.563  14.153 -0.3328  0.0919 -0.9911
 5127SOL    HW226841   3.784   2.472  14.269 -0.2568  0.5027 -0.3953
 5128SOL     OW26842   3.044   1.185   2.382 -0.2374 -0.2689  0.1587
 5128SOL    HW126843   3.000   1.190   2.297  2.2967  2.4282 -0.9992
 5128SOL    HW226844   3.077   1.096   2.386 -0.1167 -0.2774 -1.2452
 5129SOL     OW26845   0.794   3.580   1.970  0.1310 -0.7056  0.6061
 5129SOL    HW126846   0.794   3.498   1.922  0.2953 -0.7362  0.6586
 5129SOL    HW226847   0.704   3.612   1.970  0.3401 -0.1016 -0.0928
 5130SOL     OW26848   2.450   0.763  11.351  0.0269  0.2062 -0.4446
 5130SOL    HW126849   2.388   0.708  11.303 -0.4832 -0.4507  0.9777
 5130SOL    HW226850   2.433   0.851  11.318 -0.9700  0.8951  1.9151
 5131SOL     OW26851   2.146   3.408   0.775  0.1126 -0.5911 -0.4880
 5131SOL    HW126852   2.118   3.487   0.728 -0.8545 -0.7926 -0.2527
 5131SOL    HW226853   2.240   3.420   0.758  0.1202 -1.1603 -0.8748
 5132SOL     OW26854   0.642   0.433   9.299 -0.5741 -0.2056 -0.7300
 5132SOL    HW126855   0.681   0.520   9.305 -0.0351 -0.4844 -0.2052
 5132SOL    HW226856   0.710   0.397   9.242 -0.4118 -1.4099  0.2343
 5133SOL     OW26857   1.746   2.715  17.279  0.1042 -0.3874 -0.6426
 5133SOL    HW126858   1.664   2.710  17.328  1.5514 -2.5538  1.5373
 5133SOL    HW226859   1.802   2.748  17.349 -1.6511 -1.8329  1.4254
 5134SOL     OW26860   2.753   3.691  15.762 -0.1923 -0.5924  0.3198
 5134SOL    HW126861   2.762   3.604  15.801 -0.1742 -1.0550 -0.6949
 5134SOL    HW226862   2.752   3.664  15.669 -0.7065 -1.0526  0.4559
 5135SOL     OW26863   4.675   4.674   8.524 -0.2361 -0.0531  0.0578
 5135SOL    HW126864   0.046   4.653   8.546  0.1094  0.8816 -0.4904
 5135SOL    HW226865   4.656   4.612   8.454 -1.0247 -0.6468  0.7964
 5136SOL     OW26866   3.263   0.880   6.851 -0.5217  0.0155  0.3508
 5136SOL    HW126867   3.212   0.821   6.906  2.0185 -0.1424  2.5477
 5136SOL    HW226868   3.354   0.867   6.880 -0.4188  3.5914  1.6541
 5137SOL     OW26869   3.722   3.429  16.072  0.2955 -0.1636 -0.3752
 5137SOL    HW126870   3.776   3.470  16.139 -2.4050  0.6560  1.3378
 5137SOL    HW226871   3.755   3.344  16.043 -0.2636 -0.3903 -0.3565
 5138SOL     OW26872   4.160   3.353  11.301  0.3426 -0.3865 -0.0226
 5138SOL    HW126873   4.116   3.381  11.221 -1.4317 -3.0074  0.0704
 5138SOL    HW226874   4.181   3.439  11.338 -0.1359 -0.7227  1.0314
 5139SOL     OW26875   1.340   3.875   2.019 -0.1666  0.0977 -0.2650
 5139SOL    HW126876   1.420   3.830   2.045  0.9537  1.5726 -1.0908
 5139SOL    HW226877   1.374   3.964   2.004  3.1858 -1.2010 -0.3630
 5140SOL     OW26878   1.141   2.061   1.640  0.5651  0.5987 -0.4274
 5140SOL    HW126879   1.105   2.122   1.576  0.4359  1.2117  0.2299
 5140SOL    HW226880   1.145   2.110   1.723 -2.4661  1.8113 -0.9850
 5141SOL     OW26881   3.674   2.651   1.985  0.0032  0.5002 -0.0877
 5141SOL    HW126882   3.727   2.648   1.906 -1.5970  0.6031 -1.1503
 5141SOL    HW226883   3.716   2.579   2.031 -0.9156 -0.0508 -0.1079
 5142SOL     OW26884   0.440   4.536   3.481 -0.1188  0.1760 -0.1369
 5142SOL    HW126885   0.506   4.541   3.412 -0.6572 -2.1419 -0.8253
 5142SOL    HW226886   0.396   4.621   3.475  3.6137  2.1781  0.7112
 5143SOL     OW26887   1.782   4.659   7.887 -0.0643 -0.3551  0.1238
 5143SOL    HW126888   1.758   4.575   7.926 -0.7418 -0.2700 -0.1127
 5143SOL    HW226889   1.757   4.713   7.962 -0.6268 -0.0775 -0.2625
 5144SOL     OW26890   2.483   2.683   7.902  0.1717  0.1243 -0.3234
 5144SOL    HW126891   2.558   2.667   7.960  0.0232  0.6573  0.0131
 5144SOL    HW226892   2.450   2.597   7.876 -0.4514 -0.5080  2.5585
 5145SOL     OW26893   1.218   3.123   1.937  0.6285  0.4053 -0.0009
 5145SOL    HW126894   1.188   3.210   1.965  2.2368  0.9550  0.0042
 5145SOL    HW226895   1.223   3.140   1.842  1.1656  0.3940  0.0236
 5146SOL     OW26896   2.203   1.515  10.201 -0.2520  0.1153 -0.1505
 5146SOL    HW126897   2.208   1.555  10.114 -2.5018 -0.9799 -0.7951
 5146SOL    HW226898   2.123   1.549  10.242 -0.6670  0.4444 -1.2201
 5147SOL     OW26899   0.576   3.242   4.043 -0.3779 -0.0157  0.2774
 5147SOL    HW126900   0.577   3.327   4.000 -1.7635  0.2404  0.7381
 5147SOL    HW226901   0.515   3.257   4.115  0.3282 -0.8569  1.0606
 5148SOL     OW26902   2.341   0.119   5.577  0.0235 -0.4987 -0.2131
 5148SOL    HW126903   2.374   0.038   5.615 -2.9307 -1.7848 -0.3655
 5148SOL    HW226904   2.246   0.104   5.582 -0.0246  0.2243  1.0644
 5149SOL     OW26905   4.109   4.233  16.977 -0.8283  0.2877 -0.5783
 5149SOL    HW126906   4.085   4.215  17.068 -1.4691 -2.1130 -1.2381
 5149SOL    HW226907   4.064   4.175  16.917  0.7101  0.3307 -1.7717
 5150SOL     OW26908   1.820   3.886   6.638  0.0471 -0.4569 -0.5995
 5150SOL    HW126909   1.831   3.950   6.567 -0.1365  0.4537  0.1961
 5150SOL    HW226910   1.749   3.932   6.682  2.0202  0.7529  1.3299
 5151SOL     OW26911   1.292   2.170   8.234 -0.9567 -0.0797 -0.4269
 5151SOL    HW126912   1.375   2.127   8.250 -0.2761  1.5693  0.4933
 5151SOL    HW226913   1.275   2.228   8.309  1.2897  3.0915 -2.3775
 5152SOL     OW26914   3.864   3.961  10.876  0.0843 -0.5323 -0.0977
 5152SOL    HW126915   3.792   3.989  10.932 -2.4756 -1.0127 -3.1632
 5152SOL    HW226916   3.904   4.037  10.834  1.4255 -1.7892 -1.0966
 5153SOL     OW26917   1.809   2.416  16.513  0.4331  0.3546 -0.0265
 5153SOL    HW126918   1.713   2.418  16.508  0.4610  1.9273  0.0091
 5153SOL    HW226919   1.838   2.470  16.439 -0.0364  0.1829 -0.3429
 5154SOL     OW26920   1.181   2.674   8.729 -0.6100  0.0891 -0.2968
 5154SOL    HW126921   1.156   2.761   8.763  0.2174 -0.8950  2.8881
 5154SOL    HW226922   1.273   2.686   8.703 -0.0350  0.4523  1.8775
 5155SOL     OW26923   3.270   0.184   3.803 -0.6394 -0.6025  0.4959
 5155SOL    HW126924   3.270   0.211   3.894 -0.0400  1.2690 -0.0557
 5155SOL    HW226925   3.363   0.186   3.782 -0.7304  1.6263  0.2343
 5156SOL     OW26926   3.691   0.396  17.184  0.1328 -0.2002 -0.9882
 5156SOL    HW126927   3.621   0.346  17.227 -0.8013  1.5047 -0.5484
 5156SOL    HW226928   3.637   0.452  17.128  0.1985 -0.9540 -1.7997
 5157SOL     OW26929   3.657   0.092   1.154  0.4401  0.0664  0.3944
 5157SOL    HW126930   3.564   0.103   1.173  0.3827  0.4520 -0.1355
 5157SOL    HW226931   3.656   0.001   1.183 -1.6777 -0.9311 -2.8658
 5158SOL     OW26932   1.272   3.164   3.547 -0.1933  0.1612 -0.1521
 5158SOL    HW126933   1.199   3.225   3.535 -0.7752 -0.4404  0.3488
 5158SOL    HW226934   1.265   3.165   3.642  3.0786 -0.8052  0.0872
 5159SOL     OW26935   2.452   1.572  13.610  0.1389  0.0430 -0.2492
 5159SOL    HW126936   2.531   1.622  13.591  0.6949 -0.9462 -0.5512
 5159SOL    HW226937   2.465   1.504  13.543  1.1694  1.8112 -1.8553
 5160SOL     OW26938   3.003   2.413   3.649 -0.4945 -0.3252  0.2612
 5160SOL    HW126939   2.993   2.369   3.734 -4.0345 -0.6540 -0.3360
 5160SOL    HW226940   2.914   2.398   3.617 -0.5800 -2.2562  1.3785
 5161SOL     OW26941   1.348   2.530   3.548 -0.2961  0.2834  0.0462
 5161SOL    HW126942   1.385   2.618   3.538 -1.3762  0.8717  1.1342
 5161SOL    HW226943   1.341   2.519   3.643 -0.1940 -2.1195 -0.2187
 5162SOL     OW26944   0.352   0.502  11.168  0.3593 -0.3470 -0.0323
 5162SOL    HW126945   0.439   0.482  11.135  1.9962  1.6657  3.0325
 5162SOL    HW226946   0.346   0.597  11.156  0.2406 -0.2203  0.9552
 5163SOL     OW26947   2.689   0.844   2.954 -0.1225 -0.6865 -0.1127
 5163SOL    HW126948   2.714   0.901   3.027 -0.4204  0.0237 -0.5602
 5163SOL    HW226949   2.777   0.828   2.921  0.3321 -0.6091  1.0679
 5164SOL     OW26950   1.920   0.667   9.487  0.1135 -0.4241  0.6488
 5164SOL    HW126951   1.829   0.697   9.479  1.2851  2.8238 -0.3687
 5164SOL    HW226952   1.962   0.752   9.479 -3.2920  1.1791 -0.3881
 5165SOL     OW26953   4.484   1.544  11.970  0.1630  0.1621  0.1284
 5165SOL    HW126954   4.557   1.576  11.916 -1.2346  0.9329 -1.2985
 5165SOL    HW226955   4.459   1.624  12.016 -1.4882 -0.4325  0.2589
 5166SOL     OW26956   2.568   1.218  11.205 -0.0769  0.1452  0.9975
 5166SOL    HW126957   2.574   1.239  11.111  0.3305  1.0187  1.2209
 5166SOL    HW226958   2.627   1.143  11.211 -0.1778  0.0131  0.3367
 5167SOL     OW26959   4.595   0.156   6.871 -0.3104 -0.2259 -0.2234
 5167SOL    HW126960   4.633   0.123   6.953 -0.4652 -1.9669 -0.8640
 5167SOL    HW226961   4.570   0.246   6.893  1.7642 -0.0130  1.2552
 5168SOL     OW26962   1.868   0.781   6.636 -0.4354 -0.1300 -0.0079
 5168SOL    HW126963   1.925   0.795   6.711  0.5944 -1.7451 -0.5025
 5168SOL    HW226964   1.790   0.833   6.655 -0.3980 -0.0064 -0.1880
 5169SOL     OW26965   0.254   1.121  15.971 -0.2126 -0.5605 -0.4098
 5169SOL    HW126966   0.194   1.194  15.983  1.2832  0.6945 -0.6262
 5169SOL    HW226967   0.231   1.107  15.879 -0.3770  1.8337 -0.7082
 5170SOL     OW26968   0.776   1.496   3.935  0.1809 -0.0959 -0.2772
 5170SOL    HW126969   0.705   1.465   3.879  4.6139 -1.3093 -5.1089
 5170SOL    HW226970   0.809   1.412   3.966  0.1678  1.3906  3.8985
 5171SOL     OW26971   2.398   1.369   7.011 -0.7113 -0.3712 -0.0142
 5171SOL    HW126972   2.449   1.307   7.063  1.2143  2.1157  1.0714
 5171SOL    HW226973   2.378   1.317   6.933 -1.4553 -0.9802  0.5849
 5172SOL     OW26974   2.309   2.860   7.751  0.1273  0.1392 -0.2152
 5172SOL    HW126975   2.371   2.805   7.798 -0.3880 -0.6364 -0.4362
 5172SOL    HW226976   2.351   2.944   7.770 -0.6775  0.9057 -1.8118
 5173SOL     OW26977   3.998   2.110   7.635  0.0758  0.2160 -0.2347
 5173SOL    HW126978   4.031   2.120   7.724  0.6228 -0.3829 -0.3701
 5173SOL    HW226979   4.013   2.194   7.591  0.6407 -0.0894 -0.6285
 5174SOL     OW26980   3.211   4.272  11.600 -0.0351  0.5343 -0.2162
 5174SOL    HW126981   3.270   4.249  11.529 -1.1283 -0.5965 -0.7520
 5174SOL    HW226982   3.133   4.220  11.581 -1.2580  2.4612 -0.5067
 5175SOL     OW26983   2.798   4.615  10.464 -0.4614  0.3452 -0.3046
 5175SOL    HW126984   2.810   4.703  10.501  1.5837 -0.0294 -0.0953
 5175SOL    HW226985   2.799   4.645  10.373 -0.8716 -0.5239 -0.5937
 5176SOL     OW26986   4.179   2.830  14.518 -0.4422 -0.1562  0.5785
 5176SOL    HW126987   4.155   2.752  14.467  0.2643  1.2649 -1.9547
 5176SOL    HW226988   4.114   2.892  14.485  1.3786  2.5109  1.9731
 5177SOL     OW26989   1.247   0.598   3.787  0.5354  0.0243 -0.4064
 5177SOL    HW126990   1.239   0.503   3.786  2.9971 -0.1575 -2.3131
 5177SOL    HW226991   1.260   0.606   3.693  0.5589  0.5705 -0.3608
 5178SOL     OW26992   3.873   2.398   7.771  0.2084 -0.3442  0.9217
 5178SOL    HW126993   3.877   2.413   7.866  0.5772 -0.9228  0.9959
 5178SOL    HW226994   3.833   2.311   7.775 -1.8353  0.6746  2.5279
 5179SOL     OW26995   2.587   0.883  15.594 -0.2529  0.1874  0.0411
 5179SOL    HW126996   2.547   0.797  15.595 -2.6553  1.2913 -0.9365
 5179SOL    HW226997   2.634   0.871  15.677 -1.4253  0.4100  0.7395
 5180SOL     OW26998   0.279   1.861   0.191  0.4110 -0.1351 -0.1990
 5180SOL    HW126999   0.312   1.844   0.279 -1.4412 -0.6200  0.4036
 5180SOL    HW227000   0.185   1.851   0.206  0.5309  0.6444  1.0292
 5181SOL     OW27001   4.044   3.627   7.684  0.0121 -0.3821 -0.5079
 5181SOL    HW127002   4.078   3.616   7.596  0.4478 -0.6395 -0.3068
 5181SOL    HW227003   3.952   3.644   7.662  0.1011 -0.0310 -0.6161
 5182SOL     OW27004   3.341   3.136  13.767  0.5388 -0.2250  0.2548
 5182SOL    HW127005   3.306   3.123  13.855 -2.1456 -1.6510 -0.9942
 5182SOL    HW227006   3.278   3.089  13.713 -0.1516  1.2032 -0.1899
 5183SOL     OW27007   2.396   2.593   4.494  0.0501 -0.1022  0.6027
 5183SOL    HW127008   2.458   2.543   4.547  0.2525 -0.7793 -0.2602
 5183SOL    HW227009   2.320   2.544   4.526  0.3118 -1.1981 -0.4601
 5184SOL     OW27010   3.166   3.289   6.495 -0.2247 -0.1481 -0.4304
 5184SOL    HW127011   3.237   3.229   6.517  0.1933  0.1600 -0.9352
 5184SOL    HW227012   3.195   3.311   6.406  1.6060 -0.9985 -0.0420
 5185SOL     OW27013   1.395   2.740   8.547 -0.0093  0.4319  0.6342
 5185SOL    HW127014   1.477   2.778   8.578 -0.0681  0.4152  0.8049
 5185SOL    HW227015   1.420   2.706   8.461  0.8357  1.4833  0.4596
 5186SOL     OW27016   2.075   2.862   5.773 -0.4762 -0.2750  0.8053
 5186SOL    HW127017   2.100   2.934   5.831  2.9753  1.3867 -2.7555
 5186SOL    HW227018   2.092   2.784   5.826 -2.8147  0.9966  3.4251
 5187SOL     OW27019   4.525   1.965   9.313  0.0069 -0.3425 -0.5917
 5187SOL    HW127020   4.539   1.991   9.222 -0.1395  2.2902  0.1597
 5187SOL    HW227021   4.562   2.041   9.357  1.3251 -1.0712 -0.4184
 5188SOL     OW27022   3.406   4.713   7.222 -0.1458  0.7689  0.1584
 5188SOL    HW127023   3.447   4.710   7.136 -1.4771 -2.5662 -0.3518
 5188SOL    HW227024   3.442   4.632   7.258  1.7694  1.9350  0.8368
 5189SOL     OW27025   2.446   3.527   5.217 -0.0735  0.4965 -0.0007
 5189SOL    HW127026   2.501   3.540   5.139  0.6215 -1.8386  0.1006
 5189SOL    HW227027   2.479   3.601   5.268 -0.2427  2.1027 -2.1820
 5190SOL     OW27028   3.589   1.120   3.636  0.0960  0.3466 -0.1572
 5190SOL    HW127029   3.564   1.113   3.728  0.0359  0.8111 -0.1370
 5190SOL    HW227030   3.656   1.054   3.619  0.8545  0.8799  0.7566
 5191SOL     OW27031   1.769   2.719   4.143 -0.3552 -0.3533  0.1168
 5191SOL    HW127032   1.741   2.748   4.230 -0.8440 -0.7923  0.1011
 5191SOL    HW227033   1.691   2.714   4.089 -1.9696  3.1330  2.0752
 5192SOL     OW27034   0.430   4.002   7.798 -0.5512  0.1617  0.3981
 5192SOL    HW127035   0.334   3.992   7.795 -0.8329  3.5995 -1.7683
 5192SOL    HW227036   0.436   4.059   7.874 -0.2348  0.3581  0.2247
 5193SOL     OW27037   1.792   1.894   8.532  0.1308  0.4646 -0.1222
 5193SOL    HW127038   1.817   1.840   8.458 -1.1514 -1.6605  0.9919
 5193SOL    HW227039   1.878   1.927   8.560 -0.0987 -1.0548  2.4009
 5194SOL     OW27040   3.144   1.458   3.925 -0.1392  0.8206  0.4161
 5194SOL    HW127041   3.211   1.475   3.860  0.7421 -0.4785  0.9934
 5194SOL    HW227042   3.096   1.379   3.900 -0.2726  1.3470 -0.9697
 5195SOL     OW27043   2.614   0.572   6.529 -0.1435 -0.0143  0.3349
 5195SOL    HW127044   2.526   0.564   6.567 -0.9366  5.9613 -0.3649
 5195SOL    HW227045   2.604   0.622   6.449  1.4343 -0.9153 -0.4326
 5196SOL     OW27046   4.005   4.203   3.020 -0.2997 -0.0957  0.0101
 5196SOL    HW127047   4.067   4.130   3.019 -1.7614 -1.4065  3.5265
 5196SOL    HW227048   3.937   4.176   3.082 -0.9031 -0.2981 -0.7329
 5197SOL     OW27049   0.038   0.123  15.031  0.2868  0.4453  0.1757
 5197SOL    HW127050   4.718   0.202  15.068 -1.2849  1.5335 -3.8122
 5197SOL    HW227051   0.128   0.154  15.023  0.3309 -0.4456 -2.6918
 5198SOL     OW27052   2.227   2.201   3.972 -0.0534 -0.0080  0.0937
 5198SOL    HW127053   2.222   2.245   4.057  0.2709 -1.1883  0.7204
 5198SOL    HW227054   2.274   2.271   3.928 -1.1005  0.1545 -0.7818
 5199SOL     OW27055   1.168   1.870   7.925 -0.0741 -0.1572  0.4723
 5199SOL    HW127056   1.162   1.908   8.013  3.6627  1.6190 -0.0509
 5199SOL    HW227057   1.093   1.811   7.914 -0.1400 -0.2058  1.2075
 5200SOL     OW27058   2.318   4.530   6.224  0.3344  0.0951  0.2744
 5200SOL    HW127059   2.228   4.562   6.228  0.1820 -0.3219  0.1738
 5200SOL    HW227060   2.355   4.611   6.190  2.5882 -0.6630  0.9442
 5201SOL     OW27061   3.911   3.968   2.554 -0.2691  0.2237  0.2732
 5201SOL    HW127062   3.943   3.879   2.567 -2.1856 -0.5469 -0.1710
 5201SOL    HW227063   3.997   3.998   2.524 -0.9813  0.0221 -1.9750
 5202SOL     OW27064   3.400   4.630   0.935 -0.6529 -0.7438 -0.4184
 5202SOL    HW127065   3.353   4.547   0.949 -0.3976 -0.9109 -0.5509
 5202SOL    HW227066   3.483   4.621   0.982 -0.2144  0.4512 -0.9699
 5203SOL     OW27067   2.719   1.865  15.232  0.2778 -0.8052 -0.0996
 5203SOL    HW127068   2.728   1.960  15.239  1.7477 -0.9686  0.2078
 5203SOL    HW227069   2.787   1.840  15.294  1.7481 -1.7144 -2.0790
 5204SOL     OW27070   3.730   2.610   5.807  0.1530  0.1894 -0.6501
 5204SOL    HW127071   3.752   2.665   5.732  0.8983  0.3189 -0.3423
 5204SOL    HW227072   3.656   2.651   5.850 -0.3487  1.1368 -2.3991
 5205SOL     OW27073   3.162   3.562  11.233  0.5694  0.4967  0.2091
 5205SOL    HW127074   3.219   3.551  11.156 -2.0710 -0.4437 -1.6083
 5205SOL    HW227075   3.134   3.471  11.247 -1.2448  1.4867  2.7763
 5206SOL     OW27076   2.068   1.663   5.934  0.2145  0.1776  0.7245
 5206SOL    HW127077   1.996   1.629   5.987 -1.3120  0.5422 -1.1160
 5206SOL    HW227078   2.023   1.728   5.880 -1.3028 -1.6663 -0.2367
 5207SOL     OW27079   2.672   2.625   8.102 -0.5208 -0.1153  0.2432
 5207SOL    HW127080   2.753   2.676   8.105  0.3268 -1.5009  0.8146
 5207SOL    HW227081   2.681   2.555   8.166 -0.6449 -1.4335 -1.1790
 5208SOL     OW27082   1.482   1.845   2.148 -0.2414  0.5270  0.0692
 5208SOL    HW127083   1.456   1.937   2.160 -0.1466  0.4457  0.9449
 5208SOL    HW227084   1.469   1.833   2.054  2.5793 -0.4881 -0.2088
 5209SOL     OW27085   4.598   0.756  15.367 -0.1877  0.5281  1.0394
 5209SOL    HW127086   4.512   0.795  15.385  0.2142  2.5926 -1.5301
 5209SOL    HW227087   4.604   0.763  15.272 -1.9457 -4.9308  0.5684
 5210SOL     OW27088   4.490   3.844   6.633 -0.2899 -0.5489  0.2202
 5210SOL    HW127089   4.431   3.918   6.616 -0.1995 -0.5931 -0.2997
 5210SOL    HW227090   4.447   3.799   6.705 -0.5884 -0.2841  0.2106
 5211SOL     OW27091   0.065   3.181  17.205  0.3086  0.0089 -0.2081
 5211SOL    HW127092   0.150   3.223  17.189 -0.4175  1.6913  0.2733
 5211SOL    HW227093   0.047   3.200  17.297 -1.2688 -1.0899 -0.3090
 5212SOL     OW27094   0.286   2.155   8.961  0.1839  0.0004 -0.3047
 5212SOL    HW127095   0.310   2.130   9.050 -0.9096 -2.9291 -0.8486
 5212SOL    HW227096   0.204   2.195   8.990  0.2876 -0.4949  0.6566
 5213SOL     OW27097   1.749   1.627   4.918  0.1272  0.1543 -0.1575
 5213SOL    HW127098   1.717   1.708   4.957  3.3490  2.0104 -1.4395
 5213SOL    HW227099   1.676   1.598   4.863  0.4936 -1.8359  0.4087
 5214SOL     OW27100   1.393   2.583   4.147 -0.4153  0.2867  0.5148
 5214SOL    HW127101   1.421   2.603   4.236 -1.6517 -0.9880  1.1954
 5214SOL    HW227102   1.337   2.509   4.169 -1.8304  1.0389 -0.5315
 5215SOL     OW27103   2.922   1.203   0.279  0.2554  0.1422  0.3415
 5215SOL    HW127104   2.939   1.171   0.190  0.1343  1.6330 -0.2195
 5215SOL    HW227105   2.830   1.227   0.274 -0.0665 -1.1655  0.1269
 5216SOL     OW27106   2.792   3.940   8.183 -0.6031 -0.2367  0.8385
 5216SOL    HW127107   2.772   3.948   8.276  0.0026 -0.1415  0.9592
 5216SOL    HW227108   2.719   3.884   8.157 -0.2093  0.1614 -1.1310
 5217SOL     OW27109   4.379   4.609  12.626  0.1471  0.3288  0.7391
 5217SOL    HW127110   4.445   4.674  12.650 -1.4415  1.4802  1.9759
 5217SOL    HW227111   4.432   4.536  12.592 -0.6573 -0.0709  0.3346
 5218SOL     OW27112   0.454   2.158   6.049  0.4213  0.4113 -0.3695
 5218SOL    HW127113   0.471   2.186   6.139  0.8928  2.3688 -1.0621
 5218SOL    HW227114   0.393   2.225   6.017  0.3916  1.8115  2.5716
 5219SOL     OW27115   2.879   1.135   5.879 -0.3737  0.4007 -0.1119
 5219SOL    HW127116   2.846   1.055   5.919 -0.5604 -0.8194 -2.6665
 5219SOL    HW227117   2.923   1.096   5.803  0.1046  0.6502  0.0401
 5220SOL     OW27118   1.791   1.156   5.265  0.6008 -0.7468  0.3369
 5220SOL    HW127119   1.822   1.224   5.325 -2.2724  1.1870 -0.3488
 5220SOL    HW227120   1.705   1.150   5.306  1.0091 -1.1785  1.1381
 5221SOL     OW27121   3.747   4.404  12.872  0.2718  0.5603 -0.0417
 5221SOL    HW127122   3.806   4.435  12.940  0.2531  0.0287  0.2117
 5221SOL    HW227123   3.793   4.433  12.793  1.5229  0.1210  0.5275
 5222SOL     OW27124   0.097   1.236  15.494 -0.9708  0.3629  0.1630
 5222SOL    HW127125   0.150   1.297  15.444 -0.1193  0.1743  0.8305
 5222SOL    HW227126   0.058   1.171  15.435 -1.7226  1.1892 -0.2442
 5223SOL     OW27127   3.563   0.583   6.330  0.4232  0.0862 -0.5214
 5223SOL    HW127128   3.531   0.639   6.400  1.2226 -1.9852  1.5313
 5223SOL    HW227129   3.490   0.521   6.328 -0.3346  0.9832 -0.5536
 5224SOL     OW27130   1.610   1.011   0.349 -0.0380 -0.0986 -0.2062
 5224SOL    HW127131   1.696   1.052   0.355  0.0674 -0.5124  1.2104
 5224SOL    HW227132   1.602   0.981   0.259 -2.0230 -0.6138  0.1234
 5225SOL     OW27133   0.749   1.031   4.675 -0.3941  0.2390  0.5892
 5225SOL    HW127134   0.776   1.120   4.696 -0.3651 -0.0896  1.9295
 5225SOL    HW227135   0.832   0.982   4.673 -0.2778  0.5240 -1.6638
 5226SOL     OW27136   4.689   3.020   4.302 -0.0474 -0.3106  0.6030
 5226SOL    HW127137   0.002   3.015   4.392 -1.5137  3.7889  1.3940
 5226SOL    HW227138   4.607   3.068   4.315  0.1317  0.0661  0.3502
 5227SOL     OW27139   3.788   2.895  17.664 -0.0991 -0.1265  0.0216
 5227SOL    HW127140   3.806   2.873  17.572  2.4235  2.3122 -0.0690
 5227SOL    HW227141   3.782   2.990  17.653  1.6135  0.3722  3.7272
 5228SOL     OW27142   1.859   2.412  15.860 -0.3816  0.4003  0.1608
 5228SOL    HW127143   1.871   2.436  15.952 -0.1210  1.1664 -0.0694
 5228SOL    HW227144   1.776   2.455  15.840  0.0300  0.0643 -2.2978
 5229SOL     OW27145   0.515   2.478  12.040  0.1741 -0.4625 -0.1113
 5229SOL    HW127146   0.572   2.546  12.076 -1.5460  0.5214  0.7570
 5229SOL    HW227147   0.500   2.421  12.116  1.1419  2.3159  2.1741
 5230SOL     OW27148   0.339   0.763   3.913 -0.3026 -0.5073  0.3775
 5230SOL    HW127149   0.371   0.849   3.886  0.8773 -1.4459 -1.2028
 5230SOL    HW227150   0.363   0.772   4.005  1.4462  2.7501 -0.4019
 5231SOL     OW27151   2.571   4.046   6.862 -0.1838 -0.3512  0.4085
 5231SOL    HW127152   2.506   4.109   6.894 -0.9738 -1.3115  0.6757
 5231SOL    HW227153   2.527   3.974   6.907 -0.2563 -1.3662 -1.3074
 5232SOL     OW27154   0.624   1.788   4.951 -0.2315 -0.5753 -0.7127
 5232SOL    HW127155   0.557   1.738   4.997 -0.8767  0.7513 -0.2302
 5232SOL    HW227156   0.584   1.804   4.865 -0.7880 -0.0164 -0.3424
 5233SOL     OW27157   3.378   2.068   9.151  0.0018 -0.1784 -0.0933
 5233SOL    HW127158   3.343   1.981   9.171 -0.0061 -0.8733 -3.0526
 5233SOL    HW227159   3.467   2.061   9.185  0.1279  0.9557 -0.1989
 5234SOL     OW27160   3.800   0.666   5.641  0.0096 -0.4056  0.2766
 5234SOL    HW127161   3.880   0.717   5.631 -1.0678  1.6036  1.7404
 5234SOL    HW227162   3.806   0.642   5.734  1.0471 -1.8392 -0.1712
 5235SOL     OW27163   2.146   4.165  15.730  0.5978  0.5192 -0.1880
 5235SOL    HW127164   2.198   4.098  15.774  0.9897  0.4905 -0.7025
 5235SOL    HW227165   2.144   4.129  15.641  2.8054  0.5314 -0.2329
 5236SOL     OW27166   4.178   1.870   3.512  0.7838  0.0791 -0.8188
 5236SOL    HW127167   4.170   1.963   3.491 -0.0560  0.2013  0.0424
 5236SOL    HW227168   4.219   1.844   3.429 -0.2083 -1.5749 -0.8030
 5237SOL     OW27169   0.944   0.777  14.150 -0.1651 -0.1603 -0.8070
 5237SOL    HW127170   0.849   0.784  14.163  0.0333  1.3826 -0.1727
 5237SOL    HW227171   0.957   0.702  14.093  0.3959 -0.0872 -0.7728
 5238SOL     OW27172   3.579   4.413   4.775 -0.3457  0.2249  0.5857
 5238SOL    HW127173   3.543   4.445   4.692  2.3607  1.2430 -0.1745
 5238SOL    HW227174   3.582   4.318   4.773 -1.3751  0.1883  0.4516
 5239SOL     OW27175   0.741   3.261   8.121  0.3828 -0.4872  0.0008
 5239SOL    HW127176   0.686   3.283   8.046  1.5008  0.7109 -0.4654
 5239SOL    HW227177   0.714   3.170   8.128 -1.0623 -0.1121 -0.6286
 5240SOL     OW27178   3.005   0.544   6.276 -0.1804 -0.4955  0.1396
 5240SOL    HW127179   3.084   0.549   6.221 -0.5882 -1.3305 -0.5198
 5240SOL    HW227180   2.947   0.602   6.225  2.3822  1.0385 -1.0366
 5241SOL     OW27181   1.189   3.525   2.403 -0.1190 -0.2857  0.1815
 5241SOL    HW127182   1.187   3.443   2.355  0.8118  0.0797 -0.4942
 5241SOL    HW227183   1.227   3.585   2.339  0.2832  0.5739  1.2062
 5242SOL     OW27184   1.787   3.572   7.169  0.0457  0.2303 -0.1190
 5242SOL    HW127185   1.764   3.547   7.080  1.8664 -0.8953 -0.2632
 5242SOL    HW227186   1.864   3.516   7.173 -0.3079 -0.4015 -2.2379
 5243SOL     OW27187   0.901   3.574  15.981 -0.4105 -0.0026  0.2203
 5243SOL    HW127188   0.899   3.547  15.890 -0.4672  0.8412 -0.0307
 5243SOL    HW227189   0.986   3.536  16.003 -0.9889 -0.0669  2.3315
 5244SOL     OW27190   2.224   0.501   9.443  0.3470  0.1278 -0.6867
 5244SOL    HW127191   2.142   0.461   9.474 -0.2707  0.4462 -1.8872
 5244SOL    HW227192   2.182   0.575   9.398  1.1305  0.2661 -1.1887
 5245SOL     OW27193   1.082   0.775   8.296  0.1143  0.3067  0.1012
 5245SOL    HW127194   1.124   0.689   8.292 -2.8331 -1.1447  0.1396
 5245SOL    HW227195   1.025   0.764   8.220  0.6996  2.3010 -0.6208
 5246SOL     OW27196   1.189   4.340  16.290 -0.2252 -0.5979 -0.2383
 5246SOL    HW127197   1.154   4.425  16.262  0.7129 -1.1159 -2.9698
 5246SOL    HW227198   1.132   4.332  16.367  0.6934  3.1997  0.8518
 5247SOL     OW27199   2.322   2.908   5.000  0.2125 -0.5465  0.2935
 5247SOL    HW127200   2.345   2.997   5.026 -1.6243 -0.4666  1.6707
 5247SOL    HW227201   2.370   2.899   4.918 -1.1500 -1.3921 -0.3968
 5248SOL     OW27202   3.209   0.082   2.567 -0.0879  0.2111  0.0460
 5248SOL    HW127203   3.240   0.173   2.567  0.1693  0.1146  0.9955
 5248SOL    HW227204   3.140   0.101   2.503  0.6707  1.2840 -0.4515
 5249SOL     OW27205   4.380   4.348   6.672  0.0379 -0.2547 -0.2055
 5249SOL    HW127206   4.368   4.440   6.647 -1.1830 -1.0827 -2.7185
 5249SOL    HW227207   4.349   4.340   6.762 -1.2904 -1.6793 -0.7875
 5250SOL     OW27208   3.846   4.273   2.723 -0.2450  0.4292 -0.3920
 5250SOL    HW127209   3.833   4.183   2.753 -0.9530  0.6920  0.1113
 5250SOL    HW227210   3.932   4.272   2.682 -0.3889 -0.9555 -0.6543
 5251SOL     OW27211   4.092   4.711   6.165 -0.2543  0.2317  0.2482
 5251SOL    HW127212   4.136   4.629   6.187  1.7188  1.4421  0.8108
 5251SOL    HW227213   4.091   0.033   6.251  0.3858  1.3969 -0.3077
 5252SOL     OW27214   2.853   4.223   2.493  0.1108 -0.0590 -0.1430
 5252SOL    HW127215   2.879   4.249   2.582  0.0209  1.3780 -0.5339
 5252SOL    HW227216   2.833   4.311   2.460  1.7337  0.5919  0.6137
 5253SOL     OW27217   0.110   2.764   6.480  0.4219  0.0193  0.4756
 5253SOL    HW127218   0.053   2.794   6.409 -0.0919 -2.2943 -0.0733
 5253SOL    HW227219   0.140   2.680   6.445  0.4199  0.1801  0.0913
 5254SOL     OW27220   1.993   3.831   6.997 -0.2826  0.1452 -0.0337
 5254SOL    HW127221   2.023   3.780   6.922  0.2500  0.0873  0.2207
 5254SOL    HW227222   1.955   3.763   7.053 -0.2721  0.7387  0.6829
 5255SOL     OW27223   1.324   2.518   5.922 -0.3849 -0.7639 -0.2385
 5255SOL    HW127224   1.316   2.575   5.845  1.1663 -0.6461 -0.3062
 5255SOL    HW227225   1.283   2.438   5.888 -3.9142  1.6133 -1.6361
 5256SOL     OW27226   2.945   2.266   2.235  0.1637 -0.0125 -0.4085
 5256SOL    HW127227   2.956   2.360   2.252 -3.6197  0.7511 -2.2401
 5256SOL    HW227228   3.034   2.237   2.255  0.8724  2.3960 -0.0290
 5257SOL     OW27229   3.827   1.033   2.195 -0.7920  0.2610  0.2578
 5257SOL    HW127230   3.750   1.052   2.141  0.1004  0.9373 -0.7692
 5257SOL    HW227231   3.796   1.036   2.286  1.8129 -0.3753  1.1574
 5258SOL     OW27232   0.881   2.513   8.039 -0.0622  0.1654  0.5685
 5258SOL    HW127233   0.847   2.603   8.040  0.0700  0.2340 -0.7291
 5258SOL    HW227234   0.868   2.499   8.133 -1.8139  0.9223  0.4318
 5259SOL     OW27235   2.011   2.226   6.933 -0.4252  0.0030  0.3442
 5259SOL    HW127236   1.971   2.211   7.019 -0.9678 -3.3652 -0.5123
 5259SOL    HW227237   1.981   2.152   6.880  0.2258  0.3189 -0.4685
 5260SOL     OW27238   0.767   3.336   3.663  0.8637  0.4141  1.0574
 5260SOL    HW127239   0.786   3.412   3.717 -1.8890  1.0629  1.0898
 5260SOL    HW227240   0.781   3.369   3.574 -1.1350  0.5641  0.8024
 5261SOL     OW27241   0.928   2.009  16.558 -0.1947  0.2797 -0.0568
 5261SOL    HW127242   0.922   2.085  16.616  0.2392  0.0772  0.2509
 5261SOL    HW227243   1.017   2.030  16.530  0.0085  1.1295  1.2079
 5262SOL     OW27244   2.116   1.152  13.592 -0.5299  0.1469  0.3319
 5262SOL    HW127245   2.168   1.127  13.516  1.1507  0.0506  1.5166
 5262SOL    HW227246   2.047   1.207  13.554 -2.3395 -1.4827  1.2730
 5263SOL     OW27247   0.692   0.757   2.420 -0.1614  0.0503 -0.4155
 5263SOL    HW127248   0.775   0.735   2.461 -0.1349  1.8081  0.5022
 5263SOL    HW227249   0.629   0.726   2.485 -2.0242 -0.1209 -2.2827
 5264SOL     OW27250   3.314   0.836  12.573  0.2233  0.2266  0.1294
 5264SOL    HW127251   3.408   0.816  12.567  0.4280  1.0329  0.6569
 5264SOL    HW227252   3.283   0.761  12.522  2.0681 -1.2714  1.1863
 5265SOL     OW27253   1.122   2.952   0.737 -0.2218  0.1528  0.4540
 5265SOL    HW127254   1.131   2.936   0.831  0.5586 -1.3148  0.1190
 5265SOL    HW227255   1.039   2.909   0.720 -0.7308  1.2802  0.0710
 5266SOL     OW27256   3.217   2.517   4.826  0.2370  0.1029  0.0361
 5266SOL    HW127257   3.216   2.471   4.909 -0.5898 -1.1383 -0.6703
 5266SOL    HW227258   3.125   2.534   4.807  0.5958  1.3655 -0.6131
 5267SOL     OW27259   0.260   2.548   7.545 -0.8109  0.1024  0.3844
 5267SOL    HW127260   0.201   2.615   7.578 -1.9296  0.1800 -1.7943
 5267SOL    HW227261   0.198   2.493   7.498  2.3128 -2.4484 -0.7983
 5268SOL     OW27262   4.236   1.556   2.774  0.2127  0.4012  0.6670
 5268SOL    HW127263   4.324   1.557   2.810  0.7914 -2.2668 -0.7408
 5268SOL    HW227264   4.198   1.627   2.826  1.5667  0.8840  0.9807
 5269SOL     OW27265   0.494   4.520  12.398  0.4871  0.3025 -0.5360
 5269SOL    HW127266   0.403   4.515  12.428 -0.2457  0.4145 -2.7322
 5269SOL    HW227267   0.477   4.499  12.306  2.1714 -0.4155 -0.6740
 5270SOL     OW27268   0.570   0.987   6.195 -0.5113 -0.4239  0.4715
 5270SOL    HW127269   0.583   1.040   6.273  0.7980  1.5123 -1.0636
 5270SOL    HW227270   0.558   0.901   6.234  1.3224 -0.4704  0.9092
 5271SOL     OW27271   0.982   2.239   6.177  0.4018  0.0107 -0.0615
 5271SOL    HW127272   1.045   2.189   6.229  0.9789 -0.2649 -1.0117
 5271SOL    HW227273   0.927   2.161   6.167 -1.0485  0.9500  0.5853
 5272SOL     OW27274   4.421   3.811   2.660  0.3893 -0.3804 -0.3957
 5272SOL    HW127275   4.394   3.891   2.615  1.7560 -0.5908 -1.5714
 5272SOL    HW227276   4.376   3.741   2.613  0.4390 -0.1435 -0.7889
 5273SOL     OW27277   2.249   2.300   9.134  0.8023  0.5183  0.9501
 5273SOL    HW127278   2.327   2.336   9.176  0.3970  0.5996  1.6246
 5273SOL    HW227279   2.200   2.375   9.102  2.7327  2.4894  2.6144
 5274SOL     OW27280   1.413   1.278  11.793  0.1381 -0.1526 -0.4517
 5274SOL    HW127281   1.337   1.257  11.738 -0.9081 -0.0489  0.9392
 5274SOL    HW227282   1.444   1.360  11.756  2.2666 -0.7024  0.1606
 5275SOL     OW27283   3.639   3.392  13.394 -0.0230  0.7509  0.4443
 5275SOL    HW127284   3.673   3.419  13.480  0.3703 -0.3101  0.6178
 5275SOL    HW227285   3.581   3.318  13.409  0.4701  0.0091 -1.3024
 5276SOL     OW27286   3.311   2.383  14.192 -0.2917 -0.4660  0.1411
 5276SOL    HW127287   3.280   2.325  14.262  0.5322  0.9338  1.6591
 5276SOL    HW227288   3.322   2.468  14.234 -1.9734 -1.5775  2.7787
 5277SOL     OW27289   1.605   2.141   8.365  0.5631  0.2637 -0.0083
 5277SOL    HW127290   1.665   2.120   8.294  0.8654  0.9764  0.0348
 5277SOL    HW227291   1.594   2.052   8.397  0.2906  1.6213  3.6279
 5278SOL     OW27292   1.007   0.403   2.879  0.2250  0.5139 -0.0944
 5278SOL    HW127293   0.911   0.405   2.873  0.2439  1.9455  0.1047
 5278SOL    HW227294   1.030   0.496   2.871 -0.5811  0.6488 -0.8464
 5279SOL     OW27295   0.425   1.492   2.200 -0.0686  0.0548  0.3613
 5279SOL    HW127296   0.363   1.550   2.156 -0.1768  0.9335  1.6520
 5279SOL    HW227297   0.370   1.429   2.247  2.0256 -3.5947 -2.1338
 5280SOL     OW27298   0.231   0.416   8.966 -0.2924 -0.3484  0.1104
 5280SOL    HW127299   0.193   0.481   9.025  0.1324  0.3872 -0.4196
 5280SOL    HW227300   0.300   0.386   9.025 -1.4685 -0.5555  1.3633
 5281SOL     OW27301   3.542   3.985   9.278  0.1277 -0.9274 -0.2002
 5281SOL    HW127302   3.499   4.071   9.278  0.0071 -0.9837  0.1605
 5281SOL    HW227303   3.488   3.947   9.348  1.0329 -2.3763 -0.2773
 5282SOL     OW27304   1.190   4.547   8.557 -0.4037  0.0894 -0.2586
 5282SOL    HW127305   1.240   4.502   8.625  0.6607  2.4968  0.5661
 5282SOL    HW227306   1.126   4.592   8.612 -1.4034 -0.1219 -1.2606
 5283SOL     OW27307   0.342   3.339   3.082  0.0920 -0.7333 -1.2055
 5283SOL    HW127308   0.333   3.244   3.075 -3.5844 -0.4791 -0.3207
 5283SOL    HW227309   0.288   3.358   3.005 -0.8226  0.9710 -0.1627
 5284SOL     OW27310   1.188   0.644  15.626  0.8978 -0.0948  0.5312
 5284SOL    HW127311   1.259   0.663  15.564  0.3234 -1.8770 -0.6633
 5284SOL    HW227312   1.166   0.558  15.591  2.6316 -0.1831 -0.3536
 5285SOL     OW27313   0.348   1.762  16.547 -0.0602  0.4998  0.3231
 5285SOL    HW127314   0.269   1.797  16.588 -0.5238  1.5297 -1.4598
 5285SOL    HW227315   0.306   1.727  16.469  0.0011  1.1105  0.0198
 5286SOL     OW27316   0.494   3.610   0.272  0.2324 -0.2956  0.5436
 5286SOL    HW127317   0.449   3.678   0.322 -0.5303 -1.2326  1.1314
 5286SOL    HW227318   0.412   3.576   0.235  1.2922 -1.7145 -0.4776
 5287SOL     OW27319   2.305   1.359   0.765  0.0415 -0.2324  0.4347
 5287SOL    HW127320   2.396   1.371   0.737 -0.3990  0.2354 -0.7928
 5287SOL    HW227321   2.304   1.334   0.857  2.2411 -1.0052  0.2397
 5288SOL     OW27322   1.394   1.281   6.698  0.2541 -0.2309 -0.1671
 5288SOL    HW127323   1.341   1.356   6.672 -2.1960 -1.6738  0.6944
 5288SOL    HW227324   1.483   1.311   6.681  0.2980  0.1170  0.6606
 5289SOL     OW27325   2.128   2.309   5.748  0.2583  0.2257  0.2966
 5289SOL    HW127326   2.210   2.357   5.738 -0.1327  1.0440  1.0248
 5289SOL    HW227327   2.062   2.377   5.757 -1.0476 -0.7905 -1.6623
 5290SOL     OW27328   2.740   2.326  14.636  0.5391  0.3900 -0.5219
 5290SOL    HW127329   2.820   2.320  14.688 -0.3798  0.1321  0.8500
 5290SOL    HW227330   2.735   2.245  14.584 -0.2355  0.9101 -1.2601
 5291SOL     OW27331   4.257   3.689   6.166 -0.0070  0.3452 -0.4408
 5291SOL    HW127332   4.188   3.653   6.109 -0.5762 -0.5025  0.7874
 5291SOL    HW227333   4.220   3.665   6.251 -1.4034  0.4362 -1.0081
 5292SOL     OW27334   1.432   3.731  12.039  0.2580  0.1188  0.2282
 5292SOL    HW127335   1.340   3.728  12.013  0.1951 -0.7414  0.5682
 5292SOL    HW227336   1.466   3.663  11.980  0.8274  0.4915  0.1220
 5293SOL     OW27337   3.427   0.632   4.992  0.0598  0.1701  0.2267
 5293SOL    HW127338   3.481   0.711   4.989 -0.3006  0.4132  0.2868
 5293SOL    HW227339   3.497   0.566   4.993 -1.1465 -1.0909  1.0495
 5294SOL     OW27340   1.005   2.283   5.908  0.3882  0.0023  0.4400
 5294SOL    HW127341   1.100   2.274   5.916  0.6416  1.2008 -1.1130
 5294SOL    HW227342   0.976   2.252   5.993  3.5686  0.8553  1.8447
 5295SOL     OW27343   3.139   0.445  16.993 -0.0167 -0.0278  0.1402
 5295SOL    HW127344   3.128   0.539  16.977  1.5158 -0.0022 -0.7619
 5295SOL    HW227345   3.230   0.434  16.966 -0.6757 -0.3877 -1.9321
 5296SOL     OW27346   1.879   4.701   5.058  0.4247  0.1745 -0.5716
 5296SOL    HW127347   1.930   4.670   5.133 -0.9267  0.3436  0.4311
 5296SOL    HW227348   1.831   0.058   5.089  0.0924 -1.7287  3.7011
 5297SOL     OW27349   1.781   2.457   3.809 -0.1780 -0.2917 -0.0528
 5297SOL    HW127350   1.691   2.485   3.822 -0.7891 -2.3962  0.1698
 5297SOL    HW227351   1.792   2.416   3.894  0.6611 -2.5686 -1.2690
 5298SOL     OW27352   0.003   4.005   9.415  0.2547 -0.3125 -0.0227
 5298SOL    HW127353   0.044   3.936   9.362  2.2227  0.4029  0.5719
 5298SOL    HW227354   4.717   4.075   9.351  0.3604 -1.9726 -1.8571
 5299SOL     OW27355   2.107   3.126   0.767 -0.3411  0.2054  0.3069
 5299SOL    HW127356   2.100   3.222   0.771  1.2169  0.3561 -0.3398
 5299SOL    HW227357   2.143   3.113   0.680 -2.5672  0.1413 -0.5937
 5300SOL     OW27358   3.992   2.122   6.489  0.2110  0.2586  0.1934
 5300SOL    HW127359   4.043   2.061   6.542 -0.4016 -0.4816 -0.0764
 5300SOL    HW227360   3.920   2.120   6.552  0.1572  1.3684  0.1644
 5301SOL     OW27361   3.059   1.650   6.230  0.3190 -0.6360  0.4530
 5301SOL    HW127362   3.014   1.672   6.312  0.1393  0.2503  0.1155
 5301SOL    HW227363   3.101   1.730   6.198 -0.6513 -0.8925 -1.4706
 5302SOL     OW27364   4.480   1.571   4.539  0.1395 -0.3704  0.3969
 5302SOL    HW127365   4.493   1.594   4.447 -2.9102  1.5628  0.4522
 5302SOL    HW227366   4.572   1.562   4.566  0.6202 -1.8049 -1.7005
 5303SOL     OW27367   3.858   1.642  13.630  0.1497  0.4326  0.3764
 5303SOL    HW127368   3.839   1.574  13.567  1.3529  0.3928  0.0600
 5303SOL    HW227369   3.779   1.693  13.614 -1.5671 -1.8498  1.5361
 5304SOL     OW27370   4.551   2.759  10.399 -0.2872  0.5236  0.0161
 5304SOL    HW127371   4.494   2.731  10.328  2.8036  1.1802 -2.7377
 5304SOL    HW227372   4.613   2.799  10.338 -1.3413  2.0774 -0.0536
 5305SOL     OW27373   3.554   1.724  15.492 -0.2043 -1.0283 -0.8841
 5305SOL    HW127374   3.595   1.805  15.524 -1.6284 -0.2758 -0.9558
 5305SOL    HW227375   3.503   1.693  15.566 -1.3945 -0.0805 -1.3107
 5306SOL     OW27376   0.790   1.751  17.641  0.5565  0.4082 -0.0980
 5306SOL    HW127377   0.717   1.692  17.625  0.5554  0.8023 -1.5012
 5306SOL    HW227378   0.862   1.688  17.637 -1.3520 -1.6769 -1.6312
 5307SOL     OW27379   2.439   2.863   5.371 -0.3482 -0.0063 -0.3025
 5307SOL    HW127380   2.441   2.959   5.379 -0.4844 -0.0097 -0.2218
 5307SOL    HW227381   2.410   2.837   5.458  0.8551  0.2870  0.1714
 5308SOL     OW27382   0.145   4.559   4.723  0.5976 -0.0226 -0.3898
 5308SOL    HW127383   0.082   4.596   4.785  2.5873  2.5117  0.1324
 5308SOL    HW227384   0.130   4.631   4.661 -1.9214  1.4417  1.9145
 5309SOL     OW27385   3.546   3.305   1.542 -0.3897  0.2004 -0.4918
 5309SOL    HW127386   3.572   3.237   1.480 -1.2692 -0.4081 -0.1906
 5309SOL    HW227387   3.458   3.327   1.513  0.0007  1.6563 -0.5332
 5310SOL     OW27388   2.257   2.912   4.145 -0.2081  0.5412  0.1650
 5310SOL    HW127389   2.240   2.912   4.051 -0.8038  0.6427  0.2743
 5310SOL    HW227390   2.229   3.000   4.171 -0.0079  0.2260  1.4568
 5311SOL     OW27391   4.629   2.258   9.380  0.5604  0.2926  0.4905
 5311SOL    HW127392   4.590   2.345   9.368  0.0226  0.0093  0.2068
 5311SOL    HW227393   4.586   2.230   9.461 -1.0894  0.8466 -0.1886
 5312SOL     OW27394   4.614   4.575   4.270 -0.5558  0.2100 -0.0840
 5312SOL    HW127395   4.614   4.634   4.195 -1.1386  3.2260  2.2844
 5312SOL    HW227396   4.588   4.492   4.231  0.3011 -1.0907  2.1107
 5313SOL     OW27397   1.122   4.191   4.838  0.8300  0.1944 -0.0779
 5313SOL    HW127398   1.054   4.256   4.855  0.1135  0.1004 -2.5219
 5313SOL    HW227399   1.192   4.246   4.803  2.8070 -0.2741  3.2445
 5314SOL     OW27400   0.242   1.690  16.322  0.0291 -0.2574  0.5380
 5314SOL    HW127401   0.180   1.653  16.260  0.4988  0.7785 -0.5437
 5314SOL    HW227402   0.323   1.692  16.270 -1.5902  2.2851 -1.8673
 5315SOL     OW27403   2.801   2.029   2.171  0.1300  0.1526 -0.1667
 5315SOL    HW127404   2.844   2.102   2.216 -2.1879  3.2031 -2.9330
 5315SOL    HW227405   2.871   1.964   2.177  0.4197  0.4716 -0.0557
 5316SOL     OW27406   2.333   1.844  14.293  0.0754  0.3902 -0.2793
 5316SOL    HW127407   2.428   1.841  14.302  0.0679 -1.4861 -0.6544
 5316SOL    HW227408   2.305   1.771  14.349 -0.8097 -0.0723 -1.3174
 5317SOL     OW27409   1.335   0.080   4.739  0.1362  0.0016 -0.7039
 5317SOL    HW127410   1.365   0.155   4.790 -1.8302  1.3770 -1.5866
 5317SOL    HW227411   1.242   0.100   4.753  0.4778 -0.1611  1.8501
 5318SOL     OW27412   2.544   4.028   2.628 -0.3182 -0.2719 -0.6445
 5318SOL    HW127413   2.598   3.950   2.633  3.2671  2.2401  0.0191
 5318SOL    HW227414   2.582   4.072   2.705 -0.0042 -0.1687 -0.8586
 5319SOL     OW27415   1.081   1.571   0.978 -0.6285  0.2187 -0.3249
 5319SOL    HW127416   1.044   1.485   0.999 -2.5591  0.9086 -0.8411
 5319SOL    HW227417   1.145   1.557   0.909 -0.3987 -1.9946  0.3699
 5320SOL     OW27418   2.509   3.523   7.101 -0.1150 -0.3518  0.5925
 5320SOL    HW127419   2.554   3.444   7.072  1.5092 -0.0613  2.3789
 5320SOL    HW227420   2.423   3.505   7.063 -0.6174  0.5323  1.3043
 5321SOL     OW27421   0.515   0.205   6.190  0.3023 -0.1214 -0.2203
 5321SOL    HW127422   0.471   0.256   6.122 -2.7255  1.2617  2.7556
 5321SOL    HW227423   0.560   0.134   6.146 -0.7127  0.0880 -1.5957
 5322SOL     OW27424   1.991   3.102   3.944 -0.3254  0.0406 -0.3477
 5322SOL    HW127425   2.046   3.024   3.938 -0.3132 -0.1486  2.2276
 5322SOL    HW227426   1.911   3.065   3.906 -0.4141 -0.3059  0.1605
 5323SOL     OW27427   2.087   3.704   0.389  0.0577 -0.0299 -0.2290
 5323SOL    HW127428   2.141   3.626   0.402 -0.6281 -0.3356  0.8363
 5323SOL    HW227429   2.004   3.672   0.424  1.1915 -0.2611  2.2439
 5324SOL     OW27430   4.517   1.014   6.876  0.1128 -0.1410  0.5220
 5324SOL    HW127431   4.451   1.071   6.914  1.7798  1.7885  0.5018
 5324SOL    HW227432   4.497   1.015   6.782 -0.3239  0.2601  0.6185
 5325SOL     OW27433   0.469   0.672   5.023  0.0826  0.0819  0.9400
 5325SOL    HW127434   0.411   0.710   4.956  1.2329  0.3549  0.1079
 5325SOL    HW227435   0.408   0.625   5.080  1.2060 -0.7417  1.4449
 5326SOL     OW27436   0.942   4.117   6.263  0.1955 -0.3869 -0.0484
 5326SOL    HW127437   0.882   4.090   6.193 -0.6050 -0.1821  0.5511
 5326SOL    HW227438   0.873   4.150   6.321  0.0021 -2.2677  0.7924
 5327SOL     OW27439   1.380   0.698   0.308 -0.1844  0.3425 -0.1277
 5327SOL    HW127440   1.330   0.618   0.321 -1.5983  1.1752 -0.4459
 5327SOL    HW227441   1.402   0.723   0.398  0.3850  1.1165 -0.4724
 5328SOL     OW27442   4.328   1.353   0.493 -0.5613 -0.4624 -0.1879
 5328SOL    HW127443   4.354   1.365   0.585 -3.2047 -1.3766  0.6703
 5328SOL    HW227444   4.359   1.431   0.446 -3.3197 -0.2120 -1.5497
 5329SOL     OW27445   1.021   2.767   5.237 -0.0313  0.3887  0.3757
 5329SOL    HW127446   1.076   2.818   5.296 -0.3754  1.7303 -0.4715
 5329SOL    HW227447   1.008   2.820   5.158  2.3955  0.8554  0.2992
 5330SOL     OW27448   4.044   1.907   3.108 -0.1823 -0.2869 -0.4460
 5330SOL    HW127449   3.983   1.980   3.116  2.1177  1.8850 -2.6825
 5330SOL    HW227450   4.009   1.845   3.173 -3.7652  1.0376 -1.1090
 5331SOL     OW27451   3.969   0.746   3.643 -0.4947  0.3855 -0.0253
 5331SOL    HW127452   4.035   0.718   3.579 -0.1265  0.2791  0.3961
 5331SOL    HW227453   4.022   0.754   3.723 -1.7840  1.4865  0.7138
 5332SOL     OW27454   3.856   3.524   2.813  0.6694  0.1375  0.1932
 5332SOL    HW127455   3.782   3.569   2.853  2.6264  3.1576  0.3882
 5332SOL    HW227456   3.915   3.508   2.887 -0.3717 -2.8450  0.3685
 5333SOL     OW27457   4.547   2.474   2.477  0.2944  0.7173 -0.4360
 5333SOL    HW127458   4.504   2.423   2.409  0.4266 -1.5107  1.1555
 5333SOL    HW227459   4.600   2.404   2.516 -1.7272 -0.4601  0.1627
 5334SOL     OW27460   0.754   3.020   8.954  0.5490 -0.5567  0.0098
 5334SOL    HW127461   0.758   3.115   8.945 -0.6057 -0.5970 -0.9843
 5334SOL    HW227462   0.755   3.005   9.049  0.0834 -0.7076 -0.0085
 5335SOL     OW27463   3.063   4.661   8.977 -0.4070  0.0850 -0.2908
 5335SOL    HW127464   3.105   4.594   8.923  0.0831  0.0322  0.1646
 5335SOL    HW227465   2.970   4.658   8.955 -0.3724  1.5718 -0.6676
 5336SOL     OW27466   1.891   2.831   6.098  0.1931  0.0334  0.2691
 5336SOL    HW127467   1.971   2.807   6.050 -0.0342 -1.6502  0.7621
 5336SOL    HW227468   1.889   2.755   6.155  0.5593 -0.3162 -0.1846
 5337SOL     OW27469   0.826   1.755   3.316  0.5960  0.3244  0.2332
 5337SOL    HW127470   0.803   1.778   3.406  1.5789  0.8087  0.3660
 5337SOL    HW227471   0.828   1.837   3.268  0.0376  0.7239  0.8986
 5338SOL     OW27472   0.635   1.752  10.974 -0.2597  0.0987 -0.4068
 5338SOL    HW127473   0.579   1.808  11.028  0.3099  0.2620  0.0194
 5338SOL    HW227474   0.577   1.711  10.909  0.3114 -1.8688  0.3026
 5339SOL     OW27475   3.947   0.354  16.992 -0.0289 -0.1132  0.4714
 5339SOL    HW127476   3.893   0.330  17.067 -2.1927 -0.4087 -1.1881
 5339SOL    HW227477   3.930   0.279  16.934  0.9156  0.4215 -0.4909
 5340SOL     OW27478   2.506   2.100   3.589  0.1844  0.1748 -0.9658
 5340SOL    HW127479   2.545   2.039   3.526 -0.2931 -0.2313 -0.8707
 5340SOL    HW227480   2.473   2.172   3.535 -0.8301  1.2167  1.0314
 5341SOL     OW27481   3.640   1.133  17.434 -0.0251 -0.3008  0.2323
 5341SOL    HW127482   3.676   1.192  17.500  1.6019  0.3423 -1.2523
 5341SOL    HW227483   3.717   1.085  17.403  0.8173  0.7904  0.6468
 5342SOL     OW27484   1.640   4.381  17.030  1.1297 -0.2665  0.6857
 5342SOL    HW127485   1.656   4.352  16.940 -0.0155 -1.4872  0.8720
 5342SOL    HW227486   1.578   4.314  17.061  0.3379 -1.7477 -4.1432
 5343SOL     OW27487   4.285   2.268  17.138 -0.3905  0.3141 -0.3834
 5343SOL    HW127488   4.302   2.319  17.217 -0.5667  0.6417 -0.5583
 5343SOL    HW227489   4.274   2.176  17.161 -0.0649  0.2801 -0.3665
 5344SOL     OW27490   4.505   1.275  12.040  0.2597 -0.2451  0.0474
 5344SOL    HW127491   4.590   1.263  11.996  0.1744  0.7332 -0.3837
 5344SOL    HW227492   4.490   1.366  12.014 -1.0756 -0.2438  0.8451
 5345SOL     OW27493   2.515   3.979   5.255 -0.3411 -0.4183 -0.0136
 5345SOL    HW127494   2.554   3.926   5.185 -0.3510  0.2198 -0.4978
 5345SOL    HW227495   2.551   4.066   5.239 -1.2334 -0.0824 -0.2389
 5346SOL     OW27496   0.855   3.276   9.018 -0.1574  0.0615 -0.0900
 5346SOL    HW127497   0.889   3.333   9.087  2.0802 -0.8135 -0.4764
 5346SOL    HW227498   0.784   3.331   8.985 -0.2017 -0.0866 -0.2436
 5347SOL     OW27499   4.484   2.594   3.073 -0.6187 -0.4044  0.6523
 5347SOL    HW127500   4.425   2.577   2.999 -0.9608 -0.4281  0.9308
 5347SOL    HW227501   4.427   2.634   3.139  0.3954  0.1701  1.1804
 5348SOL     OW27502   3.469   1.109  17.088 -0.4290 -0.3470  0.3285
 5348SOL    HW127503   3.556   1.127  17.051  0.4243 -3.2359  0.9230
 5348SOL    HW227504   3.447   1.201  17.102 -0.7559 -0.4155  0.2680
 5349SOL     OW27505   1.727   2.961   7.572 -0.2324  0.6559  0.2076
 5349SOL    HW127506   1.800   3.022   7.562 -0.3778  1.0697  1.6930
 5349SOL    HW227507   1.696   2.969   7.662 -1.4318  0.5257 -0.1924
 5350SOL     OW27508   4.287   0.348   2.794 -0.0041  0.1787  0.1969
 5350SOL    HW127509   4.229   0.376   2.723 -1.1499  0.9648  1.4335
 5350SOL    HW227510   4.257   0.411   2.859  1.3099 -0.3400  1.3001
 5351SOL     OW27511   2.135   0.478  11.256  0.6293  0.0304  0.1394
 5351SOL    HW127512   2.180   0.519  11.329 -0.6667  0.6356  0.5918
 5351SOL    HW227513   2.185   0.396  11.260 -1.5827 -1.2790  0.9994
 5352SOL     OW27514   4.289   4.322   3.556  0.1803  0.0753  0.1100
 5352SOL    HW127515   4.200   4.359   3.561  0.1361  0.0126 -0.2407
 5352SOL    HW227516   4.269   4.233   3.529 -0.4433  0.5805 -1.1102
 5353SOL     OW27517   2.276   1.742   5.721  0.0123  0.4825 -0.2240
 5353SOL    HW127518   2.241   1.655   5.700  0.8834  0.6258 -2.2533
 5353SOL    HW227519   2.310   1.714   5.806 -1.1795  1.1795  0.4928
 5354SOL     OW27520   2.630   2.756  17.585 -0.2942  0.6941  0.0866
 5354SOL    HW127521   2.683   2.682  17.557 -1.1743  0.2613 -0.4233
 5354SOL    HW227522   2.570   2.702  17.635 -1.9146  0.2432 -2.3198
 5355SOL     OW27523   3.009   1.621   9.491  0.1598  0.2367 -0.4247
 5355SOL    HW127524   2.955   1.542   9.494 -0.1852  0.4329 -1.5944
 5355SOL    HW227525   2.967   1.673   9.423  1.1796 -0.7901 -1.8258
 5356SOL     OW27526   3.064   0.834   3.160 -0.6072 -0.1764 -0.2672
 5356SOL    HW127527   3.016   0.833   3.078 -1.7655  0.6930  0.4102
 5356SOL    HW227528   3.066   0.929   3.166 -1.3243 -0.3372  2.6505
 5357SOL     OW27529   4.654   3.596  12.031 -0.4093 -0.1502  0.3163
 5357SOL    HW127530   4.611   3.596  12.117  1.5949 -2.0643  1.3464
 5357SOL    HW227531   0.024   3.567  12.046 -0.7912 -1.5227 -0.0226
 5358SOL     OW27532   4.677   0.989   2.854 -0.2170 -0.2156  0.1734
 5358SOL    HW127533   4.682   1.076   2.813 -1.5434  0.6733  1.8658
 5358SOL    HW227534   0.001   0.929   2.794  1.6952  0.7735  0.5610
 5359SOL     OW27535   0.692   2.059   6.465  0.3633  0.2755  0.0347
 5359SOL    HW127536   0.625   2.027   6.525  0.0871  2.5872  0.9580
 5359SOL    HW227537   0.717   2.142   6.504 -0.9263 -0.5180  2.5523
 5360SOL     OW27538   1.520   2.495   6.695  0.0727  0.0226  0.2533
 5360SOL    HW127539   1.454   2.558   6.663 -3.5021 -3.3836  0.9148
 5360SOL    HW227540   1.592   2.528   6.642  1.4373  0.6155  2.5070
 5361SOL     OW27541   3.603   1.511   8.385 -0.0771 -0.1822 -0.1577
 5361SOL    HW127542   3.632   1.494   8.296  0.7086  0.5593 -0.0406
 5361SOL    HW227543   3.511   1.489   8.371 -0.0910  0.4077 -0.9719
 5362SOL     OW27544   3.706   4.294  15.667 -0.5688 -0.0161  0.2703
 5362SOL    HW127545   3.625   4.305  15.717  0.7806  1.7378  2.0876
 5362SOL    HW227546   3.702   4.372  15.612  1.3973  1.2867  1.9708
 5363SOL     OW27547   3.795   1.462   7.581 -0.4456  0.2299  0.0162
 5363SOL    HW127548   3.806   1.534   7.520 -1.0357  0.6435  0.3974
 5363SOL    HW227549   3.880   1.460   7.624 -0.1641  3.8343 -0.3557
 5364SOL     OW27550   0.612   3.043   7.259 -0.2520  0.1022  0.3041
 5364SOL    HW127551   0.689   3.091   7.290  0.2871  0.0888 -1.0270
 5364SOL    HW227552   0.635   2.951   7.270 -1.4604 -0.2461 -0.0742
 5365SOL     OW27553   2.305   2.252   4.348 -0.7244  0.1071 -0.2930
 5365SOL    HW127554   2.315   2.164   4.311 -0.6078 -0.1601  0.3667
 5365SOL    HW227555   2.322   2.232   4.440 -3.4753 -1.1209 -0.0414
 5366SOL     OW27556   2.918   2.676   4.424  0.3361 -0.2171  0.2259
 5366SOL    HW127557   2.984   2.609   4.408 -2.1015 -2.5186 -0.2894
 5366SOL    HW227558   2.838   2.627   4.443  0.0489  0.3655  0.5388
 5367SOL     OW27559   4.420   1.122   6.636  0.1691 -0.5700  0.1021
 5367SOL    HW127560   4.486   1.190   6.628  0.3745 -0.8408 -0.5284
 5367SOL    HW227561   4.445   1.068   6.561  3.3341 -1.3572  1.7620
 5368SOL     OW27562   0.194   2.323   6.863 -0.2695  0.1139 -0.0144
 5368SOL    HW127563   0.244   2.335   6.782 -1.0397 -2.2337 -0.8301
 5368SOL    HW227564   0.141   2.247   6.839  0.1082 -0.3719  0.6859
 5369SOL     OW27565   4.510   2.977  14.827 -0.7035 -0.5491  0.0364
 5369SOL    HW127566   4.604   2.982  14.807 -1.1828  1.6292 -1.7609
 5369SOL    HW227567   4.494   2.893  14.784  1.7683 -1.1332  0.2236
 5370SOL     OW27568   0.641   2.692   4.031 -0.0339  0.2254 -0.0324
 5370SOL    HW127569   0.562   2.638   4.026 -0.2531  0.6086 -0.6709
 5370SOL    HW227570   0.708   2.631   3.999  1.7431  1.7303  0.8081
 5371SOL     OW27571   3.805   4.391   1.391 -0.2675 -0.4450  0.3240
 5371SOL    HW127572   3.855   4.325   1.343 -0.9061 -2.6250  2.6310
 5371SOL    HW227573   3.872   4.457   1.409 -1.9943  1.1949  0.7708
 5372SOL     OW27574   2.112   2.631   3.136 -0.5017 -0.4855 -0.0463
 5372SOL    HW127575   2.050   2.704   3.129  0.2921  0.1569 -0.4062
 5372SOL    HW227576   2.195   2.676   3.122 -1.5895  1.2645 -0.8763
 5373SOL     OW27577   4.192   3.263   4.431 -0.1160  0.6000 -0.3287
 5373SOL    HW127578   4.158   3.315   4.503  0.5758  2.0781 -1.0697
 5373SOL    HW227579   4.139   3.184   4.422  1.3404 -0.4818  0.5839
 5374SOL     OW27580   2.579   1.638   7.257  0.3422  0.2230 -0.8825
 5374SOL    HW127581   2.502   1.582   7.271  0.4501  0.7246  1.8565
 5374SOL    HW227582   2.547   1.720   7.294  0.6898  0.0535 -0.1970
 5375SOL     OW27583   3.688   1.793   8.334  0.0485  0.5733 -0.0413
 5375SOL    HW127584   3.691   1.703   8.368  0.1165  0.9876  1.0407
 5375SOL    HW227585   3.595   1.811   8.325  0.2593  0.0585 -3.0774
 5376SOL     OW27586   0.852   3.859  15.961  0.5145  0.5635  0.6042
 5376SOL    HW127587   0.849   3.893  15.871  3.4125 -1.5780 -0.3352
 5376SOL    HW227588   0.888   3.770  15.952  1.7356  1.1372 -0.2871
 5377SOL     OW27589   1.433   2.766   7.615  0.3174  0.0143  0.3149
 5377SOL    HW127590   1.339   2.765   7.630  0.3938  0.1307  0.7928
 5377SOL    HW227591   1.473   2.743   7.699  0.9007  0.0015  0.0382
 5378SOL     OW27592   0.511   2.047   2.665 -1.0626  0.1539 -0.5449
 5378SOL    HW127593   0.518   2.029   2.759  2.0592  1.0533 -0.5887
 5378SOL    HW227594   0.521   1.964   2.618 -0.0138 -0.9196  1.5765
 5379SOL     OW27595   2.904   2.524   6.538  0.1915 -0.1595  0.0501
 5379SOL    HW127596   2.957   2.484   6.608 -0.3259  4.0310  2.8583
 5379SOL    HW227597   2.834   2.557   6.594 -0.1549  0.2783 -0.6518
 5380SOL     OW27598   4.041   0.622  15.353  0.5120 -0.2752 -0.4175
 5380SOL    HW127599   4.039   0.557  15.283 -1.1704 -0.8247  0.1265
 5380SOL    HW227600   3.993   0.574  15.421  1.2184 -0.2808  0.0706
 5381SOL     OW27601   3.892   0.728   7.533 -0.1101 -0.0635 -0.3948
 5381SOL    HW127602   3.859   0.818   7.538  0.3668  0.0496  0.7737
 5381SOL    HW227603   3.809   0.690   7.562 -0.8969  3.0055  1.3723
 5382SOL     OW27604   0.491   2.807   0.763 -0.1184 -0.0882  0.0208
 5382SOL    HW127605   0.504   2.861   0.685 -0.5650  0.1958  0.1425
 5382SOL    HW227606   0.557   2.839   0.825 -2.0339  2.0815  0.9390
 5383SOL     OW27607   4.188   2.321   4.408 -0.6985  0.2777  0.5527
 5383SOL    HW127608   4.181   2.386   4.477 -0.8811  1.3073 -0.4438
 5383SOL    HW227609   4.126   2.256   4.442  0.1145 -0.6472  0.2504
 5384SOL     OW27610   2.474   2.642   0.068 -0.0018 -0.1085  0.7391
 5384SOL    HW127611   2.476   2.559   0.115 -0.5574 -0.8245 -0.5137
 5384SOL    HW227612   2.494   2.709   0.133  0.5970  1.0991 -0.6879
 5385SOL     OW27613   1.379   3.989   8.987  0.2190  0.1492  0.0809
 5385SOL    HW127614   1.340   3.967   9.071 -0.2692 -0.0319 -0.1907
 5385SOL    HW227615   1.342   3.927   8.924  0.3903 -0.1336  0.2577
 5386SOL     OW27616   2.207   4.009   8.346  0.3064 -0.4357  0.0958
 5386SOL    HW127617   2.257   4.090   8.360 -1.3243  0.4138  0.9335
 5386SOL    HW227618   2.284   3.958   8.321  0.6157  0.6406 -1.2025
 5387SOL     OW27619   0.695   3.338   7.439  0.3641 -0.2532  0.0057
 5387SOL    HW127620   0.703   3.376   7.526  0.9643 -2.3038  0.8450
 5387SOL    HW227621   0.600   3.337   7.434  0.3636 -0.1933  0.0084
 5388SOL     OW27622   2.001   1.009   4.840  0.3380  0.5321 -0.0368
 5388SOL    HW127623   1.955   1.041   4.763 -0.5186 -0.6203 -0.0079
 5388SOL    HW227624   1.943   0.936   4.864 -1.4458  1.5884 -1.1885
 5389SOL     OW27625   4.310   2.813   6.370  0.3693  0.0107  0.2338
 5389SOL    HW127626   4.218   2.794   6.392  0.9949 -0.6113  2.2656
 5389SOL    HW227627   4.308   2.894   6.420 -0.3703 -0.4827  0.9941
 5390SOL     OW27628   1.025   1.072   6.734 -0.2763  0.5574 -0.3859
 5390SOL    HW127629   1.112   1.050   6.765  0.4833 -0.8081 -3.5179
 5390SOL    HW227630   1.011   1.157   6.776 -0.7244  0.4194 -0.2599
 5391SOL     OW27631   3.703   2.564  16.727 -0.1108  0.2299 -0.4206
 5391SOL    HW127632   3.631   2.504  16.749 -0.2026  0.5882  0.2484
 5391SOL    HW227633   3.656   2.638  16.689  0.6526  0.9920  0.1164
 5392SOL     OW27634   2.572   0.015   1.832  0.7778  0.0471  0.0379
 5392SOL    HW127635   2.497   0.073   1.815  1.9539  1.4361 -0.4115
 5392SOL    HW227636   2.529   4.657   1.798 -1.0312  2.0725 -2.3609
 5393SOL     OW27637   3.564   3.592  13.216  0.3548  0.4244 -0.6627
 5393SOL    HW127638   3.587   3.514  13.266 -1.9911  0.0690 -0.1823
 5393SOL    HW227639   3.574   3.657  13.285 -0.5961  1.2927 -1.3496
 5394SOL     OW27640   3.587   0.734  12.300  0.2454 -0.4478 -0.1283
 5394SOL    HW127641   3.559   0.648  12.269  0.8467 -0.2772 -1.1644
 5394SOL    HW227642   3.606   0.778  12.217  0.9429 -1.8370 -0.6979
 5395SOL     OW27643   3.518   0.415  11.812  0.8880  0.5693 -0.1648
 5395SOL    HW127644   3.515   0.457  11.898 -0.1732  0.0096  0.0782
 5395SOL    HW227645   3.539   0.325  11.837 -0.0333  0.2146 -0.6823
 5396SOL     OW27646   0.352   4.487   4.180 -0.1849  0.4234  0.0153
 5396SOL    HW127647   0.393   4.416   4.230 -0.7760  1.1838  1.5836
 5396SOL    HW227648   0.352   4.446   4.094  2.5227 -0.5174  0.4505
 5397SOL     OW27649   4.371   0.302   5.208 -0.0563 -0.1605 -0.1463
 5397SOL    HW127650   4.341   0.390   5.183  0.8908  0.8088  2.2119
 5397SOL    HW227651   4.334   0.316   5.295  0.6844 -1.4192  0.3683
 5398SOL     OW27652   4.267   1.060  12.869  0.1358 -0.3052  0.9130
 5398SOL    HW127653   4.225   1.145  12.880 -1.2573 -1.0515  1.3241
 5398SOL    HW227654   4.276   1.035  12.961 -2.3657 -3.2546  0.3544
 5399SOL     OW27655   1.059   0.172   4.605 -0.0707 -0.3205 -0.2493
 5399SOL    HW127656   1.067   0.079   4.581  0.0856 -0.3459 -0.1019
 5399SOL    HW227657   0.966   0.182   4.588 -0.2574 -0.6595  0.5834
 5400SOL     OW27658   1.369   4.069   2.832  0.1860 -0.4462 -0.5787
 5400SOL    HW127659   1.322   4.138   2.880  0.0664 -0.1115 -1.1665
 5400SOL    HW227660   1.298   4.046   2.773 -0.2722 -0.2323 -0.1166
 5401SOL     OW27661   2.881   1.249   4.500 -0.4242 -0.0183  0.0498
 5401SOL    HW127662   2.846   1.202   4.576  1.8007 -0.1271  0.9898
 5401SOL    HW227663   2.916   1.324   4.547  1.9185 -1.9855  1.3760
 5402SOL     OW27664   1.623   4.520  10.873  0.2854 -0.4542  0.2946
 5402SOL    HW127665   1.580   4.489  10.793  0.6206  0.0922 -0.0888
 5402SOL    HW227666   1.638   4.614  10.865  1.0561 -0.5811  0.2532
 5403SOL     OW27667   2.255   0.208   3.338 -0.7682  0.2173 -0.4421
 5403SOL    HW127668   2.209   0.125   3.348 -0.4190  0.0996  0.2111
 5403SOL    HW227669   2.253   0.215   3.243  1.7433 -0.5255 -0.5480
 5404SOL     OW27670   3.569   4.265  16.253  0.3542  0.0354  0.0045
 5404SOL    HW127671   3.547   4.342  16.306 -0.8498  1.0033 -1.9283
 5404SOL    HW227672   3.620   4.213  16.315  0.3040 -0.4282 -0.3479
 5405SOL     OW27673   4.325   1.060   0.529  0.3173 -1.0107  0.4720
 5405SOL    HW127674   4.322   1.153   0.510  0.1123 -1.1183 -0.0123
 5405SOL    HW227675   4.399   1.026   0.478 -0.8807 -0.6800 -1.4666
 5406SOL     OW27676   2.825   0.390  15.031 -0.1110  0.3363  0.2027
 5406SOL    HW127677   2.761   0.448  15.073 -0.8136  0.3557 -0.8879
 5406SOL    HW227678   2.851   0.439  14.953 -1.2710  0.6383  0.0079
 5407SOL     OW27679   0.084   3.224   8.625  0.5694 -0.0949  0.1952
 5407SOL    HW127680   0.143   3.230   8.700  1.8279 -0.3584 -0.7620
 5407SOL    HW227681   0.127   3.167   8.561 -0.0872  0.4231 -0.7209
 5408SOL     OW27682   0.979   1.953   6.865 -0.6312  0.3068 -0.5788
 5408SOL    HW127683   0.907   1.988   6.918 -2.2717  0.6813 -3.1017
 5408SOL    HW227684   0.979   1.864   6.901 -1.5457 -0.5333 -2.6576
 5409SOL     OW27685   1.661   3.064   7.222 -0.4018  0.6659  0.2095
 5409SOL    HW127686   1.655   3.042   7.314  1.6572  0.1217  0.2090
 5409SOL    HW227687   1.657   2.973   7.191 -0.2366  0.8146 -0.2455
 5410SOL     OW27688   3.530   1.767   4.262 -0.1290 -0.5392  0.0238
 5410SOL    HW127689   3.618   1.783   4.298 -0.8545  0.4192  1.3508
 5410SOL    HW227690   3.470   1.783   4.334  0.1406 -2.0351  0.5839
 5411SOL     OW27691   4.157   0.788  11.017 -0.0435  0.1157 -0.5107
 5411SOL    HW127692   4.234   0.790  10.960 -0.5052  0.3504 -1.1292
 5411SOL    HW227693   4.095   0.847  10.973  0.1576  1.5015  1.0946
 5412SOL     OW27694   3.384   0.730  15.087  0.1093  0.7407  0.3367
 5412SOL    HW127695   3.289   0.719  15.083 -0.1285  2.9751 -0.6719
 5412SOL    HW227696   3.407   0.722  15.179 -1.8164  3.9514  1.1147
 5413SOL     OW27697   0.968   1.676   9.573  0.1124  0.0159 -0.1960
 5413SOL    HW127698   0.989   1.618   9.647  1.0081 -0.5723 -0.9181
 5413SOL    HW227699   0.890   1.720   9.607  0.1106  1.0292 -1.5229
 5414SOL     OW27700   3.390   1.239  17.517 -0.0395  0.2881 -0.0087
 5414SOL    HW127701   3.458   1.176  17.494  0.3643  0.7716 -0.1386
 5414SOL    HW227702   3.431   1.319  17.483  0.1064 -0.1128 -0.7685
 5415SOL     OW27703   4.106   0.361   7.311  0.3438 -0.3823  0.2535
 5415SOL    HW127704   4.090   0.270   7.334 -0.4994  0.1904  1.8741
 5415SOL    HW227705   4.178   0.380   7.371 -0.6049  0.3502  1.1546
 5416SOL     OW27706   3.515   2.404   7.323 -0.3068 -0.0927  0.1657
 5416SOL    HW127707   3.478   2.341   7.385  1.9183 -0.3432  1.2368
 5416SOL    HW227708   3.597   2.360   7.298 -0.5153  0.6020 -1.8029
 5417SOL     OW27709   4.604   1.710   9.658 -0.1145 -0.3422  0.3747
 5417SOL    HW127710   4.616   1.785   9.717 -1.5638  0.2446 -0.0540
 5417SOL    HW227711   4.508   1.711   9.659 -0.1441 -0.5838 -1.6759
 5418SOL     OW27712   1.792   3.226   1.159 -0.1805 -0.2657  0.0720
 5418SOL    HW127713   1.850   3.274   1.217  1.5084 -1.5931 -0.5218
 5418SOL    HW227714   1.765   3.160   1.223 -1.3245 -0.3913 -0.5424
 5419SOL     OW27715   3.557   3.981  10.865 -0.2488  0.0359 -0.3313
 5419SOL    HW127716   3.586   4.017  10.949 -0.3677 -1.4432  0.3439
 5419SOL    HW227717   3.508   3.905  10.894 -1.6247  0.9935 -0.1167
 5420SOL     OW27718   1.975   2.623   7.010  0.4052  1.0083 -0.4363
 5420SOL    HW127719   2.055   2.606   7.059  0.2312 -3.2486 -1.6054
 5420SOL    HW227720   1.982   2.716   6.985  2.2152  0.4265 -2.0901
 5421SOL     OW27721   2.682   0.538   7.571 -0.2084  0.1592  0.0284
 5421SOL    HW127722   2.648   0.542   7.481 -0.3725  0.2202  0.0935
 5421SOL    HW227723   2.771   0.514   7.546 -0.7752 -0.8116 -1.0912
 5422SOL     OW27724   1.377   3.456   3.683  0.2600 -1.1698  0.2010
 5422SOL    HW127725   1.424   3.474   3.765 -2.3430  1.0347  1.2258
 5422SOL    HW227726   1.339   3.372   3.705 -0.4145 -0.8502  0.2508
 5423SOL     OW27727   3.706   4.047  11.116  0.0104 -0.3937 -0.0469
 5423SOL    HW127728   3.681   4.025  11.205 -0.1857 -0.2632 -0.0697
 5423SOL    HW227729   3.738   4.136  11.123  1.7972 -1.1867  1.7366
 5424SOL     OW27730   0.376   1.037   8.747  0.3297 -0.3431  0.5389
 5424SOL    HW127731   0.296   1.090   8.758 -0.1056 -1.2215  1.6017
 5424SOL    HW227732   0.388   1.028   8.841  3.6080  1.3677  0.2839
 5425SOL     OW27733   3.635   0.890  14.084 -0.0242 -0.1687 -0.0562
 5425SOL    HW127734   3.561   0.920  14.031 -0.2795  0.9589  0.9539
 5425SOL    HW227735   3.597   0.896  14.172 -2.3011  0.4237 -1.0796
 5426SOL     OW27736   2.803   3.876   4.741 -0.2571 -0.0751 -0.1383
 5426SOL    HW127737   2.709   3.867   4.727 -0.4983 -0.8100  1.9349
 5426SOL    HW227738   2.810   3.944   4.674  0.2116  2.4081  2.4259
 5427SOL     OW27739   3.557   1.714   1.649  0.3876 -0.2381  0.1161
 5427SOL    HW127740   3.524   1.784   1.593 -1.3396 -0.6933  0.5766
 5427SOL    HW227741   3.477   1.675   1.684  1.7927 -1.6444  1.7916
 5428SOL     OW27742   2.332   3.045   8.098 -0.0547  0.0299 -0.2023
 5428SOL    HW127743   2.343   2.966   8.152 -0.4592 -0.9171 -1.5094
 5428SOL    HW227744   2.378   3.099   8.162 -1.0029 -1.9911  2.1717
 5429SOL     OW27745   1.235   4.566  10.407  0.9751  0.3007 -0.0611
 5429SOL    HW127746   1.258   4.649  10.449  0.0657  1.3042 -1.5318
 5429SOL    HW227747   1.144   4.559  10.435  1.1811  1.7958  0.9874
 5430SOL     OW27748   2.392   3.701  14.768 -0.4604 -0.5686 -0.1084
 5430SOL    HW127749   2.404   3.790  14.736  0.0227 -0.6131 -0.0571
 5430SOL    HW227750   2.372   3.661  14.684  0.9108  1.4517 -1.3861
 5431SOL     OW27751   3.955   3.632  14.620  0.4752 -0.4762  0.2385
 5431SOL    HW127752   3.970   3.697  14.552 -0.7789  1.5614  1.9038
 5431SOL    HW227753   3.961   3.687  14.698  0.6300 -1.2422  0.7688
 5432SOL     OW27754   2.482   3.774   2.274  0.2789  0.3554  0.0699
 5432SOL    HW127755   2.482   3.766   2.179  0.4458 -0.9359  0.1802
 5432SOL    HW227756   2.469   3.683   2.300 -3.1273  1.1873  1.2522
 5433SOL     OW27757   2.868   4.086   5.095 -0.3020  0.6338  0.1749
 5433SOL    HW127758   2.804   4.111   5.029 -0.7201  0.3904  0.4900
 5433SOL    HW227759   2.837   4.000   5.124 -0.5887  0.5773 -0.2899
 5434SOL     OW27760   0.206   2.528   2.389  0.0468  0.1755  0.3749
 5434SOL    HW127761   0.156   2.506   2.310 -0.5209  0.2867  0.7019
 5434SOL    HW227762   0.214   2.436   2.414 -0.8815 -0.8413 -3.1309
 5435SOL     OW27763   1.845   0.996   9.191 -0.2541 -0.0773 -0.3455
 5435SOL    HW127764   1.894   1.078   9.187 -0.2305  0.0297  2.5808
 5435SOL    HW227765   1.834   0.983   9.285 -0.2244  0.6818 -0.2375
 5436SOL     OW27766   1.986   4.291  12.356  0.0433 -0.1275 -0.2499
 5436SOL    HW127767   1.964   4.303  12.448  1.2114  1.6793 -0.2189
 5436SOL    HW227768   2.081   4.284  12.358 -0.0722 -0.8922  1.8245
 5437SOL     OW27769   3.031   1.632   8.220  0.5798 -0.2568  0.0938
 5437SOL    HW127770   2.980   1.690   8.164 -1.5823 -1.9197  0.3318
 5437SOL    HW227771   2.982   1.550   8.217 -0.6207  0.4074  1.3955
 5438SOL     OW27772   4.490   4.371   2.181  0.3727  0.4400  0.2370
 5438SOL    HW127773   4.554   4.346   2.247  1.7500  1.2699 -0.7787
 5438SOL    HW227774   4.513   4.462   2.163 -3.4578  1.2421 -0.6428
 5439SOL     OW27775   0.618   4.505   3.229  0.2166 -0.0296  0.2151
 5439SOL    HW127776   0.681   4.471   3.292  2.2987 -0.8373 -2.2998
 5439SOL    HW227777   0.657   4.591   3.212 -2.2438  0.6476 -2.0465
 5440SOL     OW27778   3.077   1.351   6.493  1.0206  0.0921  0.3780
 5440SOL    HW127779   3.061   1.445   6.503  0.6357 -0.0531  1.1566
 5440SOL    HW227780   3.168   1.346   6.522  0.5999  0.9114  1.8524
 5441SOL     OW27781   1.896   2.623   6.305 -0.5001  0.0354  0.5923
 5441SOL    HW127782   1.922   2.631   6.397  1.2027 -0.1294  0.1262
 5441SOL    HW227783   1.838   2.547   6.311  1.1778 -1.3532 -0.5110
 5442SOL     OW27784   1.556   0.267   8.925 -0.0260 -0.0370 -0.2154
 5442SOL    HW127785   1.513   0.348   8.898 -1.1305 -1.0439 -1.4637
 5442SOL    HW227786   1.483   0.206   8.931  0.9120 -0.9538  2.1378
 5443SOL     OW27787   3.785   2.734   6.462 -0.1932 -0.4828  0.2871
 5443SOL    HW127788   3.716   2.797   6.442  0.7375  0.3454 -0.3687
 5443SOL    HW227789   3.795   2.747   6.556  1.7349 -0.1142  0.0351
 5444SOL     OW27790   1.924   1.404   6.537  0.2842 -0.0716 -0.4085
 5444SOL    HW127791   1.971   1.442   6.611  1.5295 -1.3563 -0.5546
 5444SOL    HW227792   1.983   1.333   6.513  0.6616 -0.2756  1.1662
 5445SOL     OW27793   3.104   3.799   2.147 -1.0515 -0.0703 -0.4833
 5445SOL    HW127794   3.096   3.794   2.052  1.2448  0.3799 -0.7164
 5445SOL    HW227795   3.037   3.863   2.169 -1.2233 -0.0830 -0.9641
 5446SOL     OW27796   1.190   1.402   4.452  0.3255  0.0242  0.1133
 5446SOL    HW127797   1.279   1.370   4.436 -0.1990 -0.7956 -1.2099
 5446SOL    HW227798   1.189   1.483   4.400  1.5371  0.6057  0.9950
 5447SOL     OW27799   2.968   2.358   3.285 -0.1723  0.5765  0.7948
 5447SOL    HW127800   2.927   2.416   3.349 -1.0118 -0.3138  1.0635
 5447SOL    HW227801   3.047   2.403   3.255  0.6022 -0.0283  1.8989
 5448SOL     OW27802   4.193   4.016  12.840  0.4029 -0.2877  0.1131
 5448SOL    HW127803   4.239   4.100  12.846  0.8856 -0.5917  0.7144
 5448SOL    HW227804   4.234   3.992  12.757  1.6637  1.4420  0.2364
 5449SOL     OW27805   0.490   2.775   1.647  0.3975 -0.0748 -0.1182
 5449SOL    HW127806   0.565   2.721   1.671  2.4352  3.0275  0.4078
 5449SOL    HW227807   0.484   2.843   1.714 -1.9232 -0.4456  0.0585
 5450SOL     OW27808   0.895   4.296   8.198  0.4645  1.1242  0.2526
 5450SOL    HW127809   0.958   4.280   8.269  0.5229 -2.1598 -0.5374
 5450SOL    HW227810   0.897   4.392   8.193  1.3208  0.9216 -3.2566
 5451SOL     OW27811   2.128   0.655   5.438  0.5070  0.1654 -0.4112
 5451SOL    HW127812   2.088   0.699   5.362 -1.6379  2.7864  2.2407
 5451SOL    HW227813   2.046   0.634   5.482  1.0564 -1.6206 -0.2163
 5452SOL     OW27814   0.130   4.456   4.377 -0.6922 -0.4503  0.7360
 5452SOL    HW127815   0.211   4.468   4.328 -0.6699  1.9319  1.3313
 5452SOL    HW227816   0.069   4.494   4.313  0.5859  2.7511  1.4220
 5453SOL     OW27817   0.184   0.067   3.215 -0.8232 -0.2411  0.2743
 5453SOL    HW127818   0.175   0.111   3.299 -1.1619  0.8922 -0.3559
 5453SOL    HW227819   0.253   0.003   3.232 -1.8048 -1.7156 -1.3010
 5454SOL     OW27820   0.700   4.088  13.064 -0.2047  0.2318 -0.0468
 5454SOL    HW127821   0.665   4.073  12.976  0.2032 -1.5174  0.0899
 5454SOL    HW227822   0.705   3.997  13.094  1.8833 -0.3700 -2.2813
 5455SOL     OW27823   1.521   2.954   3.224 -0.0387  0.7205  0.1760
 5455SOL    HW127824   1.600   2.929   3.273 -1.7950 -0.9362  2.1383
 5455SOL    HW227825   1.496   2.864   3.205  0.8004  0.2585  1.2425
 5456SOL     OW27826   3.923   0.675   4.123 -0.8362 -0.3094 -0.3830
 5456SOL    HW127827   3.900   0.597   4.072 -0.4523 -0.0234 -1.0014
 5456SOL    HW227828   3.839   0.720   4.131 -1.8218 -2.2582  0.0577
 5457SOL     OW27829   0.607   0.433  11.111 -0.4777 -0.4461  0.2826
 5457SOL    HW127830   0.625   0.370  11.180 -0.9491  1.9830  2.6032
 5457SOL    HW227831   0.672   0.501  11.130 -0.1342 -0.9764  1.0114
 5458SOL     OW27832   1.027   4.122   5.421  0.0302 -0.2139 -0.3066
 5458SOL    HW127833   0.994   4.162   5.341  0.4810 -0.6040 -0.6910
 5458SOL    HW227834   1.020   4.030   5.396 -0.2919 -0.4091  0.4991
 5459SOL     OW27835   2.490   2.302  14.041  0.4225  0.5970  0.0963
 5459SOL    HW127836   2.478   2.397  14.034  0.3120  0.3979 -2.1881
 5459SOL    HW227837   2.411   2.267  14.000  0.3235  0.4435  0.4163
 5460SOL     OW27838   1.345   4.330   4.676 -0.5132 -0.2310 -0.4288
 5460SOL    HW127839   1.426   4.290   4.643 -0.0753 -0.7909  1.3429
 5460SOL    HW227840   1.323   4.381   4.598 -0.0176  1.0122  0.2395
 5461SOL     OW27841   2.055   0.025   8.460  0.6099 -0.0351  0.4390
 5461SOL    HW127842   2.044   4.705   8.373 -0.4398  3.7028 -1.1445
 5461SOL    HW227843   1.977   0.073   8.485 -0.2874 -1.6762  0.8328
 5462SOL     OW27844   1.569   3.124   7.763  0.0236  0.1687  0.6345
 5462SOL    HW127845   1.588   3.115   7.856 -2.0703 -3.6319  0.6707
 5462SOL    HW227846   1.475   3.118   7.780 -0.2729  0.4473 -0.8431
 5463SOL     OW27847   1.029   0.176   3.049 -0.7688  0.0942  0.2469
 5463SOL    HW127848   1.115   0.200   3.086 -0.9488  1.4701 -0.2020
 5463SOL    HW227849   1.015   0.251   2.992  0.8473  0.5271  0.4021
 5464SOL     OW27850   2.208   2.529   5.512 -0.0138  0.8897 -0.5030
 5464SOL    HW127851   2.165   2.504   5.430  1.7807 -0.5294 -1.0014
 5464SOL    HW227852   2.134   2.570   5.557 -1.5954 -0.8404 -1.4904
 5465SOL     OW27853   3.907   3.043  12.834 -0.8105  0.8908 -0.3232
 5465SOL    HW127854   3.890   3.136  12.850 -1.0983  1.2202 -2.5512
 5465SOL    HW227855   3.826   3.018  12.789 -0.7515 -0.8659  0.5475
 5466SOL     OW27856   4.428   4.066   3.146  0.2551 -0.2255 -0.4707
 5466SOL    HW127857   4.391   4.144   3.187  0.6178 -1.5623  2.3563
 5466SOL    HW227858   4.443   4.096   3.056  1.4297  1.5519  0.3219
 5467SOL     OW27859   3.331   0.264   4.056 -0.0331  0.7413 -0.6824
 5467SOL    HW127860   3.407   0.211   4.080 -0.0103  0.9679 -0.2402
 5467SOL    HW227861   3.332   0.330   4.126  0.8995  0.5467 -0.5075
 5468SOL     OW27862   0.767   1.465  15.932 -0.3444  0.5225  0.3105
 5468SOL    HW127863   0.802   1.419  15.856 -0.4527 -0.3312  0.7748
 5468SOL    HW227864   0.710   1.400  15.974  0.8074 -0.1366  0.8629
 5469SOL     OW27865   4.666   1.779   3.137 -0.2494 -0.2047 -0.0160
 5469SOL    HW127866   0.032   1.821   3.147 -0.4332  0.8505 -2.9330
 5469SOL    HW227867   4.612   1.858   3.145  0.3077  0.0851  0.8468
 5470SOL     OW27868   2.963   1.635   6.609  0.4926  0.2230  0.2285
 5470SOL    HW127869   2.911   1.595   6.679 -0.9809 -0.2272 -1.1374
 5470SOL    HW227870   2.897   1.627   6.541  0.4126  3.0161 -0.0107
 5471SOL     OW27871   4.683   1.678   1.438 -0.2043  0.1815 -0.4749
 5471SOL    HW127872   4.642   1.664   1.523  0.8383  0.7530  0.1183
 5471SOL    HW227873   0.009   1.595   1.426 -1.5833 -0.2954 -2.4742
 5472SOL     OW27874   4.040   1.549   1.085 -0.6315  0.0910 -0.0081
 5472SOL    HW127875   3.964   1.496   1.062 -1.2086  0.1043  1.8876
 5472SOL    HW227876   4.025   1.629   1.035  0.9334 -0.0658 -0.7477
 5473SOL     OW27877   1.699   2.443   3.137 -0.7397 -0.2170  0.2961
 5473SOL    HW127878   1.664   2.469   3.222 -0.6749 -0.4076  0.3802
 5473SOL    HW227879   1.712   2.525   3.090 -2.1183  1.6431  3.1876
 5474SOL     OW27880   3.925   4.266  16.613  0.2487  0.5108 -0.2089
 5474SOL    HW127881   3.986   4.207  16.569 -0.3379 -1.3580  1.4558
 5474SOL    HW227882   3.923   4.225  16.700 -4.2582 -1.8142 -1.3916
 5475SOL     OW27883   0.993   1.321   2.866 -0.0390  0.2943  0.2773
 5475SOL    HW127884   1.073   1.268   2.868  0.0595  0.4736  1.1150
 5475SOL    HW227885   1.037   1.405   2.853 -0.5804  0.6291  0.6233
 5476SOL     OW27886   2.191   3.340   7.802  0.0876  0.0890 -0.1116
 5476SOL    HW127887   2.126   3.366   7.867  1.1472  1.7784  0.2646
 5476SOL    HW227888   2.177   3.401   7.729 -0.8802  0.1255  0.1051
 5477SOL     OW27889   3.436   1.395   4.605 -0.4958 -0.4788 -0.4789
 5477SOL    HW127890   3.369   1.368   4.542  0.1680  0.9006 -1.7838
 5477SOL    HW227891   3.428   1.321   4.666 -0.1249 -1.1202 -1.2142
 5478SOL     OW27892   1.820   3.021   6.642 -0.8267 -0.2509 -0.0254
 5478SOL    HW127893   1.771   2.962   6.584 -0.7375 -0.0035 -0.3539
 5478SOL    HW227894   1.906   3.002   6.605  0.1637  0.6646  1.8377
 5479SOL     OW27895   2.186   1.981   8.072  0.2879  0.4663  0.3193
 5479SOL    HW127896   2.159   2.058   8.123 -0.0948 -0.0981  0.9696
 5479SOL    HW227897   2.197   1.925   8.149 -0.6782  0.0692  0.1626
 5480SOL     OW27898   4.710   1.829   4.247 -0.5115  0.1981  0.6650
 5480SOL    HW127899   0.040   1.768   4.192  2.6517  0.4627  3.2889
 5480SOL    HW227900   4.661   1.878   4.181 -2.3059 -0.7820  1.2678
 5481SOL     OW27901   0.079   0.196   2.993  0.0491 -0.3412  0.3703
 5481SOL    HW127902   0.122   0.187   3.078  2.3130 -1.1108 -0.8442
 5481SOL    HW227903   4.709   0.224   3.013  0.1577 -1.1679  2.0314
 5482SOL     OW27904   4.175   3.675   4.861 -0.3657  0.8306 -0.1567
 5482SOL    HW127905   4.185   3.692   4.767 -0.2148 -0.6327 -0.4125
 5482SOL    HW227906   4.101   3.616   4.849  0.0484 -0.2563  2.8774
 5483SOL     OW27907   4.096   1.202   4.599  0.4713 -0.2707 -0.3945
 5483SOL    HW127908   4.105   1.193   4.505  0.2553  1.3947 -0.5787
 5483SOL    HW227909   4.174   1.252   4.622  0.6228 -0.9005  0.4814
 5484SOL     OW27910   0.421   1.596  12.309 -0.1625 -0.2678  0.0536
 5484SOL    HW127911   0.400   1.658  12.240 -1.2512  0.2279  0.8338
 5484SOL    HW227912   0.416   1.655  12.384  2.0370 -0.6718  0.5220
 5485SOL     OW27913   0.505   3.838  10.806 -0.1966  0.5224  0.9044
 5485SOL    HW127914   0.531   3.792  10.886  2.6742 -1.7210 -1.3252
 5485SOL    HW227915   0.557   3.804  10.733 -0.4226 -2.4177  2.0895
 5486SOL     OW27916   4.661   4.457   8.015 -0.1338 -0.8707  0.0956
 5486SOL    HW127917   4.692   4.376   7.975  0.6010 -0.6464  0.2075
 5486SOL    HW227918   4.710   4.526   7.970 -1.3700 -0.0218  0.0709
 5487SOL     OW27919   3.555   2.978   6.037  0.2977 -0.1866  0.0414
 5487SOL    HW127920   3.506   3.015   6.110 -0.7511 -0.5967 -0.4470
 5487SOL    HW227921   3.645   3.005   6.054  0.8400 -2.3031  0.5907
 5488SOL     OW27922   1.255   3.665   7.764  0.0349  0.0914  0.1333
 5488SOL    HW127923   1.231   3.703   7.679 -1.2085  1.1519  0.9525
 5488SOL    HW227924   1.339   3.625   7.742 -0.6305 -1.0749 -0.2852
 5489SOL     OW27925   4.027   1.754   6.013  0.1051  0.6114  0.0024
 5489SOL    HW127926   3.936   1.778   5.996 -0.3051 -2.6523 -2.5394
 5489SOL    HW227927   4.041   1.662   5.991 -3.0715 -0.1610  1.1896
 5490SOL     OW27928   2.180   2.601  14.590 -0.6321  0.3668 -0.6726
 5490SOL    HW127929   2.217   2.638  14.510 -2.3484  1.9172 -0.7364
 5490SOL    HW227930   2.086   2.614  14.588 -0.4021  1.9985 -0.6476
 5491SOL     OW27931   4.376   3.334   8.016  0.4580  0.0144  0.1534
 5491SOL    HW127932   4.335   3.341   8.102  1.5758 -0.5624  0.7273
 5491SOL    HW227933   4.316   3.390   7.967  2.1891  0.1724 -1.7774
 5492SOL     OW27934   3.290   0.601  10.162 -0.2144 -0.0593  0.5016
 5492SOL    HW127935   3.345   0.628  10.235 -0.3131  0.6705  0.3025
 5492SOL    HW227936   3.343   0.560  10.094  0.1953  3.3503 -1.2241
 5493SOL     OW27937   4.197   1.609   6.274 -0.8062  0.2170  0.1495
 5493SOL    HW127938   4.217   1.524   6.234  0.3231  0.2366  0.6652
 5493SOL    HW227939   4.125   1.642   6.221 -0.6301 -0.3364 -0.4362
 5494SOL     OW27940   2.496   4.553   4.750 -0.0124  0.3464  0.1294
 5494SOL    HW127941   2.555   4.623   4.721  0.9609  0.0245  1.3104
 5494SOL    HW227942   2.410   4.594   4.753 -0.3851 -0.5422  1.7659
 5495SOL     OW27943   2.103   4.705   9.251  0.5647 -0.4867  0.2223
 5495SOL    HW127944   2.054   0.067   9.243 -0.3080 -0.9862  0.4088
 5495SOL    HW227945   2.078   4.682   9.340 -0.8773 -1.1963 -0.3591
 5496SOL     OW27946   2.212   1.283   9.832 -0.2018 -0.3962  0.1294
 5496SOL    HW127947   2.212   1.265   9.926 -0.1789 -0.2453  0.1575
 5496SOL    HW227948   2.287   1.341   9.820  0.4969 -1.9891 -3.2153
 5497SOL     OW27949   3.695   2.732   6.982 -0.0275 -0.3395  0.5818
 5497SOL    HW127950   3.758   2.729   7.054  0.2851 -0.8001  0.2848
 5497SOL    HW227951   3.638   2.656   6.984 -1.2160  0.5299  0.1511
 5498SOL     OW27952   2.440   4.360   4.972 -0.3226  0.4643 -0.0275
 5498SOL    HW127953   2.347   4.357   4.949  0.6955 -0.8907 -3.9620
 5498SOL    HW227954   2.466   4.381   4.883 -1.8425  0.1650 -0.5343
 5499SOL     OW27955   1.918   3.783   3.105 -0.2358  0.6945  0.9449
 5499SOL    HW127956   1.840   3.778   3.048  0.1516 -0.0659  0.4794
 5499SOL    HW227957   1.869   3.798   3.186 -0.3143  2.0924  0.6434
 5500SOL     OW27958   3.730   3.879   7.805  0.9588 -0.0211 -0.1736
 5500SOL    HW127959   3.768   3.805   7.757 -1.2355 -1.5760  0.4636
 5500SOL    HW227960   3.802   3.870   7.868  0.2498  3.2245  1.0502
 5501SOL     OW27961   4.533   1.502   8.145 -0.2393 -0.0152  0.0973
 5501SOL    HW127962   4.617   1.493   8.100  0.3589  1.5547  0.9094
 5501SOL    HW227963   4.468   1.516   8.076 -0.6075 -0.5314  0.3455
 5502SOL     OW27964   0.736   1.727  11.245 -0.4722  0.4391 -0.5058
 5502SOL    HW127965   0.708   1.661  11.181  2.0895  0.4121 -1.6345
 5502SOL    HW227966   0.686   1.806  11.225  0.0045  0.1691 -2.8609
 5503SOL     OW27967   4.712   2.682   5.865  0.1224  0.7719  0.7761
 5503SOL    HW127968   0.018   2.768   5.898  1.4315  0.6346  0.1251
 5503SOL    HW227969   4.646   2.655   5.929  0.6245 -1.9212  0.1487
 5504SOL     OW27970   1.902   2.906  13.217 -0.8849 -0.2860 -0.1886
 5504SOL    HW127971   1.898   2.919  13.312 -1.6845  0.3429 -0.3057
 5504SOL    HW227972   1.843   2.831  13.211 -0.7080 -0.5344  1.2594
 5505SOL     OW27973   4.490   3.959  10.320 -0.4139 -0.6034  0.1805
 5505SOL    HW127974   4.515   3.876  10.279 -2.5861 -2.1192  1.8970
 5505SOL    HW227975   4.402   3.963  10.282 -0.3806 -0.1905  0.1421
 5506SOL     OW27976   3.771   0.918   8.740  0.0780  0.3957  0.5036
 5506SOL    HW127977   3.687   0.882   8.767 -0.5564  2.3519  1.1709
 5506SOL    HW227978   3.750   0.972   8.664 -1.3657  1.6811  1.7940
 5507SOL     OW27979   0.042   0.153   5.726 -0.3164  0.4545 -0.0786
 5507SOL    HW127980   0.020   0.138   5.634 -2.2961  0.1987  0.4399
 5507SOL    HW227981   0.050   0.065   5.761 -0.3213 -0.2541 -1.8342
 5508SOL     OW27982   0.541   3.730   8.972 -0.1124 -0.5590 -0.0084
 5508SOL    HW127983   0.510   3.652   9.018  0.6417 -1.0837 -0.3891
 5508SOL    HW227984   0.470   3.794   8.986  0.8783  0.9566 -1.8219
 5509SOL     OW27985   0.554   3.620   4.318 -0.6624 -0.2016 -0.3804
 5509SOL    HW127986   0.471   3.641   4.275 -1.5373 -0.5476  1.1517
 5509SOL    HW227987   0.521   3.571   4.393  0.6926  0.6548  0.7847
 5510SOL     OW27988   4.622   1.288   7.453 -0.2743  0.8647 -0.4930
 5510SOL    HW127989   4.587   1.363   7.404  3.3365  2.0658 -1.1935
 5510SOL    HW227990   4.716   1.286   7.434 -0.2858 -0.3866 -0.4274
 5511SOL     OW27991   4.360   0.633   1.776  0.2835 -0.2420  0.2691
 5511SOL    HW127992   4.267   0.621   1.798 -0.0598 -0.3841 -1.2767
 5511SOL    HW227993   4.374   0.728   1.774 -0.9595 -0.0713 -0.2344
 5512SOL     OW27994   3.683   3.475   4.646  0.0929  0.7129  0.0052
 5512SOL    HW127995   3.738   3.398   4.645  0.5858  1.0877 -1.1885
 5512SOL    HW227996   3.637   3.464   4.730 -0.0945  1.7326  0.0414
 5513SOL     OW27997   3.293   2.340   5.497  0.0451 -0.0004  0.0156
 5513SOL    HW127998   3.381   2.351   5.532 -0.2812 -2.9103  1.7924
 5513SOL    HW227999   3.299   2.398   5.421 -1.2814  1.1766  0.8074
 5514SOL     OW28000   4.124   4.326   6.380 -0.6615  0.4094 -0.5227
 5514SOL    HW128001   4.029   4.337   6.383 -0.6859 -0.2056  0.8340
 5514SOL    HW228002   4.150   4.261   6.445  1.3977  1.1180 -0.6294
 5515SOL     OW28003   0.717   2.038  13.282 -0.5902 -0.0115 -0.3455
 5515SOL    HW128004   0.661   1.987  13.340 -0.4706  0.4682  0.1936
 5515SOL    HW228005   0.802   1.995  13.297 -1.4440 -2.1019 -1.5749
 5516SOL     OW28006   0.989   1.069  16.093  0.4545  0.1332  0.4759
 5516SOL    HW128007   1.060   1.042  16.034  0.5031  0.2199  0.4932
 5516SOL    HW228008   0.921   1.083  16.028 -0.6871  1.7719  2.0080
 5517SOL     OW28009   2.452   1.852   4.335 -0.0356  0.5158 -0.0205
 5517SOL    HW128010   2.445   1.757   4.329 -2.3823  0.6030  1.1799
 5517SOL    HW228011   2.422   1.864   4.425 -2.0816 -0.4760 -0.5691
 5518SOL     OW28012   0.524   3.632   2.000 -0.4744 -0.5123  0.5057
 5518SOL    HW128013   0.482   3.718   2.004  0.1859 -0.1733  0.1391
 5518SOL    HW228014   0.465   3.584   2.058 -0.7369  1.2100  1.6722
 5519SOL     OW28015   2.162   4.246   8.856 -0.1038  0.0326 -0.1264
 5519SOL    HW128016   2.229   4.313   8.842 -1.6972  1.4583 -1.0020
 5519SOL    HW228017   2.142   4.268   8.947 -1.4642  0.0116 -0.4242
 5520SOL     OW28018   3.178   0.681   2.089  0.2941  0.4585 -0.1172
 5520SOL    HW128019   3.087   0.684   2.117  0.6345 -1.8362  1.2328
 5520SOL    HW228020   3.180   0.586   2.081 -2.5901  0.3739  0.2195
 5521SOL     OW28021   1.665   2.765  12.232 -0.1660  0.0453  0.1888
 5521SOL    HW128022   1.608   2.747  12.157  1.7851 -0.9573 -1.0641
 5521SOL    HW228023   1.634   2.706  12.301 -1.0557 -2.2542 -2.1549
 5522SOL     OW28024   2.705   1.790   3.057  0.1453 -0.4938 -0.4134
 5522SOL    HW128025   2.758   1.747   3.124 -1.3008 -0.1330  0.9758
 5522SOL    HW228026   2.772   1.819   2.995 -0.8481 -1.8334 -2.1008
 5523SOL     OW28027   1.728   2.255   9.294  0.0865  0.0842 -0.1447
 5523SOL    HW128028   1.668   2.317   9.336  0.6531  0.6531 -0.1669
 5523SOL    HW228029   1.800   2.312   9.268 -0.2642  0.6232  0.0430
 5524SOL     OW28030   0.757   1.041  15.620 -0.2436 -0.5512 -0.2673
 5524SOL    HW128031   0.729   0.960  15.577 -0.8176 -0.6798  0.3463
 5524SOL    HW228032   0.672   1.078  15.644 -1.1469 -2.1081 -1.0993
 5525SOL     OW28033   2.319   3.958   9.038 -0.2435 -0.5896 -0.3139
 5525SOL    HW128034   2.328   4.042   9.084  3.8302 -0.6443 -1.0622
 5525SOL    HW228035   2.229   3.932   9.056 -0.5492 -0.7856 -2.0976
 5526SOL     OW28036   2.232   0.028   4.470 -0.3269 -0.1130  0.0258
 5526SOL    HW128037   2.197   0.106   4.512  1.5529 -0.8522  2.9661
 5526SOL    HW228038   2.160   0.011   4.409  0.8572  2.4807 -2.1032
 5527SOL     OW28039   3.261   0.658  12.383  0.0693 -0.0019  0.1562
 5527SOL    HW128040   3.179   0.673  12.335 -0.1141 -2.5408 -0.3389
 5527SOL    HW228041   3.298   0.586  12.332  0.6236 -1.7816  3.0984
 5528SOL     OW28042   4.633   4.156   5.978  0.1663 -0.1168  0.1597
 5528SOL    HW128043   4.589   4.196   5.904 -0.3494 -1.6407 -0.3643
 5528SOL    HW228044   4.574   4.087   6.007  0.1252 -0.9013 -1.8250
 5529SOL     OW28045   4.419   3.647   4.894  0.1142  0.2052  0.2157
 5529SOL    HW128046   4.324   3.656   4.889 -0.0802 -1.1996  1.4560
 5529SOL    HW228047   4.435   3.635   4.987  3.1804  0.6346 -0.2580
 5530SOL     OW28048   4.268   0.011  11.065 -0.5209  0.0050 -0.1403
 5530SOL    HW128049   4.217   4.657  11.030 -2.4421  1.2782 -0.0187
 5530SOL    HW228050   4.226   0.020  11.151  0.1663 -0.3435  0.2392
 5531SOL     OW28051   3.614   4.273  13.060  0.2750 -0.3996 -0.9410
 5531SOL    HW128052   3.647   4.334  12.994 -0.6579  1.1528  0.0503
 5531SOL    HW228053   3.532   4.311  13.091  0.1651 -1.2061 -0.2355
 5532SOL     OW28054   4.139   2.394   3.297  0.2188  0.4520 -0.1100
 5532SOL    HW128055   4.223   2.382   3.342  1.1192 -1.0899 -2.2145
 5532SOL    HW228056   4.098   2.464   3.348  3.3086  2.2057 -0.0529
 5533SOL     OW28057   4.175   0.192   4.693 -0.0429  0.0004 -0.0745
 5533SOL    HW128058   4.086   0.207   4.726 -0.6893 -2.5543 -0.6661
 5533SOL    HW228059   4.227   0.224   4.768  0.3862 -0.8468 -0.0166
 5534SOL     OW28060   2.495   1.874  16.180  0.1190  0.3324  0.0898
 5534SOL    HW128061   2.531   1.883  16.268  0.7840  0.2990 -0.1785
 5534SOL    HW228062   2.407   1.911  16.188 -1.2327 -2.2766 -2.8348
 5535SOL     OW28063   2.309   4.091   2.771 -0.2298  0.1179 -0.3046
 5535SOL    HW128064   2.354   4.087   2.854  1.1561  1.4889 -0.9971
 5535SOL    HW228065   2.371   4.064   2.703  1.0195 -2.1863  1.7552
 5536SOL     OW28066   0.495   2.455  10.016  0.1214  0.2041 -0.3509
 5536SOL    HW128067   0.468   2.406   9.939  0.5499  0.1871 -0.4918
 5536SOL    HW228068   0.523   2.380  10.069  0.5407  0.9879  0.5396
 5537SOL     OW28069   2.215   0.558   4.019  0.1943 -0.1862 -0.0509
 5537SOL    HW128070   2.229   0.648   3.988 -0.8761  0.2124  0.6039
 5537SOL    HW228071   2.306   0.537   4.040  0.1495 -0.3053  0.0205
 5538SOL     OW28072   4.254   2.033   8.637  0.5125 -0.5002 -0.0683
 5538SOL    HW128073   4.335   2.011   8.682  1.4843  0.3800 -1.3707
 5538SOL    HW228074   4.187   2.008   8.700 -1.1028  3.5886 -0.1607
 5539SOL     OW28075   0.432   1.647  12.629 -0.1367  0.3396  0.1082
 5539SOL    HW128076   0.413   1.689  12.713 -2.3651 -2.9360  1.2297
 5539SOL    HW228077   0.454   1.722  12.574  1.3211 -0.7103 -0.7690
 5540SOL     OW28078   1.242   3.292   9.197 -0.0132 -0.3669 -0.1138
 5540SOL    HW128079   1.302   3.327   9.263  1.3753  0.0105 -1.5959
 5540SOL    HW228080   1.271   3.203   9.182 -1.4202 -0.8089 -0.2258
 5541SOL     OW28081   2.337   2.807   1.693 -0.1144 -0.1428  0.1473
 5541SOL    HW128082   2.340   2.875   1.626 -0.3844  1.5557  1.8493
 5541SOL    HW228083   2.320   2.726   1.644 -0.5376 -1.4535  2.4253
 5542SOL     OW28084   1.988   2.952  13.691  0.4383 -0.3650  0.0027
 5542SOL    HW128085   1.984   2.861  13.722  2.5044 -0.4543 -0.0079
 5542SOL    HW228086   2.033   3.001  13.760 -0.2603  1.3781 -0.7697
 5543SOL     OW28087   3.310   2.564   6.841  1.0053 -0.6627 -0.2902
 5543SOL    HW128088   3.386   2.600   6.797 -1.0831  2.4410 -1.3883
 5543SOL    HW228089   3.341   2.534   6.927 -1.0979 -0.3914  0.5645
 5544SOL     OW28090   3.859   1.142  15.977 -0.5729 -0.3251  0.0766
 5544SOL    HW128091   3.933   1.153  16.036 -0.5142  0.6856 -0.1822
 5544SOL    HW228092   3.780   1.155  16.030 -0.0628  0.2503  0.6882
 5545SOL     OW28093   2.334   2.379  13.611 -0.0576  0.3962 -0.4220
 5545SOL    HW128094   2.332   2.405  13.519  1.8451 -1.2595 -0.9397
 5545SOL    HW228095   2.241   2.378  13.633  0.4410 -0.4802  1.6610
 5546SOL     OW28096   1.984   1.971   5.846  0.9939  0.8675 -0.3790
 5546SOL    HW128097   1.972   2.037   5.914  1.4494  1.0177 -0.4406
 5546SOL    HW228098   1.925   1.903   5.879  2.2963 -0.3436 -0.5299
 5547SOL     OW28099   4.352   1.150   9.060 -0.1180  0.1185 -0.1915
 5547SOL    HW128100   4.289   1.149   9.132 -0.3281 -0.7004 -0.3823
 5547SOL    HW228101   4.325   1.083   8.997  2.2178 -0.3271 -0.7537
 5548SOL     OW28102   1.043   3.016   2.345  0.0844  0.7661 -0.1018
 5548SOL    HW128103   0.973   3.031   2.282 -1.5145  0.6143  1.6604
 5548SOL    HW228104   1.127   3.013   2.298 -0.2965 -0.5780 -0.6913
 5549SOL     OW28105   2.329   0.468   5.488 -0.1215  0.4252  0.0464
 5549SOL    HW128106   2.289   0.552   5.464  0.5391  1.0898  1.2745
 5549SOL    HW228107   2.268   0.401   5.457  1.1180  0.0827 -1.6282
 5550SOL     OW28108   2.893   1.283   7.369  0.1914  0.4824 -0.6840
 5550SOL    HW128109   2.879   1.307   7.278 -1.4107 -0.8835 -0.8021
 5550SOL    HW228110   2.804   1.297   7.402  1.1379  2.5877  0.9441
 5551SOL     OW28111   3.568   0.662   3.502  0.4759 -0.2561  0.1448
 5551SOL    HW128112   3.627   0.729   3.469  0.7418  0.4391  2.0251
 5551SOL    HW228113   3.622   0.584   3.486 -2.3796 -2.8919  3.1748
 5552SOL     OW28114   2.319   1.905  16.916 -0.1767 -0.5667  0.1527
 5552SOL    HW128115   2.223   1.909  16.920 -0.2617 -2.1007 -0.4410
 5552SOL    HW228116   2.336   1.828  16.861 -0.6609 -1.6924  1.5746
 5553SOL     OW28117   2.923   1.230   6.304  0.1236  0.4475  0.2385
 5553SOL    HW128118   2.962   1.266   6.384  0.8686 -2.0907  1.0426
 5553SOL    HW228119   2.974   1.279   6.240  0.6127  1.7809  1.6524
 5554SOL     OW28120   1.595   3.736   2.056 -0.1880 -0.9383  0.7348
 5554SOL    HW128121   1.564   3.685   2.131 -0.5012  2.8739  3.1912
 5554SOL    HW228122   1.675   3.771   2.095 -1.0020  0.9886  0.7043
 5555SOL     OW28123   3.644   2.622   7.894  0.2357  0.3812  0.1838
 5555SOL    HW128124   3.591   2.582   7.825  1.1848 -3.5724  1.7757
 5555SOL    HW228125   3.690   2.551   7.939  1.4165  0.3228 -1.1075
 5556SOL     OW28126   1.857   1.985   5.601 -0.0174  0.0749 -0.1219
 5556SOL    HW128127   1.785   2.028   5.648 -0.4306  0.7157 -1.3475
 5556SOL    HW228128   1.922   2.010   5.667  0.7935 -0.4240 -0.7270
 5557SOL     OW28129   3.540   3.689   8.010 -0.0475 -0.1220  0.2406
 5557SOL    HW128130   3.615   3.741   7.981 -0.1797 -0.4221 -0.6265
 5557SOL    HW228131   3.481   3.707   7.937  0.2305  0.4643  0.1599
 5558SOL     OW28132   1.593   0.998   7.123 -0.0188  0.4842  0.4285
 5558SOL    HW128133   1.612   0.918   7.172 -0.2514  0.4141  0.4056
 5558SOL    HW228134   1.680   1.023   7.091  1.0191  0.0277  2.8887
 5559SOL     OW28135   1.212   4.216   2.535 -0.2960 -0.2940 -0.4063
 5559SOL    HW128136   1.274   4.288   2.547 -1.3848  0.6395 -0.4460
 5559SOL    HW228137   1.142   4.238   2.596  1.2941 -0.0962  1.3389
 5560SOL     OW28138   4.502   0.296   8.540 -0.1816 -0.1950 -0.8793
 5560SOL    HW128139   4.580   0.349   8.523 -0.8341  0.2014 -2.5933
 5560SOL    HW228140   4.529   0.212   8.503 -1.6031 -0.8310 -0.4870
 5561SOL     OW28141   2.674   4.537   7.597 -0.3618  0.2943 -0.2391
 5561SOL    HW128142   2.693   4.445   7.578  3.1568  1.6161 -2.9869
 5561SOL    HW228143   2.592   4.557   7.552 -0.5716 -0.7119 -0.2950
 5562SOL     OW28144   1.117   0.429   0.260 -0.0372 -0.0480 -0.1186
 5562SOL    HW128145   1.174   0.439   0.336  0.3992 -1.1522 -0.2984
 5562SOL    HW228146   1.168   0.367   0.207 -1.6516 -2.0181  0.6619
 5563SOL     OW28147   2.132   0.396   9.905 -0.0413  0.1665  0.8433
 5563SOL    HW128148   2.048   0.389   9.951  0.8308  0.3182  2.4841
 5563SOL    HW228149   2.174   0.313   9.931 -1.7257  0.4060  4.3941
 5564SOL     OW28150   2.267   4.392  12.597  0.2703 -0.0360  0.1681
 5564SOL    HW128151   2.357   4.359  12.601  0.0503 -0.5441  1.0283
 5564SOL    HW228152   2.248   4.397  12.691 -0.2621 -0.9617  0.1024
 5565SOL     OW28153   2.009   2.784   4.444 -0.0417 -0.7027  0.6322
 5565SOL    HW128154   2.092   2.792   4.492  0.4337 -1.1709 -0.1003
 5565SOL    HW228155   2.028   2.724   4.372 -1.8656  0.1141 -0.5261
 5566SOL     OW28156   1.752   2.973   4.956  0.3080  1.1061 -0.1054
 5566SOL    HW128157   1.847   2.975   4.942  0.8304 -1.3462  3.0076
 5566SOL    HW228158   1.743   2.885   4.921 -0.1227  0.6226  1.2075
 5567SOL     OW28159   1.105   4.328  12.587  0.3892  0.8943  0.0468
 5567SOL    HW128160   1.172   4.375  12.636  0.5989  0.1297  0.4964
 5567SOL    HW228161   1.037   4.390  12.612 -0.8279 -1.6458  3.1333
 5568SOL     OW28162   4.548   1.573  16.706  0.3162 -0.1346  0.5378
 5568SOL    HW128163   4.587   1.490  16.679  1.2036  0.0636  1.1958
 5568SOL    HW228164   4.583   1.629  16.636  1.1621 -1.2115  0.0940
 5569SOL     OW28165   4.591   2.738   6.309  0.1492 -0.1176  0.1757
 5569SOL    HW128166   4.507   2.760   6.351 -0.1449  0.4216 -0.7016
 5569SOL    HW228167   4.586   2.642   6.302  0.8268 -0.1646  0.4058
 5570SOL     OW28168   1.973   4.677   9.535  0.1076 -0.2635  0.0315
 5570SOL    HW128169   1.927   0.041   9.537  0.7158  0.0882 -0.4788
 5570SOL    HW228170   1.901   4.616   9.524 -0.5987  0.7988 -1.3003
 5571SOL     OW28171   3.909   0.242   4.777  0.2263 -0.3855  0.3546
 5571SOL    HW128172   3.894   0.219   4.869 -0.1306 -1.3110  0.0738
 5571SOL    HW228173   3.836   0.301   4.761  0.6723  0.0869  0.0474
 5572SOL     OW28174   2.981   2.210  10.164 -0.2392 -0.5564  0.2146
 5572SOL    HW128175   3.018   2.250  10.242  2.3096 -2.0076 -0.2365
 5572SOL    HW228176   3.040   2.232  10.092 -0.4134 -0.7203  0.0225
 5573SOL     OW28177   3.594   2.788  16.618 -0.7577  0.1849  0.2067
 5573SOL    HW128178   3.547   2.808  16.537 -1.7513 -0.8334  0.5276
 5573SOL    HW228179   3.679   2.813  16.583 -0.8976  1.4155  0.7235
 5574SOL     OW28180   0.997   1.708   8.955  0.0158 -0.1942 -0.0213
 5574SOL    HW128181   1.057   1.739   9.022  1.4419 -2.0443 -0.4470
 5574SOL    HW228182   0.952   1.638   9.002 -0.1234  0.8032  1.3260
 5575SOL     OW28183   0.671   0.063   6.530  0.2942  0.0914  0.4632
 5575SOL    HW128184   0.681   0.148   6.487  0.5725 -0.7233 -1.0753
 5575SOL    HW228185   0.756   0.021   6.520  1.3795  1.7365  2.7466
 5576SOL     OW28186   2.133   2.279   3.441 -0.1432  0.1694 -0.1909
 5576SOL    HW128187   2.097   2.198   3.477  0.9800 -1.5880 -2.9994
 5576SOL    HW228188   2.052   2.315   3.405  0.2706 -0.8032 -2.1077
 5577SOL     OW28189   1.511   3.308   7.169 -0.4902 -0.2149  0.1033
 5577SOL    HW128190   1.567   3.233   7.191  0.9927  0.4549 -1.3580
 5577SOL    HW228191   1.564   3.350   7.101 -0.4181 -0.2371  0.1460
 5578SOL     OW28192   0.461   1.099  16.791 -0.1818  0.1934 -0.1979
 5578SOL    HW128193   0.452   1.100  16.696  3.0266 -0.6858 -0.4979
 5578SOL    HW228194   0.473   1.191  16.811  1.4402  0.2711 -1.5412
 5579SOL     OW28195   1.928   3.469   2.261 -0.2991 -0.3092 -0.3603
 5579SOL    HW128196   1.987   3.415   2.209  2.5862  2.1035  0.3957
 5579SOL    HW228197   1.889   3.406   2.321 -1.7032  0.7850 -0.1180
 5580SOL     OW28198   1.269   3.783   3.416  0.2005 -0.2494 -0.1571
 5580SOL    HW128199   1.213   3.843   3.366  0.0589 -0.0947  0.1898
 5580SOL    HW228200   1.354   3.800   3.376 -1.5385  1.6923 -3.0235
 5581SOL     OW28201   4.567   4.621   7.625  0.3896 -0.1705 -0.0306
 5581SOL    HW128202   4.568   4.657   7.714  0.7057  0.5807 -0.3340
 5581SOL    HW228203   4.661   4.611   7.609  0.0075 -2.1398 -0.9797
 5582SOL     OW28204   2.574   3.310   4.968  0.2731 -0.1569 -0.6055
 5582SOL    HW128205   2.619   3.237   5.011  1.3361 -0.8069 -2.8514
 5582SOL    HW228206   2.611   3.369   5.034  0.8634 -0.4037 -0.7088
 5583SOL     OW28207   1.327   0.374   3.385 -0.2724  0.1479  0.0704
 5583SOL    HW128208   1.263   0.320   3.431  0.6903 -1.8970 -0.9705
 5583SOL    HW228209   1.300   0.371   3.294 -1.2197  2.1627  0.2937
 5584SOL     OW28210   1.049   0.038   6.274  0.0947 -0.1592 -0.3398
 5584SOL    HW128211   1.082   0.095   6.343 -1.2581 -0.3941  0.4979
 5584SOL    HW228212   1.020   4.684   6.329 -1.2310  2.1185  2.0373
 5585SOL     OW28213   2.563   2.710   1.817  0.4524 -0.1783 -0.3902
 5585SOL    HW128214   2.494   2.762   1.776  0.8398  0.6422 -0.0138
 5585SOL    HW228215   2.523   2.624   1.828  0.6359 -0.2114  0.0117
 5586SOL     OW28216   0.742   1.251   6.667  0.1896  0.2050 -0.2585
 5586SOL    HW128217   0.702   1.208   6.743 -1.2307  0.8953 -0.6047
 5586SOL    HW228218   0.828   1.279   6.699 -0.0019 -0.0888  0.5023
 5587SOL     OW28219   1.605   4.255   7.522  0.3190 -0.3927 -0.1656
 5587SOL    HW128220   1.593   4.165   7.494 -0.6900  0.1832 -1.5767
 5587SOL    HW228221   1.540   4.263   7.592 -0.3517  1.6340 -1.0351
 5588SOL     OW28222   3.485   0.650  10.368 -0.5946 -0.4838  0.1272
 5588SOL    HW128223   3.495   0.710  10.442 -1.3573  1.8125 -1.6366
 5588SOL    HW228224   3.552   0.586  10.392  1.4153  1.8588  0.7728
 5589SOL     OW28225   3.417   2.280   1.353 -0.5299 -0.5249  0.0413
 5589SOL    HW128226   3.324   2.283   1.378 -0.5736 -0.9058 -0.0798
 5589SOL    HW228227   3.412   2.221   1.278 -0.1070  0.2223 -0.5628
 5590SOL     OW28228   2.861   0.936   1.471 -0.6423 -0.3895  0.1136
 5590SOL    HW128229   2.893   0.850   1.442  0.6859  0.8547 -2.1009
 5590SOL    HW228230   2.767   0.921   1.458 -0.3144 -1.4640 -1.0022
 5591SOL     OW28231   2.164   1.067   3.626 -0.5135  0.4824  0.0646
 5591SOL    HW128232   2.135   0.976   3.628 -2.9326  1.2434 -0.1644
 5591SOL    HW228233   2.116   1.098   3.548  0.5420 -0.1583 -0.8297
 5592SOL     OW28234   1.052   3.408   2.966  0.0696 -0.2024 -0.1714
 5592SOL    HW128235   1.063   3.496   3.004  1.4457 -0.7450  0.6876
 5592SOL    HW228236   1.050   3.358   3.047 -1.8805  0.2677  0.0646
 5593SOL     OW28237   0.628   0.153   8.649  0.0201  0.1675  0.1541
 5593SOL    HW128238   0.552   0.188   8.696  0.3766  0.2781  0.6457
 5593SOL    HW228239   0.647   0.070   8.693 -0.6193  0.2283  0.5373
 5594SOL     OW28240   0.729   2.757   8.082 -0.1243  0.6032 -0.1353
 5594SOL    HW128241   0.777   2.815   8.141  0.4289 -0.8357  0.8252
 5594SOL    HW228242   0.650   2.755   8.137  0.8242 -0.9585  1.1965
 5595SOL     OW28243   1.441   3.798   6.663 -0.8440 -0.6686  0.3738
 5595SOL    HW128244   1.365   3.813   6.607  1.0536  0.6021 -1.8794
 5595SOL    HW228245   1.502   3.867   6.635 -3.6317  1.4440 -0.5507
 5596SOL     OW28246   4.129   0.696   6.914  0.2524  0.1392  0.2850
 5596SOL    HW128247   4.071   0.771   6.898 -0.6173 -0.4916  0.4723
 5596SOL    HW228248   4.103   0.641   6.840 -0.1918 -0.8345  1.1751
 5597SOL     OW28249   2.864   0.121   2.753 -0.2583 -0.1422  0.0495
 5597SOL    HW128250   2.887   0.037   2.714 -1.1919 -0.7726  0.8429
 5597SOL    HW228251   2.903   0.175   2.685 -0.5148  0.5137  0.4254
 5598SOL     OW28252   2.498   2.303  16.085  0.3409  0.0555  0.0711
 5598SOL    HW128253   2.435   2.290  16.015 -0.8952  2.0823  0.8176
 5598SOL    HW228254   2.522   2.213  16.108 -0.5353 -0.2532 -0.2214
 5599SOL     OW28255   2.168   1.551  13.640 -0.2702 -0.1419 -0.8323
 5599SOL    HW128256   2.262   1.536  13.637 -0.2721 -0.2878  0.0773
 5599SOL    HW228257   2.159   1.640  13.607 -1.0633  1.3391  3.5258
 5600SOL     OW28258   2.458   1.168   7.176 -0.0191  0.2207  0.6285
 5600SOL    HW128259   2.499   1.094   7.131  0.0517  1.5449 -1.4635
 5600SOL    HW228260   2.430   1.125   7.258  0.8980 -2.0759 -0.2615
 5601SOL     OW28261   3.500   3.836   6.899 -0.6319  0.2064  0.4287
 5601SOL    HW128262   3.483   3.748   6.866 -0.4406  1.4537 -3.0544
 5601SOL    HW228263   3.552   3.817   6.977 -0.5370 -2.3363 -0.2700
 5602SOL     OW28264   0.171   0.141   6.454  0.2717 -0.5409 -0.0947
 5602SOL    HW128265   0.159   0.140   6.549  3.2901  0.5990  0.2887
 5602SOL    HW228266   0.131   0.057   6.430 -1.6983  0.0046  1.3101
 5603SOL     OW28267   0.027   2.703   2.106  0.1289 -0.4070 -0.0250
 5603SOL    HW128268   0.119   2.717   2.084 -0.5158  0.6005 -2.0837
 5603SOL    HW228269   0.038   2.624   2.159 -1.7093  0.2626  1.3516
 5604SOL     OW28270   3.263   2.753   2.579  0.9097  0.2562  0.0438
 5604SOL    HW128271   3.281   2.816   2.649  0.4143  1.9502 -1.3622
 5604SOL    HW228272   3.181   2.791   2.547  0.4862 -1.0171 -0.3651
 5605SOL     OW28273   3.410   3.781   8.818  0.3573  0.0426  0.0512
 5605SOL    HW128274   3.358   3.862   8.816 -0.0736 -0.2011  1.3733
 5605SOL    HW228275   3.365   3.726   8.753 -1.5415  0.6680  0.8289
 5606SOL     OW28276   2.335   3.390   4.648 -0.1760 -0.0134 -0.1321
 5606SOL    HW128277   2.407   3.346   4.604 -0.8635 -1.6357  0.3653
 5606SOL    HW228278   2.285   3.316   4.682 -0.1238  0.1824  0.3736
 5607SOL     OW28279   2.078   2.955   7.290  0.4225 -0.1066 -0.0305
 5607SOL    HW128280   2.067   2.860   7.285  0.9692 -0.0642 -1.7580
 5607SOL    HW228281   2.129   2.953   7.371 -0.4206 -1.7680  0.4703
 5608SOL     OW28282   2.049   4.707   8.156  0.5058  0.0196  0.0690
 5608SOL    HW128283   2.137   0.020   8.176 -0.3018  1.5658  1.0648
 5608SOL    HW228284   2.015   0.063   8.109 -2.5359 -1.0770  0.5290
 5609SOL     OW28285   2.086   2.945   8.476 -0.2778 -0.1264 -0.0170
 5609SOL    HW128286   2.068   3.039   8.469 -0.3969 -0.3241 -2.4233
 5609SOL    HW228287   2.070   2.941   8.570 -2.3148  0.6824 -0.3310
 5610SOL     OW28288   3.638   4.213  11.673 -0.1914  0.5986 -0.5453
 5610SOL    HW128289   3.622   4.119  11.688 -0.6609  0.6522 -0.7044
 5610SOL    HW228290   3.609   4.239  11.761  0.4942 -0.9962  0.1637
 5611SOL     OW28291   2.754   3.138   0.726  0.0092 -0.2277 -0.2025
 5611SOL    HW128292   2.750   3.198   0.651 -0.4617 -0.2343 -0.1798
 5611SOL    HW228293   2.847   3.116   0.724 -0.1276 -0.9053  1.3278
 5612SOL     OW28294   0.738   1.058   6.940 -0.3040 -0.4281  0.1773
 5612SOL    HW128295   0.753   0.965   6.925  1.4399  0.3100 -2.7059
 5612SOL    HW228296   0.799   1.086   7.008  1.8449 -1.4724 -1.3182
 5613SOL     OW28297   3.592   3.751  16.320  0.4296  0.0902  0.0515
 5613SOL    HW128298   3.599   3.822  16.384 -1.1997  0.4982 -0.2142
 5613SOL    HW228299   3.526   3.688  16.351 -1.8031  1.7034 -1.3804
 5614SOL     OW28300   2.549   1.052   8.348 -0.0824  0.1215 -0.0081
 5614SOL    HW128301   2.579   1.089   8.431 -1.1677 -0.0157  0.4450
 5614SOL    HW228302   2.610   0.979   8.335  0.9210  0.8525  0.5381
 5615SOL     OW28303   4.630   1.573   2.271  0.4264 -0.7215  0.6741
 5615SOL    HW128304   4.541   1.539   2.255  1.1488 -1.5946 -1.4130
 5615SOL    HW228305   4.612   1.642   2.335 -0.2665 -0.6208  0.3750
 5616SOL     OW28306   1.054   3.613   8.974 -0.0284  0.3561 -0.3392
 5616SOL    HW128307   0.967   3.614   8.933 -1.1142 -1.3076  1.8905
 5616SOL    HW228308   1.110   3.579   8.905 -1.4876 -0.1179 -1.2911
 5617SOL     OW28309   2.518   3.255   7.615  0.4768 -0.3761  0.1022
 5617SOL    HW128310   2.470   3.326   7.574  0.7642 -0.3115 -0.1166
 5617SOL    HW228311   2.475   3.231   7.697  1.2815  2.1609  1.2386
 5618SOL     OW28312   2.654   2.705   5.318  0.1081 -0.4445 -0.3749
 5618SOL    HW128313   2.637   2.611   5.319  1.7575 -0.7386  0.6347
 5618SOL    HW228314   2.573   2.748   5.343 -0.2945 -2.5782  2.0541
 5619SOL     OW28315   3.398   4.028  12.429 -0.0601  0.3219  0.1445
 5619SOL    HW128316   3.462   3.992  12.491 -1.1207 -2.2655 -0.2807
 5619SOL    HW228317   3.316   4.038  12.477 -0.0775  1.2365 -0.0836
 5620SOL     OW28318   1.934   0.690   4.986 -0.0732  0.1233 -0.2096
 5620SOL    HW128319   1.860   0.734   4.943  0.2727  0.2002 -0.7263
 5620SOL    HW228320   1.968   0.633   4.916  0.2250 -0.5812  0.5144
 5621SOL     OW28321   1.098   0.804   8.962 -0.1015  0.2988  0.0994
 5621SOL    HW128322   1.066   0.843   8.881 -0.2889 -1.2908 -0.5894
 5621SOL    HW228323   1.189   0.833   8.953 -0.3632  0.5235 -1.7236
 5622SOL     OW28324   3.175   2.165  11.339  0.1995 -0.3877 -0.0151
 5622SOL    HW128325   3.212   2.252  11.322 -0.0657 -0.6060 -1.6953
 5622SOL    HW228326   3.254   2.117  11.366  1.7689  2.0863 -0.1478
 5623SOL     OW28327   1.630   1.402   3.907  0.0417 -0.3418 -0.2523
 5623SOL    HW128328   1.654   1.374   3.818 -1.9632  0.2106 -0.9601
 5623SOL    HW228329   1.660   1.492   3.894 -1.5050 -0.0785 -2.0363
 5624SOL     OW28330   3.534   0.973   5.047  0.1755  0.1171  0.3572
 5624SOL    HW128331   3.503   1.054   5.088 -0.7487 -0.0751  0.0271
 5624SOL    HW228332   3.569   0.924   5.122  3.4478  0.2003 -1.1312
 5625SOL     OW28333   4.407   2.660  13.764 -0.0795 -0.1212  0.0966
 5625SOL    HW128334   4.461   2.724  13.810  1.1952 -0.4866 -0.9011
 5625SOL    HW228335   4.382   2.704  13.683  2.1386 -0.0134 -0.5090
 5626SOL     OW28336   3.336   4.002   7.058  0.2567 -0.4050 -0.7272
 5626SOL    HW128337   3.250   3.961   7.070 -0.1519  0.7571  0.3398
 5626SOL    HW228338   3.389   3.944   7.004  1.2460 -0.0356 -0.1532
 5627SOL     OW28339   1.974   0.521  17.486 -0.2735  0.2814  0.4326
 5627SOL    HW128340   1.964   0.529  17.391  0.9427  0.5312  0.3277
 5627SOL    HW228341   2.055   0.470  17.484 -0.6686 -0.2813 -1.0749
 5628SOL     OW28342   0.102   2.711   4.897 -0.5450  0.3906  0.5114
 5628SOL    HW128343   0.116   2.778   4.963 -1.3088  1.5944 -0.5461
 5628SOL    HW228344   0.041   2.650   4.939 -1.6070  1.2351  0.1893
 5629SOL     OW28345   1.735   1.827   5.375 -0.5953 -0.1131  0.2596
 5629SOL    HW128346   1.796   1.854   5.444  0.5285 -0.7884 -0.4837
 5629SOL    HW228347   1.663   1.784   5.422 -1.6569  0.6706 -0.6494
 5630SOL     OW28348   2.430   1.662  10.098 -0.7621 -0.4277  0.1890
 5630SOL    HW128349   2.395   1.709  10.173 -0.5940 -1.3393  0.8316
 5630SOL    HW228350   2.351   1.666  10.043  1.4723  1.2215 -2.9139
 5631SOL     OW28351   0.442   2.004  15.816 -0.1688  0.0558 -0.7268
 5631SOL    HW128352   0.432   2.084  15.867 -1.5679 -2.0303  2.2202
 5631SOL    HW228353   0.374   2.019  15.750 -0.6947  1.4737  0.1394
 5632SOL     OW28354   4.261   2.020  15.931 -1.2246 -0.0606  0.0259
 5632SOL    HW128355   4.205   1.973  15.869 -0.1879 -1.7526  0.3405
 5632SOL    HW228356   4.222   2.107  15.929 -0.4205  0.3167  0.7882
 5633SOL     OW28357   1.764   0.787   8.408 -0.4991 -0.0926 -0.2437
 5633SOL    HW128358   1.692   0.825   8.459 -3.0078 -0.6187 -3.3735
 5633SOL    HW228359   1.832   0.785   8.475 -0.7537 -1.2268 -0.0174
 5634SOL     OW28360   0.364   2.406   8.849  0.4030  0.0892 -0.1156
 5634SOL    HW128361   0.271   2.426   8.861  0.2607 -1.2088  1.0259
 5634SOL    HW228362   0.366   2.437   8.759 -0.6778  1.5353  0.3656
 5635SOL     OW28363   4.109   2.082   2.644 -0.3048  0.4248 -0.7406
 5635SOL    HW128364   4.124   2.168   2.604  2.8669 -0.0776 -0.6099
 5635SOL    HW228365   4.196   2.044   2.630 -0.6494 -1.1454  1.3930
 5636SOL     OW28366   2.702   2.569   7.559 -0.5936  0.1626  0.1950
 5636SOL    HW128367   2.757   2.572   7.481  0.6998  1.0237  1.1336
 5636SOL    HW228368   2.618   2.541   7.522 -1.6137  1.3211  1.6412
 5637SOL     OW28369   2.119   2.235   4.712 -0.6179 -0.3031 -0.3082
 5637SOL    HW128370   2.096   2.170   4.777  1.7415 -0.4962  0.3559
 5637SOL    HW228371   2.037   2.284   4.708  0.1619  1.0186 -0.0382
 5638SOL     OW28372   0.586   3.057   4.283 -0.3214  0.0313 -0.3229
 5638SOL    HW128373   0.670   3.102   4.291 -0.2565 -0.7716  3.1997
 5638SOL    HW228374   0.528   3.133   4.293 -1.4655 -0.4065 -3.6757
 5639SOL     OW28375   1.341   0.719   2.094 -0.3642  0.1318  0.0856
 5639SOL    HW128376   1.327   0.805   2.054 -1.6807 -0.3115 -0.4389
 5639SOL    HW228377   1.290   0.673   2.027 -0.5707 -0.0137  0.3426
 5640SOL     OW28378   0.106   3.837   6.628 -0.3925 -0.0829  0.5867
 5640SOL    HW128379   0.015   3.808   6.627 -0.0613 -1.1008  0.1504
 5640SOL    HW228380   0.144   3.750   6.640  1.9990  1.2745  3.0369
 5641SOL     OW28381   1.659   3.654   6.755 -0.0970 -0.3686  0.0422
 5641SOL    HW128382   1.574   3.696   6.743  0.0197 -0.1254  0.0636
 5641SOL    HW228383   1.725   3.712   6.717 -0.5576 -0.6490 -1.1698
 5642SOL     OW28384   3.223   3.823   4.601 -0.1445 -0.1365  0.1570
 5642SOL    HW128385   3.288   3.753   4.606  1.2402  1.4223  3.3724
 5642SOL    HW228386   3.186   3.821   4.689 -1.6267 -0.2971 -0.4644
 5643SOL     OW28387   0.143   3.568   7.390 -0.0051 -0.4531 -0.1954
 5643SOL    HW128388   0.105   3.584   7.476 -0.5628  2.0403 -0.9137
 5643SOL    HW228389   0.232   3.593   7.414 -0.3534  0.7980 -0.2369
 5644SOL     OW28390   2.647   4.021   2.062  0.1532 -0.0852 -0.1951
 5644SOL    HW128391   2.634   3.960   1.989 -0.3405  0.5192 -0.6156
 5644SOL    HW228392   2.735   4.053   2.045  0.0049  1.6378  2.4090
 5645SOL     OW28393   1.547   3.226   3.482 -0.2716 -0.0405 -0.5976
 5645SOL    HW128394   1.511   3.240   3.395 -1.6016  0.3641  0.0018
 5645SOL    HW228395   1.469   3.223   3.538  0.7823  0.4272  0.9175
 5646SOL     OW28396   4.422   2.023  13.670  0.6377 -0.2385 -0.1836
 5646SOL    HW128397   4.398   2.099  13.616 -0.7867  0.7532  1.8095
 5646SOL    HW228398   4.384   1.953  13.617  0.6586 -2.1671  2.3798
 5647SOL     OW28399   0.730   0.022   4.184 -0.0968 -0.1383  0.0565
 5647SOL    HW128400   0.715   0.018   4.089 -1.1527 -0.8731  0.2505
 5647SOL    HW228401   0.779   4.660   4.193 -2.3087 -1.5261 -0.3558
 5648SOL     OW28402   2.614   4.015   7.827  0.0937 -0.2762  0.1732
 5648SOL    HW128403   2.682   3.957   7.864 -1.5355 -1.4612  1.3066
 5648SOL    HW228404   2.575   4.032   7.913 -0.2452  0.1993 -0.0812
 5649SOL     OW28405   2.707   2.503  17.513  0.5966 -0.0169  0.2890
 5649SOL    HW128406   2.778   2.494  17.449  1.2837 -2.1866  1.3524
 5649SOL    HW228407   2.711   2.416  17.551 -1.0887  1.2176  3.2862
 5650SOL     OW28408   1.480   2.919   0.012  0.1739  0.2938 -0.1391
 5650SOL    HW128409   1.541   2.851   0.039 -1.4195 -2.3062 -3.0478
 5650SOL    HW228410   1.438   2.932   0.097  2.1545  3.3168  0.3950
 5651SOL     OW28411   4.396   0.988  15.073 -0.5166 -0.1996 -0.1136
 5651SOL    HW128412   4.351   1.062  15.115  1.1076  1.6013 -1.5962
 5651SOL    HW228413   4.325   0.927  15.094 -1.3845  0.6865 -0.4631
 5652SOL     OW28414   2.171   4.613  13.890 -0.6920  0.0634 -0.3372
 5652SOL    HW128415   2.210   4.529  13.865 -0.4454  0.2907 -0.7044
 5652SOL    HW228416   2.138   4.646  13.807 -1.3892 -1.2988 -0.6002
 5653SOL     OW28417   0.974   2.875   5.734  0.6024 -0.1140  0.2025
 5653SOL    HW128418   0.959   2.964   5.701  2.3600 -0.9846 -2.9174
 5653SOL    HW228419   0.940   2.817   5.666  0.6499  0.9127 -0.7084
 5654SOL     OW28420   2.013   3.516   1.899 -0.4095 -0.0466  0.3702
 5654SOL    HW128421   2.060   3.523   1.816 -0.4963  2.9180  0.5745
 5654SOL    HW228422   1.952   3.443   1.886  1.3244 -1.2908 -0.7903
 5655SOL     OW28423   3.950   1.897   9.143 -0.0963 -0.5139 -0.5380
 5655SOL    HW128424   3.909   1.972   9.098 -0.1291 -0.2614 -0.0899
 5655SOL    HW228425   3.989   1.944   9.217  0.8578  0.1316 -1.4384
 5656SOL     OW28426   0.365   1.930  17.622 -0.0351 -0.1892 -0.1579
 5656SOL    HW128427   0.345   1.926   0.033 -2.0634  0.2348 -0.5762
 5656SOL    HW228428   0.455   1.959  17.636  0.2778  0.4714 -3.5742
 5657SOL     OW28429   0.975   2.557   4.234 -0.1820 -0.0799 -0.4211
 5657SOL    HW128430   0.887   2.533   4.261 -0.1200 -0.6269 -0.7039
 5657SOL    HW228431   0.963   2.623   4.165  2.3443  1.2535  0.4175
 5658SOL     OW28432   0.362   3.101   0.168  0.2047 -0.2345  0.0030
 5658SOL    HW128433   0.360   3.015   0.210 -0.9613  0.0038  0.4311
 5658SOL    HW228434   0.339   3.157   0.242 -1.5105  0.1833 -0.8469
 5659SOL     OW28435   3.802   3.104   6.430  0.3151 -0.4027 -0.2620
 5659SOL    HW128436   3.872   3.042   6.407 -1.0629 -1.4921 -1.4457
 5659SOL    HW228437   3.840   3.142   6.510 -2.1107  2.0467 -0.2792
 5660SOL     OW28438   0.734   2.903   0.948  0.1624  0.3686  0.3307
 5660SOL    HW128439   0.708   2.861   1.030  0.5779 -0.7970 -0.1327
 5660SOL    HW228440   0.725   2.994   0.978 -1.1817  0.7496 -1.2560
 5661SOL     OW28441   2.252   3.258   6.555  0.0661  0.0259  0.4877
 5661SOL    HW128442   2.289   3.340   6.523  1.4236 -1.1462 -0.9929
 5661SOL    HW228443   2.284   3.196   6.489 -0.1681  0.9682 -0.5085
 5662SOL     OW28444   2.497   3.614   6.228  0.0347 -0.0231 -0.3367
 5662SOL    HW128445   2.571   3.558   6.252 -0.8021 -1.0835 -0.2594
 5662SOL    HW228446   2.549   3.690   6.201 -0.9723 -0.3077 -3.0544
 5663SOL     OW28447   2.723   1.115  15.471  0.4362  1.0320  0.6018
 5663SOL    HW128448   2.768   1.084  15.392 -2.5456  0.9908 -1.0472
 5663SOL    HW228449   2.631   1.096  15.456 -0.0913  2.1969  2.2867
 5664SOL     OW28450   4.122   3.349   2.317  0.3495 -0.4339 -0.4841
 5664SOL    HW128451   4.135   3.273   2.261  2.2028 -2.6251  2.9283
 5664SOL    HW228452   4.090   3.302   2.394 -0.1105 -0.2773 -0.5809
 5665SOL     OW28453   1.451   1.574   7.387  0.1491 -0.5777  0.2445
 5665SOL    HW128454   1.434   1.480   7.378 -0.2414 -0.2913 -2.1431
 5665SOL    HW228455   1.425   1.590   7.478 -2.9034 -2.7283 -0.2288
 5666SOL     OW28456   3.913   4.494  11.708 -0.8232 -0.3559 -0.7626
 5666SOL    HW128457   3.868   4.423  11.754 -4.5402  1.5675 -1.4336
 5666SOL    HW228458   3.945   4.557  11.773 -0.4006 -1.8561  0.4889
 5667SOL     OW28459   3.752   2.747  16.205  0.1320 -0.3036  0.4643
 5667SOL    HW128460   3.696   2.824  16.207 -0.8068 -0.9420 -1.1831
 5667SOL    HW228461   3.831   2.785  16.244  1.1060 -1.9401  0.1105
 5668SOL     OW28462   1.303   4.319  16.021 -0.6980 -0.1470 -0.2926
 5668SOL    HW128463   1.264   4.350  16.103 -1.6200 -0.2061 -0.7003
 5668SOL    HW228464   1.354   4.397  16.000  0.2888 -0.8075 -0.3183
 5669SOL     OW28465   3.886   4.436   4.696  0.3685 -0.1545 -0.0682
 5669SOL    HW128466   3.948   4.507   4.711 -0.5860  0.2794  1.7599
 5669SOL    HW228467   3.840   4.447   4.779 -1.3957  0.8187 -1.1793
 5670SOL     OW28468   3.669   4.152   3.849 -0.2806  0.1858 -0.5488
 5670SOL    HW128469   3.657   4.241   3.882  1.5942  0.2430  0.0151
 5670SOL    HW228470   3.661   4.161   3.755 -1.4516  2.4949 -0.2167
 5671SOL     OW28471   2.783   3.012   5.870 -0.0718 -0.2273 -0.1032
 5671SOL    HW128472   2.708   3.062   5.901 -0.5102 -1.0371  0.1350
 5671SOL    HW228473   2.827   3.068   5.806 -1.0389 -0.3230 -0.8511
 5672SOL     OW28474   4.662   1.473   3.898  0.8336 -0.0713  0.3721
 5672SOL    HW128475   4.592   1.494   3.836  2.2642 -3.4686 -2.3760
 5672SOL    HW228476   4.710   1.412   3.842 -1.1630 -0.5322 -0.8210
 5673SOL     OW28477   4.715   3.787  14.435  0.3928 -0.0818 -0.2238
 5673SOL    HW128478   4.704   3.862  14.493 -0.4476 -2.0535  2.1711
 5673SOL    HW228479   0.081   3.815  14.401  0.2327  1.5125  0.6982
 5674SOL     OW28480   2.742   2.567   8.596 -0.1278 -0.1211 -0.4977
 5674SOL    HW128481   2.680   2.635   8.621  0.5026 -0.2079  1.3222
 5674SOL    HW228482   2.774   2.538   8.682 -1.5205  0.7137  0.3074
 5675SOL     OW28483   2.877   1.615   7.698  0.2884  0.2600 -0.4666
 5675SOL    HW128484   2.816   1.658   7.637 -1.1209  1.1761  1.6145
 5675SOL    HW228485   2.957   1.652   7.659 -0.0380  1.9684  0.4872
 5676SOL     OW28486   1.905   1.029   7.098  0.1844 -0.6690  0.4009
 5676SOL    HW128487   1.921   1.057   7.188 -0.3325  2.6617 -0.5481
 5676SOL    HW228488   1.984   0.978   7.080  0.2809 -0.1354 -0.7147
 5677SOL     OW28489   1.611   1.726  16.096 -0.0356 -0.5536  0.0567
 5677SOL    HW128490   1.609   1.813  16.136  1.0897 -0.7028  0.4310
 5677SOL    HW228491   1.705   1.716  16.081  0.1797  0.8210  0.4109
 5678SOL     OW28492   0.808   0.497   3.485 -0.5029 -0.6056  0.2911
 5678SOL    HW128493   0.868   0.548   3.540  0.2698 -0.7018 -0.4742
 5678SOL    HW228494   0.863   0.479   3.409  0.5289 -1.3990  1.2025
 5679SOL     OW28495   1.449   0.647   1.542 -0.0679 -0.1946 -0.6628
 5679SOL    HW128496   1.422   0.650   1.634  2.2307  0.9069 -0.0127
 5679SOL    HW228497   1.360   0.628   1.513  0.3760 -2.1480 -0.7421
 5680SOL     OW28498   3.021   3.481   3.491  0.1178 -0.3845  0.4561
 5680SOL    HW128499   3.019   3.576   3.493  0.9749 -0.3258 -1.5735
 5680SOL    HW228500   2.954   3.461   3.557  0.1614 -1.7121  0.0958
 5681SOL     OW28501   1.297   3.093   9.452  0.4407 -0.1645 -0.4672
 5681SOL    HW128502   1.210   3.094   9.492  1.1583 -0.6421  1.1142
 5681SOL    HW228503   1.330   3.181   9.471 -1.1630  0.4417 -0.4683
 5682SOL     OW28504   3.766   2.650  11.236 -0.2034 -0.3394 -0.1279
 5682SOL    HW128505   3.804   2.584  11.295  0.3780 -0.0233 -0.1454
 5682SOL    HW228506   3.694   2.679  11.292 -0.2020  1.4304 -1.0533
 5683SOL     OW28507   4.327   0.974   3.089  0.7079  0.8230 -0.2975
 5683SOL    HW128508   4.391   0.945   3.024 -0.5016 -1.2896 -0.5486
 5683SOL    HW228509   4.248   0.925   3.068  1.4626 -0.2782 -0.5752
 5684SOL     OW28510   1.794   3.252  14.149 -0.0704 -0.0350 -0.2327
 5684SOL    HW128511   1.755   3.165  14.162  1.0788 -0.2340  1.8817
 5684SOL    HW228512   1.747   3.308  14.210 -0.2876 -1.0028  0.4853
 5685SOL     OW28513   0.511   1.861  12.471  0.0379  0.1380 -0.2576
 5685SOL    HW128514   0.582   1.909  12.429 -1.0942  2.7722  0.9051
 5685SOL    HW228515   0.499   1.924  12.541 -0.6575 -1.9472  1.4894
 5686SOL     OW28516   2.941   3.513  11.968 -0.3923 -0.1667  0.2811
 5686SOL    HW128517   3.035   3.512  11.987 -0.4306  2.0515  0.6375
 5686SOL    HW228518   2.922   3.420  11.963  2.1643 -0.6685 -0.3213
 5687SOL     OW28519   1.224   2.014  16.575  0.4898 -0.3080  0.0538
 5687SOL    HW128520   1.245   1.940  16.632  0.1405  0.0498  0.6476
 5687SOL    HW228521   1.219   1.970  16.490  0.2599 -3.2532  1.5833
 5688SOL     OW28522   3.337   2.441  12.287  0.4207  0.0974 -0.0176
 5688SOL    HW128523   3.276   2.372  12.261 -1.1433  0.9757  1.3141
 5688SOL    HW228524   3.415   2.390  12.265  1.3653  2.2848 -1.7649
 5689SOL     OW28525   2.686   3.452   3.132 -0.1115 -0.0570 -0.4383
 5689SOL    HW128526   2.776   3.442   3.163 -1.0371 -0.8759  1.9447
 5689SOL    HW228527   2.696   3.449   3.037 -0.7199  1.0594 -0.5294
 5690SOL     OW28528   3.826   1.805   9.496  0.3366  0.4846  0.6466
 5690SOL    HW128529   3.874   1.735   9.451 -0.5692 -0.0953  0.5758
 5690SOL    HW228530   3.889   1.821   9.565  1.3547 -1.2773  0.1386
 5691SOL     OW28531   1.799   2.128   9.523 -0.1401  0.0536  0.3275
 5691SOL    HW128532   1.754   2.144   9.440 -0.3050  1.6037  0.7254
 5691SOL    HW228533   1.883   2.089   9.496 -1.3017 -0.4837 -2.4585
 5692SOL     OW28534   4.073   3.916   4.014 -0.2082  0.1821 -0.0353
 5692SOL    HW128535   4.011   3.971   4.062 -0.5132 -0.9632  0.9058
 5692SOL    HW228536   4.029   3.901   3.930 -0.2572  0.7869 -0.1163
 5693SOL     OW28537   2.490   4.442   3.778 -0.0808  0.9421 -0.2466
 5693SOL    HW128538   2.574   4.433   3.824 -0.4023  0.2169  0.1990
 5693SOL    HW228539   2.492   4.537   3.775 -0.0808  0.9508  0.0949
 5694SOL     OW28540   1.830   4.595   7.016 -0.3914  0.1233  0.3817
 5694SOL    HW128541   1.791   4.656   7.078 -0.4566 -0.1717  0.6250
 5694SOL    HW228542   1.800   4.623   6.929 -1.2363 -0.1333  0.5974
 5695SOL     OW28543   4.677   2.224   4.658 -0.2320 -0.9672 -0.1472
 5695SOL    HW128544   0.040   2.178   4.642  0.3290  0.2167 -0.6671
 5695SOL    HW228545   4.610   2.175   4.610 -1.5458 -0.6955  1.4178
 5696SOL     OW28546   3.124   3.492   7.043 -0.1640  0.4081 -0.2611
 5696SOL    HW128547   3.209   3.463   7.011  0.3078 -0.7814  2.0483
 5696SOL    HW228548   3.150   3.541   7.122 -2.5012  1.5996 -0.2415
 5697SOL     OW28549   2.032   1.505   2.693 -0.3818  0.2865  0.0290
 5697SOL    HW128550   2.086   1.483   2.617  1.4944  0.0895  1.4020
 5697SOL    HW228551   2.065   1.595   2.699 -1.6236  0.6735  1.1640
 5698SOL     OW28552   0.033   3.466   1.039  0.0921 -0.2238  0.1806
 5698SOL    HW128553   4.707   3.546   1.062 -1.1162 -0.0697 -2.7090
 5698SOL    HW228554   0.082   3.460   1.121  1.2737 -0.0305 -0.5043
 5699SOL     OW28555   4.379   3.989   5.343  0.0792 -0.0554 -0.3360
 5699SOL    HW128556   4.383   3.894   5.335 -2.1280 -0.2974  1.3632
 5699SOL    HW228557   4.367   4.014   5.252  1.4793  1.3695 -0.1306
 5700SOL     OW28558   1.471   4.451   1.598  0.4924  0.8406 -0.4685
 5700SOL    HW128559   1.536   4.521   1.592  2.2445 -0.7404 -0.0915
 5700SOL    HW228560   1.452   4.444   1.692 -0.3889  0.8068 -0.6515
 5701SOL     OW28561   3.462   2.675   1.795  0.0025  0.5286  0.3136
 5701SOL    HW128562   3.487   2.640   1.709  0.2056 -1.4655  1.1947
 5701SOL    HW228563   3.540   2.650   1.845  0.3525  1.3308  0.1691
 5702SOL     OW28564   0.856   3.479   7.287  0.1861 -0.2462 -0.0083
 5702SOL    HW128565   0.814   3.409   7.337 -1.3260  0.9769  0.4285
 5702SOL    HW228566   0.937   3.437   7.259 -0.2093 -1.8493  1.2330
 5703SOL     OW28567   4.434   1.650   2.936  0.0878  0.3725 -0.2566
 5703SOL    HW128568   4.389   1.729   2.965  0.0887  0.3201 -0.1120
 5703SOL    HW228569   4.505   1.684   2.881  1.0016 -1.5511 -0.2919
 5704SOL     OW28570   1.048   2.180   4.871  0.2961  0.4872  0.0251
 5704SOL    HW128571   0.974   2.219   4.917 -0.0903  0.0477 -0.2362
 5704SOL    HW228572   1.062   2.252   4.809  2.0283  1.4169  1.4983
 5705SOL     OW28573   1.641   2.159   1.475  0.3364 -0.5067 -0.3545
 5705SOL    HW128574   1.582   2.179   1.547  2.2677  2.4468  0.3946
 5705SOL    HW228575   1.726   2.174   1.518  0.7136  2.5351 -2.1543
 5706SOL     OW28576   2.926   4.052   2.883 -0.6367  0.7164  0.8388
 5706SOL    HW128577   2.958   4.003   2.807 -0.7779  1.3252  0.3832
 5706SOL    HW228578   2.889   3.982   2.936  0.7834  0.5103  1.5413
 5707SOL     OW28579   4.712   1.508   6.080 -0.3199 -0.5834 -0.6953
 5707SOL    HW128580   4.708   1.581   6.019 -0.8977  0.5495  0.7119
 5707SOL    HW228581   0.081   1.517   6.114 -0.7576  1.0942  0.0029
 5708SOL     OW28582   0.492   0.835   5.871 -0.6229  0.1562  0.7124
 5708SOL    HW128583   0.478   0.903   5.936 -1.8451  1.0852 -0.5221
 5708SOL    HW228584   0.561   0.790   5.920 -1.6450 -0.2484  1.7558
 5709SOL     OW28585   0.772   1.616   2.586  0.1468 -0.1520 -0.1727
 5709SOL    HW128586   0.855   1.570   2.577 -0.3455 -1.3512  1.3126
 5709SOL    HW228587   0.720   1.578   2.516  1.0234  2.2634 -2.1398
 5710SOL     OW28588   4.153   2.841   4.646 -0.2514  0.1526  0.3247
 5710SOL    HW128589   4.205   2.827   4.567 -0.1420  0.4378  0.3483
 5710SOL    HW228590   4.162   2.764   4.702 -0.1073  0.3028  0.5071
 5711SOL     OW28591   0.778   2.026  10.808 -0.3065 -0.3694 -0.0078
 5711SOL    HW128592   0.707   2.033  10.872 -0.2244 -0.8176  0.1266
 5711SOL    HW228593   0.825   1.956  10.853 -0.3740  0.5345  1.4688
 5712SOL     OW28594   2.155   4.050   7.080  0.5630 -0.6202  0.8655
 5712SOL    HW128595   2.101   3.975   7.053 -0.5514  1.5770 -2.9491
 5712SOL    HW228596   2.084   4.113   7.083  0.7257 -0.3218 -1.8000
 5713SOL     OW28597   0.642   0.085  10.825 -0.2579  0.4397  0.0233
 5713SOL    HW128598   0.580   0.067  10.896 -0.2484 -0.9880 -0.3237
 5713SOL    HW228599   0.645   0.181  10.818 -0.6586  0.4004 -0.6816
 5714SOL     OW28600   0.179   3.666   3.543 -0.2117  0.2283  0.0306
 5714SOL    HW128601   0.095   3.680   3.586 -1.2354  2.0837 -2.5762
 5714SOL    HW228602   0.168   3.574   3.516  1.8979  0.5338 -1.8542
 5715SOL     OW28603   2.792   4.244   8.159  0.0925  0.2584  0.4959
 5715SOL    HW128604   2.755   4.246   8.247 -0.0777 -0.2368  0.4356
 5715SOL    HW228605   2.804   4.150   8.150  2.4603  0.8662 -2.7739
 5716SOL     OW28606   1.661   3.644   7.951 -0.4189  0.2373 -0.7970
 5716SOL    HW128607   1.605   3.709   7.993  0.0325 -0.2725  0.5960
 5716SOL    HW228608   1.739   3.689   7.918 -1.4069  2.8614  0.4956
 5717SOL     OW28609   0.810   2.664  14.650 -0.1462 -0.3948 -0.5353
 5717SOL    HW128610   0.717   2.642  14.645 -0.2824  0.1149 -0.2624
 5717SOL    HW228611   0.809   2.701  14.738 -0.3712  0.5870 -0.9582
 5718SOL     OW28612   1.737   2.990   0.212 -0.2546 -0.0081  0.8208
 5718SOL    HW128613   1.765   2.929   0.280  0.8227 -0.4921 -0.0646
 5718SOL    HW228614   1.673   2.930   0.173 -0.3762  2.0891 -2.1632
 5719SOL     OW28615   0.340   4.661   9.216  0.4871  0.0483 -0.0052
 5719SOL    HW128616   0.371   4.719   9.286 -0.5312 -1.1728  1.4545
 5719SOL    HW228617   0.248   4.687   9.217  0.2183 -1.0392  3.9438
 5720SOL     OW28618   4.499   3.550   9.897 -0.3475  0.6454  0.2316
 5720SOL    HW128619   4.413   3.550   9.856 -0.2902 -0.4983  0.1193
 5720SOL    HW228620   4.486   3.501   9.979  0.9225  0.1231  0.1344
 5721SOL     OW28621   1.505   3.355  16.176  0.5420  0.5214 -0.8885
 5721SOL    HW128622   1.554   3.366  16.094 -0.6066  0.3350 -1.5935
 5721SOL    HW228623   1.522   3.438  16.220  1.7049  1.0017 -2.2156
 5722SOL     OW28624   3.599   2.443   3.272  0.0782  0.1072 -0.3052
 5722SOL    HW128625   3.641   2.394   3.343  0.5143  0.9075 -0.0079
 5722SOL    HW228626   3.646   2.404   3.198  2.5392  2.3597  0.0637
 5723SOL     OW28627   4.399   4.558  11.292  0.0512 -0.2802  0.3269
 5723SOL    HW128628   4.398   4.642  11.337  0.5680 -0.2411  0.2634
 5723SOL    HW228629   4.399   4.580  11.198 -2.0474  0.2303  0.4553
 5724SOL     OW28630   0.312   3.924  17.265 -0.1960 -0.1340  0.5750
 5724SOL    HW128631   0.309   3.885  17.352 -2.2747  1.0109  1.0117
 5724SOL    HW228632   0.391   3.978  17.262  0.3615 -0.8464  2.4386
 5725SOL     OW28633   1.523   0.975   2.790 -0.1871  0.4464 -0.5744
 5725SOL    HW128634   1.569   0.991   2.708 -0.9477 -1.5106 -1.3695
 5725SOL    HW228635   1.571   0.893   2.803 -1.7822 -0.6221 -1.4424
 5726SOL     OW28636   1.227   0.833   1.212 -0.5287  0.3832  0.6595
 5726SOL    HW128637   1.227   0.788   1.127 -1.2976  2.3866 -0.4047
 5726SOL    HW228638   1.135   0.857   1.224 -0.0967  1.6665  1.3901
 5727SOL     OW28639   0.467   3.957   6.775 -0.6698 -0.3599  0.0228
 5727SOL    HW128640   0.449   3.913   6.692 -1.1327 -1.8401  0.9074
 5727SOL    HW228641   0.390   3.933   6.827 -0.5654  2.1050  1.3097
 5728SOL     OW28642   3.051   0.285   7.307 -0.0896  0.1469 -0.6721
 5728SOL    HW128643   3.116   0.352   7.329 -0.3654  1.5003 -4.0410
 5728SOL    HW228644   3.113   0.213   7.299  2.0311  1.8732  0.2470
 5729SOL     OW28645   1.105   2.581   2.926 -0.6464  0.5946  0.1996
 5729SOL    HW128646   1.095   2.509   2.863 -0.4058 -0.7487  1.7084
 5729SOL    HW228647   1.181   2.625   2.888 -0.7498  0.9870  0.4464
 5730SOL     OW28648   4.540   3.953  12.473  0.0852 -1.0133 -1.0304
 5730SOL    HW128649   4.543   4.045  12.445 -0.5012 -0.6966 -0.0646
 5730SOL    HW228650   4.450   3.947  12.504  1.3331 -0.1290  2.8987
 5731SOL     OW28651   2.792   0.479   4.495 -0.0598  0.2803 -0.2842
 5731SOL    HW128652   2.867   0.511   4.545  1.2544 -2.7829 -0.3082
 5731SOL    HW228653   2.747   0.564   4.498  0.0555  0.4119 -2.4887
 5732SOL     OW28654   2.410   2.257  11.558  0.4139 -0.1546  0.1681
 5732SOL    HW128655   2.388   2.166  11.540  5.0674 -0.8083 -2.2653
 5732SOL    HW228656   2.448   2.241  11.644  0.8539 -6.2299 -1.1576
 5733SOL     OW28657   0.508   0.178   3.044  0.1233  0.4850  0.1769
 5733SOL    HW128658   0.526   0.219   2.959 -0.1302  0.6762  0.2167
 5733SOL    HW228659   0.501   0.249   3.108  1.6393 -0.2068  1.0995
 5734SOL     OW28660   3.838   0.254   8.063 -0.0715  0.2971 -0.5500
 5734SOL    HW128661   3.932   0.265   8.047  0.0803  2.0864  1.5462
 5734SOL    HW228662   3.823   0.160   8.060  2.2420 -0.0760  0.3954
 5735SOL     OW28663   2.889   1.906   5.080  0.2361 -0.1562 -0.3602
 5735SOL    HW128664   2.896   1.957   5.161  0.1846  0.2654 -0.6222
 5735SOL    HW228665   2.842   1.963   5.020 -1.0855 -2.0292 -1.1197
 5736SOL     OW28666   0.862   4.603   7.565 -0.2844 -0.4910 -0.1278
 5736SOL    HW128667   0.799   4.670   7.591  0.3805  1.4344 -3.4962
 5736SOL    HW228668   0.820   4.518   7.583 -1.1220 -0.2083 -0.7153
 5737SOL     OW28669   1.749   4.500  16.585  0.2272 -0.4128  0.1252
 5737SOL    HW128670   1.707   4.582  16.561 -0.7537 -1.3054 -1.2322
 5737SOL    HW228671   1.842   4.520  16.584  0.1845 -0.2141  0.2289
 5738SOL     OW28672   0.926   0.023   7.844  0.1865 -0.1024 -0.6507
 5738SOL    HW128673   0.854   4.719   7.785  0.5563 -0.5687 -0.9153
 5738SOL    HW228674   0.990   0.058   7.782 -0.7783  2.2893 -0.3090
 5739SOL     OW28675   4.509   1.818  14.210  0.2010 -0.2234 -0.3132
 5739SOL    HW128676   4.421   1.834  14.246  0.6723  0.8108  0.3686
 5739SOL    HW228677   4.563   1.875  14.264 -2.1846 -0.3928  2.2616
 5740SOL     OW28678   4.499   1.862  11.605 -0.0502 -0.0764  0.5775
 5740SOL    HW128679   4.538   1.949  11.611  1.6098 -0.9584  2.8508
 5740SOL    HW228680   4.483   1.865  11.511 -0.5167  0.7823  0.6895
 5741SOL     OW28681   4.626   4.048   9.877 -0.5037  0.1634 -0.1434
 5741SOL    HW128682   4.668   4.056   9.963 -5.1965  1.0948  2.0802
 5741SOL    HW228683   4.571   3.970   9.883 -0.9726  0.4024 -1.4048
 5742SOL     OW28684   4.561   4.663   8.964  0.4173 -0.1889  0.2320
 5742SOL    HW128685   4.635   0.004   8.970  0.5351 -0.3533  0.4431
 5742SOL    HW228686   4.533   4.677   8.873 -1.2342  0.5844  0.8610
 5743SOL     OW28687   3.179   1.571  15.362 -0.8160  0.9080  0.3399
 5743SOL    HW128688   3.109   1.522  15.405 -1.5598  0.4959 -1.3552
 5743SOL    HW228689   3.199   1.636  15.430  0.0936  0.1762  0.7765
 5744SOL     OW28690   2.749   1.543  15.985  0.0017 -0.0607 -0.2664
 5744SOL    HW128691   2.776   1.454  15.961 -0.6131  0.4404 -2.8073
 5744SOL    HW228692   2.671   1.535  16.040  0.7112 -0.1312  0.7218
 5745SOL     OW28693   0.918   0.677   2.578  0.2199  0.3251  0.6629
 5745SOL    HW128694   0.902   0.698   2.670 -1.0505 -0.6123  0.6492
 5745SOL    HW228695   1.013   0.666   2.581  0.0522 -1.3088 -0.0996
 5746SOL     OW28696   0.033   3.100   5.278  0.4684 -0.3350  0.2235
 5746SOL    HW128697   0.017   3.082   5.186  2.2293  1.3575 -0.3994
 5746SOL    HW228698   4.699   3.177   5.296  2.5800  0.7902  1.7260
 5747SOL     OW28699   3.411   0.556   9.916 -0.1313 -0.1773  0.4640
 5747SOL    HW128700   3.406   0.630   9.855  2.5015  0.5427  1.0974
 5747SOL    HW228701   3.470   0.495   9.873 -1.2830  0.8369 -2.5646
 5748SOL     OW28702   3.540   3.358  17.613 -0.1195 -0.1154  0.4585
 5748SOL    HW128703   3.508   3.448  17.608 -0.5759 -0.3842 -1.4946
 5748SOL    HW228704   3.554   3.339   0.023 -0.8615 -0.4116  0.5103
 5749SOL     OW28705   2.985   0.698   1.416 -0.3001 -0.3699  0.4198
 5749SOL    HW128706   3.073   0.728   1.439 -0.9859 -0.3253  2.8851
 5749SOL    HW228707   2.998   0.656   1.331  0.1398  1.0023 -0.1877
 5750SOL     OW28708   3.669   3.120  10.791 -0.2777 -0.3331  0.1529
 5750SOL    HW128709   3.732   3.189  10.812  1.4183 -2.3205  1.5261
 5750SOL    HW228710   3.587   3.164  10.765  0.3423  0.2815 -0.7508
 5751SOL     OW28711   4.067   4.668  12.171 -0.5121  0.2004  0.8836
 5751SOL    HW128712   4.119   4.663  12.251  2.4321  1.1960 -0.9636
 5751SOL    HW228713   3.994   0.001  12.201 -1.1699 -0.4356  0.4114
 5752SOL     OW28714   2.379   4.401   0.496  0.5798 -0.2344 -0.4030
 5752SOL    HW128715   2.366   4.364   0.584  0.5165 -2.0433 -1.1632
 5752SOL    HW228716   2.344   4.338   0.433 -1.2948  0.4706 -0.0505
 5753SOL     OW28717   4.350   3.223   3.430 -0.1704 -0.7530  0.2359
 5753SOL    HW128718   4.424   3.170   3.460 -0.1968 -0.4115  0.8983
 5753SOL    HW228719   4.310   3.246   3.513  0.0014  0.8234 -0.1182
 5754SOL     OW28720   1.953   0.231   8.089  0.4179 -0.2358  0.3471
 5754SOL    HW128721   1.929   0.264   8.176  0.7435 -0.4824  0.5349
 5754SOL    HW228722   1.997   0.307   8.052  1.1127 -0.6640  0.2816
 5755SOL     OW28723   3.114   2.209   3.006 -0.1243 -0.1347 -0.4225
 5755SOL    HW128724   3.205   2.240   3.003 -0.0588 -0.3917 -1.4792
 5755SOL    HW228725   3.111   2.172   3.094 -0.5627 -0.9818 -0.7914
 5756SOL     OW28726   0.081   4.593   3.524  0.0808  0.0555 -0.0923
 5756SOL    HW128727   0.032   4.557   3.597 -3.2438  0.9933 -1.8672
 5756SOL    HW228728   0.129   4.667   3.563  1.0712 -0.7703  0.2573
 5757SOL     OW28729   2.530   3.103   3.481 -0.1875  0.1758  0.5021
 5757SOL    HW128730   2.580   3.109   3.562  0.8567  0.8537 -0.1951
 5757SOL    HW228731   2.534   3.191   3.445  0.1852  0.7163  1.8800
 5758SOL     OW28732   2.275   1.819  11.685  0.1250 -0.2335  0.0775
 5758SOL    HW128733   2.196   1.779  11.721 -0.7266  1.8773  0.5991
 5758SOL    HW228734   2.350   1.764  11.708  1.5653  2.0469  0.9105
 5759SOL     OW28735   4.302   2.291   5.028 -0.0228  0.1966  0.3535
 5759SOL    HW128736   4.357   2.295   4.950  1.0597  3.3371  1.2595
 5759SOL    HW228737   4.360   2.342   5.084  1.2022  1.0359 -1.6669
 5760SOL     OW28738   2.240   0.270   0.897 -0.5602 -0.0707 -0.0275
 5760SOL    HW128739   2.313   0.227   0.942 -0.5186 -0.0004 -0.0271
 5760SOL    HW228740   2.200   0.197   0.850 -0.2585 -0.4227  0.2632
 5761SOL     OW28741   3.834   2.843  16.569  0.2967 -0.0042  0.5394
 5761SOL    HW128742   3.895   2.915  16.552 -0.2142  0.5695  1.1280
 5761SOL    HW228743   3.892   2.771  16.544 -1.2938 -1.2012  0.3004
 5762SOL     OW28744   2.081   4.048   6.445  0.0970 -0.0104 -0.3426
 5762SOL    HW128745   2.140   3.973   6.438  1.0577  0.5749  1.5989
 5762SOL    HW228746   2.121   4.095   6.518 -0.0754  0.6073 -0.6410
 5763SOL     OW28747   1.953   1.945  14.287  0.7721 -0.6260 -0.1126
 5763SOL    HW128748   1.910   1.991  14.358  1.1126  0.9737 -0.9364
 5763SOL    HW228749   2.033   1.902  14.319  1.0880  0.7809  0.9791
 5764SOL     OW28750   4.000   4.132  13.084 -0.3807  0.6459  0.5259
 5764SOL    HW128751   3.941   4.109  13.012 -0.8106 -1.1041  1.4275
 5764SOL    HW228752   4.084   4.141  13.039 -0.3029  1.1533  0.7775
 5765SOL     OW28753   0.420   1.891   9.243  0.0408 -0.0896 -0.7227
 5765SOL    HW128754   0.457   1.802   9.238  0.5633  0.0392  0.6977
 5765SOL    HW228755   0.454   1.928   9.162 -1.5234  0.0886 -1.2942
 5766SOL     OW28756   3.514   3.853   7.350 -0.2511 -0.4039  0.5155
 5766SOL    HW128757   3.564   3.862   7.431 -1.2179  0.4863  1.0136
 5766SOL    HW228758   3.421   3.867   7.371  0.4982  0.3468  3.1937
 5767SOL     OW28759   1.346   1.070   2.992  0.5919  0.2616  0.2442
 5767SOL    HW128760   1.415   1.023   2.944 -1.0159 -0.7715 -1.0386
 5767SOL    HW228761   1.298   1.111   2.921 -0.7669 -2.9924 -0.7235
 5768SOL     OW28762   2.172   4.219  14.018  0.1868 -0.0640  0.4378
 5768SOL    HW128763   2.098   4.160  14.005  1.3985 -1.8503  1.6508
 5768SOL    HW228764   2.126   4.299  14.041  2.2077  1.1935  0.0607
 5769SOL     OW28765   0.235   1.844  16.942 -0.1931  0.3845  0.4082
 5769SOL    HW128766   0.308   1.808  16.992  0.4453 -1.7620 -2.0340
 5769SOL    HW228767   0.230   1.934  16.974 -1.0943  0.6457 -0.4543
 5770SOL     OW28768   1.538   1.286   7.748 -0.4329 -0.5233  0.6778
 5770SOL    HW128769   1.613   1.315   7.800  1.2642 -0.1475 -1.9941
 5770SOL    HW228770   1.541   1.190   7.750  1.4634 -0.4908 -0.5337
 5771SOL     OW28771   2.156   2.208  16.598  0.2404  0.1887  0.3443
 5771SOL    HW128772   2.143   2.201  16.693 -0.4332  0.1602  0.2530
 5771SOL    HW228773   2.192   2.296  16.591 -2.8112  1.2102 -2.4312
 5772SOL     OW28774   3.038   0.095  11.375 -0.4601 -0.1261 -0.3698
 5772SOL    HW128775   3.081   0.149  11.442  0.4210 -0.5315 -0.6070
 5772SOL    HW228776   3.026   0.013  11.424 -0.6403 -0.3298 -0.7577
 5773SOL     OW28777   1.894   3.101   2.090  0.2937  0.5966  0.4071
 5773SOL    HW128778   1.914   3.018   2.046  0.6069  1.2805 -0.7376
 5773SOL    HW228779   1.976   3.150   2.080 -0.0074  1.1489  0.6924
 5774SOL     OW28780   3.446   2.936   5.663 -0.5543 -0.0607  0.2676
 5774SOL    HW128781   3.461   2.846   5.637  1.2100  0.7168 -1.4176
 5774SOL    HW228782   3.368   2.936   5.718 -2.4108  0.2042 -2.3844
 5775SOL     OW28783   3.066   4.028   0.309  0.2138  0.4741 -0.2849
 5775SOL    HW128784   3.030   4.046   0.396 -0.7443 -0.0277 -0.5774
 5775SOL    HW228785   3.104   3.941   0.321 -2.4536 -0.5749  0.6598
 5776SOL     OW28786   1.901   2.544  16.312 -0.5735  0.0020  0.1660
 5776SOL    HW128787   1.899   2.588  16.228  0.9084  2.2085  1.2986
 5776SOL    HW228788   1.996   2.548  16.323 -0.7255  0.9516  1.1391
 5777SOL     OW28789   0.289   1.539  13.075 -0.0306  0.4070  0.0622
 5777SOL    HW128790   0.229   1.471  13.105  1.2268 -0.8242 -0.2026
 5777SOL    HW228791   0.288   1.607  13.143  1.8590  0.5396 -0.0473
 5778SOL     OW28792   0.271   3.070  16.931 -0.5259 -0.1254 -0.3038
 5778SOL    HW128793   0.279   3.078  16.836 -0.3410  0.9083 -0.2001
 5778SOL    HW228794   0.256   3.162  16.955  1.2541  0.2248 -0.5876
 5779SOL     OW28795   3.867   3.566   5.133  0.4181 -0.3690  0.5205
 5779SOL    HW128796   3.781   3.571   5.092  1.1690 -1.5530 -1.1844
 5779SOL    HW228797   3.842   3.503   5.201  0.6146 -0.3244  0.6338
 5780SOL     OW28798   0.946   1.857  13.295 -0.2835 -0.4713 -0.0232
 5780SOL    HW128799   0.910   1.772  13.321  1.0420 -1.4775 -1.4547
 5780SOL    HW228800   0.959   1.826  13.205  0.8386  0.9830 -0.3416
 5781SOL     OW28801   3.760   0.533   4.686 -0.2789  0.5225  0.0612
 5781SOL    HW128802   3.703   0.457   4.701 -1.2523  0.7988 -2.3971
 5781SOL    HW228803   3.773   0.522   4.592  2.3397 -2.0138  0.6939
 5782SOL     OW28804   2.419   2.234   8.121 -0.2145 -0.0689  0.1127
 5782SOL    HW128805   2.350   2.271   8.066 -0.6490 -1.9392 -0.6141
 5782SOL    HW228806   2.489   2.283   8.078  0.1572 -0.3995  0.3385
 5783SOL     OW28807   1.983   1.146   4.582  0.3157 -0.1697  0.2238
 5783SOL    HW128808   2.043   1.189   4.642 -1.0497  1.0298  0.7435
 5783SOL    HW228809   1.909   1.207   4.586  0.2195 -0.2094 -0.7509
 5784SOL     OW28810   2.580   2.989  17.423  0.7697  0.0104  0.4368
 5784SOL    HW128811   2.610   3.053  17.488 -0.0435  0.0807  0.7329
 5784SOL    HW228812   2.571   2.910  17.476 -0.0305 -1.1948 -1.4686
 5785SOL     OW28813   3.245   3.315   5.390  0.0162  0.0537 -0.5942
 5785SOL    HW128814   3.273   3.248   5.326 -0.8140  0.7130 -1.6476
 5785SOL    HW228815   3.294   3.284   5.466 -0.3743  1.4397  0.2088
 5786SOL     OW28816   1.050   0.358   5.247 -0.1982 -0.4252 -0.4123
 5786SOL    HW128817   1.014   0.442   5.273  1.1117 -0.1392  0.4407
 5786SOL    HW228818   0.977   0.300   5.270  0.8155 -1.1781  0.8880
 5787SOL     OW28819   1.376   4.375   4.954 -0.2090  0.2015  0.2134
 5787SOL    HW128820   1.381   4.360   4.860  2.2932 -0.5058  0.4634
 5787SOL    HW228821   1.389   4.290   4.994  1.2964 -0.5680 -1.9089
 5788SOL     OW28822   0.735   0.404   5.354 -0.0075 -0.3890  0.0826
 5788SOL    HW128823   0.783   0.487   5.352 -2.4772  1.0294  0.1800
 5788SOL    HW228824   0.793   0.355   5.413  1.2060  2.4148  1.2288
 5789SOL     OW28825   0.662   0.086   2.381  0.0232  0.3300  0.3170
 5789SOL    HW128826   0.757   0.083   2.382  0.0281  0.6096  0.6463
 5789SOL    HW228827   0.639   0.035   2.459  0.2731 -1.1605 -0.5831
 5790SOL     OW28828   0.886   2.687   5.567  1.3902 -0.3690  0.3790
 5790SOL    HW128829   0.879   2.679   5.472  2.6608  1.3686  0.1572
 5790SOL    HW228830   0.925   2.603   5.591 -0.2977 -1.4603 -0.7069
 5791SOL     OW28831   1.305   1.910   6.554 -0.0354 -0.5726  0.2673
 5791SOL    HW128832   1.394   1.911   6.590 -0.8252 -2.5332  2.2801
 5791SOL    HW228833   1.264   1.949   6.632 -0.4985  1.3617 -0.9485
 5792SOL     OW28834   4.367   3.039  14.439 -0.2920 -0.4969 -0.2366
 5792SOL    HW128835   4.332   3.050  14.351  3.1814  1.0567 -1.4556
 5792SOL    HW228836   4.317   2.966  14.474  0.0482 -0.8475 -0.4847
 5793SOL     OW28837   3.718   0.019   7.293  0.1623 -0.5506  0.6709
 5793SOL    HW128838   3.688   0.107   7.272  0.3757 -0.7977 -0.6825
 5793SOL    HW228839   3.644   4.713   7.349  2.3440 -1.6119  3.0767
 5794SOL     OW28840   2.483   0.029   6.138 -0.0455 -0.1925  0.2643
 5794SOL    HW128841   2.555   4.699   6.176 -0.2897  1.0500  2.3738
 5794SOL    HW228842   2.493   0.110   6.189  1.9361 -0.5226  0.4136
 5795SOL     OW28843   4.419   3.080  13.128 -0.6941  0.1819  0.0792
 5795SOL    HW128844   4.452   3.141  13.195 -2.0408  0.5613  0.3904
 5795SOL    HW228845   4.331   3.116  13.117 -1.6583 -2.4582 -0.7884
 5796SOL     OW28846   0.834   3.104   6.599 -0.2374  0.3055  0.2073
 5796SOL    HW128847   0.862   3.037   6.536  3.5733 -0.4337  2.7107
 5796SOL    HW228848   0.897   3.174   6.588  0.4750 -0.1782  1.1710
 5797SOL     OW28849   0.502   3.934   8.162  0.3995  0.3694  0.3727
 5797SOL    HW128850   0.589   3.973   8.161  1.9193 -2.9918  0.9654
 5797SOL    HW228851   0.438   3.997   8.130  1.7959  2.3813  1.5683
 5798SOL     OW28852   0.728   2.429  14.987  0.2031  0.6299 -0.3148
 5798SOL    HW128853   0.793   2.409  15.054  0.5168 -1.2954 -1.2059
 5798SOL    HW228854   0.752   2.520  14.973  0.3875  0.3795 -1.6199
 5799SOL     OW28855   2.163   2.761  11.946 -0.3374 -0.5072  0.1932
 5799SOL    HW128856   2.174   2.808  12.029 -1.4988  3.0121 -1.6523
 5799SOL    HW228857   2.182   2.828  11.881  0.6808 -2.2938 -1.3667
 5800SOL     OW28858   3.664   0.359  14.930  0.6804 -0.0742  0.5767
 5800SOL    HW128859   3.756   0.371  14.905 -0.3575  3.4017 -1.6719
 5800SOL    HW228860   3.663   0.383  15.023  1.7565 -0.2147  0.6235
 5801SOL     OW28861   4.431   2.965   8.605  0.1446 -0.0643  0.3081
 5801SOL    HW128862   4.442   3.030   8.675  1.7306 -0.4028  0.3705
 5801SOL    HW228863   4.461   3.017   8.531 -2.8393  0.8789 -0.2575
 5802SOL     OW28864   1.125   4.036   8.587  0.2398  0.4078  0.5928
 5802SOL    HW128865   1.114   4.006   8.677 -1.6048 -0.2892  0.1467
 5802SOL    HW228866   1.067   4.112   8.581  2.6658  2.1025 -1.1290
 5803SOL     OW28867   1.119   0.205   6.510 -1.1555 -0.1594  0.1499
 5803SOL    HW128868   1.045   0.245   6.556 -1.1297  1.7834 -1.4605
 5803SOL    HW228869   1.199   0.239   6.550 -0.6466 -0.3854 -0.6777
 5804SOL     OW28870   0.682   0.761   7.550  0.2103 -0.6526 -0.4362
 5804SOL    HW128871   0.753   0.814   7.515 -1.7442  2.0259 -0.3549
 5804SOL    HW228872   0.728   0.720   7.623  0.0470 -1.6799 -0.9160
 5805SOL     OW28873   3.200   2.973  12.890  0.1965 -0.0378  0.3342
 5805SOL    HW128874   3.254   2.981  12.812 -1.9368  1.9058 -0.9293
 5805SOL    HW228875   3.272   2.994  12.950 -0.6524 -0.4780  1.5081
 5806SOL     OW28876   3.116   4.625  14.852 -0.9859 -0.0655  0.3024
 5806SOL    HW128877   3.173   4.556  14.817 -1.8602 -0.3864 -0.4882
 5806SOL    HW228878   3.056   4.621  14.778 -0.7758  1.2318  0.0623
 5807SOL     OW28879   0.072   1.195  14.902  0.4280 -0.4104 -0.6725
 5807SOL    HW128880   0.069   1.201  14.807 -2.0413 -2.5735 -0.7235
 5807SOL    HW228881   4.719   1.135  14.917 -0.2417  1.5602  3.9514
 5808SOL     OW28882   4.451   2.006   8.269  0.0879 -0.1084 -0.1172
 5808SOL    HW128883   4.362   1.971   8.281  0.1795 -0.6028 -0.8572
 5808SOL    HW228884   4.484   1.951   8.198 -1.5181 -1.5044  0.2142
 5809SOL     OW28885   2.219   1.946  11.438 -0.4774 -0.3162  0.5640
 5809SOL    HW128886   2.244   1.874  11.379  0.6597 -1.5106  2.4961
 5809SOL    HW228887   2.231   1.907  11.525 -1.2755 -1.7357  0.0532
 5810SOL     OW28888   0.578   3.467   2.555  0.4195  0.3674  0.4879
 5810SOL    HW128889   0.601   3.505   2.470 -1.4719 -1.6440 -0.9337
 5810SOL    HW228890   0.539   3.382   2.534  2.1743 -0.3317  0.0892
 5811SOL     OW28891   0.441   2.850   8.649 -0.2563  0.1943 -0.3656
 5811SOL    HW128892   0.348   2.867   8.664 -0.9162 -2.7890 -1.1552
 5811SOL    HW228893   0.472   2.802   8.726  0.5223  1.7871  0.3102
 5812SOL     OW28894   4.299   2.096   2.398  0.1557 -0.1320 -0.6100
 5812SOL    HW128895   4.221   2.061   2.354 -0.2379 -2.7483  2.2118
 5812SOL    HW228896   4.301   2.026   2.463 -0.3637  2.3312  2.0277
 5813SOL     OW28897   4.509   0.491   5.918  0.0162  0.5373 -0.0422
 5813SOL    HW128898   4.596   0.470   5.951 -0.4978 -2.2810 -0.4829
 5813SOL    HW228899   4.464   0.419   5.963  0.4330  1.4557  1.8391
 5814SOL     OW28900   3.512   2.675   3.812  0.2922 -0.2278 -0.0947
 5814SOL    HW128901   3.552   2.751   3.769  1.2734 -0.1234  1.0122
 5814SOL    HW228902   3.440   2.717   3.860  0.7892 -0.1240  0.5502
 5815SOL     OW28903   0.912   1.606   6.122  0.3795 -0.1036  0.0374
 5815SOL    HW128904   0.922   1.523   6.170 -0.1011 -2.2558 -3.5675
 5815SOL    HW228905   0.991   1.650   6.156 -0.4489  0.6909  0.9286
 5816SOL     OW28906   4.110   0.498  13.078  0.5521  0.1199 -0.0031
 5816SOL    HW128907   4.121   0.546  12.996 -0.7734  0.6471  0.1231
 5816SOL    HW228908   4.044   0.432  13.057 -0.1951  0.8242  0.1194
 5817SOL     OW28909   3.907   3.037   8.972 -0.2282 -0.4281 -0.5902
 5817SOL    HW128910   3.850   3.010   9.044  1.1878 -0.1866  0.6221
 5817SOL    HW228911   3.992   3.015   9.011 -0.4106 -0.3927 -0.1746
 5818SOL     OW28912   1.469   3.959   4.635  0.3453 -0.6798  0.0561
 5818SOL    HW128913   1.509   3.965   4.548 -1.8028  1.2569 -0.8148
 5818SOL    HW228914   1.438   3.869   4.644 -1.3232  0.1401  2.4080
 5819SOL     OW28915   2.491   2.784   7.328 -0.3063  0.0499 -0.5189
 5819SOL    HW128916   2.443   2.851   7.377 -0.3580 -1.5456  1.5990
 5819SOL    HW228917   2.463   2.706   7.376 -1.5562  0.4463 -0.5967
 5820SOL     OW28918   0.153   1.711  14.335 -0.0780  0.6172 -0.3229
 5820SOL    HW128919   0.087   1.779  14.325 -0.1617  0.7463  1.0519
 5820SOL    HW228920   0.102   1.637  14.301  0.5281  0.5177 -1.0288
 5821SOL     OW28921   4.245   3.721   6.773 -0.1957 -0.4451  0.6278
 5821SOL    HW128922   4.182   3.707   6.703  0.2528  1.8072 -0.2354
 5821SOL    HW228923   4.204   3.798   6.812 -2.0003  0.2804 -2.7185
 5822SOL     OW28924   4.407   0.172   4.957  0.0835 -0.1405  0.0875
 5822SOL    HW128925   4.461   0.224   4.898 -1.3037  1.2284  0.0143
 5822SOL    HW228926   4.372   0.240   5.014 -0.4961 -0.5647  0.2363
 5823SOL     OW28927   2.361   0.861   2.637 -0.5054  0.2970 -0.2893
 5823SOL    HW128928   2.349   0.941   2.585  0.1396  0.3912 -0.2951
 5823SOL    HW228929   2.414   0.887   2.712 -0.6665  0.9858 -0.4102
 5824SOL     OW28930   4.291   0.569   8.378 -0.6502  0.6338  0.0425
 5824SOL    HW128931   4.354   0.618   8.430 -0.1059 -1.4376  1.3527
 5824SOL    HW228932   4.343   0.516   8.318 -0.3233 -0.2267  1.0766
 5825SOL     OW28933   0.400   2.499  12.998 -0.1936  0.0556 -0.3522
 5825SOL    HW128934   0.495   2.489  13.011 -0.4449 -0.0785  1.4201
 5825SOL    HW228935   0.393   2.586  13.037  0.2082 -0.5192  0.9948
 5826SOL     OW28936   1.082   1.809   3.918 -0.3488 -0.5084  0.1971
 5826SOL    HW128937   1.125   1.860   3.986  0.9535 -2.5497  0.9019
 5826SOL    HW228938   1.037   1.743   3.971  0.0264 -0.7970  0.1537
 5827SOL     OW28939   3.676   2.116   3.342  0.0987 -0.1811  0.0965
 5827SOL    HW128940   3.582   2.128   3.355 -0.5279 -2.1661 -2.6056
 5827SOL    HW228941   3.707   2.183   3.403 -0.8275  0.2600  0.0856
 5828SOL     OW28942   0.153   3.563   6.630  0.2897  0.3724  0.1310
 5828SOL    HW128943   0.174   3.487   6.684  0.1798  0.3489  0.1413
 5828SOL    HW228944   0.109   3.527   6.553  1.0123  0.2274 -0.2056
 5829SOL     OW28945   1.499   2.332   9.486  0.3585  0.2090 -0.2698
 5829SOL    HW128946   1.512   2.273   9.561 -0.9372 -0.5741 -0.6615
 5829SOL    HW228947   1.420   2.296   9.447 -0.6915  0.8029  1.3118
 5830SOL     OW28948   4.132   3.681   7.413 -0.1117  0.3161 -0.0928
 5830SOL    HW128949   4.136   3.765   7.367 -1.3309  0.4994  0.1148
 5830SOL    HW228950   4.191   3.635   7.353  0.1186  0.6828 -0.1460
 5831SOL     OW28951   3.446   2.939   1.663 -0.2105 -0.1109  0.9847
 5831SOL    HW128952   3.459   2.854   1.707 -1.6094  0.0387  1.6857
 5831SOL    HW228953   3.433   2.905   1.574 -2.6003  0.5888  1.0869
 5832SOL     OW28954   3.336   2.458  15.752  0.0843  0.5071 -0.1114
 5832SOL    HW128955   3.247   2.487  15.731 -1.1222 -1.2842  2.5159
 5832SOL    HW228956   3.378   2.544  15.761 -1.0587  1.2152 -1.5457
 5833SOL     OW28957   4.265   0.354   0.427  0.2969  0.1893  0.3085
 5833SOL    HW128958   4.234   0.392   0.509  2.2747  2.4380  0.0116
 5833SOL    HW228959   4.322   0.427   0.404  1.6358 -0.5451  1.2758
 5834SOL     OW28960   0.763   4.606   3.675 -0.2284 -0.0077 -0.5187
 5834SOL    HW128961   0.856   4.592   3.693 -0.7659 -2.4617  0.3528
 5834SOL    HW228962   0.774   4.686   3.623 -0.9519  0.2631 -0.2481
 5835SOL     OW28963   0.468   0.879  16.958  0.0111 -0.2531 -0.3097
 5835SOL    HW128964   0.454   0.906  17.049  1.5151  0.6329 -0.3416
 5835SOL    HW228965   0.494   0.963  16.918 -3.0788  0.0801 -1.5833
 5836SOL     OW28966   2.964   3.699   3.269 -0.1525 -0.5668  0.4292
 5836SOL    HW128967   2.969   3.793   3.251  0.1804 -0.6158  0.2546
 5836SOL    HW228968   2.910   3.705   3.347 -0.8505  1.5013 -0.2219
 5837SOL     OW28969   0.477   1.833   5.775 -0.4631  0.0667 -0.1160
 5837SOL    HW128970   0.515   1.873   5.696  0.6495 -0.3306  0.2212
 5837SOL    HW228971   0.550   1.827   5.836  0.0991 -1.6079 -0.9574
 5838SOL     OW28972   2.625   0.881   0.343  0.5498  0.3192 -0.8360
 5838SOL    HW128973   2.646   0.886   0.249 -1.7589 -1.2936 -1.4547
 5838SOL    HW228974   2.707   0.914   0.379  0.3517  0.3992 -0.4588
 5839SOL     OW28975   1.055   0.405   9.537  0.0437 -0.0543  0.6092
 5839SOL    HW128976   0.975   0.359   9.562  0.1882 -0.5975  0.0531
 5839SOL    HW228977   1.118   0.347   9.581  0.2576 -2.0041 -2.2833
 5840SOL     OW28978   2.937   1.667  15.723  0.1041 -0.5579 -0.2979
 5840SOL    HW128979   3.001   1.703  15.662 -0.1864  1.6248  0.7142
 5840SOL    HW228980   2.947   1.572  15.717  1.0499 -0.2807 -2.9876
 5841SOL     OW28981   4.382   4.151   2.874  0.3485  0.3814  0.2832
 5841SOL    HW128982   4.292   4.139   2.846  0.1228  3.6499 -0.3999
 5841SOL    HW228983   4.431   4.151   2.791 -0.3583 -0.5102 -0.1276
 5842SOL     OW28984   4.240   3.978   4.838 -0.1769  0.9823  0.4258
 5842SOL    HW128985   4.215   3.889   4.862 -0.3831  0.4179 -1.9109
 5842SOL    HW228986   4.165   4.029   4.872 -1.9141 -0.6210 -1.0268
 5843SOL     OW28987   0.434   2.961  10.415  0.2008 -0.0316  0.0526
 5843SOL    HW128988   0.488   2.899  10.367  0.9520 -0.4481  1.4217
 5843SOL    HW228989   0.497   2.999  10.477 -1.3054  2.4688  0.0561
 5844SOL     OW28990   0.579   3.238   3.287 -0.1212  0.2165  0.0014
 5844SOL    HW128991   0.525   3.313   3.311  0.8558  1.8325 -2.8827
 5844SOL    HW228992   0.589   3.249   3.193  1.0796  0.3275  0.1347
 5845SOL     OW28993   4.029   2.801  12.854 -0.0409  0.0226 -0.1491
 5845SOL    HW128994   3.964   2.869  12.872 -2.2093 -2.1667  0.2872
 5845SOL    HW228995   4.111   2.847  12.873  0.0481 -0.7664  1.3927
 5846SOL     OW28996   0.190   0.363   1.118 -0.4057  0.2480 -0.0577
 5846SOL    HW128997   0.097   0.358   1.097  0.0870 -1.8306 -1.7316
 5846SOL    HW228998   0.184   0.352   1.213  2.2375  0.8439  0.1906
 5847SOL     OW28999   4.231   3.959   6.625 -0.4431 -0.0336  0.5686
 5847SOL    HW129000   4.166   3.931   6.560  1.1902  0.2208 -1.1594
 5847SOL    HW229001   4.200   4.047   6.643  0.7663  0.2531  1.2703
 5848SOL     OW29002   0.336   0.204  10.741 -0.0458  0.2376 -0.1974
 5848SOL    HW129003   0.368   0.125  10.698  1.4169  0.4825  0.4553
 5848SOL    HW229004   0.416   0.244  10.775 -1.3120  2.6892 -0.1542
 5849SOL     OW29005   4.503   2.618   7.032 -0.0972  0.1170  0.1334
 5849SOL    HW129006   4.436   2.576   7.086 -2.7974  1.4412 -2.1864
 5849SOL    HW229007   4.491   2.586   6.943 -0.8545 -1.2788  0.7397
 5850SOL     OW29008   1.770   1.176   8.696  0.5341  0.5931 -0.2738
 5850SOL    HW129009   1.828   1.107   8.729 -2.0771 -1.5749 -0.2299
 5850SOL    HW229010   1.688   1.153   8.739  0.6564  0.9964  0.1773
 5851SOL     OW29011   2.234   0.839   3.347 -0.7510  0.1501  0.1390
 5851SOL    HW129012   2.248   0.932   3.364  1.2982 -0.1570  0.0492
 5851SOL    HW229013   2.321   0.811   3.319 -0.7921  1.0392 -0.8711
 5852SOL     OW29014   2.005   1.542   9.011  0.3683 -0.5899  0.0173
 5852SOL    HW129015   2.024   1.583   8.926  0.5878 -1.3760 -0.3114
 5852SOL    HW229016   1.991   1.454   8.977  1.8823 -0.4323 -1.0126
 5853SOL     OW29017   2.734   0.914  17.320  0.4018 -0.7688 -0.0601
 5853SOL    HW129018   2.825   0.900  17.349  0.7713 -0.2644 -0.9641
 5853SOL    HW229019   2.722   0.834  17.270 -1.7637 -0.6871  0.3610
 5854SOL     OW29020   0.459   2.191   1.264 -0.0226 -0.5338  0.1279
 5854SOL    HW129021   0.479   2.222   1.352 -0.5344  3.1622 -1.0564
 5854SOL    HW229022   0.389   2.253   1.246  0.1726 -0.5536 -0.7275
 5855SOL     OW29023   0.362   2.302   3.825 -0.4854 -0.8572 -0.1288
 5855SOL    HW129024   0.335   2.309   3.733 -2.1720  1.4247  0.5408
 5855SOL    HW229025   0.286   2.342   3.868 -0.2121  1.5157 -1.7982
 5856SOL     OW29026   2.974   0.473   7.532 -0.8083  0.2392  0.2518
 5856SOL    HW129027   3.016   0.556   7.511 -2.0867  0.9970  0.6589
 5856SOL    HW229028   3.045   0.409   7.529 -1.6899 -0.7656  0.7062
 5857SOL     OW29029   4.170   4.014   2.443  0.0694  0.3131  0.2918
 5857SOL    HW129030   4.160   3.932   2.394 -0.5949  0.8684 -0.4962
 5857SOL    HW229031   4.223   4.063   2.380  0.1421  1.8229  1.5475
 5858SOL     OW29032   3.107   0.018  16.883 -0.4890 -0.4005 -0.1152
 5858SOL    HW129033   3.037   4.697  16.934 -1.3899 -1.8489 -2.5129
 5858SOL    HW229034   3.102   0.113  16.895  0.6930 -0.6477  2.3920
 5859SOL     OW29035   4.203   1.492  16.712 -0.1171 -0.3240 -0.5459
 5859SOL    HW129036   4.231   1.463  16.625 -0.1226 -2.4102  0.1496
 5859SOL    HW229037   4.270   1.447  16.764  1.9771  1.0623 -2.0571
 5860SOL     OW29038   4.092   4.668  11.905 -0.0210 -0.2232 -0.5505
 5860SOL    HW129039   4.158   4.599  11.906  0.8926  0.6592 -0.1809
 5860SOL    HW229040   4.088   4.674  12.001 -4.6853  1.4971 -0.8263
 5861SOL     OW29041   3.880   2.466  11.403 -0.4769  0.0587 -0.0254
 5861SOL    HW129042   3.890   2.398  11.469  0.7536  0.1815 -0.0686
 5861SOL    HW229043   3.973   2.480  11.384 -0.7607 -0.1464 -1.5783
 5862SOL     OW29044   4.354   3.919   5.794 -0.5982 -0.1814  0.1612
 5862SOL    HW129045   4.342   3.927   5.888 -2.7835 -0.6247 -0.0808
 5862SOL    HW229046   4.318   3.998   5.754 -0.1059 -0.6610 -1.2294
 5863SOL     OW29047   1.133   3.014   4.464  0.1225  0.1100 -0.3020
 5863SOL    HW129048   1.213   2.961   4.454 -0.6093 -0.7271 -1.6780
 5863SOL    HW229049   1.063   2.953   4.441  1.3471 -1.5180  0.3205
 5864SOL     OW29050   3.329   3.498  10.607  0.3272 -0.0262  0.4978
 5864SOL    HW129051   3.394   3.559  10.644 -0.3506 -0.1741  1.9468
 5864SOL    HW229052   3.255   3.527  10.661 -0.5408  2.8658 -2.2313
 5865SOL     OW29053   2.863   3.909   7.930  0.1654 -0.0487 -0.5710
 5865SOL    HW129054   2.890   3.822   7.961  3.2479  0.7430 -0.9709
 5865SOL    HW229055   2.837   3.946   8.014  0.4545  1.4800 -1.1405
 5866SOL     OW29056   1.634   2.049   7.047  0.1359 -0.0375 -0.1718
 5866SOL    HW129057   1.543   2.040   7.077  0.1355  1.6875  0.3577
 5866SOL    HW229058   1.643   1.999   6.966  0.6078 -0.6662  0.2715
 5867SOL     OW29059   2.307   1.322  17.440  0.8709  0.3731  0.4503
 5867SOL    HW129060   2.277   1.248  17.388  2.2181 -0.3115  0.6632
 5867SOL    HW229061   2.301   1.389  17.372  1.5655 -0.0887 -0.0649
 5868SOL     OW29062   3.466   0.675   8.443  0.6419  0.4853 -0.4729
 5868SOL    HW129063   3.531   0.622   8.490 -0.2779 -0.6494 -0.4759
 5868SOL    HW229064   3.458   0.641   8.355  0.0136  0.6907 -0.4929
 5869SOL     OW29065   0.416   4.096  11.561  0.0950  0.3573  0.3991
 5869SOL    HW129066   0.388   4.117  11.650  0.4798 -0.7239  0.7716
 5869SOL    HW229067   0.376   4.173  11.520  0.8649 -0.6907 -2.2698
 5870SOL     OW29068   1.804   0.595   8.661  0.1981  0.0626 -1.1467
 5870SOL    HW129069   1.886   0.551   8.679  0.4628 -0.0331 -2.5877
 5870SOL    HW229070   1.840   0.674   8.621 -2.3527  0.6658 -2.2661
 5871SOL     OW29071   2.322   3.524   6.455  0.0064 -0.5311  0.3941
 5871SOL    HW129072   2.369   3.583   6.396 -1.0837 -0.7271 -0.6501
 5871SOL    HW229073   2.235   3.542   6.420  0.7782  0.8169 -0.8163
 5872SOL     OW29074   2.263   2.068  11.066 -0.1664 -0.5287 -0.3237
 5872SOL    HW129075   2.197   2.116  11.016  2.0599  2.0928 -0.7257
 5872SOL    HW229076   2.243   2.118  11.145  0.9323 -0.0132 -0.3653
 5873SOL     OW29077   4.321   0.943  13.421  0.0791 -0.0796  0.3144
 5873SOL    HW129078   4.241   0.931  13.473 -0.1258 -2.8025 -0.6558
 5873SOL    HW229079   4.284   0.953  13.334 -2.1542 -0.1648  1.2442
 5874SOL     OW29080   3.075   4.490   6.449  0.9716 -0.1926 -0.5213
 5874SOL    HW129081   2.995   4.538   6.427  0.1458 -0.4710  1.8968
 5874SOL    HW229082   3.147   4.538   6.408 -0.4777  2.2600 -0.1955
 5875SOL     OW29083   0.688   2.371   2.805 -0.0055  0.0500  0.0925
 5875SOL    HW129084   0.760   2.434   2.809 -2.4486  2.9405 -1.5397
 5875SOL    HW229085   0.722   2.294   2.852 -0.0838 -1.4458 -2.2684
 5876SOL     OW29086   2.717   3.022   4.827  0.0317  0.4816  0.0017
 5876SOL    HW129087   2.735   3.058   4.740 -1.1990  0.4155 -0.2785
 5876SOL    HW229088   2.622   3.024   4.820  0.3596  3.5813 -3.6918
 5877SOL     OW29089   1.516   2.931   8.836 -0.0334 -0.0181 -0.3244
 5877SOL    HW129090   1.493   2.998   8.900 -0.3770  1.3958 -1.9378
 5877SOL    HW229091   1.513   2.860   8.900 -1.5248 -0.6166 -1.0703
 5878SOL     OW29092   4.678   1.898   3.447 -0.1685 -0.1044 -0.0473
 5878SOL    HW129093   4.606   1.934   3.396 -1.0871 -1.5234  0.2145
 5878SOL    HW229094   0.017   1.970   3.468 -0.1834  0.6870 -2.7464
 5879SOL     OW29095   1.730   4.501   0.327 -0.4409 -0.0201  0.6024
 5879SOL    HW129096   1.790   4.447   0.379  0.0903 -0.1798 -0.1881
 5879SOL    HW229097   1.764   4.590   0.324  2.7938 -1.2369  0.7643
 5880SOL     OW29098   3.798   2.945   4.214 -0.4094  0.4344 -0.0771
 5880SOL    HW129099   3.766   2.862   4.178 -0.9485  0.7436 -0.3085
 5880SOL    HW229100   3.730   3.012   4.223 -0.7750 -0.3156  2.5908
 5881SOL     OW29101   4.343   4.248   2.388  0.0166  0.0494 -0.5587
 5881SOL    HW129102   4.291   4.327   2.396  1.2355  1.0504 -2.4940
 5881SOL    HW229103   4.417   4.270   2.331  0.2171  1.2059  0.1445
 5882SOL     OW29104   1.783   1.335  12.615 -0.4882  0.0293 -0.1583
 5882SOL    HW129105   1.837   1.286  12.552 -0.2240 -1.3914  1.1595
 5882SOL    HW229106   1.854   1.342  12.679  0.1560 -0.2305 -0.8383
 5883SOL     OW29107   4.447   3.207   1.849  0.4825 -0.2096 -0.2890
 5883SOL    HW129108   4.530   3.250   1.827 -1.0367  2.7856 -0.1035
 5883SOL    HW229109   4.395   3.202   1.769 -1.7033  1.4775  1.0593
 5884SOL     OW29110   0.302   1.796   5.198 -0.0084  0.7633  0.5553
 5884SOL    HW129111   0.225   1.785   5.142  1.1821  0.9850 -1.1295
 5884SOL    HW229112   0.352   1.730   5.150  0.4143  0.7841  0.9682
 5885SOL     OW29113   0.128   3.833   6.331 -0.8739 -0.1814  0.1247
 5885SOL    HW129114   0.187   3.836   6.255 -0.3954  3.4749  0.6430
 5885SOL    HW229115   0.185   3.810   6.404  1.2221  0.3809 -1.3201
 5886SOL     OW29116   0.788   0.814   7.297 -0.0392 -0.1257 -0.4074
 5886SOL    HW129117   0.709   0.865   7.315  0.4080  0.5152 -0.2836
 5886SOL    HW229118   0.757   0.723   7.293  3.6856 -1.4172 -0.0203
 5887SOL     OW29119   0.623   0.697   5.331 -0.1845  0.2447  0.3059
 5887SOL    HW129120   0.559   0.640   5.288 -0.7009  1.1899 -0.1900
 5887SOL    HW229121   0.636   0.656   5.416 -0.8708  0.4776  0.5237
 5888SOL     OW29122   0.654   2.329   6.906  0.5135 -0.1828 -0.2737
 5888SOL    HW129123   0.650   2.319   6.811 -0.6038 -2.3972  0.0071
 5888SOL    HW229124   0.577   2.384   6.918  0.3018 -0.2574 -1.3279
 5889SOL     OW29125   0.632   1.291   8.499  0.2028  0.3824  0.4076
 5889SOL    HW129126   0.617   1.252   8.585 -0.7837  0.6997  0.3743
 5889SOL    HW229127   0.667   1.377   8.524 -0.9494  0.6360  1.1597
 5890SOL     OW29128   0.065   2.558   3.047 -0.1896  0.1684  0.6086
 5890SOL    HW129129   0.106   2.621   3.107  0.8387  0.9106 -0.8629
 5890SOL    HW229130   4.692   2.572   3.065  0.2077  1.4725  1.6728
 5891SOL     OW29131   2.711   2.662  16.982  0.5030  0.4342  0.2687
 5891SOL    HW129132   2.806   2.648  16.980  0.3794 -0.4944  0.5456
 5891SOL    HW229133   2.697   2.741  17.034  1.7744  1.7010 -1.3020
 5892SOL     OW29134   3.882   3.902   4.991  0.1140 -0.3083  0.0042
 5892SOL    HW129135   3.937   3.865   5.059 -0.2056  0.2895  0.5876
 5892SOL    HW229136   3.800   3.925   5.034 -0.8834 -1.0663 -1.5183
 5893SOL     OW29137   4.532   4.457  11.503  0.0450 -0.1758  0.0754
 5893SOL    HW129138   4.495   4.467  11.415  0.8790  3.2252  0.1067
 5893SOL    HW229139   4.624   4.477  11.485 -0.5587  0.8927 -1.8986
 5894SOL     OW29140   4.583   1.026  13.366  0.3877 -0.2539  0.6180
 5894SOL    HW129141   4.588   1.009  13.271 -0.6701  0.6478  0.4087
 5894SOL    HW229142   4.488   1.022  13.378  0.3019  1.5387  0.4312
 5895SOL     OW29143   3.294   1.352   2.210 -0.1761  0.0445  0.0382
 5895SOL    HW129144   3.218   1.300   2.184 -1.7303  2.1729  0.2912
 5895SOL    HW229145   3.251   1.433   2.237 -1.6127 -0.4063 -0.9204
 5896SOL     OW29146   2.644   4.321   1.689  0.3210  0.1491  1.0820
 5896SOL    HW129147   2.652   4.404   1.642  0.3239  1.3732  3.2345
 5896SOL    HW229148   2.588   4.348   1.762 -0.2907  0.4855  0.4944
 5897SOL     OW29149   2.537   2.283   7.153  0.0759 -0.3723  0.1777
 5897SOL    HW129150   2.614   2.340   7.154  0.6385 -1.1715  1.7110
 5897SOL    HW229151   2.572   2.209   7.105  3.1497  0.7863  0.6515
 5898SOL     OW29152   2.307   2.577  13.090 -0.1018 -0.2462  0.3463
 5898SOL    HW129153   2.222   2.542  13.065 -0.3368  0.3852  0.2641
 5898SOL    HW229154   2.319   2.648  13.026  0.3537 -0.4123  0.2464
 5899SOL     OW29155   0.703   1.641  13.029 -0.0718 -0.3982  0.6994
 5899SOL    HW129156   0.792   1.675  13.024  0.6746 -2.0978  2.2742
 5899SOL    HW229157   0.676   1.651  12.938 -1.2803 -1.5972  0.9136
 5900SOL     OW29158   3.833   4.376  12.605 -0.2363  0.3723 -0.1784
 5900SOL    HW129159   3.875   4.459  12.582 -0.5160  1.0834  1.9307
 5900SOL    HW229160   3.830   4.327  12.523 -1.1246 -1.6091  1.0174
 5901SOL     OW29161   0.587   0.928  13.032  0.8714 -0.5897  0.2107
 5901SOL    HW129162   0.612   0.912  12.941  0.4991 -3.1034  0.5313
 5901SOL    HW229163   0.577   0.837  13.059  0.8183 -0.7828 -0.4535
 5902SOL     OW29164   0.084   3.813   3.314  0.9722 -0.0451  0.2611
 5902SOL    HW129165   0.133   3.788   3.236 -0.1910  0.4148 -0.6115
 5902SOL    HW229166   0.150   3.797   3.382  1.1764  0.0003  0.0726
 5903SOL     OW29167   3.686   3.631  14.310  0.3875  0.0971 -0.1266
 5903SOL    HW129168   3.713   3.571  14.379 -1.9591 -1.7038 -0.8073
 5903SOL    HW229169   3.756   3.697  14.316 -0.3055  0.9249 -1.0705
 5904SOL     OW29170   2.373   0.230   4.099  0.5098 -0.4786  0.0814
 5904SOL    HW129171   2.326   0.238   4.182  3.3760 -0.8358  1.7426
 5904SOL    HW229172   2.429   0.158   4.128 -1.9902 -2.7726 -0.7725
 5905SOL     OW29173   0.894   0.662   0.971  0.0993 -0.1385  0.6920
 5905SOL    HW129174   0.812   0.641   0.926 -0.9224  0.6859  2.1926
 5905SOL    HW229175   0.860   0.690   1.055  3.4542  4.3179  0.5940
 5906SOL     OW29176   0.531   3.766  15.686  0.0879  0.1037 -0.4092
 5906SOL    HW129177   0.490   3.731  15.766 -0.3527  2.0310  0.2118
 5906SOL    HW229178   0.482   3.848  15.689 -0.2384 -0.2060  3.0449
 5907SOL     OW29179   1.756   3.800  11.593  0.5798 -0.2433 -0.2152
 5907SOL    HW129180   1.782   3.890  11.575  0.4347  0.0076  0.8000
 5907SOL    HW229181   1.799   3.780  11.676  0.3502 -0.8688 -0.2468
 5908SOL     OW29182   3.534   1.937  13.276 -0.1646  0.3690  0.0008
 5908SOL    HW129183   3.621   1.974  13.266  0.6054 -1.1522  1.0518
 5908SOL    HW229184   3.487   2.017  13.300  0.2815  0.6071  0.0783
 5909SOL     OW29185   2.300   3.289   2.546  0.4395  0.0012 -0.0628
 5909SOL    HW129186   2.310   3.197   2.519  0.1561  0.2259 -0.9291
 5909SOL    HW229187   2.320   3.265   2.637  2.4142 -0.0852 -0.5060
 5910SOL     OW29188   3.900   1.420   8.626 -0.0555  0.6107 -0.1364
 5910SOL    HW129189   3.932   1.374   8.548 -1.3992  2.8170 -1.9697
 5910SOL    HW229190   3.807   1.409   8.612  0.1621 -0.4812 -0.7154
 5911SOL     OW29191   4.128   4.339  13.481  0.3796  0.0321  0.4272
 5911SOL    HW129192   4.163   4.383  13.559  0.6842 -0.3804  0.5230
 5911SOL    HW229193   4.207   4.303  13.441 -0.2024 -1.1687  0.3471
 5912SOL     OW29194   3.722   2.251   4.911 -0.5078  0.0337 -0.7213
 5912SOL    HW129195   3.643   2.207   4.944  0.8637 -0.8816  1.3936
 5912SOL    HW229196   3.704   2.338   4.948 -1.0461 -0.0797 -0.7137
 5913SOL     OW29197   2.396   1.007  11.258 -0.1618  0.2621  0.4526
 5913SOL    HW129198   2.344   0.963  11.190  0.5290  2.1058 -1.2633
 5913SOL    HW229199   2.439   1.080  11.214 -0.7204 -0.1670 -0.8168
 5914SOL     OW29200   3.634   4.050  11.912 -0.0685  0.6332  0.1575
 5914SOL    HW129201   3.570   3.979  11.923  0.1819  0.3437 -0.2907
 5914SOL    HW229202   3.709   4.005  11.875 -1.9163 -0.0777 -2.6791
 5915SOL     OW29203   0.108   0.955  17.549 -0.4194 -1.0652  0.0488
 5915SOL    HW129204   0.102   0.968  17.643 -1.1861  2.5134 -0.5020
 5915SOL    HW229205   0.150   1.036  17.520  0.1370 -1.6431 -0.7729
 5916SOL     OW29206   2.667   2.101   2.458  0.1243 -0.1907  0.3082
 5916SOL    HW129207   2.606   2.166   2.493  0.3185  0.6019 -0.8198
 5916SOL    HW229208   2.627   2.096   2.371 -0.0757 -0.7065  0.4289
 5917SOL     OW29209   0.019   2.787   8.817  0.4427  0.0122 -0.2372
 5917SOL    HW129210   0.053   2.703   8.848 -0.0414  0.2954  1.0558
 5917SOL    HW229211   0.066   2.787   8.734 -0.0461  2.6897 -0.5140
 5918SOL     OW29212   0.853   1.527   5.553  0.2559  0.2158  0.0958
 5918SOL    HW129213   0.848   1.556   5.644  0.7551  0.5426  0.0218
 5918SOL    HW229214   0.792   1.594   5.524 -1.7945 -0.8484  2.0207
 5919SOL     OW29215   2.805   2.709   5.677 -0.6138  1.0587  0.0803
 5919SOL    HW129216   2.754   2.698   5.757 -1.5905  0.1739 -0.6467
 5919SOL    HW229217   2.801   2.804   5.669  2.3746  1.2061  0.5473
 5920SOL     OW29218   0.902   3.904   6.442 -0.6807 -0.6323  0.0405
 5920SOL    HW129219   0.945   3.972   6.390 -2.3596 -0.4669 -1.1461
 5920SOL    HW229220   0.951   3.898   6.524  1.2927 -1.7606 -1.2207
 5921SOL     OW29221   2.799   0.939   0.607  1.1754  0.5110  0.4680
 5921SOL    HW129222   2.830   0.939   0.698  2.8929 -0.4262 -0.1086
 5921SOL    HW229223   2.706   0.933   0.624  1.2706  0.4261  0.9604
 5922SOL     OW29224   1.193   1.132  15.085  0.2482  0.1311  0.3642
 5922SOL    HW129225   1.164   1.208  15.034  1.3479  1.0227  1.0712
 5922SOL    HW229226   1.279   1.124  15.044  0.9725 -0.4933  2.0346
 5923SOL     OW29227   0.418   4.481  10.056 -0.2061 -0.5164  1.0652
 5923SOL    HW129228   0.447   4.545   9.991 -0.7726 -2.4893 -1.1481
 5923SOL    HW229229   0.389   4.536  10.129 -0.1622 -2.3941  2.4921
 5924SOL     OW29230   2.697   3.087   4.561 -0.6367 -0.4525 -0.6467
 5924SOL    HW129231   2.672   3.135   4.482 -1.1624  0.9151  0.3403
 5924SOL    HW229232   2.717   3.003   4.521 -0.1590 -2.2027  3.2794
 5925SOL     OW29233   1.024   0.487   7.361  0.8147  0.1128  0.4196
 5925SOL    HW129234   1.094   0.432   7.324  1.8831 -0.1505  2.8197
 5925SOL    HW229235   1.004   0.423   7.429  1.4466  0.1919  0.6817
 5926SOL     OW29236   2.749   1.317  17.415  0.0041  0.5006 -0.0806
 5926SOL    HW129237   2.683   1.367  17.368 -0.5769  0.3884  0.6155
 5926SOL    HW229238   2.702   1.243  17.452  1.8724 -0.8991 -0.4879
 5927SOL     OW29239   0.659   1.453  15.199 -0.2673 -0.4242  0.0529
 5927SOL    HW129240   0.627   1.534  15.159  1.4891  0.2032 -0.0989
 5927SOL    HW229241   0.582   1.402  15.224  0.1307 -1.4747 -0.8902
 5928SOL     OW29242   3.595   1.898  10.158 -0.3178 -0.6459 -0.3169
 5928SOL    HW129243   3.510   1.942  10.168 -0.3649 -1.0614  1.1538
 5928SOL    HW229244   3.613   1.899  10.065  2.5676 -0.3190  0.2579
 5929SOL     OW29245   3.297   0.011   9.210  0.1583  0.3202 -0.3876
 5929SOL    HW129246   3.268   4.666   9.274  3.3959  0.2371  0.9942
 5929SOL    HW229247   3.215   0.041   9.171 -0.7566  1.5302  2.4789
 5930SOL     OW29248   2.060   1.424   3.887 -0.1084 -0.3206 -0.4645
 5930SOL    HW129249   2.132   1.461   3.836  0.8506 -2.9737 -1.0367
 5930SOL    HW229250   1.994   1.420   3.818 -1.5390  2.2724  0.7610
 5931SOL     OW29251   1.196   3.427   7.886 -1.0178  0.3345  0.1527
 5931SOL    HW129252   1.104   3.406   7.905 -0.8785 -1.2116 -0.8437
 5931SOL    HW229253   1.197   3.510   7.840 -1.7079 -0.0975 -0.6363
 5932SOL     OW29254   0.904   0.206  16.817  0.0781  0.0387 -0.2517
 5932SOL    HW129255   0.902   0.127  16.872  0.3931 -0.4377 -0.9271
 5932SOL    HW229256   0.893   0.277  16.881  0.9826  1.8857 -2.1623
 5933SOL     OW29257   3.827   2.542   1.098  0.0646  0.3340  0.1541
 5933SOL    HW129258   3.753   2.559   1.040  1.9395 -0.8153 -2.5481
 5933SOL    HW229259   3.868   2.628   1.087 -0.2767  0.5755  0.7348
 5934SOL     OW29260   1.357   1.592   7.061 -0.1951 -0.3642 -0.5339
 5934SOL    HW129261   1.407   1.649   7.119 -0.2641 -0.4296 -0.4123
 5934SOL    HW229262   1.354   1.640   6.978  1.6628 -0.1742 -0.4908
 5935SOL     OW29263   0.744   3.517   7.911  0.1666 -0.6136 -0.3716
 5935SOL    HW129264   0.696   3.600   7.924  0.6325 -0.4584  0.3365
 5935SOL    HW229265   0.678   3.452   7.887  1.0395 -1.3287 -0.8170
 5936SOL     OW29266   1.869   1.427   0.693 -0.8356  0.8495 -0.0104
 5936SOL    HW129267   1.850   1.461   0.606  1.6846  1.5962 -0.2864
 5936SOL    HW229268   1.924   1.500   0.723  1.1870 -1.2050  1.3352
 5937SOL     OW29269   0.004   1.272  11.809  0.4543  0.4157 -0.3037
 5937SOL    HW129270   4.688   1.212  11.744  1.9060  1.1050 -1.7418
 5937SOL    HW229271   0.074   1.304  11.753 -0.7762  1.8978 -0.9917
 5938SOL     OW29272   0.930   0.266   5.502  0.3700  0.2846  0.2820
 5938SOL    HW129273   0.953   0.173   5.513  0.2353 -0.1283 -2.8904
 5938SOL    HW229274   1.010   0.307   5.535  1.1910 -1.2564  0.2333
 5939SOL     OW29275   0.364   4.645   6.278  0.7868 -0.6204  0.4148
 5939SOL    HW129276   0.281   4.608   6.308  0.1390 -0.0917 -0.7234
 5939SOL    HW229277   0.386   0.000   6.332  1.7411 -0.7846  0.2573
 5940SOL     OW29278   0.997   0.069  12.611 -0.0022  0.5821 -0.2693
 5940SOL    HW129279   1.060   4.718  12.601 -0.1120  0.6380 -1.4577
 5940SOL    HW229280   0.955   0.052  12.695  0.7162 -0.7303 -0.1629
 5941SOL     OW29281   3.641   3.174   8.242 -0.2111 -0.2971  0.0419
 5941SOL    HW129282   3.661   3.189   8.150 -0.7391 -3.9578 -0.6808
 5941SOL    HW229283   3.731   3.170   8.275 -0.5246 -1.7851  0.7396
 5942SOL     OW29284   1.648   3.084   5.333 -0.1217  0.8485 -0.4241
 5942SOL    HW129285   1.730   3.132   5.339 -0.7256  1.7218  0.7178
 5942SOL    HW229286   1.632   3.092   5.238 -2.9551  1.9602  0.1475
 5943SOL     OW29287   4.288   3.893   1.697 -0.4778 -0.4114 -0.3399
 5943SOL    HW129288   4.318   3.984   1.708 -0.2854 -0.6260  0.8991
 5943SOL    HW229289   4.212   3.908   1.641  0.0977  0.9332 -0.7722
 5944SOL     OW29290   3.600   4.624   2.955  0.0004 -0.2705 -0.0242
 5944SOL    HW129291   3.600   4.539   2.912 -0.4050 -1.0189  1.4600
 5944SOL    HW229292   3.677   4.619   3.011 -0.7454 -2.3061  0.7848
 5945SOL     OW29293   2.081   0.325  15.334 -0.1589  0.1841  0.1966
 5945SOL    HW129294   2.171   0.306  15.308 -0.0132 -1.2968  1.7692
 5945SOL    HW229295   2.052   0.238  15.362 -0.0819  0.0749 -0.0659
 5946SOL     OW29296   1.350   0.165  12.084 -0.3186 -0.3507 -0.2818
 5946SOL    HW129297   1.325   0.233  12.146 -1.3634  0.4846 -1.6060
 5946SOL    HW229298   1.343   0.088  12.140  1.4352 -0.5967 -0.3934
 5947SOL     OW29299   2.355   0.239  17.239  0.2289 -0.0165 -0.1726
 5947SOL    HW129300   2.310   0.161  17.208  0.5889 -0.5686  0.6932
 5947SOL    HW229301   2.409   0.206  17.311 -1.5049 -0.8475  0.7459
 5948SOL     OW29302   0.377   2.437   3.213 -0.3449  0.0778  0.0457
 5948SOL    HW129303   0.296   2.391   3.236  0.0544 -0.8279 -0.3614
 5948SOL    HW229304   0.445   2.409   3.275 -0.1685  0.3057 -0.0425
 5949SOL     OW29305   2.425   3.024   4.397  0.0009  0.6999  0.2410
 5949SOL    HW129306   2.362   3.093   4.377 -0.9508 -0.0907  0.4515
 5949SOL    HW229307   2.503   3.075   4.378  0.6212 -0.9222 -1.5588
 5950SOL     OW29308   3.025   0.562   2.387  0.1503  0.0877  0.0968
 5950SOL    HW129309   2.961   0.630   2.367  1.9935  1.4358 -1.1718
 5950SOL    HW229310   2.986   0.537   2.471  1.1494  1.1168  0.8564
 5951SOL     OW29311   3.861   1.660  12.678 -0.2849  0.2486 -0.4404
 5951SOL    HW129312   3.804   1.593  12.639 -0.9723  0.1003  0.8040
 5951SOL    HW229313   3.894   1.705  12.600  1.3554 -3.8411 -2.1141
 5952SOL     OW29314   0.853   0.092   3.492  0.2313  0.0987 -0.1380
 5952SOL    HW129315   0.833   0.160   3.428 -1.4521 -0.4434 -0.1740
 5952SOL    HW229316   0.927   0.047   3.449  0.8208 -0.0744  1.0624
 5953SOL     OW29317   0.929   4.168   5.177 -0.5830  0.5371 -0.3762
 5953SOL    HW129318   0.877   4.169   5.096 -0.3208 -0.4346 -0.5471
 5953SOL    HW229319   0.932   4.073   5.184 -0.6396  0.5407 -0.3024
 5954SOL     OW29320   2.527   3.246   0.904 -0.5438 -0.0729 -0.3809
 5954SOL    HW129321   2.598   3.219   0.846  0.0556  3.9369 -1.5632
 5954SOL    HW229322   2.466   3.173   0.907  1.8712 -1.9205  3.3873
 5955SOL     OW29323   4.301   2.821  13.537 -0.1927 -0.0017  0.1119
 5955SOL    HW129324   4.205   2.826  13.542 -0.3334  0.4918 -3.0682
 5955SOL    HW229325   4.319   2.915  13.540 -0.9591  0.1312  0.4974
 5956SOL     OW29326   4.181   4.066  14.996  0.0922  0.2033  0.2046
 5956SOL    HW129327   4.226   4.133  14.945  0.2125  1.0996  1.4980
 5956SOL    HW229328   4.089   4.083  14.976 -0.3188  0.2403  2.0952
 5957SOL     OW29329   0.500   4.129   2.069 -0.4543 -0.3140  0.4376
 5957SOL    HW129330   0.408   4.146   2.091 -0.6348 -2.6601  1.4212
 5957SOL    HW229331   0.519   4.062   2.135  0.9430  0.3144  0.6832
 5958SOL     OW29332   1.461   2.790   4.769 -0.6076 -0.0088  0.7371
 5958SOL    HW129333   1.394   2.743   4.719 -0.4039 -0.6132  1.0229
 5958SOL    HW229334   1.420   2.784   4.855  0.8026 -0.9914  1.3446
 5959SOL     OW29335   3.700   0.414   2.792  0.2611  0.6328 -0.6386
 5959SOL    HW129336   3.654   0.451   2.717 -2.8122 -1.1567  0.3468
 5959SOL    HW229337   3.675   0.322   2.792  1.7120  0.2414 -1.1646
 5960SOL     OW29338   2.526   0.228   4.973  0.4462  0.1915 -0.1612
 5960SOL    HW129339   2.450   0.270   5.014 -0.0502  2.3137 -3.3100
 5960SOL    HW229340   2.482   0.164   4.918 -1.2432  2.0210 -0.9388
 5961SOL     OW29341   0.180   2.936  10.499 -0.3263 -0.8111 -0.0848
 5961SOL    HW129342   0.136   2.984  10.429 -0.2819  0.3193  0.6576
 5961SOL    HW229343   0.270   2.942  10.467  0.3392  0.8761  2.1062
 5962SOL     OW29344   1.212   1.764  16.684  0.0494  0.3686 -0.2337
 5962SOL    HW129345   1.253   1.771  16.770 -0.4165  0.8858 -0.0570
 5962SOL    HW229346   1.162   1.683  16.690  0.3903  0.2366  0.6947
 5963SOL     OW29347   0.184   3.348  17.508 -0.4276  0.0571 -0.3213
 5963SOL    HW129348   0.243   3.409  17.465 -0.9467 -0.7654 -2.2072
 5963SOL    HW229349   0.212   3.354  17.599 -1.4398  1.5106 -0.0959
 5964SOL     OW29350   1.810   3.449  11.857 -0.3920  0.1188  0.5541
 5964SOL    HW129351   1.714   3.447  11.854 -0.3517 -1.2519 -0.2625
 5964SOL    HW229352   1.829   3.526  11.909  0.8740 -0.8332  1.4928
 5965SOL     OW29353   0.459   4.582  17.261  0.4290 -0.7078  0.0241
 5965SOL    HW129354   0.464   4.677  17.253 -0.1064 -0.8608 -2.0219
 5965SOL    HW229355   0.372   4.565  17.225  0.5156 -0.2282 -0.4089
 5966SOL     OW29356   2.055   2.772   7.809 -0.0992 -0.2030  0.1901
 5966SOL    HW129357   2.058   2.865   7.831 -0.0219 -0.2579  0.4209
 5966SOL    HW229358   2.141   2.764   7.768 -0.9771 -0.2116 -1.6476
 5967SOL     OW29359   0.184   3.259   9.306 -0.3707 -0.3086  0.2140
 5967SOL    HW129360   0.193   3.343   9.261 -1.2377 -0.3024  0.0561
 5967SOL    HW229361   0.093   3.270   9.334 -0.8754  1.4614 -2.0740
 5968SOL     OW29362   1.696   4.574   9.024 -0.1717  0.2784  0.1933
 5968SOL    HW129363   1.609   4.577   8.984 -0.2176  1.7356  0.3787
 5968SOL    HW229364   1.712   4.666   9.046 -0.7368  0.7229 -1.3016
 5969SOL     OW29365   2.099   1.580   8.303 -0.3647  0.1793  0.6331
 5969SOL    HW129366   2.030   1.644   8.322  0.2062  1.7269 -2.5658
 5969SOL    HW229367   2.102   1.536   8.388 -0.5074  1.7394  1.4567
 5970SOL     OW29368   1.069   2.728   1.378  0.1576  1.0269 -0.6742
 5970SOL    HW129369   0.978   2.735   1.410 -0.3366 -2.8218 -1.3345
 5970SOL    HW229370   1.106   2.804   1.424 -3.2128  2.3690 -0.1598
 5971SOL     OW29371   0.301   3.952   6.126  0.3789 -0.0732  0.0299
 5971SOL    HW129372   0.257   4.036   6.141  2.6048  0.7831  1.8261
 5971SOL    HW229373   0.318   3.954   6.032  0.4856 -1.2023  0.0303
 5972SOL     OW29374   3.681   0.563   8.600  0.5943  0.0351  0.4671
 5972SOL    HW129375   3.766   0.602   8.618  1.1865 -1.7290  1.4695
 5972SOL    HW229376   3.686   0.468   8.591  2.4933  0.4219 -2.4179
 5973SOL     OW29377   0.401   1.153   3.410 -0.1929  0.2610 -1.0455
 5973SOL    HW129378   0.417   1.220   3.344  2.0020 -0.7123 -1.4796
 5973SOL    HW229379   0.422   1.195   3.493  1.8858  1.0886 -1.9972
 5974SOL     OW29380   0.112   1.604   9.091  0.0731  0.2954 -0.0926
 5974SOL    HW129381   0.072   1.568   9.170  0.0132  1.8060  0.5633
 5974SOL    HW229382   0.191   1.652   9.116  0.3233 -0.2524  0.1615
 5975SOL     OW29383   3.054   4.503   3.939  0.6401  0.4519  0.0241
 5975SOL    HW129384   3.137   4.496   3.892  0.6757 -0.7912  0.2740
 5975SOL    HW229385   3.097   4.518   4.024  0.9179  1.8019 -0.3530
 5976SOL     OW29386   2.904   1.751  15.425 -0.5045 -0.3465  0.1233
 5976SOL    HW129387   2.979   1.790  15.469  1.8677 -4.2487 -0.4892
 5976SOL    HW229388   2.837   1.753  15.493 -0.4283 -3.6051  0.3136
 5977SOL     OW29389   0.924   1.155   7.113  0.8725  0.1165  0.5883
 5977SOL    HW129390   0.917   1.188   7.203 -4.9390  0.8010 -0.1336
 5977SOL    HW229391   0.970   1.230   7.074  1.6445  0.1050  1.4725
 5978SOL     OW29392   0.401   2.126   7.575 -0.1013 -0.2275 -0.4456
 5978SOL    HW129393   0.421   2.162   7.489  2.3484  1.0491  0.6340
 5978SOL    HW229394   0.392   2.204   7.631  1.7827  0.5853 -1.2613
 5979SOL     OW29395   2.179   3.800  17.624 -0.3490 -0.2187 -0.2839
 5979SOL    HW129396   2.237   3.843   0.004  1.0684 -0.1171 -1.6673
 5979SOL    HW229397   2.117   3.762   0.003  0.5403 -1.9214 -0.4455
 5980SOL     OW29398   2.441   0.936   1.527 -0.4427 -0.1271 -0.0362
 5980SOL    HW129399   2.377   0.867   1.545  0.7949 -2.0110 -3.0090
 5980SOL    HW229400   2.500   0.882   1.475 -0.5050 -1.6218  1.4540
 5981SOL     OW29401   0.729   1.054   4.972 -0.2686 -0.0889  0.3706
 5981SOL    HW129402   0.746   1.138   4.929 -0.3388 -0.4956 -0.4506
 5981SOL    HW229403   0.809   1.005   4.952  0.5778  0.7262  1.7004
 5982SOL     OW29404   2.284   2.757   1.389 -0.0119  0.6317 -0.4036
 5982SOL    HW129405   2.275   2.783   1.297  0.5175  2.0364 -0.0550
 5982SOL    HW229406   2.367   2.711   1.373 -1.0604 -1.2838 -0.2312
 5983SOL     OW29407   3.720   3.283   3.430 -0.6285  0.2939 -0.2338
 5983SOL    HW129408   3.693   3.334   3.506  0.7309  0.6387  0.0100
 5983SOL    HW229409   3.644   3.307   3.377 -1.9180 -0.0559  1.4652
 5984SOL     OW29410   2.589   1.143   3.093 -0.0155  0.7272 -0.3986
 5984SOL    HW129411   2.626   1.083   3.158 -0.0513 -0.0623 -1.1150
 5984SOL    HW229412   2.653   1.214   3.098 -0.5054  1.1631 -0.3377
 5985SOL     OW29413   2.558   1.664  12.272 -0.1931  0.6450 -0.3385
 5985SOL    HW129414   2.638   1.628  12.310 -0.1764 -0.5183 -1.4706
 5985SOL    HW229415   2.588   1.744  12.229  2.2683 -0.0558  0.0646
 5986SOL     OW29416   1.658   0.991   2.552  0.2097 -0.1677 -0.2348
 5986SOL    HW129417   1.714   1.062   2.523  1.0155 -0.4752  0.5815
 5986SOL    HW229418   1.626   0.948   2.472  3.1016 -2.5937 -0.1129
 5987SOL     OW29419   0.831   3.954  15.714  0.0743 -0.8740  0.1700
 5987SOL    HW129420   0.778   3.948  15.634  1.6974  1.0523 -1.0432
 5987SOL    HW229421   0.920   3.943  15.680  0.4888  0.4634  0.8518
 5988SOL     OW29422   1.910   1.663  11.215 -0.2709 -0.1600  0.0948
 5988SOL    HW129423   1.916   1.582  11.165 -0.8628 -1.0272  1.4086
 5988SOL    HW229424   1.835   1.711  11.179 -0.2797  0.2679  0.6816
 5989SOL     OW29425   2.395   4.107  10.507 -0.3395  0.5314  0.0679
 5989SOL    HW129426   2.442   4.173  10.557  2.8072 -1.9091  0.3500
 5989SOL    HW229427   2.344   4.067  10.578 -0.5696 -0.2587 -0.5306
 5990SOL     OW29428   3.435   3.407   8.610 -0.2683  0.0628  0.0926
 5990SOL    HW129429   3.416   3.326   8.657  2.6878 -1.2266 -0.9514
 5990SOL    HW229430   3.365   3.465   8.642 -0.7070  1.4185 -3.2992
 5991SOL     OW29431   2.115   0.016   4.233  0.2869 -0.0555  0.0879
 5991SOL    HW129432   2.067   4.689   4.164  1.5054  0.5797 -1.1732
 5991SOL    HW229433   2.202   4.708   4.207  1.1461  0.6972  2.1541
 5992SOL     OW29434   2.440   4.208   5.786 -0.1190 -0.2957  0.1342
 5992SOL    HW129435   2.352   4.169   5.783 -0.0415 -0.5196  0.6328
 5992SOL    HW229436   2.429   4.277   5.852 -2.9620 -1.6258  1.0915
 5993SOL     OW29437   4.121   1.184   4.299  0.6490  0.0917 -0.0268
 5993SOL    HW129438   4.091   1.224   4.217  0.9373  0.2581 -0.0490
 5993SOL    HW229439   4.183   1.252   4.323  0.2703  0.8986 -1.3339
 5994SOL     OW29440   3.516   1.914   0.938  0.1755 -0.3683  0.2574
 5994SOL    HW129441   3.593   1.861   0.917 -0.5491 -0.5479 -1.9846
 5994SOL    HW229442   3.462   1.837   0.955  0.0335 -0.5638 -1.0206
 5995SOL     OW29443   3.949   1.705   3.266  0.8312  0.0014 -0.0529
 5995SOL    HW129444   3.855   1.715   3.280  1.0549  1.9930 -0.0639
 5995SOL    HW229445   3.976   1.680   3.355 -0.6875  0.4094  0.5181
 5996SOL     OW29446   2.925   3.636  14.022 -0.2018  0.0840  0.3752
 5996SOL    HW129447   3.015   3.652  13.991 -1.5483  1.8413 -2.6376
 5996SOL    HW229448   2.913   3.719  14.068  0.8121  0.7334 -0.5212
 5997SOL     OW29449   2.287   3.299   0.331  0.4545  0.8518 -0.0561
 5997SOL    HW129450   2.366   3.305   0.277  1.3612 -1.5868  0.9947
 5997SOL    HW229451   2.221   3.336   0.273 -1.1787 -2.6259 -0.4285
 5998SOL     OW29452   4.527   1.001   6.429  0.6227 -0.3637 -0.2717
 5998SOL    HW129453   4.518   0.942   6.504  0.1994  1.7799  1.3718
 5998SOL    HW229454   4.507   0.930   6.368 -1.0305  1.8937 -2.3495
 5999SOL     OW29455   2.522   2.057   7.875  0.0274 -0.3033 -0.3356
 5999SOL    HW129456   2.444   2.007   7.900 -0.2108  0.8694  1.2852
 5999SOL    HW229457   2.480   2.131   7.830 -2.4538 -0.6054  1.4728
 6000SOL     OW29458   1.451   2.957   1.629 -0.5341  0.1886  0.4798
 6000SOL    HW129459   1.463   3.051   1.644  0.9151 -0.2374  2.0970
 6000SOL    HW229460   1.534   2.939   1.585 -0.1679 -0.0988  1.2905
 6001SOL     OW29461   2.226   0.655  15.153 -0.4588  0.1768 -0.2906
 6001SOL    HW129462   2.315   0.620  15.145  1.0170  3.7070  0.7386
 6001SOL    HW229463   2.234   0.744  15.187 -0.6307  1.1239 -2.7374
 6002SOL     OW29464   1.431   4.332   8.054 -0.4395  0.3063  0.5386
 6002SOL    HW129465   1.384   4.272   7.996  0.4832 -0.5633  0.6859
 6002SOL    HW229466   1.434   4.412   8.002  0.8126 -1.0566 -1.4933
 6003SOL     OW29467   1.986   0.221   5.963  0.0418 -0.1014 -0.2330
 6003SOL    HW129468   1.993   0.212   5.868 -2.3477 -1.5462 -0.2782
 6003SOL    HW229469   2.038   0.155   6.009  1.3471 -0.0910 -1.7315
 6004SOL     OW29470   1.132   4.320   6.258  0.3570 -0.4693 -0.0576
 6004SOL    HW129471   1.111   4.318   6.164 -1.1360  1.0155  0.2272
 6004SOL    HW229472   1.089   4.240   6.287  0.2915 -0.6903 -0.7453
 6005SOL     OW29473   0.787   1.003   2.163  0.2285  0.0592  0.5210
 6005SOL    HW129474   0.767   1.025   2.072  0.5858  0.2623  0.4932
 6005SOL    HW229475   0.882   0.990   2.168  0.2047  0.0719  0.9970
 6006SOL     OW29476   0.231   1.332   8.056 -0.0156 -0.3926  0.3930
 6006SOL    HW129477   0.254   1.270   7.987 -0.2712 -0.9873  0.8424
 6006SOL    HW229478   0.295   1.310   8.123  0.3429 -0.6143 -0.0183
 6007SOL     OW29479   3.747   3.291   6.877  0.0193 -0.2842  0.6209
 6007SOL    HW129480   3.772   3.233   6.949  0.3989 -1.1388 -0.2028
 6007SOL    HW229481   3.809   3.362   6.898  1.2826 -1.6001  1.3100
 6008SOL     OW29482   3.085   0.904   4.277  0.1208 -0.4794  0.1202
 6008SOL    HW129483   3.044   0.989   4.259  1.2818 -0.5625 -2.8736
 6008SOL    HW229484   3.091   0.861   4.192  2.5325 -2.6290  1.4131
 6009SOL     OW29485   0.666   2.930   0.297  0.0283  0.4987 -0.3873
 6009SOL    HW129486   0.656   2.868   0.225 -1.1787 -1.2165  1.2245
 6009SOL    HW229487   0.696   3.007   0.250 -0.7756  1.8448  1.3164
 6010SOL     OW29488   4.042   4.527  11.168  0.3912  0.0068 -0.1174
 6010SOL    HW129489   4.036   4.620  11.190  1.1460  0.0526 -0.1146
 6010SOL    HW229490   3.993   4.479  11.235  0.3771 -1.5735 -1.2402
 6011SOL     OW29491   2.616   1.391   2.160 -0.1666  0.1771 -0.1234
 6011SOL    HW129492   2.566   1.380   2.079 -0.0575  1.1574 -0.3194
 6011SOL    HW229493   2.671   1.468   2.148  1.0570 -0.9062 -1.3921
 6012SOL     OW29494   1.179   1.121   2.379  0.0152  0.0971  0.4476
 6012SOL    HW129495   1.217   1.147   2.463  0.0895  0.7208  0.2179
 6012SOL    HW229496   1.262   1.096   2.336 -0.6132 -3.1899  1.1260
 6013SOL     OW29497   3.528   4.451  11.867 -0.5945 -0.1619  0.3940
 6013SOL    HW129498   3.565   4.535  11.841  4.1425 -2.5829 -0.7125
 6013SOL    HW229499   3.468   4.481  11.934 -1.5727  0.2876 -0.6896
 6014SOL     OW29500   3.233   3.362  12.255  0.1307  0.5603  0.6381
 6014SOL    HW129501   3.273   3.293  12.202 -1.7196  0.8583 -1.1558
 6014SOL    HW229502   3.206   3.314  12.333  0.2361 -1.1094 -0.3586
 6015SOL     OW29503   3.888   3.781  10.538  0.4460  0.1849  0.5305
 6015SOL    HW129504   3.792   3.783  10.535  0.5366  1.6990 -0.7288
 6015SOL    HW229505   3.913   3.766  10.447 -0.8816 -0.4085  0.2609
 6016SOL     OW29506   0.725   1.388   0.724 -0.0225  0.5176 -0.4069
 6016SOL    HW129507   0.653   1.425   0.776 -0.2581  1.0305 -1.0970
 6016SOL    HW229508   0.677   1.368   0.643  0.7793 -0.7970 -0.5566
 6017SOL     OW29509   1.850   3.249  10.921 -0.1134 -0.1357 -0.2155
 6017SOL    HW129510   1.932   3.202  10.907 -0.8854 -2.8029  4.1644
 6017SOL    HW229511   1.826   3.206  11.003  0.7364 -1.4509 -0.6439
 6018SOL     OW29512   1.652   1.559   0.983  0.4333  0.1239  0.3832
 6018SOL    HW129513   1.579   1.508   1.018  0.0078  1.5590  1.6134
 6018SOL    HW229514   1.608   1.615   0.920 -0.0356 -1.9499 -1.1210
 6019SOL     OW29515   1.709   4.474   7.390 -0.5023 -0.5031  0.1575
 6019SOL    HW129516   1.738   4.428   7.311  0.1832 -0.2300  0.2521
 6019SOL    HW229517   1.673   4.393   7.426  1.1467 -1.7624 -1.0259
 6020SOL     OW29518   3.900   0.282   0.327 -0.5346  0.6391  0.5852
 6020SOL    HW129519   3.912   0.188   0.322  1.7607  0.9515  0.2642
 6020SOL    HW229520   3.908   0.302   0.421 -0.0787 -0.1946  0.7166
 6021SOL     OW29521   2.745   2.284   5.718 -0.0584 -0.0034 -0.0023
 6021SOL    HW129522   2.703   2.326   5.793 -1.7908  1.0527 -1.5715
 6021SOL    HW229523   2.786   2.210   5.763 -1.8294 -0.1192  1.4477
 6022SOL     OW29524   2.413   1.696   3.568 -0.5370  0.2624  0.0721
 6022SOL    HW129525   2.402   1.775   3.621  0.4484 -1.6390  3.0729
 6022SOL    HW229526   2.376   1.725   3.484  2.7627  0.7342 -1.2347
 6023SOL     OW29527   0.968   3.759  13.885  0.5594 -0.0270  0.2508
 6023SOL    HW129528   0.905   3.831  13.879 -0.9840 -1.2809  1.4078
 6023SOL    HW229529   1.045   3.812  13.903  0.8292 -0.1142 -0.6271
 6024SOL     OW29530   2.951   4.408  10.261 -0.1468 -0.0057  0.1507
 6024SOL    HW129531   2.961   4.464  10.184  0.4208 -1.0996 -0.5651
 6024SOL    HW229532   2.878   4.453  10.304  1.1116  1.8366  0.3698
 6025SOL     OW29533   0.627   2.236   8.558  0.4224  0.3693  0.0973
 6025SOL    HW129534   0.669   2.290   8.490 -0.2794 -0.3736 -0.9295
 6025SOL    HW229535   0.594   2.168   8.500  2.2229 -0.8336  0.4704
 6026SOL     OW29536   1.402   4.714   9.301  0.2314 -1.2173 -0.3212
 6026SOL    HW129537   1.370   4.624   9.289 -1.4711 -0.4713 -1.2787
 6026SOL    HW229538   1.334   0.047   9.261 -1.7999 -1.2745  3.0704
 6027SOL     OW29539   1.446   2.383   2.275 -0.1649 -0.0011 -0.2075
 6027SOL    HW129540   1.362   2.424   2.253 -0.9296 -1.6876 -0.4483
 6027SOL    HW229541   1.448   2.395   2.370 -1.1089  0.6761 -0.2660
 6028SOL     OW29542   4.319   0.427   8.716 -0.7748 -0.2927  0.1839
 6028SOL    HW129543   4.367   0.390   8.642 -0.8172  0.4277 -0.1970
 6028SOL    HW229544   4.233   0.386   8.712 -0.9016  0.0149 -0.1657
 6029SOL     OW29545   1.783   3.606   7.584 -0.4423 -0.4201  0.6852
 6029SOL    HW129546   1.725   3.593   7.508  1.4081 -0.9210 -0.6359
 6029SOL    HW229547   1.801   3.515   7.609  0.4050 -0.1841  0.9362
 6030SOL     OW29548   2.267   1.990   5.900  0.2541 -0.4051  0.3118
 6030SOL    HW129549   2.283   2.082   5.919 -1.0822  0.3311 -2.0984
 6030SOL    HW229550   2.178   1.995   5.866  0.2301  0.0619  0.4428
 6031SOL     OW29551   3.800   0.601   6.997 -0.1194 -0.2153 -0.0104
 6031SOL    HW129552   3.739   0.536   6.962 -1.1499 -0.3940  2.1310
 6031SOL    HW229553   3.866   0.545   7.036 -0.7628 -0.7762  0.2738
 6032SOL     OW29554   1.072   4.529  10.751 -0.3973 -0.4701 -0.0664
 6032SOL    HW129555   1.158   4.569  10.738 -0.8274  0.6864  0.6352
 6032SOL    HW229556   1.091   4.439  10.777  0.4900 -1.3198 -3.6715
 6033SOL     OW29557   4.220   4.063   9.866 -0.3745 -0.3905  0.6583
 6033SOL    HW129558   4.227   4.154   9.837  0.3179 -0.6474 -0.0029
 6033SOL    HW229559   4.281   4.048   9.938 -2.2986 -0.8707  2.1910
 6034SOL     OW29560   3.450   0.767   9.710  0.2903 -0.3864 -0.2128
 6034SOL    HW129561   3.368   0.807   9.681  0.1024 -0.4614  0.2183
 6034SOL    HW229562   3.516   0.818   9.664  0.7442 -0.8227 -0.0445
 6035SOL     OW29563   1.146   0.096  15.772  0.1936  0.4817  0.0902
 6035SOL    HW129564   1.217   0.159  15.782  0.8726  0.1460 -2.4409
 6035SOL    HW229565   1.116   0.111  15.861  0.7521 -1.2306  0.5671
 6036SOL     OW29566   3.261   0.560   3.639 -0.8395 -0.3260  0.3461
 6036SOL    HW129567   3.230   0.496   3.575 -0.3361 -0.5680  0.3460
 6036SOL    HW229568   3.331   0.600   3.588  0.7121  0.2205  2.9171
 6037SOL     OW29569   3.816   3.484  11.515 -0.2189 -0.2052 -0.2235
 6037SOL    HW129570   3.842   3.529  11.435  0.0019  1.6351  0.8962
 6037SOL    HW229571   3.860   3.401  11.497 -1.1223 -0.6934 -0.1921
 6038SOL     OW29572   3.244   0.491   6.958 -0.3509 -0.6346 -0.6796
 6038SOL    HW129573   3.191   0.516   6.882 -1.4577  1.8563  0.9069
 6038SOL    HW229574   3.202   0.414   6.996 -0.4954  1.3690  3.2538
 6039SOL     OW29575   4.479   1.006  16.542  0.3639 -0.3253 -0.0381
 6039SOL    HW129576   4.548   1.025  16.606 -0.2302 -1.3407  0.8783
 6039SOL    HW229577   4.479   0.912  16.529 -0.3603 -0.5241  1.4980
 6040SOL     OW29578   3.188   2.262   7.240  0.0641 -0.0111 -0.3981
 6040SOL    HW129579   3.113   2.271   7.181  2.2732  0.8569 -3.0326
 6040SOL    HW229580   3.226   2.184   7.199  1.7349  0.4664  0.2779
 6041SOL     OW29581   3.690   2.057   1.114  0.0058  0.3745 -0.3814
 6041SOL    HW129582   3.611   2.013   1.144  1.3582 -2.4527 -0.9504
 6041SOL    HW229583   3.657   2.147   1.123  0.4796  0.4066  1.0438
 6042SOL     OW29584   2.125   1.740   2.395 -0.1773  0.3294  0.2976
 6042SOL    HW129585   2.178   1.663   2.374 -3.9415 -2.2913  0.3402
 6042SOL    HW229586   2.173   1.786   2.463  2.5928 -3.2751  0.7825
 6043SOL     OW29587   0.953   2.381   4.673  0.1793  0.1624 -0.2018
 6043SOL    HW129588   0.874   2.339   4.640  0.1871  0.4976 -0.6387
 6043SOL    HW229589   1.018   2.347   4.611 -0.7937 -1.9381 -0.0802
 6044SOL     OW29590   2.116   2.237   1.760 -0.0516  0.1738  0.2847
 6044SOL    HW129591   2.202   2.253   1.720 -0.4374  4.2146  1.1178
 6044SOL    HW229592   2.137   2.253   1.852 -0.5473 -0.1967  0.4595
 6045SOL     OW29593   2.879   1.542  14.457 -0.3750  0.0977  0.7218
 6045SOL    HW129594   2.873   1.505  14.545 -1.6601  0.3559  0.7421
 6045SOL    HW229595   2.968   1.578  14.462 -0.0347 -0.5760 -0.2923
 6046SOL     OW29596   0.773   2.634   1.230  0.0990  0.1063  0.1539
 6046SOL    HW129597   0.761   2.693   1.305  0.7695  0.7451 -0.2425
 6046SOL    HW229598   0.683   2.613   1.206  0.5193 -1.3796 -0.0913
 6047SOL     OW29599   2.169   1.607   5.415  0.3724 -0.2877 -0.3055
 6047SOL    HW129600   2.256   1.609   5.454 -0.1521 -0.1482  0.8649
 6047SOL    HW229601   2.115   1.575   5.487 -0.5825  3.8266  0.8101
 6048SOL     OW29602   4.256   1.326   3.176 -0.5818  0.1828 -0.0368
 6048SOL    HW129603   4.323   1.333   3.109 -0.6142 -2.5077 -0.3330
 6048SOL    HW229604   4.207   1.408   3.167 -3.4341 -1.2759  2.0852
 6049SOL     OW29605   1.912   1.299   6.951  0.4406  0.3139 -0.2353
 6049SOL    HW129606   1.858   1.276   6.875 -3.2817 -1.1922  2.8682
 6049SOL    HW229607   1.973   1.225   6.948 -1.7050 -1.5349  1.8453
 6050SOL     OW29608   3.698   2.188   6.565 -0.1059  0.8919 -0.1250
 6050SOL    HW129609   3.715   2.280   6.546 -1.0907  1.4233  1.6338
 6050SOL    HW229610   3.652   2.187   6.649  0.9924 -1.4966  0.4454
 6051SOL     OW29611   2.472   0.667   5.319  0.0402  0.3717  0.2458
 6051SOL    HW129612   2.423   0.681   5.238  2.6370  0.6622 -1.2454
 6051SOL    HW229613   2.491   0.574   5.321  0.9251  0.5804  1.6866
 6052SOL     OW29614   2.467   0.179   8.580  0.0550  0.0562  0.3030
 6052SOL    HW129615   2.542   0.221   8.621 -1.1252  1.6925  0.7798
 6052SOL    HW229616   2.492   0.191   8.489 -0.5400  0.6100  0.2181
 6053SOL     OW29617   2.381   1.609   4.428  0.5734  0.3184  0.2021
 6053SOL    HW129618   2.303   1.644   4.384 -1.1159 -0.2649  2.7055
 6053SOL    HW229619   2.349   1.573   4.511 -0.2746 -0.3989 -0.4284
 6054SOL     OW29620   0.211   3.124   6.053  0.2859  0.4101 -0.3735
 6054SOL    HW129621   0.274   3.087   6.115  0.2731 -0.2981 -0.7965
 6054SOL    HW229622   0.215   3.216   6.082  0.8328 -0.0354  0.9750
 6055SOL     OW29623   2.265   3.839   4.599  0.4578  0.0710 -0.7942
 6055SOL    HW129624   2.280   3.830   4.693 -1.5806 -2.2349 -0.7014
 6055SOL    HW229625   2.351   3.845   4.559  1.2180 -1.1841  0.6520
 6056SOL     OW29626   4.573   4.522   1.352  0.3662  0.2469  0.1196
 6056SOL    HW129627   4.624   4.560   1.424  1.4793 -0.8486 -0.0842
 6056SOL    HW229628   4.488   4.563   1.366  0.5679  0.7161 -0.0552
 6057SOL     OW29629   3.268   2.484   6.256  0.5924  0.0007  0.2090
 6057SOL    HW129630   3.268   2.578   6.271 -2.1073  0.3627 -2.0627
 6057SOL    HW229631   3.348   2.465   6.305 -0.6329 -0.1146  2.1899
 6058SOL     OW29632   2.275   0.391   1.135 -0.4088  0.7135 -0.2615
 6058SOL    HW129633   2.190   0.402   1.178  0.1508  2.2448  0.4709
 6058SOL    HW229634   2.245   0.333   1.065 -1.9970  1.5771 -0.2940
 6059SOL     OW29635   4.428   2.554   0.779  0.3376  0.1819 -0.1087
 6059SOL    HW129636   4.495   2.510   0.831 -2.4025 -2.2718  1.2838
 6059SOL    HW229637   4.461   2.530   0.692  0.2668 -0.1934 -0.0300
 6060SOL     OW29638   3.344   4.443   3.882 -0.0203 -0.7070 -0.2011
 6060SOL    HW129639   3.378   4.519   3.835  0.2522  0.1723  1.4187
 6060SOL    HW229640   3.378   4.464   3.969  0.8077 -1.7280 -0.2819
 6061SOL     OW29641   0.558   3.839   5.871  0.1825  0.0001  0.4815
 6061SOL    HW129642   0.614   3.788   5.929  1.4659 -0.2317 -0.9769
 6061SOL    HW229643   0.537   3.782   5.798 -0.9297  0.9127  0.0782
 6062SOL     OW29644   0.815   3.402  13.321  0.4947 -0.1397  0.0598
 6062SOL    HW129645   0.835   3.352  13.242 -0.4593  0.4441 -0.5562
 6062SOL    HW229646   0.744   3.351  13.360 -0.2929 -0.6179 -2.0084
 6063SOL     OW29647   1.282   3.980   2.387 -0.1572 -0.4283 -0.0043
 6063SOL    HW129648   1.263   4.060   2.434 -1.1360  0.2295 -1.5218
 6063SOL    HW229649   1.215   3.986   2.319 -0.6191 -0.7791  0.4268
 6064SOL     OW29650   3.550   0.212   3.643 -0.2777  0.4059  0.4076
 6064SOL    HW129651   3.570   0.268   3.719  1.0582  2.4062 -1.4171
 6064SOL    HW229652   3.638   0.216   3.606 -1.4292 -1.9495 -2.5449
 6065SOL     OW29653   3.425   0.226   2.897  0.2810  0.3780  0.0059
 6065SOL    HW129654   3.403   0.151   2.952 -1.6668  0.8353 -0.1355
 6065SOL    HW229655   3.514   0.200   2.872  0.0514 -1.1366  0.8225
 6066SOL     OW29656   0.293   0.733  10.999  0.1321  0.0080  0.5867
 6066SOL    HW129657   0.366   0.794  11.002 -0.0921  0.1216  4.2601
 6066SOL    HW229658   0.226   0.777  11.052 -0.0750  1.7076 -1.0928
 6067SOL     OW29659   3.769   0.825   4.417 -0.1656 -0.2165 -0.5474
 6067SOL    HW129660   3.736   0.836   4.507 -1.1116  1.5892 -1.1211
 6067SOL    HW229661   3.758   0.731   4.405  0.3521 -0.0531 -2.2661
 6068SOL     OW29662   1.901   4.182   2.027  0.3458 -0.1429 -0.2679
 6068SOL    HW129663   1.894   4.114   2.094  1.5768  0.4461  0.4576
 6068SOL    HW229664   1.808   4.188   2.006  0.3056 -1.6551 -0.5441
 6069SOL     OW29665   3.096   0.265   8.111  0.0482 -0.2374 -0.1784
 6069SOL    HW129666   3.010   0.224   8.118  0.9427 -2.2258 -0.8880
 6069SOL    HW229667   3.130   0.230   8.193 -2.0380  0.6884  1.0700
 6070SOL     OW29668   2.956   1.254   5.322 -0.1948 -0.5596 -0.0990
 6070SOL    HW129669   3.007   1.231   5.399  1.5781 -0.1258 -1.1416
 6070SOL    HW229670   2.966   1.174   5.271  0.6989  0.7344 -1.9625
 6071SOL     OW29671   1.432   0.632  10.334  0.3760  0.7574  0.1990
 6071SOL    HW129672   1.444   0.590  10.249 -2.1293 -0.8437  0.6164
 6071SOL    HW229673   1.337   0.627  10.345  0.6653  2.5001  3.5072
 6072SOL     OW29674   4.704   2.006  11.793  0.1882  0.0908 -0.2857
 6072SOL    HW129675   0.052   2.064  11.828 -0.2813 -1.3668  2.9751
 6072SOL    HW229676   4.676   2.062  11.720 -3.2324 -0.4268  0.6355
 6073SOL     OW29677   1.112   1.310   3.454  0.0125  0.4504  0.0214
 6073SOL    HW129678   1.050   1.269   3.393  1.1756  0.2302 -1.0076
 6073SOL    HW229679   1.170   1.234   3.460  1.7471  1.7895  0.1926
 6074SOL     OW29680   0.222   4.034   4.150 -0.8920 -0.4776  0.6092
 6074SOL    HW129681   0.213   4.081   4.067  1.0034 -1.8084 -0.3598
 6074SOL    HW229682   0.131   4.034   4.178 -0.6579  1.1552  1.3867
 6075SOL     OW29683   2.246   0.507   6.595 -0.1901  0.4213 -0.2210
 6075SOL    HW129684   2.242   0.540   6.685  1.8450 -0.9668  0.3813
 6075SOL    HW229685   2.339   0.484   6.602 -0.7309 -0.6494  3.7192
 6076SOL     OW29686   4.122   0.541  11.160  0.2932 -0.3307 -0.3858
 6076SOL    HW129687   4.208   0.511  11.189  1.0230  1.8358 -0.2676
 6076SOL    HW229688   4.136   0.625  11.116 -0.0293 -0.2015 -0.2376
 6077SOL     OW29689   4.366   1.398   6.110  0.1256 -0.1833  0.6782
 6077SOL    HW129690   4.374   1.465   6.041 -1.8231 -0.5430  0.1024
 6077SOL    HW229691   4.416   1.443   6.178  0.1964  1.3824 -0.3912
 6078SOL     OW29692   0.483   0.568   0.633 -0.4802  0.7759 -0.2160
 6078SOL    HW129693   0.567   0.542   0.595 -0.9343 -0.6752 -0.2500
 6078SOL    HW229694   0.421   0.543   0.565 -0.2797 -1.0915  0.2775
 6079SOL     OW29695   0.804   2.396   7.807  0.5657  0.0425 -0.2683
 6079SOL    HW129696   0.835   2.393   7.898 -0.6571 -2.9919  0.0300
 6079SOL    HW229697   0.727   2.451   7.821  1.1793  0.1030  2.8961
 6080SOL     OW29698   2.265   3.319   1.838  0.0014 -0.6506 -0.4512
 6080SOL    HW129699   2.174   3.291   1.825 -0.2960 -0.7977  1.8586
 6080SOL    HW229700   2.307   3.279   1.762 -0.3146 -2.0745  0.1246
 6081SOL     OW29701   2.662   4.521   2.691 -0.5211  0.2463  0.3151
 6081SOL    HW129702   2.655   4.616   2.700  1.6632  0.5128 -0.7797
 6081SOL    HW229703   2.664   4.514   2.595 -1.9066  3.4112  0.0509
 6082SOL     OW29704   3.087   0.150  17.155  0.2310 -0.0095  0.3172
 6082SOL    HW129705   3.057   0.059  17.155  0.5465 -0.1152  1.7366
 6082SOL    HW229706   3.179   0.134  17.176 -0.0264  0.5006  1.8264
 6083SOL     OW29707   1.643   0.883   1.810 -0.6612  0.2738 -0.1123
 6083SOL    HW129708   1.640   0.951   1.878  0.2036  1.9274 -1.7503
 6083SOL    HW229709   1.626   0.927   1.727 -1.6971  1.0106  0.4814
 6084SOL     OW29710   2.238   0.742   5.765 -0.1210 -0.1073 -0.0992
 6084SOL    HW129711   2.300   0.764   5.696 -0.4826 -0.1295 -0.4282
 6084SOL    HW229712   2.262   0.805   5.833  1.0919 -1.1881  0.4684
 6085SOL     OW29713   2.511   3.782   4.164 -0.0598  0.0700 -0.3620
 6085SOL    HW129714   2.497   3.696   4.126  0.4530 -0.4691  0.6723
 6085SOL    HW229715   2.603   3.794   4.139  0.4337 -2.1755  0.3695
 6086SOL     OW29716   4.356   2.169   6.297  0.5718 -0.0458  0.0596
 6086SOL    HW129717   4.363   2.096   6.360 -1.0178 -1.3835 -1.3156
 6086SOL    HW229718   4.405   2.233   6.349  0.6621 -0.0030 -0.0804
 6087SOL     OW29719   3.912   0.050   5.804 -0.1976  0.0051  0.8782
 6087SOL    HW129720   3.931   4.715   5.879  1.2458 -3.1619 -1.8202
 6087SOL    HW229721   3.920   4.700   5.739 -1.9451 -1.1279  1.8814
 6088SOL     OW29722   2.067   1.034   1.876  0.7647  0.4691 -0.0304
 6088SOL    HW129723   2.006   0.966   1.849  1.0514  0.0549  0.3547
 6088SOL    HW229724   2.139   0.986   1.917  2.2238  0.1665 -2.9419
 6089SOL     OW29725   2.782   3.999   6.576 -0.6576 -0.1601 -0.3714
 6089SOL    HW129726   2.697   4.032   6.606  0.0681  1.0013  0.4277
 6089SOL    HW229727   2.801   3.924   6.631  1.2707  0.7636  0.2232
 6090SOL     OW29728   0.284   0.841   7.010 -0.7136 -0.4526 -0.1846
 6090SOL    HW129729   0.330   0.757   7.016 -0.7190 -0.4568 -0.2034
 6090SOL    HW229730   0.204   0.808   6.969 -2.0748 -0.0660  2.1314
 6091SOL     OW29731   4.444   3.379  10.810 -0.4604  0.2145  0.0152
 6091SOL    HW129732   4.537   3.376  10.787 -0.0103 -0.0371  1.8694
 6091SOL    HW229733   4.441   3.399  10.904  2.0764  2.3837 -0.3492
 6092SOL     OW29734   3.814   2.837   2.654  0.4318 -0.1432 -0.1452
 6092SOL    HW129735   3.741   2.887   2.691  1.4758  0.4841  1.0795
 6092SOL    HW229736   3.886   2.867   2.711  0.1906  0.3048 -0.0743
 6093SOL     OW29737   0.588   1.908   6.783 -0.3764 -0.3013  0.6259
 6093SOL    HW129738   0.560   1.978   6.842 -0.4711  0.5999 -0.4911
 6093SOL    HW229739   0.545   1.827   6.812  0.3761 -1.1816 -0.6852
 6094SOL     OW29740   1.699   1.156   1.903  0.3346 -0.4052  0.1536
 6094SOL    HW129741   1.615   1.171   1.861  0.1140  1.0045  1.0832
 6094SOL    HW229742   1.705   1.225   1.969  0.2344  0.2740 -0.5545
 6095SOL     OW29743   0.306   0.584  15.737 -0.5724 -0.2849  0.0201
 6095SOL    HW129744   0.314   0.572  15.831  3.3614 -0.3561 -0.3397
 6095SOL    HW229745   0.366   0.659  15.731 -1.4673  0.2817 -1.8237
 6096SOL     OW29746   0.254   2.886  12.274  0.4339 -0.7460  0.0567
 6096SOL    HW129747   0.346   2.910  12.268  0.2474 -0.3178 -1.0401
 6096SOL    HW229748   0.266   2.794  12.298  1.5048 -0.3597  0.9572
 6097SOL     OW29749   4.438   0.527  10.677  0.0135  0.5063  0.3340
 6097SOL    HW129750   4.398   0.441  10.665 -0.1141  0.5716  0.2916
 6097SOL    HW229751   4.433   0.568  10.591  2.4313 -0.5021 -0.2949
 6098SOL     OW29752   1.598   1.474  15.232  0.0022 -0.0901 -0.5073
 6098SOL    HW129753   1.512   1.513  15.213  0.0502  0.8075  1.1326
 6098SOL    HW229754   1.604   1.489  15.326 -0.1736  0.5537 -0.5948
 6099SOL     OW29755   0.799   0.854   7.833  0.0056  0.2881  0.0217
 6099SOL    HW129756   0.819   0.765   7.804 -0.0728  0.1074  0.5180
 6099SOL    HW229757   0.877   0.884   7.878 -1.2664  2.5299  0.7421
 6100SOL     OW29758   2.520   1.434  10.721 -0.6465 -0.1848 -0.3004
 6100SOL    HW129759   2.508   1.501  10.654  1.6372 -0.7877 -1.3288
 6100SOL    HW229760   2.456   1.369  10.689  0.5669 -0.7449 -1.6307
 6101SOL     OW29761   2.016   3.544   4.806 -0.8044  0.0095 -0.0259
 6101SOL    HW129762   2.076   3.476   4.838 -0.1144  0.8484  0.4700
 6101SOL    HW229763   1.940   3.486   4.801  0.1267 -0.8069 -4.2434
 6102SOL     OW29764   0.212   4.131   3.909 -0.3972  0.1834  0.2914
 6102SOL    HW129765   0.189   4.200   3.846  0.8645 -1.2359 -1.7218
 6102SOL    HW229766   0.157   4.057   3.882 -2.0156  2.2729 -2.1451
 6103SOL     OW29767   0.235   3.760  13.829 -0.0500  0.3333  0.0611
 6103SOL    HW129768   0.197   3.786  13.745 -1.9036  1.4057  1.2161
 6103SOL    HW229769   0.192   3.675  13.827 -0.0717  0.4063 -2.0087
 6104SOL     OW29770   0.178   4.350   3.732 -0.2354  0.3759 -0.3609
 6104SOL    HW129771   0.102   4.406   3.713 -1.0887 -0.1953  1.3409
 6104SOL    HW229772   0.218   4.365   3.647 -0.0357  2.1883  0.0536
 6105SOL     OW29773   4.509   1.528   6.299 -0.3128 -0.0291 -0.7301
 6105SOL    HW129774   4.563   1.601   6.269  0.3659 -0.7937 -1.3653
 6105SOL    HW229775   4.576   1.463   6.318 -1.3808 -0.9509 -0.1322
 6106SOL     OW29776   1.925   4.251   6.670  0.1983  0.2627  0.1256
 6106SOL    HW129777   1.983   4.323   6.693  0.3886  0.6424 -1.5401
 6106SOL    HW229778   1.973   4.179   6.710  0.4974  1.7657  2.4371
 6107SOL     OW29779   1.959   2.102   4.281 -0.2297 -0.1951 -0.0375
 6107SOL    HW129780   2.031   2.079   4.339  0.3756 -1.1823 -1.1646
 6107SOL    HW229781   1.975   2.196   4.275 -0.8321 -0.1367 -0.8057
 6108SOL     OW29782   1.489   3.389  15.757 -0.2253  0.1142  0.3894
 6108SOL    HW129783   1.569   3.372  15.708 -0.6098 -1.8521  0.4598
 6108SOL    HW229784   1.521   3.400  15.847 -3.6670 -0.5997  1.6689
 6109SOL     OW29785   2.981   0.593   3.745 -0.2194 -0.5893  0.0978
 6109SOL    HW129786   3.056   0.576   3.687 -0.9150 -1.1220 -0.6407
 6109SOL    HW229787   3.012   0.547   3.822 -1.9710 -0.8377  0.6445
 6110SOL     OW29788   2.204   0.689   8.065 -0.0708 -0.2535 -0.5530
 6110SOL    HW129789   2.270   0.694   8.134 -0.2147  0.3175 -0.4526
 6110SOL    HW229790   2.183   0.781   8.049 -1.0902 -0.6251 -1.3847
 6111SOL     OW29791   0.385   0.588   5.804 -0.9086  0.0709  0.2719
 6111SOL    HW129792   0.298   0.569   5.769 -0.7018 -0.5797  0.1119
 6111SOL    HW229793   0.385   0.683   5.794 -1.4795 -0.1162 -1.5709
 6112SOL     OW29794   0.946   0.768  10.453 -0.3875 -0.0992  0.0803
 6112SOL    HW129795   0.918   0.851  10.415 -1.3248 -1.3197 -1.9013
 6112SOL    HW229796   0.864   0.723  10.434 -1.2528  1.2815  0.5395
 6113SOL     OW29797   0.878   1.968   8.740  0.1556  0.0211  0.3186
 6113SOL    HW129798   0.894   2.028   8.813  0.3970  2.1965 -1.4945
 6113SOL    HW229799   0.965   1.930   8.726 -0.0207 -0.2971  0.0872
 6114SOL     OW29800   1.391   2.775   9.321  0.2264  0.5880  0.2156
 6114SOL    HW129801   1.440   2.710   9.371  0.3762 -0.4249 -1.2575
 6114SOL    HW229802   1.339   2.807   9.395  0.5284 -0.7354  1.0108
 6115SOL     OW29803   1.984   1.145   3.874 -0.1072  0.2821 -0.0146
 6115SOL    HW129804   1.948   1.200   3.944 -0.4341  0.2741 -0.1749
 6115SOL    HW229805   2.065   1.184   3.841 -0.6071  1.6081  0.3046
 6116SOL     OW29806   3.578   2.978   7.218 -0.0451 -0.0328  0.2622
 6116SOL    HW129807   3.527   3.059   7.222  0.2416  0.0509  2.1461
 6116SOL    HW229808   3.665   2.998   7.252 -0.1022  0.3165  0.2017
 6117SOL     OW29809   3.213   4.021   5.301 -0.0709 -0.2130 -0.5026
 6117SOL    HW129810   3.293   4.060   5.335 -1.2060  1.4901  0.1858
 6117SOL    HW229811   3.189   4.090   5.239  0.9580  1.2527  0.7409
 6118SOL     OW29812   3.234   3.608   7.256  0.1540 -0.6256 -0.3615
 6118SOL    HW129813   3.177   3.559   7.315 -0.8559  0.9373 -0.0300
 6118SOL    HW229814   3.315   3.588   7.303  0.4656  0.9872 -0.2220
 6119SOL     OW29815   0.899   3.004  16.782  0.4179 -0.0404  0.4407
 6119SOL    HW129816   0.962   3.021  16.712 -0.8315  2.3322 -0.0806
 6119SOL    HW229817   0.961   2.989  16.854  1.3290 -1.1310 -0.5673
 6120SOL     OW29818   0.039   3.632   7.138 -0.0970 -0.1889 -0.4247
 6120SOL    HW129819   0.007   3.545   7.112  1.3181 -1.1238  0.9114
 6120SOL    HW229820   0.102   3.613   7.208 -0.7720  3.2055  1.0812
 6121SOL     OW29821   2.945   3.093   9.509 -0.0221  0.2302  0.2468
 6121SOL    HW129822   2.988   3.018   9.551  0.4887 -0.5711 -1.7277
 6121SOL    HW229823   2.852   3.071   9.519 -0.1120 -0.0451 -1.1323
 6122SOL     OW29824   0.107   2.439  10.057 -0.0964  0.2871 -0.5118
 6122SOL    HW129825   0.167   2.490  10.111  1.0832 -0.7794 -0.8233
 6122SOL    HW229826   0.106   2.486   9.974 -0.2802  0.1987 -0.5595
 6123SOL     OW29827   3.798   2.686   7.218 -0.1372  0.1626  0.0213
 6123SOL    HW129828   3.791   2.716   7.308  3.6152  0.4193  0.2342
 6123SOL    HW229829   3.718   2.633   7.210  0.1319  0.0719 -2.0921
 6124SOL     OW29830   3.586   0.562  11.555  0.2110  0.3194 -0.2375
 6124SOL    HW129831   3.532   0.497  11.512  1.2040 -0.3083 -0.5425
 6124SOL    HW229832   3.578   0.536  11.647  0.0520 -0.3321 -0.4384
 6125SOL     OW29833   2.167   1.299  14.224 -0.5684 -0.4904  0.0185
 6125SOL    HW129834   2.161   1.336  14.136  0.8797  0.2423  0.2350
 6125SOL    HW229835   2.257   1.269  14.232 -0.7849 -0.9948  0.5133
 6126SOL     OW29836   4.576   0.110   5.236  0.0875 -0.0448  0.2476
 6126SOL    HW129837   4.503   0.167   5.212  0.8575  0.4892 -0.8181
 6126SOL    HW229838   4.516   0.040   5.261  1.4221 -1.8718 -1.6382
 6127SOL     OW29839   3.686   2.467   3.732 -0.2268 -0.2643  0.4546
 6127SOL    HW129840   3.636   2.541   3.767  1.5466  1.4906 -0.6992
 6127SOL    HW229841   3.712   2.421   3.812 -3.8050 -0.7529  1.3378
 6128SOL     OW29842   0.767   2.270   0.191  0.3513 -0.3500 -0.2429
 6128SOL    HW129843   0.832   2.325   0.236 -0.1780 -0.7731  1.0572
 6128SOL    HW229844   0.740   2.326   0.118 -0.7908 -0.2413  0.2653
 6129SOL     OW29845   2.216   2.237  16.867  0.1839  0.2598  0.0422
 6129SOL    HW129846   2.263   2.319  16.883  2.3173 -1.5017  2.8408
 6129SOL    HW229847   2.196   2.203  16.954 -0.1955  0.9260  0.2133
 6130SOL     OW29848   4.606   0.983  14.918 -0.1643 -0.4321  0.4647
 6130SOL    HW129849   4.517   0.985  14.952 -0.0948  0.2785  0.6108
 6130SOL    HW229850   4.653   0.935  14.986  2.5366  0.3171 -0.8600
 6131SOL     OW29851   1.272   3.255   4.828 -0.0798  0.4213  0.1128
 6131SOL    HW129852   1.307   3.181   4.778  1.3472  1.7034 -0.7685
 6131SOL    HW229853   1.200   3.216   4.877 -0.8514  0.9322 -0.6290
 6132SOL     OW29854   1.462   2.410   7.111  0.2477  0.2763 -0.2620
 6132SOL    HW129855   1.439   2.398   7.203  0.0403  0.3689 -0.3016
 6132SOL    HW229856   1.453   2.505   7.114 -0.0812  0.2285  0.2449
 6133SOL     OW29857   3.909   3.247   7.406  0.3557 -0.5029 -0.2820
 6133SOL    HW129858   3.977   3.242   7.473 -1.3634 -0.3506  1.4895
 6133SOL    HW229859   3.964   3.227   7.331  0.9244 -0.1082  0.0350
 6134SOL     OW29860   1.275   1.259   1.225 -0.2614 -0.6356  0.0987
 6134SOL    HW129861   1.181   1.267   1.238 -0.3746 -1.5056 -0.2002
 6134SOL    HW229862   1.265   1.231   1.134  1.6132 -0.7473 -0.0836
 6135SOL     OW29863   0.074   4.363   7.339 -0.2074 -0.5723 -0.0752
 6135SOL    HW129864   0.006   4.324   7.284  0.7877 -1.0285 -0.9669
 6135SOL    HW229865   0.094   4.282   7.386  1.5600 -0.4381 -0.6223
 6136SOL     OW29866   3.827   1.293  13.769 -0.0223  0.6784  0.2107
 6136SOL    HW129867   3.877   1.248  13.701 -0.1814  1.9720 -0.7554
 6136SOL    HW229868   3.749   1.318  13.721 -0.0891  1.0755  0.5282
 6137SOL     OW29869   1.581   3.301   3.858 -0.1830 -0.1283  0.4024
 6137SOL    HW129870   1.570   3.291   3.953 -0.6942 -0.0167  0.3572
 6137SOL    HW229871   1.552   3.215   3.826  1.0476  0.0783 -1.2338
 6138SOL     OW29872   4.654   4.307   0.400 -0.1936 -0.9598 -0.4413
 6138SOL    HW129873   4.611   4.371   0.458  0.4533  1.0111 -2.1218
 6138SOL    HW229874   4.627   4.338   0.314  1.1220 -0.1044 -0.5455
 6139SOL     OW29875   1.052   1.820   9.356 -0.3544 -0.6753  0.2916
 6139SOL    HW129876   1.028   1.909   9.381  0.4502 -0.0277 -1.2178
 6139SOL    HW229877   1.029   1.776   9.438  1.7070 -0.8606  0.7816
 6140SOL     OW29878   0.731   0.414   2.805 -0.4515 -0.0564  0.0537
 6140SOL    HW129879   0.708   0.406   2.898 -0.4587 -0.0569  0.0518
 6140SOL    HW229880   0.718   0.509   2.803  1.0488  0.1502  0.5433
 6141SOL     OW29881   0.002   4.056   2.774 -0.4913 -0.4576 -0.3475
 6141SOL    HW129882   4.663   4.130   2.761  1.2845  0.8771 -0.7879
 6141SOL    HW229883   0.088   4.098   2.772  0.3358 -2.0707  1.1887
 6142SOL     OW29884   2.489   2.142   0.432  0.2503  0.2434  0.4641
 6142SOL    HW129885   2.578   2.125   0.401  0.7390 -0.2093  2.1250
 6142SOL    HW229886   2.451   2.183   0.354 -0.2206  0.2337  0.6873
 6143SOL     OW29887   1.549   1.098   5.396 -0.0441 -0.0710  0.2779
 6143SOL    HW129888   1.470   1.045   5.397 -0.7559  1.0207  1.1427
 6143SOL    HW229889   1.518   1.164   5.458 -1.1615 -0.0948 -0.2665
 6144SOL     OW29890   4.448   1.917  11.333  0.4163  0.4090  0.3174
 6144SOL    HW129891   4.519   1.899  11.270  0.3352 -0.0019  0.3464
 6144SOL    HW229892   4.410   2.001  11.308 -1.9051 -0.5380  0.6949
 6145SOL     OW29893   3.542   0.465   7.000  0.1144  0.1566 -0.4469
 6145SOL    HW129894   3.447   0.466   6.987  0.2301  0.3129 -1.2716
 6145SOL    HW229895   3.564   0.526   7.070 -0.9557  1.5542 -1.3445
 6146SOL     OW29896   4.243   2.442  13.835 -0.2047 -0.2327  0.0295
 6146SOL    HW129897   4.270   2.389  13.760 -0.2158  0.6041 -0.5571
 6146SOL    HW229898   4.274   2.529  13.810 -0.3227 -0.0691  0.4409
 6147SOL     OW29899   4.025   3.689   6.351  0.8037  0.1027  0.0508
 6147SOL    HW129900   3.986   3.703   6.265  1.1255 -1.4003 -0.3317
 6147SOL    HW229901   4.030   3.780   6.380  0.5570  0.4697 -1.0800
 6148SOL     OW29902   1.834   0.101   6.785  0.2474 -0.4720  0.2711
 6148SOL    HW129903   1.853   0.176   6.842  0.8221 -0.6598  0.3230
 6148SOL    HW229904   1.841   0.154   6.705  0.7726 -1.3186 -0.2418
 6149SOL     OW29905   2.557   0.504   8.311  0.1228 -0.0294 -0.2563
 6149SOL    HW129906   2.524   0.419   8.281  0.5086  0.2375 -1.4423
 6149SOL    HW229907   2.609   0.538   8.238  0.4104 -0.3453 -0.1984
 6150SOL     OW29908   1.733   4.649  15.339  0.1200 -0.5846 -0.1916
 6150SOL    HW129909   1.667   4.598  15.291  2.1277  0.4138 -4.0252
 6150SOL    HW229910   1.732   4.604  15.423 -4.3782 -2.2978 -1.1762
 6151SOL     OW29911   4.353   4.633  13.904 -0.3957  0.6210 -0.2806
 6151SOL    HW129912   4.387   4.705  13.851  1.2883  1.3180  1.7409
 6151SOL    HW229913   4.299   4.682  13.965  0.2382  0.0297  0.7566
 6152SOL     OW29914   0.556   4.501   1.177  0.6281  0.0925 -0.3148
 6152SOL    HW129915   0.605   4.543   1.248 -3.5782  1.2055  1.9439
 6152SOL    HW229916   0.534   4.574   1.119  0.1601  0.0926 -0.1327
 6153SOL     OW29917   4.063   1.805  10.422 -0.3152 -0.2634 -0.1705
 6153SOL    HW129918   3.999   1.875  10.408  1.1909  1.1482  0.0578
 6153SOL    HW229919   4.010   1.726  10.409 -1.5783  0.5798 -0.1849
 6154SOL     OW29920   3.561   2.050   2.328 -0.1240 -0.0869 -0.0797
 6154SOL    HW129921   3.528   2.137   2.350  0.4371 -1.0687  4.7204
 6154SOL    HW229922   3.563   2.057   2.232 -0.3222  3.4980  0.1838
 6155SOL     OW29923   0.658   0.559   1.880 -0.0485  0.7097 -0.2415
 6155SOL    HW129924   0.620   0.647   1.887 -3.1383 -0.5936 -0.9438
 6155SOL    HW229925   0.751   0.580   1.870  0.3218 -0.0272  1.7949
 6156SOL     OW29926   0.103   2.653  14.075  0.4332  0.6095 -0.0181
 6156SOL    HW129927   0.053   2.584  14.032 -0.8423  0.9619  0.8739
 6156SOL    HW229928   0.058   2.727  14.034  0.3573  0.6850  0.2001
 6157SOL     OW29929   1.258   1.164   9.942  0.0832 -0.1314  0.2648
 6157SOL    HW129930   1.221   1.187   9.857 -1.0650  1.4391  1.1865
 6157SOL    HW229931   1.328   1.227   9.960 -2.4347  2.1220  1.9497
 6158SOL     OW29932   2.013   2.498   3.688  0.0394  0.2411 -0.1464
 6158SOL    HW129933   1.933   2.469   3.733 -0.7819 -1.6731 -2.8514
 6158SOL    HW229934   2.000   2.459   3.602 -1.2049 -0.3762  0.3171
 6159SOL     OW29935   4.249   2.625   8.932  0.1438  0.3088 -0.4152
 6159SOL    HW129936   4.330   2.624   8.881  1.1071 -0.3232  1.1211
 6159SOL    HW229937   4.216   2.538   8.911  0.2952  0.4441 -1.2084
 6160SOL     OW29938   2.648   1.840  15.965 -0.0442  0.5012 -0.4687
 6160SOL    HW129939   2.618   1.823  16.054 -1.0745 -3.7947 -1.6331
 6160SOL    HW229940   2.648   1.936  15.963  0.1630  0.5069 -0.0795
 6161SOL     OW29941   1.747   3.548   8.746 -0.2654  0.3361 -0.2134
 6161SOL    HW129942   1.781   3.588   8.666 -1.5043  0.0839 -0.8637
 6161SOL    HW229943   1.659   3.585   8.752  0.2137  1.2973  0.8663
 6162SOL     OW29944   0.851   2.605  14.336 -0.1327  0.2284  0.1241
 6162SOL    HW129945   0.819   2.684  14.380 -0.1071 -0.4548  1.3552
 6162SOL    HW229946   0.805   2.613  14.252 -1.4892 -0.0671  0.8502
 6163SOL     OW29947   0.543   1.054   0.481  0.1278  0.2348 -0.2638
 6163SOL    HW129948   0.596   1.133   0.480 -1.7047  1.4926  1.5784
 6163SOL    HW229949   0.508   1.049   0.392 -2.6300  0.0230  0.8037
 6164SOL     OW29950   4.534   0.446   2.872  0.1521 -0.2190  0.4534
 6164SOL    HW129951   4.445   0.416   2.853 -0.5826  3.0840 -1.3024
 6164SOL    HW229952   4.558   0.387   2.944 -0.4733  0.0926  0.9160
 6165SOL     OW29953   2.053   4.060  10.528  0.3420  0.1622 -0.5307
 6165SOL    HW129954   2.073   3.988  10.589 -0.6032  2.5234  2.5811
 6165SOL    HW229955   2.088   4.020  10.449  0.7727 -0.5879  0.0295
 6166SOL     OW29956   3.110   2.405   6.700 -0.0476  0.0553  0.3604
 6166SOL    HW129957   3.123   2.310   6.692 -3.4075 -0.4797  1.0380
 6166SOL    HW229958   3.201   2.432   6.706 -0.0260 -0.2985  1.7523
 6167SOL     OW29959   0.412   2.682   3.329 -0.1376  0.0012  0.2830
 6167SOL    HW129960   0.389   2.602   3.281  4.1692 -0.6848 -0.6549
 6167SOL    HW229961   0.409   2.656   3.421 -0.6227 -3.3992 -0.6884
 6168SOL     OW29962   2.176   0.705   2.502  0.0928  0.1237 -0.2773
 6168SOL    HW129963   2.106   0.756   2.543  1.8188  2.8686 -0.7459
 6168SOL    HW229964   2.253   0.730   2.553 -0.0934  0.1228  0.0092
 6169SOL     OW29965   2.316   3.984  13.922 -0.6365 -0.0781 -0.1875
 6169SOL    HW129966   2.294   4.066  13.965  3.4331  0.8580  0.0432
 6169SOL    HW229967   2.410   3.995  13.907 -0.1262  1.3926  4.2215
 6170SOL     OW29968   0.637   2.814   2.037 -0.1934  0.4653  0.2936
 6170SOL    HW129969   0.588   2.732   2.044  0.4145  0.2354  1.8229
 6170SOL    HW229970   0.652   2.814   1.943 -2.3142  0.1195 -0.0452
 6171SOL     OW29971   3.087   1.422   0.373  0.1396 -0.7779  0.3003
 6171SOL    HW129972   3.108   1.463   0.290  3.6441 -1.5900  0.7876
 6171SOL    HW229973   3.042   1.342   0.345  1.5525 -1.4784  0.0117
 6172SOL     OW29974   3.891   3.182   6.656  0.3381  0.2560 -0.2590
 6172SOL    HW129975   3.828   3.197   6.727  0.6408 -0.4373  0.1546
 6172SOL    HW229976   3.973   3.160   6.701  1.2478  0.0044 -2.0545
 6173SOL     OW29977   3.587   3.247   2.892 -0.0604 -0.2534  0.3800
 6173SOL    HW129978   3.545   3.269   2.809 -1.0011  1.6278  1.3656
 6173SOL    HW229979   3.637   3.172   2.858  0.4563  0.2441  0.0558
 6174SOL     OW29980   0.580   1.964   7.259  0.1786  0.1923  0.2469
 6174SOL    HW129981   0.627   1.965   7.342  1.2514  0.6321 -0.3593
 6174SOL    HW229982   0.544   2.053   7.260  0.4263  0.2751  1.1244
 6175SOL     OW29983   2.149   3.346   1.080 -0.0442 -0.5192  0.4947
 6175SOL    HW129984   2.124   3.375   0.993  0.8132  0.6894  0.6587
 6175SOL    HW229985   2.216   3.408   1.109 -1.3333  0.4436  1.4118
 6176SOL     OW29986   1.586   2.313  10.072 -0.6250  0.0203 -0.4718
 6176SOL    HW129987   1.605   2.234  10.020  0.1537 -0.2458  0.2177
 6176SOL    HW229988   1.604   2.368   9.996  1.4887  1.0512  0.7603
 6177SOL     OW29989   1.702   3.826   0.381 -0.0900 -0.2748 -1.4286
 6177SOL    HW129990   1.721   3.864   0.467 -0.7710  2.1277 -2.3315
 6177SOL    HW229991   1.769   3.758   0.377 -2.1222 -2.3957  0.7869
 6178SOL     OW29992   1.151   2.245   2.462 -0.5875 -1.0781 -0.3044
 6178SOL    HW129993   1.231   2.280   2.501 -1.1272 -1.7189  1.3363
 6178SOL    HW229994   1.138   2.315   2.397 -1.4125 -1.5252 -0.6110
 6179SOL     OW29995   3.765   3.952   4.761  0.5088 -0.2340  0.3913
 6179SOL    HW129996   3.817   3.925   4.836 -1.6473 -1.1762  1.5528
 6179SOL    HW229997   3.779   3.898   4.683  1.1978  0.0545  0.3147
 6180SOL     OW29998   2.878   2.556  13.848 -0.2266 -0.0328 -0.0840
 6180SOL    HW129999   2.834   2.589  13.927  0.8366  1.4228 -0.1012
 6180SOL    HW230000   2.829   2.476  13.829 -0.2453 -0.3382  1.2711
 6181SOL     OW30001   3.365   3.348   4.429  0.0315  0.4336  0.0301
 6181SOL    HW130002   3.398   3.322   4.515 -1.4481  0.9313  0.7345
 6181SOL    HW230003   3.448   3.380   4.394  0.9505 -3.8432 -1.7218
 6182SOL     OW30004   3.294   0.299   9.457  0.4780  0.2001  0.3633
 6182SOL    HW130005   3.244   0.218   9.462 -1.1100  1.1739  0.2953
 6182SOL    HW230006   3.316   0.313   9.549  0.6814 -0.0741  0.3546
 6183SOL     OW30007   1.186   0.149   9.618  0.5352  0.2360 -0.7947
 6183SOL    HW130008   1.261   0.095   9.594  1.5848  1.1501  0.4141
 6183SOL    HW230009   1.117   0.084   9.631 -0.5692  1.7349  0.8116
 6184SOL     OW30010   3.681   2.147   0.368  0.5684 -0.3457  0.2470
 6184SOL    HW130011   3.775   2.133   0.383  0.6729 -0.1737 -0.2781
 6184SOL    HW230012   3.662   2.112   0.282  0.7429  1.4058 -0.5091
 6185SOL     OW30013   2.358   3.967   7.223 -0.2264  0.5911 -0.3909
 6185SOL    HW130014   2.275   3.994   7.184  0.5992  1.8731 -1.2538
 6185SOL    HW230015   2.387   3.906   7.156 -0.2436  0.3103 -0.1419
 6186SOL     OW30016   3.463   3.073  10.557 -0.3861 -0.3163  0.0394
 6186SOL    HW130017   3.385   3.091  10.505 -0.4597 -0.6411  0.0352
 6186SOL    HW230018   3.429   3.077  10.647 -2.2234  0.2429 -0.6755
 6187SOL     OW30019   2.211   3.006  11.502 -0.0345  0.4231 -0.2646
 6187SOL    HW130020   2.212   2.984  11.595 -2.6535 -1.8923 -0.7602
 6187SOL    HW230021   2.245   2.928  11.459  0.8279  0.9957 -0.5990
 6188SOL     OW30022   0.842   3.988   4.715 -0.0111 -0.4298  0.4944
 6188SOL    HW130023   0.914   3.970   4.776 -0.6082 -1.7780  0.7916
 6188SOL    HW230024   0.874   3.982   4.625  0.5889 -1.4670  0.7689
 6189SOL     OW30025   3.767   1.855   5.976 -0.0373  0.0194 -0.2182
 6189SOL    HW130026   3.728   1.878   6.060  0.2125  1.4035 -0.4918
 6189SOL    HW230027   3.704   1.894   5.915 -1.0856 -0.8643  0.2969
 6190SOL     OW30028   1.445   0.336   7.405 -0.0336 -0.0098  0.6875
 6190SOL    HW130029   1.464   0.246   7.379  0.4759 -0.1012  1.3878
 6190SOL    HW230030   1.350   0.333   7.394  0.3248  1.0710 -2.7408
 6191SOL     OW30031   1.987   0.979   0.584 -0.3026  0.5594 -0.1727
 6191SOL    HW130032   2.054   1.047   0.581  0.6367 -0.3453  0.1962
 6191SOL    HW230033   1.947   0.986   0.497 -1.7487  0.5180  0.4879
 6192SOL     OW30034   3.054   3.295   2.054  0.1710 -0.2906 -0.1473
 6192SOL    HW130035   3.109   3.218   2.041  1.0474  0.4867 -1.0771
 6192SOL    HW230036   3.084   3.356   1.987  1.0906 -2.9632 -2.1528
 6193SOL     OW30037   2.319   4.284   5.449 -0.3707 -0.1371  0.4333
 6193SOL    HW130038   2.267   4.234   5.512  2.0338 -0.0217  2.5333
 6193SOL    HW230039   2.266   4.279   5.370 -1.6819 -0.1890  1.3236
 6194SOL     OW30040   2.571   1.572   0.330  0.4020 -0.2611  0.3516
 6194SOL    HW130041   2.554   1.641   0.265  2.0082  0.3456  0.5801
 6194SOL    HW230042   2.663   1.584   0.356  0.2265  3.4484 -0.6743
 6195SOL     OW30043   0.839   2.289   5.014 -0.3180 -0.1295 -0.8501
 6195SOL    HW130044   0.783   2.212   5.006 -0.8946  0.2429 -0.3864
 6195SOL    HW230045   0.795   2.362   4.973 -3.4666 -0.0712  2.6055
 6196SOL     OW30046   1.179   2.220   7.976  0.2135  0.0179 -0.1150
 6196SOL    HW130047   1.228   2.205   8.057 -1.0244 -0.9799  0.4586
 6196SOL    HW230048   1.233   2.285   7.931  0.9867 -0.8453 -0.4372
 6197SOL     OW30049   0.182   2.976   9.108 -0.2247  0.1914  0.4047
 6197SOL    HW130050   0.250   3.041   9.088 -0.3540  0.5355  1.1129
 6197SOL    HW230051   0.239   2.900   9.121 -0.3414  0.1813  0.8281
 6198SOL     OW30052   0.228   3.102   0.790 -0.1857 -0.0881  0.5270
 6198SOL    HW130053   0.247   3.108   0.696 -0.9191 -0.9122  0.3266
 6198SOL    HW230054   0.308   3.138   0.828  1.8412 -0.5197 -3.3222
 6199SOL     OW30055   1.080   2.262   5.181 -0.2609 -0.2837 -0.1314
 6199SOL    HW130056   1.078   2.170   5.207  0.5090 -1.0919 -2.9977
 6199SOL    HW230057   1.000   2.270   5.128 -0.0404  0.4857 -0.3380
 6200SOL     OW30058   2.494   0.517   7.798  0.6397 -0.5118  0.1873
 6200SOL    HW130059   2.564   0.516   7.732  1.0009 -1.5830  0.5775
 6200SOL    HW230060   2.521   0.434   7.838 -0.5481 -0.0888  1.8515
 6201SOL     OW30061   3.924   0.375   1.879 -0.3242 -0.1316 -0.0961
 6201SOL    HW130062   3.829   0.364   1.868 -0.5069  1.5163 -0.1526
 6201SOL    HW230063   3.937   0.377   1.973 -1.2825 -1.0152  0.0535
 6202SOL     OW30064   0.914   1.593  15.062  0.2480  0.0966  0.1037
 6202SOL    HW130065   0.847   1.527  15.046 -0.2510  1.0852 -1.8810
 6202SOL    HW230066   0.905   1.599  15.157  0.4181  2.0828  0.0043
 6203SOL     OW30067   2.110   1.016  15.033  0.5256  0.0919 -0.1061
 6203SOL    HW130068   2.114   1.110  15.051 -1.9706  0.4944 -1.6592
 6203SOL    HW230069   2.023   1.007  14.994  1.2049  1.2270 -1.8557
 6204SOL     OW30070   3.723   0.581   8.909  0.3626  0.0675 -0.5159
 6204SOL    HW130071   3.785   0.622   8.968 -0.3441 -0.4209  0.5538
 6204SOL    HW230072   3.655   0.647   8.898 -1.8697 -2.2019 -0.4854
 6205SOL     OW30073   4.307   3.817  15.005  0.6431 -0.4262  0.5764
 6205SOL    HW130074   4.270   3.775  15.083  0.2295  0.6756  0.9732
 6205SOL    HW230075   4.239   3.883  14.995  1.6620  0.0976 -2.7190
 6206SOL     OW30076   1.470   3.846   7.090  0.0322  0.2512 -0.3002
 6206SOL    HW130077   1.520   3.926   7.097 -2.2161  1.4670  1.7076
 6206SOL    HW230078   1.474   3.819   7.182 -0.2835 -1.5371 -0.7960
 6207SOL     OW30079   3.154   3.766   4.886  0.4718 -0.0682 -0.1269
 6207SOL    HW130080   3.110   3.808   4.960 -0.0105  0.2212 -0.5778
 6207SOL    HW230081   3.244   3.798   4.897  0.1572 -0.0692  2.3337
 6208SOL     OW30082   2.835   2.989   2.258  0.0868 -0.2556  0.0484
 6208SOL    HW130083   2.794   2.936   2.189 -4.1565  0.7639  1.7546
 6208SOL    HW230084   2.759   3.002   2.316 -0.6429  2.7585 -1.5773
 6209SOL     OW30085   1.074   1.868   3.622 -0.0237 -0.4979 -0.0955
 6209SOL    HW130086   1.112   1.863   3.710 -0.0611  1.3395  0.0218
 6209SOL    HW230087   0.998   1.926   3.632 -0.6399 -1.5153  1.1712
 6210SOL     OW30088   2.192   0.522   1.461 -0.7798  0.6055 -0.2951
 6210SOL    HW130089   2.169   0.431   1.481  0.7978  0.3228  0.2177
 6210SOL    HW230090   2.134   0.534   1.386 -0.7473  1.0796 -0.2462
 6211SOL     OW30091   2.493   2.427   6.913 -0.2471 -0.3279  0.2038
 6211SOL    HW130092   2.410   2.380   6.922  0.2194 -1.0700  0.5978
 6211SOL    HW230093   2.530   2.399   6.997  1.5567 -0.0968 -0.5176
 6212SOL     OW30094   2.522   0.628   2.630 -0.0958 -0.0167  0.5746
 6212SOL    HW130095   2.607   0.672   2.634 -0.8362  1.4655 -0.3251
 6212SOL    HW230096   2.468   0.703   2.609  1.8541  1.5682  1.1685
 6213SOL     OW30097   0.773   3.958  13.897 -0.5770  0.2958 -0.0434
 6213SOL    HW130098   0.788   4.001  13.813  2.5350 -1.9076 -0.6118
 6213SOL    HW230099   0.731   4.029  13.945  0.5992  3.0884 -3.1449
 6214SOL     OW30100   2.845   4.187   5.681 -0.2814  0.3148  0.9800
 6214SOL    HW130101   2.935   4.166   5.654 -0.9635 -2.4784  0.8855
 6214SOL    HW230102   2.834   4.112   5.739  2.2003 -1.5239 -0.8695
 6215SOL     OW30103   0.524   3.858  11.514  0.3527 -0.0850 -0.2206
 6215SOL    HW130104   0.618   3.872  11.500  0.6766 -1.5582  0.4753
 6215SOL    HW230105   0.503   3.951  11.525  0.5954  0.0939 -1.3471
 6216SOL     OW30106   0.334   1.569   9.320  0.2139  0.3875  0.0765
 6216SOL    HW130107   0.299   1.578   9.409 -0.7054 -0.3609 -0.2063
 6216SOL    HW230108   0.430   1.576   9.323  0.3994 -1.7645 -0.7773
 6217SOL     OW30109   2.152   3.081   7.027 -0.0509 -0.0347  0.7765
 6217SOL    HW130110   2.090   3.067   7.099 -0.5622  0.3472  0.4121
 6217SOL    HW230111   2.217   3.015   7.051  1.3935  0.2332 -2.2878
 6218SOL     OW30112   0.003   3.112   6.650 -0.0573  0.0654 -0.2320
 6218SOL    HW130113   4.706   3.100   6.557 -1.2307 -0.8417  0.1052
 6218SOL    HW230114   4.655   3.054   6.683  0.7580 -0.2624  0.8977
 6219SOL     OW30115   4.086   0.358   5.045 -0.2591  0.1008  0.2504
 6219SOL    HW130116   4.044   0.409   5.114 -1.5041 -1.4339  0.6415
 6219SOL    HW230117   4.048   0.272   5.063 -0.8995  0.1423 -0.8918
 6220SOL     OW30118   4.678   3.756  15.527  0.2652 -0.1873 -0.0641
 6220SOL    HW130119   4.586   3.732  15.538  0.1907  0.2368  0.2227
 6220SOL    HW230120   4.689   3.724  15.437 -0.5688 -0.2621 -0.1396
 6221SOL     OW30121   0.472   4.176   6.956 -0.0697  0.1093 -0.5180
 6221SOL    HW130122   0.477   4.093   6.908  1.2581  1.0339 -1.9914
 6221SOL    HW230123   0.559   4.174   6.995 -0.2463 -1.8444 -0.2662
 6222SOL     OW30124   2.704   1.954   7.703 -0.2808  0.8079 -0.1017
 6222SOL    HW130125   2.630   1.978   7.758 -0.0315 -0.3081  0.7364
 6222SOL    HW230126   2.774   1.955   7.768 -1.7600 -0.9458  1.5162
 6223SOL     OW30127   4.151   3.282  16.805  0.3795 -0.6733 -0.1722
 6223SOL    HW130128   4.162   3.370  16.840 -1.5326 -0.4764 -0.0494
 6223SOL    HW230129   4.152   3.299  16.711 -3.2247 -0.2007 -0.1330
 6224SOL     OW30130   3.215   2.213   4.594  0.5371 -0.2730  0.2650
 6224SOL    HW130131   3.166   2.281   4.641  0.2347  1.2775 -2.2519
 6224SOL    HW230132   3.194   2.132   4.639  1.3429 -1.5710 -1.7057
 6225SOL     OW30133   3.786   0.281   6.231  0.4036  0.2582 -0.6774
 6225SOL    HW130134   3.809   0.279   6.324  0.1845  1.4361 -0.6059
 6225SOL    HW230135   3.770   0.189   6.210  1.0542 -0.0983  0.3898
 6226SOL     OW30136   1.106   0.264   2.008 -0.0431 -0.4110 -0.0974
 6226SOL    HW130137   1.059   0.287   1.928 -0.1772 -2.3401 -0.5568
 6226SOL    HW230138   1.039   0.284   2.073  1.0465 -0.2889  0.9902
 6227SOL     OW30139   3.236   1.860  14.317 -0.6775  0.5531  0.2923
 6227SOL    HW130140   3.234   1.893  14.227  2.6854 -1.0675 -0.4009
 6227SOL    HW230141   3.327   1.831  14.318 -0.8884 -0.0798  1.3611
 6228SOL     OW30142   3.746   0.147  13.764  0.3459 -0.3846 -0.2972
 6228SOL    HW130143   3.840   0.131  13.754 -0.5707 -5.3902 -0.7703
 6228SOL    HW230144   3.760   0.240  13.780 -0.1218 -0.1300 -1.4181
 6229SOL     OW30145   0.951   1.237   5.765 -0.2012  0.2774  0.0079
 6229SOL    HW130146   0.907   1.246   5.680  0.4115 -4.6349 -0.8503
 6229SOL    HW230147   1.020   1.171   5.761 -1.7998 -1.3469 -1.2530
 6230SOL     OW30148   0.765   3.301   6.993 -0.3447  0.1610  0.2716
 6230SOL    HW130149   0.797   3.246   7.064 -0.6880  0.5763  0.7444
 6230SOL    HW230150   0.701   3.243   6.953  0.5780 -1.0274  0.5246
 6231SOL     OW30151   4.478   2.463   9.697 -0.7083  0.1588  0.1753
 6231SOL    HW130152   4.550   2.510   9.655 -0.6947 -1.0815 -1.2016
 6231SOL    HW230153   4.473   2.374   9.660 -0.0971  0.3610 -0.3993
 6232SOL     OW30154   2.712   3.042   7.858  0.3172  0.2516  0.1928
 6232SOL    HW130155   2.691   3.048   7.952 -0.5427 -1.3150  0.0882
 6232SOL    HW230156   2.644   3.087   7.809  0.8129 -0.4935 -1.1807
 6233SOL     OW30157   3.362   0.398   5.937 -0.4880  0.2730  0.7444
 6233SOL    HW130158   3.381   0.457   6.010  2.9650 -0.9065  0.8185
 6233SOL    HW230159   3.377   0.311   5.975 -1.2189 -1.1956 -2.3638
 6234SOL     OW30160   3.326   0.102  13.718  0.6752 -0.3876  0.1593
 6234SOL    HW130161   3.401   0.067  13.766 -0.4932 -0.4473  1.9578
 6234SOL    HW230162   3.352   0.192  13.701 -1.0792 -0.2799 -1.9291
 6235SOL     OW30163   1.217   1.755   3.404  0.0085  0.2744  0.2497
 6235SOL    HW130164   1.161   1.782   3.476 -0.8299  0.0033 -0.3028
 6235SOL    HW230165   1.237   1.663   3.422  1.0296  0.6289  0.9404
 6236SOL     OW30166   3.036   1.423   0.033 -0.1546  0.1055  0.3344
 6236SOL    HW130167   3.105   1.489   0.044  0.7667 -1.3245  3.3032
 6236SOL    HW230168   2.952   1.451   0.071  0.3489  1.7137  0.2261
 6237SOL     OW30169   1.028   2.528   1.555 -0.3252  1.1243 -0.3407
 6237SOL    HW130170   1.069   2.603   1.512 -1.2091 -0.1018 -3.3307
 6237SOL    HW230171   1.037   2.562   1.644  0.6768  0.6935 -0.2764
 6238SOL     OW30172   3.131   4.435  15.362  0.6585  0.4129 -0.0955
 6238SOL    HW130173   3.196   4.437  15.292  1.2400 -0.1781  0.4299
 6238SOL    HW230174   3.058   4.406  15.307  2.6088 -3.9429 -0.3726
 6239SOL     OW30175   3.885   3.917  15.089 -0.7502  0.3983 -0.3804
 6239SOL    HW130176   3.922   3.975  15.022 -0.3298  0.3518 -0.1882
 6239SOL    HW230177   3.937   3.927  15.168  0.0153  0.8866 -0.9426
 6240SOL     OW30178   1.290   3.155  15.439  0.5452 -0.2055  0.6029
 6240SOL    HW130179   1.289   3.248  15.464  0.0278 -0.1389  0.3204
 6240SOL    HW230180   1.378   3.126  15.464  1.5547  2.0415 -0.3106
 6241SOL     OW30181   1.156   3.749   4.718 -0.3282 -0.2855  0.9819
 6241SOL    HW130182   1.119   3.663   4.696 -0.2720  0.3850 -1.6853
 6241SOL    HW230183   1.227   3.750   4.654 -3.0704 -0.0402 -2.0740
 6242SOL     OW30184   0.002   0.175   8.372 -0.2335 -0.1450 -0.3225
 6242SOL    HW130185   4.685   0.087   8.385 -0.4684 -0.0602 -0.4042
 6242SOL    HW230186   0.084   0.167   8.419  0.2632  1.3878 -0.9150
 6243SOL     OW30187   2.098   1.794   3.636 -0.2319  0.1229 -0.0477
 6243SOL    HW130188   2.044   1.866   3.604  0.6877  0.0706 -1.6964
 6243SOL    HW230189   2.133   1.768   3.551 -1.6586  1.7126 -1.1133
 6244SOL     OW30190   2.308   3.516  17.551 -0.3411 -0.0838  0.5560
 6244SOL    HW130191   2.343   3.585  17.494  2.0214 -0.7320  1.1962
 6244SOL    HW230192   2.215   3.530  17.537 -0.0883  0.8932 -0.1537
 6245SOL     OW30193   2.379   0.311  11.691  0.6139 -0.0695  0.1249
 6245SOL    HW130194   2.413   0.245  11.752  0.6164 -0.7799 -0.6367
 6245SOL    HW230195   2.455   0.367  11.680  1.3583 -1.7092 -3.0133
 6246SOL     OW30196   0.197   1.336   2.531  0.3316 -0.2932 -0.7475
 6246SOL    HW130197   0.283   1.302   2.504  1.9392  2.1526  1.2281
 6246SOL    HW230198   0.175   1.391   2.456 -0.7381 -1.3214 -1.1797
 6247SOL     OW30199   0.469   2.207  12.927 -0.3598 -0.6073  0.1359
 6247SOL    HW130200   0.527   2.275  12.960 -0.6392 -0.3077  0.0160
 6247SOL    HW230201   0.513   2.131  12.963 -0.6045  0.4012  2.5246
 6248SOL     OW30202   0.143   2.767   8.571  0.0895  0.2845 -0.1837
 6248SOL    HW130203   0.201   2.815   8.512 -2.3225  3.0529 -0.3299
 6248SOL    HW230204   0.127   2.682   8.529 -0.7262  0.2111  0.2803
 6249SOL     OW30205   0.101   0.991   5.656 -0.4282 -0.6272  0.6020
 6249SOL    HW130206   0.179   1.047   5.657 -0.4504 -0.5952  0.3193
 6249SOL    HW230207   0.026   1.049   5.667 -0.7031 -1.0604  1.0270
 6250SOL     OW30208   3.257   4.276  15.537  0.7216  0.1791  0.3329
 6250SOL    HW130209   3.216   4.192  15.512  2.0890 -0.2672 -0.3971
 6250SOL    HW230210   3.202   4.339  15.490  3.2945  1.6211 -0.7214
 6251SOL     OW30211   0.290   0.751   0.730  0.0347 -0.1584 -0.1424
 6251SOL    HW130212   0.346   0.687   0.686  0.8415 -0.4051  1.2528
 6251SOL    HW230213   0.302   0.713   0.817 -0.5172  0.9143  0.4050
 6252SOL     OW30214   3.554   1.570  10.942  0.3905 -0.7543 -0.2967
 6252SOL    HW130215   3.464   1.564  10.910 -0.8491  1.2049  2.7978
 6252SOL    HW230216   3.564   1.665  10.949 -0.1898 -0.6541 -0.8118
 6253SOL     OW30217   1.553   0.906   8.550 -0.2879 -0.1792 -0.5655
 6253SOL    HW130218   1.470   0.859   8.557 -0.1773 -0.5414 -1.6476
 6253SOL    HW230219   1.541   0.964   8.625 -1.3353 -2.2291  0.8710
 6254SOL     OW30220   2.080   2.359   2.415 -0.2040 -0.2907  0.6395
 6254SOL    HW130221   2.121   2.440   2.447  0.8432 -0.3836 -0.4835
 6254SOL    HW230222   2.041   2.387   2.332  0.1472  1.8555  1.1987
 6255SOL     OW30223   4.073   2.691   4.013  0.4810 -0.6223 -0.5545
 6255SOL    HW130224   3.995   2.705   3.960  0.4566  1.4675  0.0393
 6255SOL    HW230225   4.056   2.650   4.097 -0.2050  1.5960  0.3890
 6256SOL     OW30226   3.268   1.454   7.339 -0.5258 -0.3599 -0.4787
 6256SOL    HW130227   3.302   1.427   7.254  0.7614 -0.8448  0.2000
 6256SOL    HW230228   3.328   1.524   7.364  0.7087 -1.0744 -1.4613
 6257SOL     OW30229   2.249   3.103   8.778  0.1237 -0.2102 -0.2231
 6257SOL    HW130230   2.163   3.060   8.777 -1.2366  2.5260 -0.7488
 6257SOL    HW230231   2.219   3.193   8.790  3.4856  1.1103 -1.7395
 6258SOL     OW30232   0.234   1.791   3.258 -0.2423 -0.4636  0.2456
 6258SOL    HW130233   0.320   1.818   3.291 -1.5307  1.4090  2.0733
 6258SOL    HW230234   0.264   1.737   3.185  1.1593 -1.0839  1.2673
 6259SOL     OW30235   1.560   2.209   1.952  0.1726 -0.5214 -0.2674
 6259SOL    HW130236   1.480   2.259   1.936  0.9250 -0.1038 -2.7430
 6259SOL    HW230237   1.591   2.194   1.862 -0.0048 -0.4272 -0.3456
 6260SOL     OW30238   0.203   2.024  10.243 -0.9397  0.5303  0.0599
 6260SOL    HW130239   0.173   1.935  10.261  1.2202 -0.1091  0.5097
 6260SOL    HW230240   0.207   2.056  10.333  0.8063  1.5088 -0.3694
 6261SOL     OW30241   1.197   2.216   7.251 -0.3236 -0.1337 -0.3041
 6261SOL    HW130242   1.106   2.185   7.252 -0.3864  0.0307 -1.6872
 6261SOL    HW230243   1.195   2.298   7.203 -1.6469  0.8679  1.4435
 6262SOL     OW30244   0.520   0.220   0.607 -0.7334  0.6675 -0.1031
 6262SOL    HW130245   0.436   0.253   0.639  0.7389  1.5955  2.8254
 6262SOL    HW230246   0.570   0.301   0.599  0.4956 -0.0182  0.6368
 6263SOL     OW30247   4.003   1.920  16.721  0.0012 -0.1527 -0.0396
 6263SOL    HW130248   4.019   1.960  16.635  1.5739  1.5551  1.0606
 6263SOL    HW230249   4.093   1.889  16.736  0.2927  0.2859 -0.8861
 6264SOL     OW30250   4.387   2.434   9.958  0.0738 -0.1066  0.5431
 6264SOL    HW130251   4.444   2.384  10.017  2.8006  1.7532 -0.5480
 6264SOL    HW230252   4.441   2.439   9.880 -1.6481  2.4471 -0.4958
 6265SOL     OW30253   3.917   2.160  11.809 -0.0150  0.2161  0.2030
 6265SOL    HW130254   3.916   2.203  11.724  1.3670 -2.1616 -1.0318
 6265SOL    HW230255   4.009   2.150  11.836 -0.2563 -2.4426  0.0372
 6266SOL     OW30256   4.716   0.548   4.182 -0.1803  0.5524 -0.4940
 6266SOL    HW130257   4.717   0.470   4.237 -0.7286  1.5674  0.9606
 6266SOL    HW230258   0.038   0.609   4.243  2.1404 -0.0507 -1.5321
 6267SOL     OW30259   0.055   0.107  15.701 -0.0585 -0.1787 -0.0592
 6267SOL    HW130260   4.688   0.090  15.664 -0.2533 -0.6487  0.6027
 6267SOL    HW230261   0.056   0.066  15.788 -0.2956 -0.2826 -0.1059
 6268SOL     OW30262   2.901   3.973   3.900  0.2746 -0.2006  0.6265
 6268SOL    HW130263   2.985   3.937   3.927  0.9089  0.6721 -0.1859
 6268SOL    HW230264   2.912   3.966   3.805  1.5874 -0.1097  0.7729
 6269SOL     OW30265   1.095   1.612   1.762  0.9111 -0.7574  0.0231
 6269SOL    HW130266   1.118   1.670   1.689  1.2351 -1.3747 -0.3748
 6269SOL    HW230267   1.028   1.556   1.723 -1.0346  1.9527 -0.5172
 6270SOL     OW30268   2.203   0.305   3.081 -0.0055 -0.3657 -0.1247
 6270SOL    HW130269   2.295   0.332   3.074  0.0006  0.2846  2.4091
 6270SOL    HW230270   2.203   0.234   3.016  1.1523  0.5704 -1.1390
 6271SOL     OW30271   2.465   4.155  14.911 -0.2750  0.1443  0.3230
 6271SOL    HW130272   2.520   4.192  14.843 -1.1280  1.0204  0.1153
 6271SOL    HW230273   2.459   4.225  14.976  0.9951 -1.6335  2.3501
 6272SOL     OW30274   3.880   1.469   6.497 -0.1889  0.1758 -0.3324
 6272SOL    HW130275   3.874   1.520   6.579  2.7607 -1.0119  0.6447
 6272SOL    HW230276   3.950   1.407   6.517 -1.9929 -0.8850  2.6997
 6273SOL     OW30277   0.244   0.419   2.342 -1.0315  0.5737  0.0869
 6273SOL    HW130278   0.228   0.436   2.249  0.8373  0.9620 -0.1473
 6273SOL    HW230279   0.228   0.325   2.346  3.2874 -0.2380 -2.3673
 6274SOL     OW30280   2.840   2.705  13.393 -0.2380 -0.7605 -0.0374
 6274SOL    HW130281   2.830   2.776  13.457  1.0469 -0.6393  0.0343
 6274SOL    HW230282   2.799   2.745  13.317  3.0799 -1.3659 -2.1625
 6275SOL     OW30283   4.562   1.685   5.749  0.3645 -0.3246 -0.7107
 6275SOL    HW130284   4.511   1.709   5.672  1.1357  3.1994 -0.1105
 6275SOL    HW230285   4.620   1.759   5.766 -0.0585 -0.6598  2.0900
 6276SOL     OW30286   2.064   4.145   4.228  0.5739 -0.5364 -0.1811
 6276SOL    HW130287   2.143   4.199   4.225  0.2228 -0.2774 -3.9226
 6276SOL    HW230288   2.069   4.109   4.317  2.3991 -0.0492 -0.0876
 6277SOL     OW30289   3.147   2.829   8.535  0.0097 -0.2967  0.0287
 6277SOL    HW130290   3.234   2.842   8.572  0.4834  1.1447 -1.5704
 6277SOL    HW230291   3.138   2.735   8.544  0.1538 -0.4384 -1.2735
 6278SOL     OW30292   2.894   1.647   3.885  0.4312 -0.0714  0.0122
 6278SOL    HW130293   2.823   1.591   3.852  2.4353 -1.8426 -1.2557
 6278SOL    HW230294   2.883   1.720   3.825 -3.5389 -1.1657 -0.5881
 6279SOL     OW30295   2.609   4.603   1.040  0.2392  0.1833  0.4594
 6279SOL    HW130296   2.562   4.531   1.081 -2.6983  1.4134 -0.7911
 6279SOL    HW230297   2.635   4.653   1.117  1.8418  1.7361 -1.1036
 6280SOL     OW30298   1.528   3.573   0.611 -0.5332  0.1182 -0.2909
 6280SOL    HW130299   1.524   3.506   0.679 -0.9939 -0.7554 -1.1685
 6280SOL    HW230300   1.617   3.601   0.633 -0.5117 -1.4279  1.6159
 6281SOL     OW30301   0.934   2.856   8.525  0.4491  0.3922 -0.0666
 6281SOL    HW130302   0.894   2.774   8.498  1.9415 -0.0830 -0.8643
 6281SOL    HW230303   0.877   2.875   8.599 -2.4253 -0.3872 -2.1215
 6282SOL     OW30304   2.938   1.973   7.859  0.7186 -0.1514 -0.1651
 6282SOL    HW130305   2.992   1.932   7.791  1.5942  1.5482 -0.5074
 6282SOL    HW230306   3.003   2.038   7.887  0.7279 -0.0346 -0.4505
 6283SOL     OW30307   1.153   2.786   7.664  0.0025 -0.4445  0.0461
 6283SOL    HW130308   1.090   2.756   7.599  0.8150 -1.1110 -0.4374
 6283SOL    HW230309   1.126   2.743   7.745  0.3087 -1.7497 -0.5400
 6284SOL     OW30310   2.955   3.117   5.085  0.3735  0.3644  0.2707
 6284SOL    HW130311   3.030   3.149   5.035 -0.5158  1.0417 -0.6199
 6284SOL    HW230312   2.900   3.063   5.028  0.5516 -0.2920  0.7146
 6285SOL     OW30313   2.985   3.276   2.440  0.6592 -0.1227  0.2278
 6285SOL    HW130314   2.972   3.204   2.378 -0.0008 -0.4893  0.7947
 6285SOL    HW230315   3.062   3.316   2.399  2.7614 -0.6948  3.5363
 6286SOL     OW30316   2.674   3.466   5.543  0.1723  0.3980 -0.0036
 6286SOL    HW130317   2.669   3.373   5.520 -2.0364  0.8595 -1.3487
 6286SOL    HW230318   2.705   3.510   5.463  2.0663  1.8584  1.5383
 6287SOL     OW30319   3.544   1.527   6.437  0.1547 -0.5786 -0.1015
 6287SOL    HW130320   3.556   1.609   6.485 -1.8463 -0.8920  0.9437
 6287SOL    HW230321   3.612   1.541   6.372 -2.2123  1.4963 -2.1209
 6288SOL     OW30322   1.537   1.914   1.593  0.3618 -0.6966  0.4584
 6288SOL    HW130323   1.602   1.974   1.555 -0.1326  0.3448  1.2519
 6288SOL    HW230324   1.537   1.845   1.527  0.8984  0.3474 -0.6413
 6289SOL     OW30325   4.156   0.085   7.812  0.1334 -0.1001 -0.5299
 6289SOL    HW130326   4.108   0.143   7.871 -1.1684 -1.7685  0.0464
 6289SOL    HW230327   4.240   0.073   7.854 -0.8835 -0.2867  1.4249
 6290SOL     OW30328   0.220   3.389   6.139 -0.0679  0.2573  0.2853
 6290SOL    HW130329   0.258   3.393   6.227 -0.0960  0.3836  0.2909
 6290SOL    HW230330   0.234   3.477   6.105  1.6984  1.2160  3.4630
 6291SOL     OW30331   1.438   3.659   4.864 -0.6400  0.1352  0.3402
 6291SOL    HW130332   1.401   3.670   4.777  0.1713 -0.9110 -0.1376
 6291SOL    HW230333   1.532   3.660   4.847 -0.5007  0.7475  1.1494
 6292SOL     OW30334   2.615   1.015   8.647  0.0430  0.2606 -0.1039
 6292SOL    HW130335   2.540   0.957   8.660  2.0862 -2.7835 -2.0606
 6292SOL    HW230336   2.693   0.970   8.677  0.3700  1.5213  0.9710
 6293SOL     OW30337   4.684   4.238   8.584  0.4923  0.2411 -0.2352
 6293SOL    HW130338   0.016   4.296   8.640  0.4951  0.2659 -0.2635
 6293SOL    HW230339   4.622   4.212   8.652  3.0619  0.7807  2.3339
 6294SOL     OW30340   2.683   2.580   2.706  0.0257  0.0036 -0.1027
 6294SOL    HW130341   2.749   2.554   2.770  0.3675  0.7058 -0.1696
 6294SOL    HW230342   2.603   2.588   2.759 -0.0172  0.3449 -0.2212
 6295SOL     OW30343   3.468   1.039   5.752 -0.2040  0.1369 -0.1756
 6295SOL    HW130344   3.560   1.013   5.748 -0.0608  0.7233 -0.6758
 6295SOL    HW230345   3.424   0.962   5.716 -1.3591  0.4528  0.5723
 6296SOL     OW30346   0.798   2.078  14.195 -0.1990  0.2908 -0.0411
 6296SOL    HW130347   0.710   2.039  14.190  0.1077 -0.0435 -3.0446
 6296SOL    HW230348   0.780   2.171  14.183  2.8659  1.0464  1.4688
 6297SOL     OW30349   1.320   2.790   3.501  0.2235 -0.3915 -0.4980
 6297SOL    HW130350   1.228   2.793   3.477  0.3972  2.0974 -0.8500
 6297SOL    HW230351   1.355   2.862   3.447  1.2620  0.1782  0.9336
 6298SOL     OW30352   4.570   2.671   5.397 -0.4356  0.2691 -0.5677
 6298SOL    HW130353   4.619   2.589   5.394  0.7836  1.0255 -1.2622
 6298SOL    HW230354   4.640   2.735   5.384 -0.0581 -0.1268 -0.4728
 6299SOL     OW30355   1.161   2.168   3.804 -0.6323  0.3549  0.1501
 6299SOL    HW130356   1.111   2.114   3.864  0.3585  0.8454  1.4135
 6299SOL    HW230357   1.102   2.237   3.776 -0.8560  0.3038  0.4940
 6300SOL     OW30358   3.627   3.446   4.356  0.1519 -0.0845  0.0896
 6300SOL    HW130359   3.621   3.434   4.451  0.7312  0.7045  0.2246
 6300SOL    HW230360   3.706   3.500   4.352  0.1556 -0.1071 -0.1126
 6301SOL     OW30361   2.081   1.601   1.701 -0.2207 -0.0754 -0.3021
 6301SOL    HW130362   2.140   1.531   1.727  0.1014  0.5914  0.7583
 6301SOL    HW230363   2.131   1.645   1.632  0.4682 -0.6795 -0.1800
 6302SOL     OW30364   1.034   2.597   6.339  0.1810 -0.6305  0.8636
 6302SOL    HW130365   1.123   2.602   6.305 -0.6450  0.9512 -1.0468
 6302SOL    HW230366   0.982   2.626   6.264  0.5951 -1.6236  0.1809
 6303SOL     OW30367   0.757   2.730  14.920 -0.1472 -0.0696 -0.1194
 6303SOL    HW130368   0.819   2.755  14.989 -0.2252 -1.1636  0.3491
 6303SOL    HW230369   0.688   2.726  14.986 -1.0809  0.2007 -1.0764
 6304SOL     OW30370   3.067   1.428  15.835  0.3521  0.2930 -0.1691
 6304SOL    HW130371   2.990   1.378  15.809  1.4958 -1.9418  0.8331
 6304SOL    HW230372   3.121   1.412  15.758  0.1315  0.8778 -0.4498
 6305SOL     OW30373   3.780   2.580   2.641 -0.3062 -0.6131 -0.1669
 6305SOL    HW130374   3.701   2.569   2.587 -1.1906  3.8486  0.1843
 6305SOL    HW230375   3.785   2.676   2.640 -0.0469 -0.6107  1.7555
 6306SOL     OW30376   1.205   3.578   2.685 -0.3042  0.2959  1.0259
 6306SOL    HW130377   1.163   3.500   2.722  0.1722 -0.5204 -0.1917
 6306SOL    HW230378   1.230   3.554   2.596  2.8942  0.4937  1.8659
 6307SOL     OW30379   4.642   0.062   7.139  0.0843 -0.0542 -0.6318
 6307SOL    HW130380   4.561   0.090   7.182  0.3064 -1.9178  0.9941
 6307SOL    HW230381   4.618   4.699   7.098  0.5622 -1.7960  2.6131
 6308SOL     OW30382   1.170   1.521   5.810  0.2387 -0.3024  0.3551
 6308SOL    HW130383   1.111   1.585   5.770  1.7667  0.5591 -0.5076
 6308SOL    HW230384   1.118   1.483   5.881  0.1622 -1.2167 -0.1912
 6309SOL     OW30385   3.584   0.729   7.808  0.2764  0.0832 -0.4833
 6309SOL    HW130386   3.637   0.768   7.739 -0.2377 -0.4495 -1.1709
 6309SOL    HW230387   3.646   0.682   7.864 -1.1513 -2.9458 -1.4171
 6310SOL     OW30388   2.158   1.400   8.113  0.2520  0.9409 -0.0829
 6310SOL    HW130389   2.143   1.452   8.192  0.3887  0.3148  0.3565
 6310SOL    HW230390   2.253   1.397   8.106  0.2137 -1.6561  0.2209
 6311SOL     OW30391   0.952   3.346   7.945 -0.1339  0.5432  0.1098
 6311SOL    HW130392   0.887   3.415   7.954 -2.4950 -1.5457 -0.8453
 6311SOL    HW230393   0.921   3.279   8.006 -1.4069  2.2796  1.3528
 6312SOL     OW30394   1.371   3.321   3.287 -0.4710 -0.3966  0.3095
 6312SOL    HW130395   1.280   3.328   3.315 -0.4691 -1.7020  0.6468
 6312SOL    HW230396   1.411   3.391   3.339 -1.2369  0.0954  0.2258
 6313SOL     OW30397   1.417   4.322   3.898  0.2458 -0.0762  0.0464
 6313SOL    HW130398   1.508   4.306   3.874  0.0619  0.2114 -0.8232
 6313SOL    HW230399   1.393   4.239   3.938  1.7840 -1.5205 -2.0795
 6314SOL     OW30400   2.130   4.617   0.940 -0.4228  0.2896 -0.2614
 6314SOL    HW130401   2.056   4.676   0.956 -1.1915 -0.6783 -0.2033
 6314SOL    HW230402   2.097   4.571   0.863 -0.7739  0.8066 -0.4178
 6315SOL     OW30403   2.465   4.279  11.709  0.3450 -0.1007  0.3566
 6315SOL    HW130404   2.540   4.329  11.743  0.8511 -0.1584 -0.6656
 6315SOL    HW230405   2.507   4.202  11.671 -1.4847 -1.0872  0.3817
 6316SOL     OW30406   4.550   0.089   7.852  0.3759  0.2073  0.5406
 6316SOL    HW130407   4.614   0.104   7.922  1.7190  1.2383 -0.9194
 6316SOL    HW230408   4.467   0.079   7.898 -0.0668  1.4862  0.0212
 6317SOL     OW30409   3.765   1.938   3.154  0.4523  0.1720 -0.1460
 6317SOL    HW130410   3.714   1.868   3.195 -1.0440  1.6440  0.5258
 6317SOL    HW230411   3.754   2.001   3.225  0.2984  0.1728 -0.1703
 6318SOL     OW30412   0.754   3.330   5.630  0.3256  0.1594 -0.1325
 6318SOL    HW130413   0.826   3.354   5.688 -0.4597 -0.2429  1.0061
 6318SOL    HW230414   0.764   3.397   5.562  0.9415 -0.5418 -0.7397
 6319SOL     OW30415   0.810   2.091  14.847 -0.2448  0.0035  0.3146
 6319SOL    HW130416   0.806   2.022  14.913 -0.9902  0.5395  0.8278
 6319SOL    HW230417   0.737   2.145  14.879  0.5316 -0.8237  3.4393
 6320SOL     OW30418   2.010   4.233   6.262  0.0528  0.3023  0.1646
 6320SOL    HW130419   2.034   4.315   6.305 -1.2580  0.4273  0.6552
 6320SOL    HW230420   2.032   4.164   6.325 -2.1688  2.5030  3.3027
 6321SOL     OW30421   4.267   3.705   9.195  0.0399  0.5113 -0.2372
 6321SOL    HW130422   4.186   3.692   9.147  2.3622  1.4184 -4.4467
 6321SOL    HW230423   4.270   3.799   9.212 -1.1801  1.2738 -4.2243
 6322SOL     OW30424   1.020   0.707  10.174 -0.0165  0.2993  0.0242
 6322SOL    HW130425   0.991   0.753  10.095 -1.1462  0.2227  0.3863
 6322SOL    HW230426   0.954   0.638  10.184 -0.1934  0.5918  0.8554
 6323SOL     OW30427   0.210   1.931   3.997  0.0392 -0.1323  0.5482
 6323SOL    HW130428   0.144   1.920   3.928  0.8778 -1.1468 -0.0985
 6323SOL    HW230429   0.255   1.847   3.997 -1.4385 -0.9229 -1.4231
 6324SOL     OW30430   0.523   3.480   3.909 -0.6022 -0.1261  0.0391
 6324SOL    HW130431   0.441   3.485   3.958 -0.8940 -1.9269 -0.2843
 6324SOL    HW230432   0.529   3.572   3.881  0.4237 -0.1231  0.2687
 6325SOL     OW30433   2.124   2.103  12.205 -0.0373  0.1090  0.1635
 6325SOL    HW130434   2.144   2.193  12.179  1.3851  0.3027  1.9467
 6325SOL    HW230435   2.084   2.089  12.119  1.5388  1.5483 -0.8003
 6326SOL     OW30436   3.230   3.799   8.367  0.1460 -0.0781  0.4061
 6326SOL    HW130437   3.252   3.768   8.279  0.8086 -1.6576  1.1349
 6326SOL    HW230438   3.156   3.857   8.349  0.8805 -0.3069 -3.3518
 6327SOL     OW30439   0.796   0.178  17.513 -0.2574 -0.0708 -0.1769
 6327SOL    HW130440   0.802   0.084  17.531 -0.6367  0.0898  0.8087
 6327SOL    HW230441   0.803   0.212  17.602 -2.2860 -0.3422  0.0954
 6328SOL     OW30442   0.397   2.853   3.764 -0.1595  0.3226 -0.7739
 6328SOL    HW130443   0.389   2.858   3.859 -0.6226 -1.0827 -0.7386
 6328SOL    HW230444   0.388   2.944   3.736  1.3850  0.7631  0.1495
 6329SOL     OW30445   1.054   0.653  13.677 -0.1544  0.3215 -0.3284
 6329SOL    HW130446   1.054   0.742  13.711  0.2791  0.0759  0.3099
 6329SOL    HW230447   1.148   0.637  13.687 -1.0077 -2.8968  2.7218
 6330SOL     OW30448   4.299   1.900   4.896  0.1712  0.1462 -0.7220
 6330SOL    HW130449   4.367   1.848   4.853 -1.2703 -0.5720 -2.0988
 6330SOL    HW230450   4.285   1.963   4.825  0.4956 -0.1250 -1.0282
 6331SOL     OW30451   1.883   0.086   4.634  0.5845  0.4456  0.1649
 6331SOL    HW130452   1.892   4.710   4.631 -1.9922  0.1998  0.1835
 6331SOL    HW230453   1.914   0.120   4.550 -0.3125 -0.7611 -0.6498
 6332SOL     OW30454   2.353   1.829  10.339  0.0102 -0.1149  0.5414
 6332SOL    HW130455   2.399   1.898  10.386 -1.4803  0.6974  0.8166
 6332SOL    HW230456   2.274   1.822  10.393  1.0783 -4.2044  1.5541
 6333SOL     OW30457   3.045   1.418  15.543  0.6020  0.1216 -0.1665
 6333SOL    HW130458   3.067   1.327  15.523  1.8297  0.6164 -1.0302
 6333SOL    HW230459   2.950   1.417  15.531  0.5076  1.3789  0.4693
 6334SOL     OW30460   1.052   3.199   4.948  0.1363  0.2950 -0.3834
 6334SOL    HW130461   1.036   3.160   5.034 -1.0185  3.1426  0.7147
 6334SOL    HW230462   1.009   3.285   4.953 -0.1433  0.0639  1.2830
 6335SOL     OW30463   0.022   3.730  16.427  0.2174 -0.0227  0.0192
 6335SOL    HW130464   0.082   3.771  16.489 -0.4835  0.3966  0.4273
 6335SOL    HW230465   0.083   3.738  16.354 -0.5410  0.2524 -0.5883
 6336SOL     OW30466   4.027   2.323  13.988 -0.5247 -1.0718 -1.0569
 6336SOL    HW130467   4.082   2.356  13.917  0.4614  0.4976  0.4446
 6336SOL    HW230468   3.971   2.400  13.984  1.9640  0.7666 -0.1243
 6337SOL     OW30469   4.388   3.326   9.543  0.1568 -0.0605  0.5217
 6337SOL    HW130470   4.325   3.254   9.537 -1.2168  0.8474  3.6980
 6337SOL    HW230471   4.340   3.393   9.494  1.1498 -0.2557 -0.6974
 6338SOL     OW30472   2.238   1.874  13.119 -0.0257 -0.0868  0.6160
 6338SOL    HW130473   2.314   1.843  13.169  0.6189  0.7958  0.1863
 6338SOL    HW230474   2.170   1.829  13.170 -1.9135 -0.4786 -2.2944
 6339SOL     OW30475   1.732   3.921   6.018 -0.6725  0.4563 -0.6587
 6339SOL    HW130476   1.640   3.894   6.020 -0.5354  0.1139  1.2169
 6339SOL    HW230477   1.739   3.985   6.088 -2.1583 -0.7419  0.5681
 6340SOL     OW30478   4.166   2.208   2.960  0.2243 -0.0566 -0.0933
 6340SOL    HW130479   4.217   2.217   2.879 -0.9017  0.7724 -0.7073
 6340SOL    HW230480   4.198   2.271   3.024  0.6154  0.2226 -0.5674
 6341SOL     OW30481   2.690   0.808   7.676  0.2034  0.8643 -0.7860
 6341SOL    HW130482   2.711   0.716   7.662  0.3556  0.7720  0.0212
 6341SOL    HW230483   2.770   0.847   7.641 -0.2427  1.8034 -0.7622
 6342SOL     OW30484   0.642   4.655   5.092  0.0575 -0.1588 -0.0100
 6342SOL    HW130485   0.653   4.636   5.185 -1.1565  0.2538  0.2108
 6342SOL    HW230486   0.567   4.714   5.092  1.6823  1.9272  1.5668
 6343SOL     OW30487   2.391   0.305   2.424 -0.0718  0.8790 -0.8839
 6343SOL    HW130488   2.476   0.340   2.452 -0.4252  0.8086  0.2898
 6343SOL    HW230489   2.355   0.279   2.509  3.3131 -1.3417 -0.1363
 6344SOL     OW30490   3.373   1.054   2.950  0.4285 -0.3302 -0.3721
 6344SOL    HW130491   3.305   1.117   2.972 -1.0379 -1.3423 -2.0139
 6344SOL    HW230492   3.330   1.009   2.877 -1.5474  0.8904  0.0566
 6345SOL     OW30493   4.624   1.744   7.767 -0.4023  0.1432 -0.0391
 6345SOL    HW130494   4.644   1.780   7.681  0.4995  2.0153  0.9669
 6345SOL    HW230495   4.711   1.717   7.798 -1.2333 -2.8544 -0.2736
 6346SOL     OW30496   2.074   2.096   5.279  0.0842  0.0504  0.2005
 6346SOL    HW130497   2.150   2.095   5.220  0.3937  0.8804  0.5920
 6346SOL    HW230498   2.110   2.075   5.365  0.6054 -0.0713 -0.0440
 6347SOL     OW30499   3.448   4.367   5.316  0.2016 -0.3352  0.2913
 6347SOL    HW130500   3.442   4.461   5.297 -0.6051 -0.6249 -0.9170
 6347SOL    HW230501   3.373   4.334   5.266 -1.0253  1.0894  1.1698
 6348SOL     OW30502   0.257   1.167   4.976  0.4050 -0.1239 -0.0420
 6348SOL    HW130503   0.311   1.125   5.042 -2.0476 -2.8503  0.2308
 6348SOL    HW230504   0.257   1.103   4.905  1.0336 -1.1343  0.8643
 6349SOL     OW30505   2.881   0.586  17.437  0.2993  1.0024 -0.2187
 6349SOL    HW130506   2.885   0.603  17.343  0.6454  1.2942 -0.1519
 6349SOL    HW230507   2.968   0.550  17.453 -0.5041 -1.2081 -0.8004
 6350SOL     OW30508   1.026   2.939   1.919 -0.1413 -0.3722  0.1794
 6350SOL    HW130509   0.948   2.989   1.896  2.6849  2.2624 -3.4893
 6350SOL    HW230510   1.090   3.001   1.952 -0.1210 -0.2496 -0.0922
 6351SOL     OW30511   0.726   1.486   4.262 -0.4784 -0.6371  0.1417
 6351SOL    HW130512   0.640   1.472   4.222 -1.4298 -0.0046  1.9457
 6351SOL    HW230513   0.778   1.421   4.215  0.7021 -2.2246  3.6591
 6352SOL     OW30514   4.108   2.973  17.254 -0.0087 -0.2691 -0.7992
 6352SOL    HW130515   4.087   2.977  17.160  0.8018 -1.5944 -1.0496
 6352SOL    HW230516   4.203   2.987  17.244 -0.0131 -0.5247 -1.2320
 6353SOL     OW30517   1.093   0.708   2.806  0.3440  0.3123  0.6330
 6353SOL    HW130518   1.106   0.770   2.878  1.4866  0.0879  0.6285
 6353SOL    HW230519   1.152   0.742   2.738  0.7606 -1.2948  0.2086
 6354SOL     OW30520   2.033   0.351   2.609  0.2090  0.3688 -0.3780
 6354SOL    HW130521   2.026   0.389   2.521 -0.0033  1.2090  0.0062
 6354SOL    HW230522   2.127   0.359   2.624  0.3822 -2.2966 -0.0738
 6355SOL     OW30523   3.551   3.938  12.639  0.0043  0.4196 -0.3368
 6355SOL    HW130524   3.564   3.853  12.597 -0.8199  0.1072  0.0442
 6355SOL    HW230525   3.640   3.973  12.642  0.2039  0.0564 -2.2868
 6356SOL     OW30526   1.732   3.363  11.460  0.0685  0.2835  0.3366
 6356SOL    HW130527   1.784   3.283  11.473 -1.7276 -0.6250  1.9456
 6356SOL    HW230528   1.686   3.335  11.381  0.2645  1.8309 -0.3154
 6357SOL     OW30529   1.802   1.344   2.654 -0.1472  0.1243 -0.4541
 6357SOL    HW130530   1.820   1.321   2.563 -1.2898 -0.5634 -0.5016
 6357SOL    HW230531   1.877   1.402   2.667 -0.5440  0.8376 -1.3142
 6358SOL     OW30532   3.250   0.356   6.635 -0.3052  0.2225 -0.2431
 6358SOL    HW130533   3.220   0.442   6.607  3.4682  1.5430 -0.2290
 6358SOL    HW230534   3.180   0.327   6.694 -0.0233 -2.3905 -1.1975
 6359SOL     OW30535   0.819   2.141   9.686  0.4619 -0.2075  0.2281
 6359SOL    HW130536   0.842   2.211   9.746  0.3947 -0.7089  0.8314
 6359SOL    HW230537   0.765   2.095   9.750  1.6620  1.6934  2.5929
 6360SOL     OW30538   1.650   1.388   5.114  0.4088  0.2739 -0.1078
 6360SOL    HW130539   1.695   1.309   5.145  0.8177  0.4545 -0.2412
 6360SOL    HW230540   1.674   1.370   5.023 -1.0958  0.5664 -0.5699
 6361SOL     OW30541   3.322   2.503   5.253  0.3128 -0.2298  0.7082
 6361SOL    HW130542   3.270   2.450   5.193  0.2794  0.8092 -0.1805
 6361SOL    HW230543   3.277   2.588   5.251 -0.8045 -0.8117  0.6071
 6362SOL     OW30544   3.524   1.239   2.529  0.7294  0.1397  0.1637
 6362SOL    HW130545   3.591   1.270   2.590  0.7708 -0.0404  0.2113
 6362SOL    HW230546   3.507   1.322   2.485 -0.3800  0.3694  1.0142
 6363SOL     OW30547   2.201   3.663  10.157 -0.0376  0.7773 -0.0986
 6363SOL    HW130548   2.134   3.703  10.101 -2.5890 -1.6858  1.2426
 6363SOL    HW230549   2.190   3.568  10.164  1.7266  0.6633  1.0455
 6364SOL     OW30550   0.037   2.377   6.021  0.3336  0.2226  0.0283
 6364SOL    HW130551   0.024   2.285   6.044 -1.6274  0.5467  0.2218
 6364SOL    HW230552   4.689   2.378   5.954  0.9840 -0.5123 -0.6473
 6365SOL     OW30553   2.233   3.172   4.280  0.3833  0.0184 -0.0327
 6365SOL    HW130554   2.269   3.261   4.277  1.4730 -0.3368  1.9288
 6365SOL    HW230555   2.139   3.188   4.273  0.3588 -0.5343 -0.9181
 6366SOL     OW30556   3.942   3.449   0.019 -0.4214  0.3105  0.4783
 6366SOL    HW130557   3.997   3.386   0.064  2.2563  1.8084 -0.6889
 6366SOL    HW230558   3.867   3.451   0.079  0.1312  1.3714  1.1277
 6367SOL     OW30559   1.333   1.102  11.115 -0.6933 -0.4381  0.6152
 6367SOL    HW130560   1.288   1.033  11.065  0.0856 -2.1969  2.3449
 6367SOL    HW230561   1.262   1.166  11.123 -0.3157 -0.0628  0.9391
 6368SOL     OW30562   1.831   4.115   0.027  0.5914  0.4691  0.2409
 6368SOL    HW130563   1.814   4.028   0.064  0.3745  0.4531  0.1004
 6368SOL    HW230564   1.770   4.181   0.059  0.5124  1.2313 -1.4808
 6369SOL     OW30565   3.303   4.592   4.692 -0.0588 -0.1924  0.2258
 6369SOL    HW130566   3.215   4.630   4.702 -0.0301 -0.3791  1.2206
 6369SOL    HW230567   3.287   4.497   4.698  1.1192 -0.3397  0.9798
 6370SOL     OW30568   4.477   1.319  16.276 -0.7600 -0.5562 -0.2782
 6370SOL    HW130569   4.573   1.321  16.271 -0.6433  2.0251  3.1894
 6370SOL    HW230570   4.453   1.363  16.195 -0.4012 -1.7352 -1.0325
 6371SOL     OW30571   0.656   1.162  14.755  0.0413 -0.3114  0.4679
 6371SOL    HW130572   0.700   1.230  14.806 -0.4115  1.1018 -1.0017
 6371SOL    HW230573   0.684   1.084  14.803  0.1614  0.1659  1.1765
 6372SOL     OW30574   3.675   2.358  13.976  0.1828 -0.2569  0.1110
 6372SOL    HW130575   3.677   2.387  14.068 -1.0480  0.5575 -0.1199
 6372SOL    HW230576   3.762   2.381  13.945  0.2442 -0.5546  0.0658
 6373SOL     OW30577   3.700   3.248   6.176 -0.5433  0.3341  0.2538
 6373SOL    HW130578   3.727   3.208   6.259  0.2752  2.5761  1.0656
 6373SOL    HW230579   3.778   3.300   6.157  0.1338 -0.3113  1.2507
 6374SOL     OW30580   0.947   0.449   1.775 -0.5953 -0.0843 -1.2457
 6374SOL    HW130581   0.919   0.357   1.769 -0.4621 -0.1540 -0.7911
 6374SOL    HW230582   0.915   0.485   1.692 -0.2371  1.9526 -0.4960
 6375SOL     OW30583   4.256   0.346   6.970 -0.5423  0.7274 -0.0652
 6375SOL    HW130584   4.338   0.355   6.922 -0.7559 -0.3114 -0.6211
 6375SOL    HW230585   4.250   0.259   7.009 -0.6793  1.4781  1.5842
 6376SOL     OW30586   2.713   0.291   4.703 -0.0690 -0.0280 -0.3296
 6376SOL    HW130587   2.789   0.234   4.708  0.6187  0.8612 -0.7580
 6376SOL    HW230588   2.746   0.360   4.646 -1.6959 -0.0242 -1.2778
 6377SOL     OW30589   3.247   0.607   5.534 -0.0376 -0.1178  0.0577
 6377SOL    HW130590   3.312   0.646   5.477 -0.7265 -2.1658 -2.1364
 6377SOL    HW230591   3.282   0.629   5.620  1.6960 -2.6723  0.0186
 6378SOL     OW30592   1.482   4.491   7.865 -0.0328 -0.1367  0.6110
 6378SOL    HW130593   1.441   4.451   7.788 -0.9839  1.4944  0.2535
 6378SOL    HW230594   1.560   4.522   7.818 -1.7269  2.8278 -0.3025
 6379SOL     OW30595   4.188   4.061   0.295  0.7059  0.0956  0.0582
 6379SOL    HW130596   4.156   3.986   0.345 -1.0472  0.6997 -0.1647
 6379SOL    HW230597   4.283   4.048   0.300  0.8822  1.3294  0.0541
 6380SOL     OW30598   4.402   1.842   6.645  0.1646  0.2517  0.2316
 6380SOL    HW130599   4.351   1.819   6.567 -0.0494  2.2339 -0.2078
 6380SOL    HW230600   4.487   1.801   6.625 -1.1204 -2.3518  0.1408
 6381SOL     OW30601   0.068   1.641   4.105  0.6825 -0.3585  0.0605
 6381SOL    HW130602   0.159   1.620   4.127  1.2360 -0.7191 -2.6203
 6381SOL    HW230603   0.051   1.579   4.034 -1.6340  0.3103  0.0470
 6382SOL     OW30604   3.540   2.682  14.924  0.3802 -0.1623 -0.2496
 6382SOL    HW130605   3.520   2.659  14.834 -2.0916 -0.9902  0.5082
 6382SOL    HW230606   3.623   2.638  14.942  0.2317 -0.5682 -0.5736
 6383SOL     OW30607   4.265   0.844   7.431  0.6358 -0.2135  0.1334
 6383SOL    HW130608   4.343   0.897   7.417  0.7031 -0.7279 -1.4481
 6383SOL    HW230609   4.233   0.824   7.343  0.8528  0.4248 -0.0886
 6384SOL     OW30610   1.690   2.574  12.747 -0.4037  0.0913 -0.1622
 6384SOL    HW130611   1.709   2.667  12.751  0.4367 -0.0703 -0.5252
 6384SOL    HW230612   1.595   2.575  12.735 -0.4730 -0.9403  0.3060
 6385SOL     OW30613   2.652   0.465   3.435 -0.2121  0.0105 -0.3031
 6385SOL    HW130614   2.650   0.402   3.362  0.2656 -0.6176  0.2277
 6385SOL    HW230615   2.578   0.519   3.408  0.0797  0.0031 -1.1191
 6386SOL     OW30616   0.506   3.711  15.028  0.2117  0.3106 -0.2397
 6386SOL    HW130617   0.544   3.658  14.958  1.8077  1.5883 -0.3345
 6386SOL    HW230618   0.424   3.673  15.057  0.4046  0.1117  0.0498
 6387SOL     OW30619   1.677   0.808   5.290 -0.1281 -0.0453 -0.1236
 6387SOL    HW130620   1.637   0.893   5.309 -1.2153 -0.7369  0.6499
 6387SOL    HW230621   1.622   0.776   5.218  0.6623 -1.2203 -0.2083
 6388SOL     OW30622   0.169   1.732   7.765 -0.2151  0.1530  0.2433
 6388SOL    HW130623   0.212   1.767   7.687 -0.8602 -0.5588 -0.4320
 6388SOL    HW230624   0.226   1.655   7.767 -0.0724  0.2368 -0.5074
 6389SOL     OW30625   2.848   4.265   5.301  0.6905 -0.2705 -0.2872
 6389SOL    HW130626   2.870   4.202   5.232 -0.4788 -0.7056 -0.2537
 6389SOL    HW230627   2.753   4.265   5.300  0.6873 -1.1288 -0.1116
 6390SOL     OW30628   2.373   2.275   7.718  0.0257 -0.4825  0.6529
 6390SOL    HW130629   2.307   2.269   7.649  1.5292  0.4667 -0.8679
 6390SOL    HW230630   2.445   2.314   7.669 -0.5582  0.7714  0.7824
 6391SOL     OW30631   3.553   1.274   6.164 -0.1987 -0.7051 -0.2242
 6391SOL    HW130632   3.516   1.272   6.076 -0.8721 -0.0628  0.0360
 6391SOL    HW230633   3.472   1.267   6.215 -0.6477 -0.2967 -0.8708
 6392SOL     OW30634   1.085   2.980   3.096  0.0930  0.3126  0.1810
 6392SOL    HW130635   1.128   2.992   3.181 -1.7646  0.2963  1.1076
 6392SOL    HW230636   0.997   2.992   3.130  1.1602  0.6761  2.8114
 6393SOL     OW30637   1.484   2.395  14.597  0.2314  0.3900 -0.2043
 6393SOL    HW130638   1.556   2.360  14.649  0.0165  1.1139  0.5629
 6393SOL    HW230639   1.437   2.440  14.666 -2.4548 -0.0092 -1.7532
 6394SOL     OW30640   1.609   4.669   3.807  0.0357  0.6966  0.2059
 6394SOL    HW130641   1.593   0.008   3.734  0.7646 -1.8656 -2.0400
 6394SOL    HW230642   1.520   4.663   3.842  0.5054  0.5811  1.3959
 6395SOL     OW30643   0.656   1.315   7.725  0.0076 -0.2547  0.2533
 6395SOL    HW130644   0.683   1.347   7.811 -0.4242  0.1877  0.2262
 6395SOL    HW230645   0.655   1.220   7.741  2.2118 -0.0833  1.4315
 6396SOL     OW30646   1.680   1.629   3.175 -0.7138 -0.4542 -0.0933
 6396SOL    HW130647   1.629   1.580   3.239 -1.1585  0.9302  0.6057
 6396SOL    HW230648   1.626   1.708   3.174 -0.9760 -0.6290  0.3586
 6397SOL     OW30649   1.428   4.163   8.751  0.3751 -0.2058  0.1859
 6397SOL    HW130650   1.517   4.176   8.782  0.6191  0.8704 -0.9720
 6397SOL    HW230651   1.394   4.103   8.818 -1.1564  0.5275  0.0785
 6398SOL     OW30652   0.956   4.577   1.051  0.0238  0.2179 -0.2610
 6398SOL    HW130653   1.025   4.567   0.985 -0.5971 -1.8079 -0.6141
 6398SOL    HW230654   0.995   4.520   1.117 -0.2880 -0.8574 -1.0048
 6399SOL     OW30655   2.059   1.494   9.682  0.4626  0.0227 -0.5439
 6399SOL    HW130656   2.115   1.422   9.654  2.0330  1.0403  0.0105
 6399SOL    HW230657   1.997   1.497   9.609  0.2504 -0.5810 -0.3860
 6400SOL     OW30658   0.889   1.283   7.371 -0.4113  0.6205  0.3845
 6400SOL    HW130659   0.939   1.358   7.402 -0.6926  1.4765 -1.2940
 6400SOL    HW230660   0.936   1.219   7.426 -2.2083 -0.1081  1.0678
 6401SOL     OW30661   0.258   2.161   5.385  1.0742  0.4039  0.2989
 6401SOL    HW130662   0.240   2.217   5.460 -1.4869 -1.3982  1.0142
 6401SOL    HW230663   0.340   2.120   5.410  0.3258 -0.0853  1.9399
 6402SOL     OW30664   0.420   2.079   4.713  0.1500 -0.3674 -0.4439
 6402SOL    HW130665   0.404   2.102   4.622 -1.0114  1.0892  0.1380
 6402SOL    HW230666   0.329   2.082   4.744 -1.2029  0.5640 -4.5476
 6403SOL     OW30667   2.038   0.724  10.716  0.1162  0.1238  0.8659
 6403SOL    HW130668   2.005   0.734  10.805 -1.9054  1.3262 -0.0076
 6403SOL    HW230669   2.117   0.777  10.720 -0.6182  1.2977 -0.0422
 6404SOL     OW30670   1.093   2.776   3.786 -0.8395  0.0733 -0.1485
 6404SOL    HW130671   1.056   2.790   3.699  3.3369  2.0713 -1.6334
 6404SOL    HW230672   1.148   2.854   3.796 -0.4625 -0.3799  1.2715
 6405SOL     OW30673   2.237   4.486   3.670  0.0138  0.2268  0.4069
 6405SOL    HW130674   2.324   4.455   3.695 -0.1307  1.3410  2.3233
 6405SOL    HW230675   2.210   4.417   3.609  1.5934 -1.0333  1.1230
 6406SOL     OW30676   2.143   3.289  13.646  0.4097  0.3753 -0.1219
 6406SOL    HW130677   2.111   3.238  13.571 -1.8051 -0.7600  1.5978
 6406SOL    HW230678   2.236   3.276  13.628  0.9437 -0.4486  3.2922
 6407SOL     OW30679   0.899   4.431   7.143 -0.1206 -0.1037  0.1949
 6407SOL    HW130680   0.865   4.459   7.058  2.7631  0.2863 -0.8316
 6407SOL    HW230681   0.994   4.432   7.132 -0.0447 -1.0340  0.8157
 6408SOL     OW30682   0.877   2.024   4.155 -0.0691 -0.1825 -0.3056
 6408SOL    HW130683   0.892   1.947   4.100  3.4824  0.1488  0.2387
 6408SOL    HW230684   0.808   2.072   4.109 -1.1318 -2.3347 -1.0088
 6409SOL     OW30685   2.291   3.691  17.148  0.4443 -0.1317 -0.4532
 6409SOL    HW130686   2.274   3.597  17.157  0.6415 -0.2644 -1.4523
 6409SOL    HW230687   2.291   3.713  17.241 -1.4918 -0.3454 -0.4017
 6410SOL     OW30688   4.567   1.078   8.831  0.0164 -0.1366 -0.7603
 6410SOL    HW130689   4.531   1.156   8.789  2.3929  1.0998 -0.5262
 6410SOL    HW230690   4.486   1.040   8.865 -0.6737  2.1651  0.1787
 6411SOL     OW30691   2.961   0.656   5.339  0.6141  0.4074  0.6027
 6411SOL    HW130692   3.014   0.581   5.313  0.5094  0.0031  1.5526
 6411SOL    HW230693   2.916   0.620   5.415 -1.1960  1.3506 -0.0388
 6412SOL     OW30694   0.862   3.780   2.799  0.1407  0.4252 -0.5900
 6412SOL    HW130695   0.896   3.704   2.750  0.0171 -0.7888  1.2243
 6412SOL    HW230696   0.923   3.853   2.788  2.3092 -1.2014  0.7801
 6413SOL     OW30697   4.485   3.395   6.534 -0.0138 -0.3810 -0.3294
 6413SOL    HW130698   4.548   3.466   6.529  2.7408 -2.7782  0.0450
 6413SOL    HW230699   4.542   3.319   6.523  1.1701  0.4606  0.0100
 6414SOL     OW30700   0.562   1.745   7.507 -0.6218 -0.2287 -0.2940
 6414SOL    HW130701   0.555   1.732   7.413  0.0296 -0.7926 -0.2584
 6414SOL    HW230702   0.621   1.820   7.507 -0.0891 -0.6774 -2.4805
 6415SOL     OW30703   2.192   3.424  11.113 -0.0741  0.2988 -0.0297
 6415SOL    HW130704   2.184   3.423  11.018  2.4788 -2.9165 -0.2285
 6415SOL    HW230705   2.276   3.470  11.120  1.3362 -2.4999  2.0603
 6416SOL     OW30706   1.703   0.346   7.043 -0.1838 -0.3389 -0.3878
 6416SOL    HW130707   1.636   0.377   6.983 -1.3701 -0.8072  0.6794
 6416SOL    HW230708   1.710   0.414   7.111 -1.6683 -1.6471  1.0787
 6417SOL     OW30709   3.188   2.764   4.941  0.0663  0.4494 -0.2299
 6417SOL    HW130710   3.184   2.682   4.892  0.7457 -0.0546  0.5684
 6417SOL    HW230711   3.097   2.775   4.969  0.2185 -1.8895  1.0904
 6418SOL     OW30712   0.847   0.235   9.630 -0.4457  0.4112 -0.1790
 6418SOL    HW130713   0.768   0.281   9.602 -1.0681 -0.8516 -0.5055
 6418SOL    HW230714   0.814   0.204   9.715  2.5819  0.7291  1.0893
 6419SOL     OW30715   0.612   3.031   3.877  0.5497  0.2219 -0.5101
 6419SOL    HW130716   0.546   2.972   3.914 -0.2568  0.3624 -1.7294
 6419SOL    HW230717   0.587   3.113   3.918  0.9991 -0.3861  0.9881
 6420SOL     OW30718   0.007   0.463   2.691 -0.0911  0.2175  0.2920
 6420SOL    HW130719   0.070   0.467   2.763  1.0055 -0.2733 -0.6326
 6420SOL    HW230720   4.644   0.463   2.738  0.6484 -0.5259  1.5698
 6421SOL     OW30721   3.941   1.551   9.728 -0.3305  0.2037 -0.1618
 6421SOL    HW130722   3.953   1.528   9.636 -1.4288 -1.2582  0.0642
 6421SOL    HW230723   3.934   1.646   9.719 -1.2378  0.0616 -0.9943
 6422SOL     OW30724   1.215   1.523   4.915 -0.4227  0.8979 -0.5145
 6422SOL    HW130725   1.141   1.572   4.949  0.0829  0.1665  1.6621
 6422SOL    HW230726   1.207   1.531   4.820  0.2719  0.2417 -0.6370
 6423SOL     OW30727   0.787   3.643  10.819  0.3826 -1.0249 -0.1274
 6423SOL    HW130728   0.878   3.669  10.827 -0.1234  1.3037 -1.8888
 6423SOL    HW230729   0.774   3.650  10.725  2.7438  1.7985 -0.2418
 6424SOL     OW30730   1.058   1.157   7.642  0.4454  0.5140 -0.5508
 6424SOL    HW130731   1.011   1.075   7.657  1.0006  0.4441  0.7993
 6424SOL    HW230732   1.132   1.122   7.592  0.9663 -0.3655  0.8535
 6425SOL     OW30733   1.156   3.201   5.424  0.0165 -0.2612  0.3352
 6425SOL    HW130734   1.212   3.201   5.501  3.0812 -1.8851 -1.8761
 6425SOL    HW230735   1.149   3.291   5.390  0.8747 -0.6648 -0.9208
 6426SOL     OW30736   2.069   2.908   6.608  0.1551 -0.4179 -0.4959
 6426SOL    HW130737   2.156   2.910   6.647  1.0701 -2.8752 -2.4072
 6426SOL    HW230738   2.055   2.816   6.588  2.1370 -0.2668 -2.6342
 6427SOL     OW30739   4.479   4.131   8.366  0.5662  0.6450 -0.3524
 6427SOL    HW130740   4.545   4.179   8.416  0.0347  0.5667  0.4062
 6427SOL    HW230741   4.420   4.074   8.414  1.1138 -0.6276 -1.1743
 6428SOL     OW30742   3.467   4.594   3.183 -0.2193  0.6872 -0.3884
 6428SOL    HW130743   3.503   4.600   3.095 -1.5106 -1.1513 -1.0615
 6428SOL    HW230744   3.526   4.659   3.220  1.5293 -2.3334  2.2065
 6429SOL     OW30745   0.241   2.752   9.856 -0.7966  0.1572  0.3715
 6429SOL    HW130746   0.214   2.835   9.896 -1.7189 -0.2459  0.5832
 6429SOL    HW230747   0.311   2.726   9.916 -0.7488  1.7908  1.0359
 6430SOL     OW30748   1.371   1.560   6.629  0.3231 -0.2952 -0.7553
 6430SOL    HW130749   1.431   1.588   6.560  0.0045 -1.5829 -1.5442
 6430SOL    HW230750   1.440   1.552   6.695  0.2254  2.3652 -0.3184
 6431SOL     OW30751   4.664   3.060  10.008 -0.1025 -0.7734  0.3897
 6431SOL    HW130752   4.677   3.146  10.049 -2.2291 -0.5943  0.7203
 6431SOL    HW230753   0.026   3.060   9.959 -0.3221  0.3844  0.0285
 6432SOL     OW30754   0.298   1.810  12.154 -0.1186  0.6251  0.0516
 6432SOL    HW130755   0.230   1.763  12.105 -1.6716  1.1977  1.6237
 6432SOL    HW230756   0.243   1.855  12.218  0.4367  0.4241  0.6607
 6433SOL     OW30757   1.243   0.543   7.110 -0.6614  0.3886  0.0732
 6433SOL    HW130758   1.307   0.605   7.144 -2.6511  0.2216  4.2036
 6433SOL    HW230759   1.162   0.592   7.127 -0.7323  0.2157  0.2372
 6434SOL     OW30760   4.103   3.690   3.136 -0.7351 -0.0832 -0.1868
 6434SOL    HW130761   4.116   3.697   3.042  1.5914  2.4217  0.3168
 6434SOL    HW230762   4.159   3.619   3.166 -1.5876 -0.1535  1.2795
 6435SOL     OW30763   0.950   1.903   6.561  0.5650 -0.0365  0.5036
 6435SOL    HW130764   0.861   1.868   6.571  0.1851  0.6893 -0.2915
 6435SOL    HW230765   0.961   1.941   6.648  1.3361 -0.0480  0.4078
 6436SOL     OW30766   0.980   0.968   1.282  0.6379 -0.0152  0.0545
 6436SOL    HW130767   1.003   1.053   1.245 -2.8270  0.1287 -1.7713
 6436SOL    HW230768   0.954   0.987   1.372  1.1759 -1.9710  0.6174
 6437SOL     OW30769   1.612   4.210   0.530 -0.1207  0.5445  0.2852
 6437SOL    HW130770   1.634   4.209   0.437  1.7109 -0.8840  0.7308
 6437SOL    HW230771   1.541   4.146   0.529 -0.4840  0.9619 -0.6455
 6438SOL     OW30772   2.922   1.962  10.206  0.5571  0.5375  0.0005
 6438SOL    HW130773   2.954   2.050  10.185  0.2361  1.2701  2.5491
 6438SOL    HW230774   2.880   1.931  10.126  0.5518  1.7068 -0.4572
 6439SOL     OW30775   2.308   4.271   6.342 -0.2970  0.0755  0.4728
 6439SOL    HW130776   2.310   4.232   6.255  0.2516 -2.5679  1.6694
 6439SOL    HW230777   2.273   4.357   6.319 -0.6188 -1.0862 -3.4363
 6440SOL     OW30778   1.606   0.058   2.218  0.0303  0.0987 -0.1381
 6440SOL    HW130779   1.669   0.037   2.287  0.2375  3.7759  0.7684
 6440SOL    HW230780   1.610   0.153   2.212  1.1681  0.0518 -0.2540
 6441SOL     OW30781   0.457   1.712  16.055  0.6192  0.4972  0.2638
 6441SOL    HW130782   0.534   1.746  16.100  1.3813  0.3384 -0.9235
 6441SOL    HW230783   0.482   1.620  16.048 -0.9015  0.0692  0.5989
 6442SOL     OW30784   4.613   4.418  16.773  0.6246  0.0205  0.0969
 6442SOL    HW130785   4.558   4.462  16.838  0.0463 -1.0322  0.3144
 6442SOL    HW230786   4.616   4.479  16.700 -0.8008  1.1198  0.9504
 6443SOL     OW30787   4.684   0.298   1.506  0.0826 -0.4652  0.0460
 6443SOL    HW130788   4.598   0.339   1.510 -0.0293 -0.8399  1.9554
 6443SOL    HW230789   0.023   0.373   1.500 -1.1102  0.3492 -1.1840
 6444SOL     OW30790   3.870   1.668   7.420  0.1651  0.1719 -0.2024
 6444SOL    HW130791   3.880   1.724   7.496  1.1803 -0.2091 -0.0540
 6444SOL    HW230792   3.930   1.719   7.366  0.3883  0.9929  0.8411
 6445SOL     OW30793   4.644   3.152   3.662  0.4323 -0.1211  0.1828
 6445SOL    HW130794   4.578   3.095   3.623  0.6526 -0.4315  0.2606
 6445SOL    HW230795   4.715   3.088   3.662  0.1704 -0.4143  0.8837
 6446SOL     OW30796   1.321   2.306   0.081 -0.1255 -0.5192  0.4422
 6446SOL    HW130797   1.235   2.333   0.051  1.7355  2.4369 -2.1345
 6446SOL    HW230798   1.296   2.230   0.134  3.0493 -1.6466  0.3505
 6447SOL     OW30799   0.798   3.688   4.560  0.0756 -0.0032  0.2842
 6447SOL    HW130800   0.890   3.714   4.572  0.3297  0.4642 -2.7714
 6447SOL    HW230801   0.774   3.764   4.507 -0.5164  0.4425  1.1973
 6448SOL     OW30802   4.678   0.882   2.546  0.0908 -0.2768  0.0353
 6448SOL    HW130803   4.583   0.887   2.558 -0.2445 -0.2605 -2.6194
 6448SOL    HW230804   4.690   0.851   2.456 -2.1927  1.6103 -0.9189
 6449SOL     OW30805   3.492   1.723   6.635  0.4177 -0.6477 -0.2979
 6449SOL    HW130806   3.399   1.716   6.656  0.6628  0.1898  1.0557
 6449SOL    HW230807   3.494   1.802   6.581 -1.5503 -0.0195  0.5301
 6450SOL     OW30808   3.161   4.585   5.866  0.3051 -0.2274  0.1030
 6450SOL    HW130809   3.251   4.590   5.835 -0.6342 -0.8562 -2.6797
 6450SOL    HW230810   3.150   4.490   5.874  1.1335 -0.5150 -2.1521
 6451SOL     OW30811   1.583   3.154  15.439 -0.0795  0.1946  1.0106
 6451SOL    HW130812   1.659   3.101  15.416 -0.3720  0.1489  0.1362
 6451SOL    HW230813   1.616   3.214  15.505  0.0971 -0.7212  1.7597
 6452SOL     OW30814   0.254   1.860  10.734 -0.0230 -0.2829 -0.2858
 6452SOL    HW130815   0.297   1.775  10.740 -0.6687 -0.2946  3.7905
 6452SOL    HW230816   0.303   1.922  10.789  0.3954 -1.3090  0.4945
 6453SOL     OW30817   2.497   0.001   3.759  0.7767  0.3625 -0.1582
 6453SOL    HW130818   2.520   0.077   3.705 -0.0807 -0.7365 -2.0745
 6453SOL    HW230819   2.529   0.032   3.843 -0.6838 -0.6798  0.7746
 6454SOL     OW30820   2.779   4.605  14.860 -0.5797 -0.0119  0.0665
 6454SOL    HW130821   2.849   4.629  14.799  0.0286 -0.2048  0.6826
 6454SOL    HW230822   2.811   4.650  14.939 -0.0353 -1.3175  0.5952
 6455SOL     OW30823   0.613   3.828   7.469 -0.6177 -0.0137 -0.3001
 6455SOL    HW130824   0.663   3.747   7.482 -2.4375 -1.0723  0.1928
 6455SOL    HW230825   0.686   3.889   7.465  0.3338 -1.2028 -1.0298
 6456SOL     OW30826   4.703   0.472   3.526 -0.1780 -0.3751  0.1583
 6456SOL    HW130827   0.005   0.564   3.537  0.1953 -0.1008 -2.7851
 6456SOL    HW230828   4.670   0.437   3.609  1.9520 -3.0337 -0.0895
 6457SOL     OW30829   0.777   3.638   7.490  0.5884  0.6395 -0.6086
 6457SOL    HW130830   0.830   3.588   7.552 -1.3632  0.3138  0.8105
 6457SOL    HW230831   0.791   3.579   7.416  0.2549 -0.3938  0.1399
 6458SOL     OW30832   2.263   4.515   1.812  0.0148 -0.5158 -0.1612
 6458SOL    HW130833   2.328   4.506   1.881 -0.8179  1.3834  0.8619
 6458SOL    HW230834   2.291   4.452   1.746 -0.4958 -0.6304 -0.2753
 6459SOL     OW30835   0.368   1.859   6.035 -0.2962 -0.2712  0.0139
 6459SOL    HW130836   0.362   1.816   5.950  1.8427 -2.3657  0.9053
 6459SOL    HW230837   0.398   1.949   6.019 -2.0083  0.0824 -1.2728
 6460SOL     OW30838   4.102   0.433   0.232  0.0667  0.1403 -0.4297
 6460SOL    HW130839   4.161   0.405   0.301  0.2173  1.9992  0.1774
 6460SOL    HW230840   4.031   0.369   0.230 -0.5603  0.8108  0.7595
 6461SOL     OW30841   2.322   1.091   3.121 -0.3294 -0.0620  0.4200
 6461SOL    HW130842   2.410   1.129   3.129  0.0733 -1.1610  1.1770
 6461SOL    HW230843   2.347   1.012   3.072 -0.3671  0.1755  0.0166
 6462SOL     OW30844   0.529   3.684   8.037  0.5655 -0.4441 -0.3884
 6462SOL    HW130845   0.559   3.625   8.106  1.3936 -2.5064 -2.5234
 6462SOL    HW230846   0.506   3.763   8.086  0.9245 -0.6343  0.0754
 6463SOL     OW30847   1.484   2.685  12.037 -0.1057 -0.4268  0.0361
 6463SOL    HW130848   1.488   2.648  11.949  0.5961  1.8515 -0.8791
 6463SOL    HW230849   1.395   2.720  12.031  0.2049  0.1433 -1.1784
 6464SOL     OW30850   1.790   1.130   6.426  0.1640  0.0874 -0.5173
 6464SOL    HW130851   1.729   1.193   6.465  2.4194  1.8919  0.1231
 6464SOL    HW230852   1.747   1.054   6.464  0.3488 -0.7020 -1.9311
 6465SOL     OW30853   3.948   0.368   4.187 -0.3826 -0.5687  0.4839
 6465SOL    HW130854   3.984   0.343   4.272  0.5550  1.3535  0.6605
 6465SOL    HW230855   4.016   0.428   4.157 -0.7195 -0.5095 -0.1688
 6466SOL     OW30856   4.617   0.738   8.152 -0.5512  0.5932  0.1577
 6466SOL    HW130857   4.626   0.817   8.206 -3.8778 -0.0689  1.7010
 6466SOL    HW230858   4.523   0.731   8.136 -0.4963  1.5989 -0.5450
 6467SOL     OW30859   2.484   4.260   2.139  0.4531  0.0267 -0.3776
 6467SOL    HW130860   2.490   4.227   2.228 -1.7053  1.1606  0.1715
 6467SOL    HW230861   2.521   4.181   2.098  0.3168 -1.2456  1.9351
 6468SOL     OW30862   2.194   0.732  12.610  0.4408 -0.1376 -0.6167
 6468SOL    HW130863   2.272   0.677  12.614 -0.4232 -1.2942  0.2509
 6468SOL    HW230864   2.156   0.679  12.539  3.3684 -0.2624 -2.1235
 6469SOL     OW30865   1.057   4.313  13.326 -0.1567 -0.8453  0.3228
 6469SOL    HW130866   1.083   4.236  13.276  1.7363  0.3423 -0.5143
 6469SOL    HW230867   1.129   4.373  13.309 -1.2471  0.1236 -0.8621
 6470SOL     OW30868   2.327   1.807   7.640 -0.4419  0.2918 -0.0870
 6470SOL    HW130869   2.351   1.836   7.728 -0.1648 -1.1355  0.3105
 6470SOL    HW230870   2.343   1.712   7.644  1.8450  0.6902  0.1045
 6471SOL     OW30871   3.338   4.234  10.972 -0.1729  0.1118  0.4436
 6471SOL    HW130872   3.309   4.278  10.892  0.8989 -0.3343 -0.1977
 6471SOL    HW230873   3.341   4.308  11.032  1.0520 -0.1010  0.6505
 6472SOL     OW30874   0.468   4.496  10.423  0.2621  0.3733 -0.3164
 6472SOL    HW130875   0.441   4.542  10.343 -2.1371  0.9461  0.8298
 6472SOL    HW230876   0.536   4.438  10.390  1.2356 -0.1906  2.6911
 6473SOL     OW30877   2.188   2.353  12.144 -0.1992  0.2583 -0.1284
 6473SOL    HW130878   2.250   2.351  12.071  0.8916  0.0538  0.7958
 6473SOL    HW230879   2.220   2.435  12.182  1.8345 -0.4558 -0.3284
 6474SOL     OW30880   2.505   0.653   4.780  0.0464  0.5537  0.5411
 6474SOL    HW130881   2.563   0.676   4.708  0.1009 -0.6278  0.2004
 6474SOL    HW230882   2.503   0.733   4.832 -0.2962  0.7216  0.2723
 6475SOL     OW30883   2.571   1.899   3.754 -0.8808  0.1451  0.0688
 6475SOL    HW130884   2.555   1.979   3.705  1.1443 -0.4620 -1.5989
 6475SOL    HW230885   2.665   1.887   3.745 -0.7991  2.6208 -2.2521
 6476SOL     OW30886   0.103   0.191   6.038 -0.0565  0.2169  0.5472
 6476SOL    HW130887   0.019   0.172   6.079 -0.2104 -0.4096 -0.0654
 6476SOL    HW230888   0.073   0.226   5.954 -0.1835 -1.0954  0.0437
 6477SOL     OW30889   3.029   2.676   6.086  0.0332  0.1693  0.3552
 6477SOL    HW130890   3.111   2.632   6.061 -0.2490  2.1395 -4.1436
 6477SOL    HW230891   3.023   2.749   6.024 -1.2484 -0.2138  0.0240
 6478SOL     OW30892   4.474   1.131   0.315 -0.1122  0.0196  0.1112
 6478SOL    HW130893   4.400   1.191   0.307  1.5203  1.5226 -3.3775
 6478SOL    HW230894   4.437   1.057   0.268 -1.9150  0.5851  0.6457
 6479SOL     OW30895   0.091   1.449  14.994  0.6528 -0.8563 -0.5222
 6479SOL    HW130896   0.087   1.357  14.967  0.4740 -1.6620  2.1931
 6479SOL    HW230897   0.051   1.445  15.081  0.0377 -1.2741 -0.8271
 6480SOL     OW30898   1.150   0.092   7.148  0.1945 -0.4161 -0.5769
 6480SOL    HW130899   1.196   0.147   7.084  0.4581  1.1831  0.9846
 6480SOL    HW230900   1.179   0.007   7.114 -0.7866 -0.0765 -2.2682
 6481SOL     OW30901   3.193   2.792  10.323 -0.4751  0.2716 -0.0442
 6481SOL    HW130902   3.146   2.727  10.272  0.7972  0.8252 -1.9117
 6481SOL    HW230903   3.261   2.813  10.259 -1.6666  1.9466 -0.7608
 6482SOL     OW30904   1.486   0.968   3.369 -0.2686 -0.7596  0.6948
 6482SOL    HW130905   1.568   1.012   3.390  0.7960 -0.7504 -3.4238
 6482SOL    HW230906   1.505   0.879   3.398  0.3541 -0.6510  0.6203
 6483SOL     OW30907   1.754   4.330   4.805  0.0168 -0.6397 -0.4760
 6483SOL    HW130908   1.706   4.383   4.742  0.2855  0.7477  0.4818
 6483SOL    HW230909   1.685   4.271   4.835 -0.8766  0.6995  0.1234
 6484SOL     OW30910   2.642   3.593   7.490 -0.4301  0.4165  0.0025
 6484SOL    HW130911   2.595   3.662   7.442 -2.1115 -1.1222 -0.5322
 6484SOL    HW230912   2.577   3.525   7.502 -0.6223  0.8312  1.2796
 6485SOL     OW30913   3.659   3.170   2.485 -0.4618 -0.7450 -0.7782
 6485SOL    HW130914   3.597   3.241   2.470  0.7301  0.5239  0.2970
 6485SOL    HW230915   3.686   3.182   2.576 -0.1539  2.2633 -1.2496
 6486SOL     OW30916   0.002   0.139   8.065  0.2209  0.4013  0.5535
 6486SOL    HW130917   0.018   0.125   8.159  0.0415  2.4902  0.8934
 6486SOL    HW230918   0.057   0.077   8.016 -0.0041  1.4561 -1.0228
 6487SOL     OW30919   2.817   4.428  10.665 -0.5010  0.0485 -0.2834
 6487SOL    HW130920   2.800   4.495  10.599  0.0853  1.1445  0.6703
 6487SOL    HW230921   2.796   4.495  10.731  1.4995  0.3003  0.1176
 6488SOL     OW30922   2.371   2.477  11.395 -0.0983  0.1921 -0.0033
 6488SOL    HW130923   2.294   2.527  11.424 -0.0418  0.8792 -1.0293
 6488SOL    HW230924   2.373   2.401  11.453  2.1206  0.3089  0.0625
 6489SOL     OW30925   0.183   0.845   5.889  0.1447  0.0594  0.2573
 6489SOL    HW130926   0.162   0.895   5.810  0.7324  0.4709  0.3637
 6489SOL    HW230927   0.214   0.916   5.945  0.8078  0.4436 -0.6130
 6490SOL     OW30928   0.699   4.009   5.700  0.7492 -0.8911 -0.5269
 6490SOL    HW130929   0.664   3.976   5.617  2.1137 -1.8870 -0.7089
 6490SOL    HW230930   0.628   3.978   5.756  1.1141 -1.0863 -0.1765
 6491SOL     OW30931   4.226   1.743  12.235 -0.1352 -0.2798  0.1060
 6491SOL    HW130932   4.231   1.648  12.242  0.3698 -0.3784 -1.5259
 6491SOL    HW230933   4.141   1.749  12.192  0.3166 -0.3205 -0.7967
 6492SOL     OW30934   1.752   1.825   7.464  0.0784  0.2846  0.3768
 6492SOL    HW130935   1.809   1.803   7.538  2.2524 -2.2881 -2.0390
 6492SOL    HW230936   1.685   1.758   7.482  1.4546 -1.1276  0.2494
 6493SOL     OW30937   0.644   0.361  12.599 -0.0390  0.1724 -0.1045
 6493SOL    HW130938   0.656   0.277  12.555  0.2641  0.2870 -0.2432
 6493SOL    HW230939   0.559   0.393  12.567  0.0442  0.5507  0.0543
 6494SOL     OW30940   4.104   4.066  16.525  0.3891  0.4336  0.2752
 6494SOL    HW130941   4.153   4.053  16.606 -0.0019  0.2318  0.4849
 6494SOL    HW230942   4.073   3.976  16.512  1.6578 -0.3330  2.6688
 6495SOL     OW30943   3.140   1.502  17.015 -0.4094  0.4021 -0.4147
 6495SOL    HW130944   3.112   1.593  17.016  0.8970  0.7794  1.2979
 6495SOL    HW230945   3.065   1.455  16.977 -1.5579  2.2166 -0.3784
 6496SOL     OW30946   3.288   3.739  11.382 -0.1155 -0.2586  0.3853
 6496SOL    HW130947   3.241   3.681  11.323  0.0570 -1.0891  1.0700
 6496SOL    HW230948   3.373   3.760  11.341  0.1159 -0.2610  0.8628
 6497SOL     OW30949   3.096   2.391   9.734  0.4636  0.0890 -0.2027
 6497SOL    HW130950   3.084   2.340   9.654 -2.3098 -1.4850  1.2069
 6497SOL    HW230951   3.188   2.387   9.758  0.5124 -1.5801 -0.6899
 6498SOL     OW30952   3.027   1.893  15.951  0.3244 -0.2040  0.4743
 6498SOL    HW130953   3.120   1.889  15.929 -0.1393  0.4108 -1.5962
 6498SOL    HW230954   3.019   1.978  15.994  2.2923  0.9265 -1.4360
 6499SOL     OW30955   4.358   1.406   4.957 -0.2669  0.3757 -0.1559
 6499SOL    HW130956   4.314   1.357   4.887  1.3793 -1.6078  0.1856
 6499SOL    HW230957   4.277   1.426   5.002  0.3180  1.2915  0.4816
 6500SOL     OW30958   3.542   2.179   8.059  0.3494  0.3041  0.0703
 6500SOL    HW130959   3.496   2.228   8.128 -2.1897 -1.3138 -0.4805
 6500SOL    HW230960   3.613   2.147   8.114  0.7574  1.5601  0.2862
 6501SOL     OW30961   2.735   0.360   1.257  0.4612  0.1674 -0.3706
 6501SOL    HW130962   2.815   0.309   1.268  0.7407  0.6161 -0.3060
 6501SOL    HW230963   2.738   0.411   1.338 -1.7156  0.0193 -0.2129
 6502SOL     OW30964   2.636   1.188  14.311  0.1976 -0.0287  0.5076
 6502SOL    HW130965   2.695   1.200  14.237 -1.0341 -2.2499 -0.8334
 6502SOL    HW230966   2.689   1.125  14.361 -0.8492 -1.4438 -0.1712
 6503SOL     OW30967   1.933   3.631  12.764  0.2756  0.0782  0.1020
 6503SOL    HW130968   1.882   3.560  12.725 -1.9380  1.9201 -0.2972
 6503SOL    HW230969   1.863   3.693  12.780  0.4531 -0.1466  1.7183
 6504SOL     OW30970   1.442   1.684   4.875 -0.1599 -0.3544 -0.3496
 6504SOL    HW130971   1.374   1.622   4.901  0.4145 -1.1169 -0.6564
 6504SOL    HW230972   1.410   1.766   4.912 -0.8294 -0.1595 -1.3704
 6505SOL     OW30973   1.899   0.388   4.171  0.0553  0.5673 -0.4745
 6505SOL    HW130974   1.944   0.352   4.094  0.4590  1.6714 -0.7557
 6505SOL    HW230975   1.843   0.460   4.141 -0.1965  0.6801  0.2625
 6506SOL     OW30976   0.813   1.843  14.680 -0.3561 -0.4010 -0.3168
 6506SOL    HW130977   0.718   1.833  14.682 -0.2176 -1.7951 -0.7100
 6506SOL    HW230978   0.823   1.932  14.644  1.2375 -0.0153  1.0900
 6507SOL     OW30979   1.883   3.541   3.980 -1.1061 -0.0471 -0.4149
 6507SOL    HW130980   1.871   3.549   3.885 -2.9867  0.9266 -0.1030
 6507SOL    HW230981   1.826   3.607   4.019  1.2419  1.8782 -0.2773
 6508SOL     OW30982   3.484   3.700   4.621  0.6956  0.2896 -0.3584
 6508SOL    HW130983   3.551   3.767   4.605  0.7876  0.8570  2.3983
 6508SOL    HW230984   3.535   3.622   4.641 -1.6758 -0.9689  0.7606
 6509SOL     OW30985   0.093   4.011  11.758  0.3869 -0.2872 -0.1307
 6509SOL    HW130986   0.184   4.034  11.777 -0.8232  2.0073  2.7990
 6509SOL    HW230987   0.053   3.986  11.842  1.3263 -1.8910 -0.1482
 6510SOL     OW30988   0.469   1.614   6.637 -0.7251 -0.1111  0.2095
 6510SOL    HW130989   0.417   1.687   6.605  0.0111  0.2615 -0.1373
 6510SOL    HW230990   0.436   1.609   6.726 -3.0216  0.2684 -0.6101
 6511SOL     OW30991   3.565   3.681   2.956  0.6802  0.5525  0.1729
 6511SOL    HW130992   3.534   3.664   3.045  1.2825  2.3985  0.7419
 6511SOL    HW230993   3.490   3.656   2.902  0.6401  0.1428  0.4137
 6512SOL     OW30994   4.269   3.926  10.143 -0.5068 -0.3352 -0.5299
 6512SOL    HW130995   4.238   3.840  10.174 -0.2189  0.7958  2.8882
 6512SOL    HW230996   4.325   3.898  10.071  0.0467  1.0253 -0.6210
 6513SOL     OW30997   1.162   0.925  13.770 -0.8376  0.0065  0.3255
 6513SOL    HW130998   1.235   0.914  13.709 -0.9831  0.2269  0.1112
 6513SOL    HW230999   1.160   1.020  13.782 -0.8775 -0.2006  2.0390
 6514SOL     OW31000   2.866   0.895   4.904  0.8332 -0.4330  0.0748
 6514SOL    HW131001   2.917   0.976   4.903  2.0032 -1.1666  0.8879
 6514SOL    HW231002   2.909   0.862   4.983 -0.5042 -2.2003  0.0614
 6515SOL     OW31003   2.319   1.667  16.739  0.2499  0.2912  0.9404
 6515SOL    HW131004   2.246   1.704  16.689 -0.8894 -0.7189  1.8436
 6515SOL    HW231005   2.352   1.606  16.673  1.0740 -0.0984  1.7229
 6516SOL     OW31006   4.461   0.894   3.343 -0.7510 -0.2725 -0.8642
 6516SOL    HW131007   4.414   0.834   3.285  0.2134 -1.5842 -0.2940
 6516SOL    HW231008   4.503   0.952   3.279  1.6457  0.6208  1.5608
 6517SOL     OW31009   1.473   1.954  12.883 -0.1497  0.4518 -0.0345
 6517SOL    HW131010   1.501   1.869  12.917  0.6954  0.6271 -0.2910
 6517SOL    HW231011   1.526   1.964  12.804 -0.1205 -0.6366 -0.1598
 6518SOL     OW31012   1.310   0.283  15.911 -0.3465  0.0847 -0.5311
 6518SOL    HW131013   1.354   0.233  15.980 -0.0560  0.6675 -0.2929
 6518SOL    HW231014   1.229   0.317  15.950 -0.7891 -0.1013 -1.2945
 6519SOL     OW31015   3.926   0.135   6.620  0.1763  0.7758 -0.2954
 6519SOL    HW131016   3.946   0.173   6.705 -0.7634  3.3710 -1.2484
 6519SOL    HW231017   3.857   0.194   6.591  0.3020  0.9167 -0.3111
 6520SOL     OW31018   0.607   3.531   5.766 -0.6841  0.2917 -0.0345
 6520SOL    HW131019   0.649   3.576   5.839 -0.0819 -0.2996 -0.0163
 6520SOL    HW231020   0.682   3.478   5.740  1.1891  2.2566  1.3458
 6521SOL     OW31021   0.010   0.916   7.814  0.1422 -0.0783 -0.0035
 6521SOL    HW131022   0.052   0.871   7.888 -1.8690  0.9998  1.7674
 6521SOL    HW231023   4.645   0.874   7.818  1.7689 -3.4618 -0.6823
 6522SOL     OW31024   1.575   0.242  12.773  0.2076  0.1918  0.1545
 6522SOL    HW131025   1.557   0.149  12.781 -0.8914  0.1716 -2.5657
 6522SOL    HW231026   1.668   0.239  12.796  0.4847  0.9702 -0.8222
 6523SOL     OW31027   4.304   1.689  15.239 -0.1081  0.4312  0.2469
 6523SOL    HW131028   4.336   1.681  15.329 -0.9495  0.7831  0.5745
 6523SOL    HW231029   4.211   1.664  15.244  0.1510 -0.5413  0.2742
 6524SOL     OW31030   1.627   0.528   6.622  0.0516  0.2342  0.5378
 6524SOL    HW131031   1.701   0.473   6.595 -1.0245 -1.6575  1.4662
 6524SOL    HW231032   1.619   0.579   6.541 -0.0473  0.9922  1.0260
 6525SOL     OW31033   1.596   1.986  12.650  0.2746  0.2686 -0.1886
 6525SOL    HW131034   1.632   2.066  12.612 -1.6469  1.0427 -0.3784
 6525SOL    HW231035   1.656   1.927  12.606  1.5379  1.0057  0.5533
 6526SOL     OW31036   1.107   0.068   2.774 -0.4387 -0.1973 -0.0855
 6526SOL    HW131037   1.195   0.032   2.787 -1.2997 -1.8928  0.9243
 6526SOL    HW231038   1.092   0.105   2.861  1.7819 -1.4837  0.8409
 6527SOL     OW31039   0.323   0.231   5.786  0.4269 -0.1671 -0.3488
 6527SOL    HW131040   0.284   0.315   5.764 -2.6690 -1.4107  0.2709
 6527SOL    HW231041   0.248   0.174   5.766  0.2264 -0.9255  2.5733
 6528SOL     OW31042   1.814   3.866   0.119 -0.2124  0.2010  0.3369
 6528SOL    HW131043   1.779   3.836   0.203  0.6262 -1.8624 -0.0572
 6528SOL    HW231044   1.882   3.801   0.102  0.6810  0.3012  3.5329
 6529SOL     OW31045   0.502   1.911   3.331  0.6495  0.4936 -0.0379
 6529SOL    HW131046   0.577   1.940   3.278  0.1372  0.0086 -1.0267
 6529SOL    HW231047   0.555   1.893   3.409  1.9326 -0.4817 -1.1364
 6530SOL     OW31048   4.495   3.111   4.023 -0.4570 -0.0235  0.5785
 6530SOL    HW131049   4.480   3.091   4.116 -2.7277  0.1213  0.2607
 6530SOL    HW231050   4.498   3.021   3.992  0.1264 -0.6692  2.4982
 6531SOL     OW31051   2.518   0.151   1.489  0.1067  0.3314  0.4537
 6531SOL    HW131052   2.427   0.142   1.517  0.0377  0.8671  0.3890
 6531SOL    HW231053   2.491   0.196   1.409 -0.3201  0.3593  0.6140
 6532SOL     OW31054   0.798   0.370   8.612 -0.6371  0.3084  0.1391
 6532SOL    HW131055   0.733   0.423   8.658 -0.0683  1.7591 -0.7108
 6532SOL    HW231056   0.775   0.279   8.631  3.2223 -0.8962 -0.7723
 6533SOL     OW31057   1.681   1.756   1.434 -0.6417 -0.0309  0.0378
 6533SOL    HW131058   1.699   1.734   1.343  1.6354 -0.6544  0.6248
 6533SOL    HW231059   1.739   1.705   1.491  0.1784 -1.6399 -2.2340
 6534SOL     OW31060   0.925   3.461   4.024 -0.1732  0.4530 -0.6959
 6534SOL    HW131061   0.867   3.536   4.031 -0.4709 -0.1112  2.7950
 6534SOL    HW231062   0.944   3.452   3.930  1.9836  0.1297 -0.2417
 6535SOL     OW31063   4.599   0.410   5.668 -0.2481 -0.3130  0.0642
 6535SOL    HW131064   4.566   0.425   5.756 -1.3165  1.6083 -0.6501
 6535SOL    HW231065   4.595   0.315   5.666 -1.0550 -0.2911  1.0469
 6536SOL     OW31066   0.340   0.115   7.868 -0.0167 -0.2910 -0.2789
 6536SOL    HW131067   0.266   0.176   7.857 -0.6174 -0.7232  1.2896
 6536SOL    HW231068   0.396   0.125   7.791 -3.2838  2.9654 -2.2382
 6537SOL     OW31069   3.708   1.865   2.888 -0.0131 -0.8840  0.2861
 6537SOL    HW131070   3.724   1.903   2.974  0.1750 -2.0217  0.7493
 6537SOL    HW231071   3.787   1.875   2.835 -2.2427  0.8519 -2.7208
 6538SOL     OW31072   1.237   1.193   1.643 -0.1098  0.4426 -0.3446
 6538SOL    HW131073   1.281   1.166   1.563 -2.6518  1.5454 -2.1217
 6538SOL    HW231074   1.171   1.251   1.603 -2.0329 -0.7993  1.0040
 6539SOL     OW31075   2.713   0.981   9.005 -0.1282 -0.3451  0.0613
 6539SOL    HW131076   2.758   0.977   9.089 -1.9081 -0.7388  0.9933
 6539SOL    HW231077   2.775   0.955   8.937 -0.6629 -0.9673 -0.1945
 6540SOL     OW31078   4.461   0.867   7.800  0.4712 -0.0950  0.3570
 6540SOL    HW131079   4.368   0.855   7.819  0.4068  0.7799  0.5733
 6540SOL    HW231080   4.455   0.946   7.746  1.8521  1.3154  2.2559
 6541SOL     OW31081   2.411   2.659   6.798  0.6072  0.1155 -0.0906
 6541SOL    HW131082   2.474   2.700   6.857  1.0747  1.9486 -1.8802
 6541SOL    HW231083   2.419   2.567   6.825  1.8279 -0.5530 -2.7054
 6542SOL     OW31084   3.696   1.780   9.258  0.1208 -0.2702 -0.2209
 6542SOL    HW131085   3.715   1.819   9.343 -3.1542 -1.7388  1.2000
 6542SOL    HW231086   3.783   1.782   9.218 -1.1124 -0.6305 -2.9614
 6543SOL     OW31087   4.372   3.601   8.938  0.4402  0.4801 -0.5681
 6543SOL    HW131088   4.391   3.681   8.890  0.7129  0.0226 -1.2153
 6543SOL    HW231089   4.333   3.632   9.020 -0.7370 -0.3943 -0.7996
 6544SOL     OW31090   2.245   4.223  17.350  0.0791  0.5776 -0.3983
 6544SOL    HW131091   2.228   4.140  17.307  0.2209  0.1928  0.2932
 6544SOL    HW231092   2.172   4.233  17.411  1.8264  0.4112  1.7354
 6545SOL     OW31093   2.574   2.878   3.017  0.4119  0.1914 -0.0723
 6545SOL    HW131094   2.609   2.951   3.068  0.0422 -0.3373  0.9242
 6545SOL    HW231095   2.657   2.857   2.973 -0.1490 -0.2271 -0.9274
 6546SOL     OW31096   1.309   0.651  13.657  0.0078 -1.2522  0.1864
 6546SOL    HW131097   1.381   0.660  13.719 -0.9862  0.1781  1.1377
 6546SOL    HW231098   1.359   0.595  13.598  1.8162 -0.1236  0.6246
 6547SOL     OW31099   4.028   1.127  15.276 -0.5161 -0.2097 -0.1705
 6547SOL    HW131100   4.117   1.151  15.250 -0.3774 -0.3713  0.1571
 6547SOL    HW231101   4.055   1.036  15.289  2.1084  0.8545  1.8121
 6548SOL     OW31102   4.375   1.253   3.870  0.1031 -0.0959 -0.2845
 6548SOL    HW131103   4.412   1.207   3.795 -2.5552 -1.8835 -0.5180
 6548SOL    HW231104   4.332   1.319   3.815 -0.4522 -1.9538 -2.0730
 6549SOL     OW31105   1.661   4.162   9.598  0.5565  0.6609 -0.1592
 6549SOL    HW131106   1.731   4.135   9.658  0.3637 -0.2294 -0.3233
 6549SOL    HW231107   1.652   4.087   9.539  0.1405  1.2859 -0.8763
 6550SOL     OW31108   2.132   3.923  12.821 -0.4178  0.0273  0.0022
 6550SOL    HW131109   2.064   3.925  12.754 -0.0025 -0.0952 -0.4233
 6550SOL    HW231110   2.142   4.014  12.847 -0.6599 -1.0577  3.9266
 6551SOL     OW31111   0.362   1.847   0.435 -0.7929  0.5858 -1.0310
 6551SOL    HW131112   0.371   1.941   0.445  2.6463  0.3286 -1.9918
 6551SOL    HW231113   0.355   1.807   0.522  0.3596 -1.3976 -1.8437
 6552SOL     OW31114   3.198   3.368   8.290 -0.4817 -0.2892 -0.4540
 6552SOL    HW131115   3.260   3.341   8.358  0.0590 -0.6122 -1.0811
 6552SOL    HW231116   3.252   3.413   8.226 -0.8821  0.6781 -0.1143
 6553SOL     OW31117   3.803   1.924  12.830  0.2292  0.1033  0.3942
 6553SOL    HW131118   3.874   1.986  12.847  1.0892 -0.7038 -0.3304
 6553SOL    HW231119   3.778   1.949  12.741 -0.0467  0.8844  0.6845
 6554SOL     OW31120   2.580   2.969   6.111  0.1728 -0.3470 -0.2438
 6554SOL    HW131121   2.557   3.000   6.199  1.3823 -0.4815  0.1289
 6554SOL    HW231122   2.672   2.995   6.110 -0.2812  1.2087 -1.6372
 6555SOL     OW31123   1.784   2.299   4.055  0.0146  0.5978  0.3166
 6555SOL    HW131124   1.762   2.226   3.996  0.3643  2.1566 -1.7427
 6555SOL    HW231125   1.720   2.287   4.125  0.7921  1.8722  1.2378
 6556SOL     OW31126   4.116   4.226   2.654 -0.0401  0.1685 -0.1414
 6556SOL    HW131127   4.140   4.193   2.568  1.2155  0.2098  0.2002
 6556SOL    HW231128   4.124   4.144   2.702 -1.0708  0.5627  0.7123
 6557SOL     OW31129   3.564   4.055   7.949 -0.5111  0.6391  0.0588
 6557SOL    HW131130   3.498   4.108   7.905 -1.5722 -1.4561 -0.8605
 6557SOL    HW231131   3.601   3.991   7.888  0.3512 -1.1727  2.4822
 6558SOL     OW31132   4.516   3.666   5.146 -0.6532  0.2596 -0.7116
 6558SOL    HW131133   4.503   3.663   5.241 -2.0414 -2.3164 -0.9946
 6558SOL    HW231134   4.585   3.730   5.131  1.0345 -1.6919 -1.3024
 6559SOL     OW31135   1.949   4.502   2.612  0.3610 -0.7452 -0.1476
 6559SOL    HW131136   1.914   4.446   2.543  1.0999  0.1163 -1.2233
 6559SOL    HW231137   1.884   4.480   2.679  1.7080 -0.6595  1.1985
 6560SOL     OW31138   2.235   0.131  17.677  0.1640  0.1874  0.6541
 6560SOL    HW131139   2.247   0.100   0.084  0.8405  1.0165  0.8607
 6560SOL    HW231140   2.321   0.114  17.639 -0.7099 -1.4873 -0.5783
 6561SOL     OW31141   3.086   3.014   5.299 -0.4054 -0.0051  0.3090
 6561SOL    HW131142   3.005   2.987   5.342 -1.2250 -0.6276 -1.6326
 6561SOL    HW231143   3.050   3.046   5.216  1.1668  1.5842  0.2262
 6562SOL     OW31144   1.928   2.356   7.251  0.1392  0.3770  0.1788
 6562SOL    HW131145   1.850   2.353   7.196 -0.5666  1.1286  1.1408
 6562SOL    HW231146   1.969   2.432   7.210  2.1956 -0.7047  0.2031
 6563SOL     OW31147   0.931   0.525  13.007  0.0881 -0.3401  0.3851
 6563SOL    HW131148   1.010   0.571  13.036  0.3873  0.0271 -0.9941
 6563SOL    HW231149   0.979   0.444  12.989 -1.3904 -1.1726  0.2611
 6564SOL     OW31150   2.589   0.088   2.733  0.1701 -0.0397  0.3235
 6564SOL    HW131151   2.547   0.166   2.768 -0.3329 -0.3607  0.4372
 6564SOL    HW231152   2.681   0.110   2.739  0.1383  0.7515 -1.9158
 6565SOL     OW31153   4.007   1.091  16.983 -0.5554 -0.0215  0.3155
 6565SOL    HW131154   4.044   1.079  17.070 -0.8626  5.1065  1.1376
 6565SOL    HW231155   4.080   1.123  16.930 -2.3445  1.4644 -1.2525
 6566SOL     OW31156   0.798   1.330  15.690  0.0817  0.0198  0.0604
 6566SOL    HW131157   0.807   1.238  15.664 -0.5545  0.2748 -1.0915
 6566SOL    HW231158   0.828   1.373  15.610  1.8921 -4.3354 -1.5881
 6567SOL     OW31159   1.197   1.866   4.737 -0.1864 -0.6107  0.4769
 6567SOL    HW131160   1.248   1.942   4.766 -0.8703 -0.4013  1.1242
 6567SOL    HW231161   1.114   1.908   4.715  0.4522  0.2241 -0.3162
 6568SOL     OW31162   0.591   1.726   4.311  0.0102  0.1284 -0.6667
 6568SOL    HW131163   0.568   1.707   4.402 -0.2313 -0.2327 -0.8014
 6568SOL    HW231164   0.596   1.637   4.276  0.0806 -0.5608  1.0431
 6569SOL     OW31165   1.261   2.472   4.830 -0.1214  0.5366  0.2327
 6569SOL    HW131166   1.175   2.511   4.843 -0.3886  0.9229 -2.7435
 6569SOL    HW231167   1.292   2.461   4.920  0.0176  2.9872  0.4774
 6570SOL     OW31168   3.473   0.395   7.620  0.4551 -0.2437 -0.2706
 6570SOL    HW131169   3.540   0.338   7.583 -1.1446 -1.7303 -0.8739
 6570SOL    HW231170   3.430   0.325   7.669  1.5414 -1.6201 -1.2859
 6571SOL     OW31171   1.904   3.768  11.821  0.9027  0.1089 -0.0979
 6571SOL    HW131172   1.904   3.798  11.912 -2.9528  2.7535 -0.9810
 6571SOL    HW231173   1.999   3.769  11.811  0.5926 -0.0778 -2.9480
 6572SOL     OW31174   4.024   3.726   2.387  0.3715 -0.3224 -0.4012
 6572SOL    HW131175   4.048   3.710   2.296  0.8554  0.9713 -0.4992
 6572SOL    HW231176   3.929   3.732   2.390  0.2957 -1.5322 -0.2247
 6573SOL     OW31177   1.869   0.351   4.776  0.1781 -0.1044 -0.2116
 6573SOL    HW131178   1.794   0.393   4.733  0.1218  1.2712  1.2285
 6573SOL    HW231179   1.887   0.283   4.711  2.0014  0.4798 -0.3254
 6574SOL     OW31180   0.462   3.656  11.018 -0.0628 -0.1897  0.2788
 6574SOL    HW131181   0.506   3.580  11.056  1.2234 -0.7348 -2.3436
 6574SOL    HW231182   0.462   3.714  11.094  0.2752 -1.3908  1.2105
 6575SOL     OW31183   4.176   0.072  12.641  0.0431  0.0806  0.3422
 6575SOL    HW131184   4.224   4.711  12.656  0.1287  0.2144  0.8035
 6575SOL    HW231185   4.243   0.131  12.677  0.4611 -0.1262 -0.1051
 6576SOL     OW31186   2.505   4.663   8.148  0.2726  0.4423 -0.3807
 6576SOL    HW131187   2.507   4.647   8.053  2.2602 -1.9046  0.0525
 6576SOL    HW231188   2.437   4.611   8.192  0.6342  0.7713  0.5565
 6577SOL     OW31189   2.522   4.108   0.201  0.1204 -0.4026 -0.1668
 6577SOL    HW131190   2.551   4.127   0.112  1.2904  0.4707  0.4071
 6577SOL    HW231191   2.603   4.124   0.251 -0.5165  4.5277 -0.7289
 6578SOL     OW31192   3.555   0.850   7.017  0.5802  0.3929 -0.0816
 6578SOL    HW131193   3.630   0.828   7.073  0.9710  1.2643 -0.2673
 6578SOL    HW231194   3.580   0.793   6.944 -1.4780  1.3321 -1.4975
 6579SOL     OW31195   0.922   3.266  13.111 -0.0078  0.3119 -0.3421
 6579SOL    HW131196   1.006   3.310  13.120 -0.2232  0.5119  0.6409
 6579SOL    HW231197   0.915   3.277  13.016 -0.4667 -1.0830 -0.4676
 6580SOL     OW31198   2.917   2.226   4.350 -0.9956  0.0940  0.4450
 6580SOL    HW131199   2.887   2.144   4.388  2.3603 -0.0699  2.7841
 6580SOL    HW231200   2.880   2.225   4.262 -1.5665 -0.8379  0.6913
 6581SOL     OW31201   3.438   0.234  17.187 -0.3555  0.1345 -0.0485
 6581SOL    HW131202   3.381   0.177  17.239 -1.3684  1.1790 -0.0283
 6581SOL    HW231203   3.408   0.323  17.203 -2.4777 -0.5023 -0.4191
 6582SOL     OW31204   3.284   0.265   9.733  0.0093  0.3039 -0.3913
 6582SOL    HW131205   3.325   0.178   9.727  1.7216  1.0277  0.7741
 6582SOL    HW231206   3.273   0.291   9.824 -3.0900 -0.4071 -0.5789
 6583SOL     OW31207   3.420   4.408   5.613 -0.2576 -0.1907 -0.2683
 6583SOL    HW131208   3.396   4.316   5.610 -1.3092  0.1134 -1.2851
 6583SOL    HW231209   3.417   4.433   5.520 -0.2097 -0.2009 -0.2727
 6584SOL     OW31210   4.066   0.489   6.750 -0.3841 -0.6657  0.2813
 6584SOL    HW131211   4.056   0.394   6.761 -0.8209 -0.7339 -0.7205
 6584SOL    HW231212   3.983   0.525   6.721 -0.2542 -1.2156 -0.7626
 6585SOL     OW31213   3.179   3.155   7.830  0.3353 -0.4900 -0.2814
 6585SOL    HW131214   3.120   3.089   7.793  0.0356 -1.6431  2.2811
 6585SOL    HW231215   3.119   3.189   7.897  2.2283 -1.6314  1.9524
 6586SOL     OW31216   2.305   0.642   0.796  0.0569  0.3981  0.0762
 6586SOL    HW131217   2.251   0.644   0.717 -0.6308  2.1181  0.6016
 6586SOL    HW231218   2.266   0.721   0.833  0.3329  0.9165 -0.7255
 6587SOL     OW31219   0.587   1.205   4.248  0.1928 -0.0239  0.5473
 6587SOL    HW131220   0.551   1.286   4.211  2.6060 -0.1728 -2.1060
 6587SOL    HW231221   0.509   1.150   4.253 -0.6877  1.2423  0.6406
 6588SOL     OW31222   0.801   2.293   8.968  0.0690  0.3903 -0.2758
 6588SOL    HW131223   0.728   2.262   8.915  0.0823  1.4903 -0.9342
 6588SOL    HW231224   0.755   2.351   9.028 -1.1781 -0.4398 -0.4250
 6589SOL     OW31225   2.453   1.881   3.036  0.0968  0.4249 -0.2888
 6589SOL    HW131226   2.436   1.845   2.949  0.3401  1.1166 -0.6230
 6589SOL    HW231227   2.540   1.848   3.059 -0.6622 -1.0635  0.4382
 6590SOL     OW31228   3.876   3.085  16.307 -1.0817  0.5643 -0.2634
 6590SOL    HW131229   3.907   3.072  16.217  0.4717  2.7775 -0.0366
 6590SOL    HW231230   3.857   3.178  16.310 -2.2593  0.3119  0.0532
 6591SOL     OW31231   2.966   4.678  14.199  0.3990  0.0857  0.4186
 6591SOL    HW131232   2.960   0.001  14.284  2.1031 -2.2076  1.7109
 6591SOL    HW231233   3.025   0.019  14.154 -1.6591  1.7222 -0.0614
 6592SOL     OW31234   3.787   2.309   8.846  0.1776  0.3101 -0.2823
 6592SOL    HW131235   3.824   2.398   8.845 -0.3177  0.5232  0.4116
 6592SOL    HW231236   3.708   2.316   8.900  1.1149  0.1387  1.1074
 6593SOL     OW31237   4.672   1.898   9.857 -0.1416 -0.1892  0.5830
 6593SOL    HW131238   4.634   1.951   9.927 -1.8070  1.8555 -1.8599
 6593SOL    HW231239   0.033   1.942   9.834 -0.0064 -0.1043  1.2278
 6594SOL     OW31240   3.486   0.104   2.016  0.4383 -0.3909 -0.2420
 6594SOL    HW131241   3.403   0.153   2.015 -0.0841 -1.3104 -1.3655
 6594SOL    HW231242   3.460   0.029   2.070 -0.9668 -0.3530 -0.8753
 6595SOL     OW31243   4.464   3.046   4.758 -0.2644 -0.0805 -0.5250
 6595SOL    HW131244   4.413   3.023   4.836 -1.3031  0.9196 -0.9213
 6595SOL    HW231245   4.458   3.141   4.752  0.4111  0.0271  0.5279
 6596SOL     OW31246   4.174   0.463   9.020  0.3185  0.0172 -0.4554
 6596SOL    HW131247   4.133   0.419   9.094 -1.5861 -1.1244 -2.1702
 6596SOL    HW231248   4.265   0.481   9.044 -0.3137  1.7061  0.6855
 6597SOL     OW31249   3.481   0.605   8.194  0.4784 -0.2712 -0.0555
 6597SOL    HW131250   3.518   0.519   8.176  0.3303 -0.5928  1.1819
 6597SOL    HW231251   3.447   0.632   8.109  3.0358  0.4664 -0.8548
 6598SOL     OW31252   1.653   2.726   0.128  0.7997 -0.2962 -0.2195
 6598SOL    HW131253   1.745   2.718   0.101  0.5943 -0.2314 -0.9588
 6598SOL    HW231254   1.615   2.641   0.106  2.2445 -1.1053  0.4363
 6599SOL     OW31255   1.921   3.181   7.188 -0.6556 -0.1922 -0.6193
 6599SOL    HW131256   1.937   3.098   7.233 -3.7723 -0.5045 -0.0877
 6599SOL    HW231257   1.826   3.180   7.183 -0.6593  0.2118 -0.6108
 6600SOL     OW31258   0.746   0.486   3.085 -0.0632 -0.2050 -0.6270
 6600SOL    HW131259   0.653   0.485   3.106  0.1464  0.5362  0.3090
 6600SOL    HW231260   0.762   0.579   3.101 -0.7497 -0.1289 -0.3881
 6601SOL     OW31261   0.251   2.056  17.400  0.3047  0.1523 -0.6822
 6601SOL    HW131262   0.185   2.097  17.455  0.6714  4.1058 -3.2218
 6601SOL    HW231263   0.302   2.003  17.462 -0.0699 -0.1030 -0.5966
 6602SOL     OW31264   1.706   0.027   8.167 -0.4614  0.0525 -0.1926
 6602SOL    HW131265   1.623   4.707   8.192  0.5399 -2.1642 -0.4358
 6602SOL    HW231266   1.759   4.715   8.241  0.1728  0.1620 -0.5992
 6603SOL     OW31267   1.663   0.040  10.797 -0.6743  0.0927 -0.0330
 6603SOL    HW131268   1.610   0.119  10.793  1.8347  1.8217  0.6609
 6603SOL    HW231269   1.723   0.058  10.869  1.1576  2.1197 -2.0436
 6604SOL     OW31270   4.533   1.114  12.752 -0.7415 -0.5855 -0.4940
 6604SOL    HW131271   4.447   1.094  12.788  0.8147 -1.1746  2.8500
 6604SOL    HW231272   4.519   1.201  12.716 -1.0309 -0.4986 -0.1688
 6605SOL     OW31273   3.678   4.360   7.173  0.1279 -0.7342 -0.0766
 6605SOL    HW131274   3.588   4.327   7.184 -0.3696  0.8642  0.6921
 6605SOL    HW231275   3.700   4.376   7.265  0.0581  0.1315 -0.2146
 6606SOL     OW31276   4.404   1.589   5.924  0.1224  0.1070  0.2772
 6606SOL    HW131277   4.472   1.614   5.862  2.0983 -3.0527  1.1412
 6606SOL    HW231278   4.352   1.526   5.873 -0.4261  0.8248 -0.0466
 6607SOL     OW31279   2.852   1.850   3.699  0.5689  0.4104 -0.4343
 6607SOL    HW131280   2.905   1.930   3.709  0.1379  0.1607  3.6398
 6607SOL    HW231281   2.864   1.833   3.606  0.7459  1.3363 -0.5860
 6608SOL     OW31282   3.284   2.438   2.550 -0.9128  0.2117 -0.4991
 6608SOL    HW131283   3.201   2.450   2.595 -1.1228  2.1286 -1.3793
 6608SOL    HW231284   3.287   2.524   2.509 -0.2449 -0.3448 -1.6207
 6609SOL     OW31285   0.059   4.626   9.139  0.2380 -0.0123  0.5427
 6609SOL    HW131286   0.057   4.630   9.234  1.2444  3.3906  0.4493
 6609SOL    HW231287   4.695   4.663   9.109  0.7206 -0.2904 -1.1850
 6610SOL     OW31288   3.981   3.684   6.638  0.1670 -0.3435 -0.0197
 6610SOL    HW131289   4.002   3.693   6.545 -0.8347 -1.1659 -0.3191
 6610SOL    HW231290   3.890   3.654   6.631 -0.0983  0.1229  1.5869
 6611SOL     OW31291   1.483   0.398   3.776 -0.2172  0.2100  0.0717
 6611SOL    HW131292   1.400   0.354   3.795  0.3095 -0.6048  0.4441
 6611SOL    HW231293   1.541   0.323   3.784  0.3559  0.9728  2.9461
 6612SOL     OW31294   1.011   1.491   2.537  0.5144 -0.2717  0.0258
 6612SOL    HW131295   1.044   1.469   2.450  0.2830  0.8322 -0.3353
 6612SOL    HW231296   1.074   1.440   2.588  0.2168 -0.0519  0.6187
 6613SOL     OW31297   3.571   4.239   3.280 -0.0361 -0.4464 -0.2632
 6613SOL    HW131298   3.536   4.209   3.196 -1.7316 -2.1482  1.0850
 6613SOL    HW231299   3.600   4.329   3.263  0.0576 -0.7950 -1.9673
 6614SOL     OW31300   1.383   2.958   2.550  0.2008 -0.1535 -0.3536
 6614SOL    HW131301   1.382   3.041   2.501 -1.0608 -0.6845 -1.2176
 6614SOL    HW231302   1.463   2.921   2.512 -0.3703  0.5082 -2.1691
 6615SOL     OW31303   2.648   2.103  15.944 -0.5304  0.6907 -0.2403
 6615SOL    HW131304   2.735   2.143  15.949  0.7147 -2.1157  0.0048
 6615SOL    HW231305   2.612   2.164  15.879  2.4357  2.4342 -0.2567
 6616SOL     OW31306   3.632   1.232   7.256  0.0355  0.3396 -0.4657
 6616SOL    HW131307   3.682   1.202   7.332  0.0001  0.5540 -0.3560
 6616SOL    HW231308   3.659   1.169   7.189  0.7465  1.1150 -0.9185
 6617SOL     OW31309   1.913   0.319  10.051  0.1177  0.1298 -0.2928
 6617SOL    HW131310   1.881   0.228  10.052  0.5760 -0.0575 -3.3499
 6617SOL    HW231311   1.824   0.356  10.055  0.0937  0.2114 -1.5856
 6618SOL     OW31312   4.561   3.364  16.017 -0.2848 -0.3168 -0.2947
 6618SOL    HW131313   4.558   3.418  16.096  0.1300 -0.3740 -0.2403
 6618SOL    HW231314   4.644   3.389  15.975 -0.6533 -0.8972 -1.3682
 6619SOL     OW31315   4.580   3.042   9.731 -0.6680  0.1252 -0.8613
 6619SOL    HW131316   4.599   3.136   9.721 -2.2262  0.6774  1.4787
 6619SOL    HW231317   4.603   3.030   9.823  1.4337 -1.7775 -1.6375
 6620SOL     OW31318   1.750   2.353  12.947  0.9715  0.8050  0.1235
 6620SOL    HW131319   1.664   2.330  12.981  0.8514 -2.2826 -2.2398
 6620SOL    HW231320   1.731   2.428  12.891 -1.6359  0.8858  1.1446
 6621SOL     OW31321   0.003   1.842   3.846  0.0363  0.3624 -0.2220
 6621SOL    HW131322   4.659   1.792   3.897  1.3355 -0.5144  0.5409
 6621SOL    HW231323   4.664   1.885   3.785 -1.7824  1.0101  1.9850
 6622SOL     OW31324   3.113   4.489   7.020 -0.3432  0.0495 -0.8634
 6622SOL    HW131325   3.036   4.450   7.062 -1.4974  0.4453 -2.6036
 6622SOL    HW231326   3.106   4.447   6.934  0.2267 -0.5135 -0.6349
 6623SOL     OW31327   3.736   4.572   6.750  0.5002 -0.9074 -0.1671
 6623SOL    HW131328   3.820   4.615   6.762  0.7169 -1.3079 -0.2601
 6623SOL    HW231329   3.685   4.606   6.823 -0.5969  0.0829 -1.3917
 6624SOL     OW31330   1.717   0.488   0.349 -0.0318  0.8624 -0.0139
 6624SOL    HW131331   1.698   0.559   0.287 -1.6600 -1.3460 -2.0650
 6624SOL    HW231332   1.754   0.532   0.425 -1.6939  0.3807  1.0617
 6625SOL     OW31333   3.285   3.905   3.382 -0.3000 -0.2961 -0.2932
 6625SOL    HW131334   3.290   4.000   3.369 -0.7384 -0.1158  0.8442
 6625SOL    HW231335   3.275   3.908   3.477  0.5810  0.6823 -0.2306
 6626SOL     OW31336   2.087   2.755   2.599 -0.2624 -0.2117 -0.0842
 6626SOL    HW131337   2.150   2.697   2.556 -0.5205  2.0370 -3.4759
 6626SOL    HW231338   2.007   2.703   2.592 -1.2815  1.2254  0.8992
 6627SOL     OW31339   2.553   2.554   6.133 -0.2686  0.2191 -0.4688
 6627SOL    HW131340   2.627   2.582   6.187 -0.7458 -0.5793  0.6098
 6627SOL    HW231341   2.499   2.626   6.163  0.2737  0.6597 -0.5492
 6628SOL     OW31342   2.356   4.421   5.933  0.9994 -0.5831 -0.0937
 6628SOL    HW131343   2.338   4.430   6.026  0.8556 -0.8698 -0.0939
 6628SOL    HW231344   2.272   4.448   5.895  1.1431  0.4866  0.3714
 6629SOL     OW31345   1.357   0.271   4.062  0.2921  0.0848 -0.3984
 6629SOL    HW131346   1.332   0.298   4.151 -0.5005 -2.4216  0.1305
 6629SOL    HW231347   1.294   0.326   4.015  0.0785 -2.7734 -3.4600
 6630SOL     OW31348   0.632   1.356   4.977 -0.2738  0.0654 -0.0938
 6630SOL    HW131349   0.683   1.396   4.907  0.0994 -0.6724 -0.2442
 6630SOL    HW231350   0.694   1.362   5.051 -3.3407  2.3208  2.2980
 6631SOL     OW31351   1.382   1.103  11.999 -0.4682  0.2782  0.0934
 6631SOL    HW131352   1.380   1.164  11.926  0.8391  0.3141  0.0765
 6631SOL    HW231353   1.438   1.157  12.055  0.2945  1.6559 -1.9999
 6632SOL     OW31354   1.218   2.690   5.659 -0.1686 -0.7352 -0.9418
 6632SOL    HW131355   1.283   2.699   5.589  2.4473  0.6854  1.6471
 6632SOL    HW231356   1.225   2.780   5.691 -0.2330 -0.6426 -1.1844
 6633SOL     OW31357   0.544   2.564   7.519 -0.6188 -0.6541 -0.2414
 6633SOL    HW131358   0.536   2.621   7.596  0.3057  0.9036 -1.2899
 6633SOL    HW231359   0.451   2.548   7.501 -0.5744 -0.6002 -0.5100
 6634SOL     OW31360   1.651   3.024   8.026  0.1115 -0.4986  0.5154
 6634SOL    HW131361   1.602   3.049   8.105 -2.0944  1.7630 -1.5811
 6634SOL    HW231362   1.704   3.100   8.003  0.4276 -1.5006 -2.0216
 6635SOL     OW31363   4.588   2.667  12.993 -0.5114  0.1710 -0.6308
 6635SOL    HW131364   4.643   2.603  13.039 -0.5251  1.0573  0.6402
 6635SOL    HW231365   4.658   2.729  12.975 -0.7019  1.1427  1.9391
 6636SOL     OW31366   2.008   3.424   7.975  0.1791 -0.6640 -0.0873
 6636SOL    HW131367   1.989   3.518   7.974 -1.8389 -1.0810 -0.6525
 6636SOL    HW231368   2.054   3.437   8.058 -0.0035  0.5073 -0.1643
 6637SOL     OW31369   2.692   1.573   8.322 -0.1826 -0.4267  0.4831
 6637SOL    HW131370   2.620   1.608   8.269  1.4515 -0.4546 -1.7765
 6637SOL    HW231371   2.723   1.648   8.372 -1.6530 -0.8287  1.9767
 6638SOL     OW31372   2.850   2.899   6.187 -0.1055  0.1327 -0.1781
 6638SOL    HW131373   2.886   2.846   6.116 -0.8061 -2.4398  1.4297
 6638SOL    HW231374   2.782   2.842   6.220  1.9232 -1.5390  1.1074
 6639SOL     OW31375   1.226   3.249   3.807  0.1702 -0.5032 -0.0238
 6639SOL    HW131376   1.180   3.182   3.857  0.9410 -0.6072  0.5461
 6639SOL    HW231377   1.245   3.305   3.882 -2.0182  0.2817 -0.0404
 6640SOL     OW31378   3.944   4.640  12.589 -0.1468  0.6901 -0.1300
 6640SOL    HW131379   3.849   4.650  12.594 -0.1695  0.9105 -1.0437
 6640SOL    HW231380   3.971   0.009  12.611  0.1685  0.6265 -0.2571
 6641SOL     OW31381   3.579   0.589   7.276  0.2484  0.3361 -0.2168
 6641SOL    HW131382   3.517   0.554   7.341  2.5974  0.3679  2.0289
 6641SOL    HW231383   3.638   0.514   7.270  1.2157  1.1576 -1.0315
 6642SOL     OW31384   4.669   3.914   3.000  0.0194  0.5978  0.1209
 6642SOL    HW131385   4.625   3.844   2.951 -0.1760  2.3855 -2.2663
 6642SOL    HW231386   4.711   3.955   2.924 -0.3780 -0.0598 -0.4523
 6643SOL     OW31387   4.233   2.531   8.602 -0.3064 -0.4250  0.0481
 6643SOL    HW131388   4.142   2.500   8.607  0.0418 -0.9863  2.5063
 6643SOL    HW231389   4.219   2.614   8.646 -1.2814  0.1393 -1.3031
 6644SOL     OW31390   4.711   1.698   2.843  0.3746 -0.0884  0.3646
 6644SOL    HW131391   4.711   1.631   2.775  1.2112 -1.6766  1.9267
 6644SOL    HW231392   0.056   1.666   2.906 -3.0196 -0.9958  3.4092
 6645SOL     OW31393   1.839   0.210  16.396  0.1491 -0.7165  0.3293
 6645SOL    HW131394   1.920   0.174  16.432  0.5016  0.9487  1.1765
 6645SOL    HW231395   1.858   0.219  16.303 -0.5979  1.2400  0.3752
 6646SOL     OW31396   3.751   0.808   2.609  0.1504 -0.3605  0.1270
 6646SOL    HW131397   3.684   0.871   2.582 -0.6230 -1.4580 -0.5172
 6646SOL    HW231398   3.800   0.788   2.529 -1.0535  0.9590 -0.9550
 6647SOL     OW31399   1.441   1.069   7.977  0.7572  0.3797 -0.2710
 6647SOL    HW131400   1.451   1.050   8.071  0.0479  1.5367  0.0383
 6647SOL    HW231401   1.348   1.047   7.964  0.3556  2.4151 -0.8425
 6648SOL     OW31402   0.818   0.414   8.351  0.5071 -0.9660  0.2571
 6648SOL    HW131403   0.866   0.392   8.430  0.4217  1.5559  0.9922
 6648SOL    HW231404   0.756   0.342   8.334 -0.4588 -1.1983  4.8103
 6649SOL     OW31405   0.019   1.345   3.025 -0.5896 -0.7936 -0.0728
 6649SOL    HW131406   0.023   1.322   2.932 -0.2479  0.9571 -0.4964
 6649SOL    HW231407   0.040   1.439   3.024 -1.0071 -0.7155 -0.8180
 6650SOL     OW31408   1.596   4.047   3.337 -0.2650  0.6205 -0.4196
 6650SOL    HW131409   1.519   4.098   3.363 -0.8186  0.1255 -1.0966
 6650SOL    HW231410   1.549   3.964   3.339 -0.6885  0.8660 -0.0818
 6651SOL     OW31411   0.301   3.455   5.774  0.0189  0.2015  0.0503
 6651SOL    HW131412   0.371   3.483   5.715 -0.9880 -0.3943 -1.4506
 6651SOL    HW231413   0.354   3.401   5.832 -0.0946 -1.0471 -0.9948
 6652SOL     OW31414   2.266   1.153   5.756  0.1995  0.0536 -0.1428
 6652SOL    HW131415   2.185   1.102   5.748  0.1446  0.0576  0.3904
 6652SOL    HW231416   2.330   1.089   5.787  1.3684  1.4230  0.2569
 6653SOL     OW31417   2.636   1.605   6.204 -0.3810 -0.3955 -0.5613
 6653SOL    HW131418   2.605   1.685   6.246  3.2594 -0.0654  1.5208
 6653SOL    HW231419   2.626   1.643   6.117 -0.3022 -0.7094 -0.7074
 6654SOL     OW31420   0.869   3.793   9.255  0.0605  0.4825  0.2119
 6654SOL    HW131421   0.921   3.872   9.269  0.1259 -0.3299  4.4786
 6654SOL    HW231422   0.925   3.726   9.294 -1.4906 -1.4170 -0.7989
 6655SOL     OW31423   1.281   3.039   9.124  0.1932 -0.5667 -0.4923
 6655SOL    HW131424   1.352   2.997   9.077  1.2085  1.3898 -0.6785
 6655SOL    HW231425   1.301   3.011   9.213  0.5948 -0.4809 -0.5585
 6656SOL     OW31426   1.283   3.199   7.072  0.4426  0.0374  0.0781
 6656SOL    HW131427   1.291   3.112   7.111 -0.3580  0.3256  0.8926
 6656SOL    HW231428   1.364   3.239   7.105  0.2000  0.4152  0.2105
 6657SOL     OW31429   1.601   0.810  13.612 -0.4526  0.3565 -0.3187
 6657SOL    HW131430   1.640   0.787  13.696 -0.8834  0.9267  0.0379
 6657SOL    HW231431   1.679   0.801  13.557  0.2736  0.2368  0.7315
 6658SOL     OW31432   4.196   2.780   7.299 -0.1132 -0.1482 -0.3635
 6658SOL    HW131433   4.180   2.845   7.367 -2.5381  1.6132 -2.5803
 6658SOL    HW231434   4.281   2.750   7.331 -0.4698 -2.3001 -1.4300
 6659SOL     OW31435   0.419   4.248   4.867 -0.5144 -0.8685  0.2419
 6659SOL    HW131436   0.419   4.336   4.904 -3.3939 -0.0471 -1.6661
 6659SOL    HW231437   0.372   4.204   4.938 -1.4102 -0.2044  0.0587
 6660SOL     OW31438   2.959   3.440   8.237  0.3685  0.3863 -0.0964
 6660SOL    HW131439   3.048   3.410   8.254 -0.1916 -1.2437  0.0041
 6660SOL    HW231440   2.954   3.489   8.320  0.9211 -0.0172  0.1771
 6661SOL     OW31441   0.179   1.074   6.607 -0.1186 -0.6319 -0.2124
 6661SOL    HW131442   0.116   1.003   6.605 -0.8668  0.0310 -0.1947
 6661SOL    HW231443   0.264   1.030   6.613  0.9166  0.7017 -4.8621
 6662SOL     OW31444   3.517   1.531  14.200  0.4833  0.1446 -0.3987
 6662SOL    HW131445   3.516   1.624  14.222 -2.3730  0.3181 -1.2366
 6662SOL    HW231446   3.447   1.531  14.135  1.0629  1.1334 -1.0090
 6663SOL     OW31447   4.643   3.251   8.337  0.1273 -0.0309 -0.2448
 6663SOL    HW131448   4.639   3.301   8.419 -1.6146 -0.6761  0.0745
 6663SOL    HW231449   0.007   3.206   8.332 -0.1248 -0.7927  2.2562
 6664SOL     OW31450   2.164   3.752   5.902 -0.2947  0.8159  0.3907
 6664SOL    HW131451   2.113   3.704   5.836  0.4515  0.3723  0.1380
 6664SOL    HW231452   2.214   3.681   5.942 -3.1079 -0.5509  1.5253
 6665SOL     OW31453   3.179   2.981   8.136 -0.5359  0.4195 -0.3739
 6665SOL    HW131454   3.172   2.918   8.064  0.8980  1.0204 -1.0346
 6665SOL    HW231455   3.090   3.015   8.143 -0.6578 -0.2869  1.3818
 6666SOL     OW31456   3.075   1.463  13.713 -0.0767  0.1015 -0.2101
 6666SOL    HW131457   3.115   1.530  13.769  1.2294 -0.3489 -0.5886
 6666SOL    HW231458   3.063   1.518  13.635  3.0108  1.6639  0.3933
 6667SOL     OW31459   3.473   1.941   1.270  0.5082 -0.3593 -0.3208
 6667SOL    HW131460   3.426   1.998   1.209  0.1302 -0.8072 -0.4509
 6667SOL    HW231461   3.439   1.855   1.244 -0.2978 -0.2277  0.3106
 6668SOL     OW31462   0.771   1.554   4.829 -0.9363 -0.4009  0.1691
 6668SOL    HW131463   0.708   1.612   4.872  0.2247  0.5322  0.6032
 6668SOL    HW231464   0.854   1.591   4.857 -0.7285  1.1916 -2.5817
 6669SOL     OW31465   1.243   3.583  11.062 -0.0152  0.4842 -0.1411
 6669SOL    HW131466   1.281   3.506  11.104 -0.9301  0.1408  0.0613
 6669SOL    HW231467   1.318   3.641  11.046  0.0434  0.9723  1.9335
 6670SOL     OW31468   3.380   1.140   3.460 -0.3230  0.0097  0.3432
 6670SOL    HW131469   3.389   1.047   3.437  1.2689 -0.2893  2.2112
 6670SOL    HW231470   3.444   1.152   3.530 -1.3216 -0.6289  1.3801
 6671SOL     OW31471   3.592   0.606   0.486 -0.1229  0.1617  0.2194
 6671SOL    HW131472   3.570   0.694   0.517  1.3132 -0.2579  2.4667
 6671SOL    HW231473   3.676   0.618   0.443  0.2292  0.5278  1.0021
 6672SOL     OW31474   4.254   2.623  13.297 -0.3284  0.0056  0.4370
 6672SOL    HW131475   4.271   2.702  13.348  0.5382 -0.4718  0.9046
 6672SOL    HW231476   4.269   2.648  13.206  3.4366 -0.7223  0.8505
 6673SOL     OW31477   3.672   1.956  15.626 -0.4707  0.0580  0.2351
 6673SOL    HW131478   3.651   2.049  15.616  0.3989  0.0330 -1.7113
 6673SOL    HW231479   3.714   1.958  15.712  0.6615  0.6198 -0.3453
 6674SOL     OW31480   0.840   3.600  10.267  0.3022 -0.3495 -0.2679
 6674SOL    HW131481   0.787   3.524  10.293  1.1036 -0.7038  0.3244
 6674SOL    HW231482   0.826   3.603  10.173 -0.8096 -2.5721 -0.1883
 6675SOL     OW31483   2.434   3.893   8.290 -0.0319 -0.1845 -0.7386
 6675SOL    HW131484   2.438   3.805   8.254  1.4765  0.0291 -1.1104
 6675SOL    HW231485   2.484   3.957   8.238 -0.4991  0.2595 -0.6429
 6676SOL     OW31486   2.368   0.882  15.184 -0.1477 -0.7109 -0.4484
 6676SOL    HW131487   2.397   0.962  15.141 -1.0516 -0.1153  0.0397
 6676SOL    HW231488   2.331   0.910  15.267  0.9589  0.5992 -0.4026
 6677SOL     OW31489   0.851   2.694  10.254 -0.1127 -0.0026  0.4058
 6677SOL    HW131490   0.912   2.668  10.323  0.7263  1.2520  0.1491
 6677SOL    HW231491   0.906   2.741  10.191 -1.9133  0.9095 -0.5059
 6678SOL     OW31492   2.224   2.011   2.179 -0.0565 -0.4929  0.2840
 6678SOL    HW131493   2.268   2.083   2.225  0.2163 -0.6610  0.2902
 6678SOL    HW231494   2.289   1.942   2.195  0.0173 -0.2160  1.1944
 6679SOL     OW31495   0.556   3.109   9.991 -0.0180 -0.2178 -0.4039
 6679SOL    HW131496   0.628   3.083  10.048 -1.8472 -0.9222  1.6047
 6679SOL    HW231497   0.491   3.099  10.061  1.6680 -2.3887  0.8290
 6680SOL     OW31498   1.537   3.290   8.767  0.3726 -0.0468  0.2795
 6680SOL    HW131499   1.503   3.380   8.760  0.2646 -0.0365  1.0072
 6680SOL    HW231500   1.458   3.237   8.764  0.0420  0.4314  0.5869
 6681SOL     OW31501   0.196   2.285   4.365  0.4833 -0.4938 -0.3148
 6681SOL    HW131502   0.107   2.298   4.398 -0.1408 -0.8973 -1.8154
 6681SOL    HW231503   0.173   2.230   4.289 -1.4586  1.2398 -0.9808
 6682SOL     OW31504   0.517   2.676   6.989 -0.3398 -0.9843 -0.5231
 6682SOL    HW131505   0.515   2.767   7.020  1.4794 -0.8734 -0.6966
 6682SOL    HW231506   0.485   2.678   6.899  0.0333 -0.3693 -0.6494
 6683SOL     OW31507   1.145   0.536   0.721 -0.2659  0.4362  0.1463
 6683SOL    HW131508   1.102   0.512   0.803 -0.8896 -0.2102 -0.3638
 6683SOL    HW231509   1.184   0.620   0.747  0.1494 -0.0374  1.0511
 6684SOL     OW31510   4.379   0.185   6.710  0.7078  0.0820 -0.2195
 6684SOL    HW131511   4.449   0.149   6.764  1.0486  1.0707 -0.0009
 6684SOL    HW231512   4.311   0.121   6.733  0.1100  0.4906 -0.8713
 6685SOL     OW31513   2.695   2.812   2.020  0.5246 -0.5163 -0.3856
 6685SOL    HW131514   2.782   2.796   1.982 -0.0641  0.1829 -2.0107
 6685SOL    HW231515   2.646   2.788   1.942  1.4755 -0.7423 -0.9215
 6686SOL     OW31516   4.518   1.952   6.860 -0.7224 -0.4931  0.1437
 6686SOL    HW131517   4.483   2.041   6.869 -0.3009 -0.0427 -2.5616
 6686SOL    HW231518   4.494   1.919   6.773 -2.1728 -1.5996  0.9838
 6687SOL     OW31519   2.206   0.356  17.486  0.4046 -0.1909  0.2184
 6687SOL    HW131520   2.223   0.303  17.564  0.6055  0.6809  0.7697
 6687SOL    HW231521   2.253   0.308  17.418  3.0917  1.4225  0.9200
 6688SOL     OW31522   3.998   1.836   9.719  0.4746  0.3950 -0.2336
 6688SOL    HW131523   4.050   1.776   9.772 -0.1554 -1.9793 -2.2848
 6688SOL    HW231524   4.020   1.921   9.756 -3.0322 -0.1167  3.0024
 6689SOL     OW31525   0.387   2.155   4.465  0.0372 -0.5435  0.5007
 6689SOL    HW131526   0.357   2.224   4.406  2.2191 -0.1562 -0.1794
 6689SOL    HW231527   0.383   2.078   4.408  0.8329 -0.4694  0.3380
 6690SOL     OW31528   2.236   3.931   7.964 -0.6779 -0.1687  0.2114
 6690SOL    HW131529   2.241   3.901   7.873  1.1738 -0.8232  0.5425
 6690SOL    HW231530   2.145   3.961   7.956 -0.0185  1.4435 -1.1625
 6691SOL     OW31531   2.125   4.645   5.986 -0.2237 -0.8280 -0.0039
 6691SOL    HW131532   2.116   4.601   5.901 -2.8690  0.8866 -0.6361
 6691SOL    HW231533   2.203   4.699   5.970  0.9512 -2.4705  0.2307
 6692SOL     OW31534   4.457   3.553   1.246 -0.2917  0.1187 -0.5414
 6692SOL    HW131535   4.406   3.547   1.327  0.2480 -0.6583 -0.2608
 6692SOL    HW231536   4.463   3.647   1.234 -1.0336  0.1330 -0.7978
 6693SOL     OW31537   1.374   4.588   2.883 -0.4578 -0.6161 -0.4531
 6693SOL    HW131538   1.360   4.664   2.940  0.6690 -0.7340 -0.0263
 6693SOL    HW231539   1.360   4.619   2.793 -0.2139 -0.1706 -0.3390
 6694SOL     OW31540   3.922   0.451   5.494 -0.2879  0.0393 -0.4575
 6694SOL    HW131541   3.961   0.421   5.575 -0.2171  1.9393  0.2078
 6694SOL    HW231542   3.845   0.494   5.533  0.3489  0.0171  0.8156
 6695SOL     OW31543   2.693   2.865   0.783 -0.2541  0.6302 -0.0149
 6695SOL    HW131544   2.606   2.869   0.742  0.9035 -1.2396 -2.6584
 6695SOL    HW231545   2.718   2.956   0.799  0.9758  0.3046 -0.0900
 6696SOL     OW31546   1.626   1.270  12.104 -0.1836  0.1911  0.0741
 6696SOL    HW131547   1.656   1.180  12.114  0.6760  0.4463 -0.2013
 6696SOL    HW231548   1.666   1.325  12.171 -0.2946  1.1705 -0.6548
 6697SOL     OW31549   0.366   3.116   6.256  0.1998  0.1429  0.1758
 6697SOL    HW131550   0.386   3.110   6.349  1.0801 -1.7579 -0.1498
 6697SOL    HW231551   0.435   3.174   6.224  0.2630 -2.6185 -4.6360
 6698SOL     OW31552   0.219   4.633  13.311  0.3084  0.6033  0.0194
 6698SOL    HW131553   0.133   4.673  13.301 -0.9397 -2.1087 -0.0242
 6698SOL    HW231554   0.202   4.568  13.379 -0.2258 -0.9509 -1.6025
 6699SOL     OW31555   3.920   3.918   6.799 -0.0697  1.2733 -0.1750
 6699SOL    HW131556   3.889   3.966   6.722 -2.9872 -1.7830 -0.9271
 6699SOL    HW231557   3.932   3.829   6.765 -0.8352  0.5310  1.5028
 6700SOL     OW31558   2.386   2.998   2.580  0.3302  0.6105  0.1414
 6700SOL    HW131559   2.301   2.980   2.540  0.4100  0.3580  0.0912
 6700SOL    HW231560   2.375   2.958   2.666 -1.4371  1.3900  0.2779
 6701SOL     OW31561   1.777   1.124   9.700 -0.1178 -0.2268 -0.1883
 6701SOL    HW131562   1.828   1.143   9.778 -0.0994 -0.6383 -0.1009
 6701SOL    HW231563   1.707   1.072   9.738  0.5125 -0.7131  0.3106
 6702SOL     OW31564   1.406   2.058   3.970 -0.3229 -0.0706  0.2430
 6702SOL    HW131565   1.474   2.034   3.907  0.7188  0.0917  1.3116
 6702SOL    HW231566   1.338   2.086   3.909  0.5806  1.6849  0.0363
 6703SOL     OW31567   4.676   1.522   6.817 -0.4069  0.3395 -0.4658
 6703SOL    HW131568   4.702   1.585   6.885  0.9139 -1.4159  0.6328
 6703SOL    HW231569   0.037   1.489   6.778  0.9433  1.7769  1.0709
 6704SOL     OW31570   4.375   2.173   3.149  0.5177 -0.5086 -0.3524
 6704SOL    HW131571   4.353   2.253   3.196  0.2756  0.3388 -1.9168
 6704SOL    HW231572   4.457   2.148   3.193  0.6316  3.6138  1.7432
 6705SOL     OW31573   1.536   2.463   0.098  0.8122  0.0881  0.1307
 6705SOL    HW131574   1.597   2.405   0.053 -0.2670 -0.4484 -0.6655
 6705SOL    HW231575   1.457   2.410   0.107  1.0633 -0.7745 -2.5252
 6706SOL     OW31576   3.047   3.949   3.673  0.3032  0.7479 -0.1096
 6706SOL    HW131577   3.025   4.030   3.627  2.5668  1.8032  0.6383
 6706SOL    HW231578   3.143   3.957   3.680  0.3137  0.4225  0.1011
 6707SOL     OW31579   3.863   0.174   5.044 -0.0438  0.7564 -0.3986
 6707SOL    HW131580   3.780   0.127   5.043  0.1257  0.4430  1.2564
 6707SOL    HW231581   3.873   0.194   5.137 -2.4554  2.1615 -0.4332
 6708SOL     OW31582   1.943   4.196  11.970  0.1915 -0.1302  0.1728
 6708SOL    HW131583   1.932   4.268  12.033  1.5564  0.2296 -0.0122
 6708SOL    HW231584   1.984   4.124  12.017  0.2316  0.8394  1.6250
 6709SOL     OW31585   2.648   0.268   8.782  0.4778  0.1617 -0.3508
 6709SOL    HW131586   2.653   0.354   8.741 -1.2915 -0.0214 -0.9648
 6709SOL    HW231587   2.741   0.248   8.778  0.3551 -0.1826 -1.6533
 6710SOL     OW31588   3.305   3.824   7.873 -0.8876 -0.2688 -0.2311
 6710SOL    HW131589   3.257   3.775   7.805 -1.5451 -1.1569  0.8770
 6710SOL    HW231590   3.327   3.899   7.817 -1.1001  0.2450  0.3708
 6711SOL     OW31591   2.962   1.710   4.928  0.0027  0.0780  0.6814
 6711SOL    HW131592   2.935   1.796   4.959 -1.5299 -0.9232  2.1071
 6711SOL    HW231593   3.009   1.677   5.005 -0.4936 -0.6188  0.6893
 6712SOL     OW31594   0.621   0.787   7.032 -0.1138  0.2707  0.0295
 6712SOL    HW131595   0.690   0.738   7.075 -0.1997  0.9449  0.9470
 6712SOL    HW231596   0.587   0.837   7.107  2.7145  1.7106  0.3671
 6713SOL     OW31597   2.332   3.576   1.892  0.4232 -0.1432  0.0806
 6713SOL    HW131598   2.329   3.485   1.863  1.1154  0.7664 -2.7635
 6713SOL    HW231599   2.346   3.618   1.808  0.8401 -0.8111 -0.1809
 6714SOL     OW31600   4.093   3.023   5.851  0.0961  0.1412 -0.1820
 6714SOL    HW131601   4.117   3.074   5.774 -0.5839 -0.3030 -0.6963
 6714SOL    HW231602   4.110   2.932   5.827 -0.8369  0.2831 -1.4213
 6715SOL     OW31603   1.126   4.461   2.355 -0.2592 -0.0946  0.2462
 6715SOL    HW131604   1.054   4.411   2.318  0.1041  1.0850 -2.0896
 6715SOL    HW231605   1.111   4.553   2.334  2.5688  0.5368  0.9787
 6716SOL     OW31606   0.984   2.176   2.987 -0.4744  0.4921 -0.0931
 6716SOL    HW131607   0.931   2.164   2.908 -1.2719 -0.0026  0.5268
 6716SOL    HW231608   0.939   2.248   3.032  1.5727  1.3548  0.5974
 6717SOL     OW31609   1.394   1.271   4.242 -0.0090  0.2135 -0.3683
 6717SOL    HW131610   1.380   1.289   4.149  1.5002  3.5680  0.0369
 6717SOL    HW231611   1.467   1.327   4.270  1.1573 -0.3164 -2.3082
 6718SOL     OW31612   1.537   2.416  16.447  0.4355  0.1103 -0.1224
 6718SOL    HW131613   1.492   2.332  16.457  0.4696 -0.2282 -2.8675
 6718SOL    HW231614   1.468   2.482  16.455 -0.2929 -1.0411  2.8568
 6719SOL     OW31615   2.169   1.264   0.138  0.3590 -0.0489 -0.1582
 6719SOL    HW131616   2.263   1.255   0.157  0.2654 -0.5986  0.0360
 6719SOL    HW231617   2.125   1.245   0.221 -0.5284  1.2155 -0.3342
 6720SOL     OW31618   4.090   0.560   5.911 -0.8420 -0.3599 -0.3023
 6720SOL    HW131619   3.996   0.551   5.920 -0.6556  0.4250  2.5629
 6720SOL    HW231620   4.126   0.481   5.950 -0.0581  0.4477  0.6154
 6721SOL     OW31621   3.054   1.099   4.900  0.2915 -0.0553  0.2171
 6721SOL    HW131622   2.988   1.167   4.908  0.4737  0.1924 -0.3439
 6721SOL    HW231623   3.118   1.108   4.970  1.7795 -0.2471 -1.1084
 6722SOL     OW31624   3.692   0.342   7.839  0.4195  0.4594  0.9273
 6722SOL    HW131625   3.736   0.297   7.912  0.9671 -2.4532 -1.2217
 6722SOL    HW231626   3.727   0.431   7.843  0.3621  0.5489 -1.0344
 6723SOL     OW31627   0.097   4.623   9.393  0.0084 -0.3137  0.0746
 6723SOL    HW131628   0.138   4.691   9.448 -0.9995 -0.9576  1.6179
 6723SOL    HW231629   0.136   4.546   9.434  2.5362  0.7915 -0.2383
 6724SOL     OW31630   1.701   1.321  15.001 -0.0621 -0.1690  0.1984
 6724SOL    HW131631   1.700   1.226  14.989  1.0918 -0.1046 -0.4213
 6724SOL    HW231632   1.677   1.331  15.093 -1.1624 -0.2159 -0.0776
 6725SOL     OW31633   1.176   1.483  14.747  0.3290  0.2256  0.4527
 6725SOL    HW131634   1.255   1.428  14.751  0.5601  0.5650  0.5597
 6725SOL    HW231635   1.182   1.488  14.652  2.9387 -0.0845  0.5964
 6726SOL     OW31636   3.631   0.785   4.642  1.4857 -0.6295 -0.3155
 6726SOL    HW131637   3.550   0.744   4.613  1.0569  0.5415 -0.7608
 6726SOL    HW231638   3.675   0.712   4.685  0.4896 -1.1929 -0.2479
 6727SOL     OW31639   2.408   2.717   5.901 -0.4888  0.0268 -0.2894
 6727SOL    HW131640   2.318   2.722   5.932  0.2442  0.4927  1.7519
 6727SOL    HW231641   2.438   2.642   5.951  0.0489  0.9773  0.8053
 6728SOL     OW31642   0.748   1.070  15.964 -0.1930  0.5451 -0.1579
 6728SOL    HW131643   0.669   1.121  15.981 -0.3691 -0.6318  2.4992
 6728SOL    HW231644   0.713   1.027  15.886 -0.8740 -1.0324  1.0176
 6729SOL     OW31645   3.234   1.395   2.599 -0.0977 -0.6915  0.2114
 6729SOL    HW131646   3.311   1.439   2.635 -0.5417 -0.4340  0.8361
 6729SOL    HW231647   3.230   1.434   2.511 -3.3417  2.6004  1.8368
 6730SOL     OW31648   4.277   4.092   4.607 -0.4080 -0.9821 -0.8512
 6730SOL    HW131649   4.372   4.085   4.598 -0.2174  1.4458 -0.8529
 6730SOL    HW231650   4.262   4.065   4.698  2.4936 -1.4002 -0.5010
 6731SOL     OW31651   2.155   3.663   8.326 -0.0346  0.1049  0.2306
 6731SOL    HW131652   2.228   3.666   8.264 -1.4450  1.7768 -1.3710
 6731SOL    HW231653   2.125   3.754   8.336  0.2222  0.1502  0.5682
 6732SOL     OW31654   3.744   1.115  17.096 -0.1944  0.2179  0.1415
 6732SOL    HW131655   3.834   1.137  17.073  0.0239  0.1220  0.9161
 6732SOL    HW231656   3.758   1.075  17.182 -1.9815 -0.1260  0.2878
 6733SOL     OW31657   2.909   2.112  11.971  0.1731  0.1224  0.6665
 6733SOL    HW131658   2.881   2.021  11.964  0.0765  0.2337 -0.3748
 6733SOL    HW231659   2.936   2.115  12.063  2.7116  1.3834 -0.1253
 6734SOL     OW31660   0.939   1.542   3.155 -0.1015  0.1797  0.5454
 6734SOL    HW131661   0.927   1.624   3.204  0.3544 -0.0265  0.9976
 6734SOL    HW231662   1.034   1.537   3.145 -0.3585  2.6764 -3.0467
 6735SOL     OW31663   3.251   2.040   9.749 -0.1781  0.2676 -0.2175
 6735SOL    HW131664   3.203   2.104   9.697 -1.3532 -1.8983 -1.7598
 6735SOL    HW231665   3.200   1.964   9.724 -0.9435  0.7379 -0.0807
 6736SOL     OW31666   3.466   2.590   7.142 -0.1206  0.5669  0.6410
 6736SOL    HW131667   3.409   2.655   7.182 -0.2142  0.1446  1.1885
 6736SOL    HW231668   3.463   2.526   7.212  2.0718 -1.4677 -1.1103
 6737SOL     OW31669   2.820   0.212   3.077  0.3211  0.0098  0.1290
 6737SOL    HW131670   2.860   0.202   2.990 -2.6977  1.4253 -1.4338
 6737SOL    HW231671   2.813   0.121   3.105 -1.0216  0.3008  0.7250
 6738SOL     OW31672   3.427   2.329   2.768 -0.2124 -0.0032 -0.6468
 6738SOL    HW131673   3.402   2.389   2.838 -0.9855 -0.6683 -0.3503
 6738SOL    HW231674   3.360   2.354   2.705 -2.5833 -0.4213  1.6824
 6739SOL     OW31675   2.019   4.486   5.201  0.0283 -0.3969  0.2036
 6739SOL    HW131676   2.105   4.446   5.217  0.5255  0.4075 -0.4501
 6739SOL    HW231677   1.974   4.427   5.140  1.5063 -0.8412 -0.4481
 6740SOL     OW31678   2.788   2.097   6.513 -0.3579 -0.0344  0.4052
 6740SOL    HW131679   2.753   2.154   6.581 -0.7311 -1.6244  1.5529
 6740SOL    HW231680   2.862   2.066   6.566 -0.0346 -2.8083 -1.6837
 6741SOL     OW31681   0.975   3.912  14.645 -1.1743 -0.5353 -0.2070
 6741SOL    HW131682   1.020   3.830  14.664 -0.3466 -0.0856 -0.1938
 6741SOL    HW231683   0.946   3.885  14.558 -1.6485 -1.8343  0.3593
 6742SOL     OW31684   4.269   2.429   7.113 -0.1475  0.3359 -0.3230
 6742SOL    HW131685   4.184   2.454   7.147 -1.3700 -2.3199 -1.4094
 6742SOL    HW231686   4.315   2.382   7.183 -0.3044  1.3289  0.4386
 6743SOL     OW31687   2.495   1.831   6.308 -0.5270 -0.1479 -0.5027
 6743SOL    HW131688   2.452   1.877   6.236  0.3610 -0.1136 -1.0048
 6743SOL    HW231689   2.484   1.884   6.387 -0.7680  0.6810 -1.0948
 6744SOL     OW31690   1.889   2.068   2.610 -0.2731  0.1436  0.4704
 6744SOL    HW131691   1.882   1.996   2.673 -1.9984 -0.3768 -0.3249
 6744SOL    HW231692   1.910   2.012   2.536  1.2762  0.0649  0.9668
 6745SOL     OW31693   3.299   4.245   4.121 -0.1908 -0.4505 -1.2881
 6745SOL    HW131694   3.279   4.258   4.214 -1.2163 -0.0746 -1.5557
 6745SOL    HW231695   3.335   4.331   4.100  1.4716 -0.4261  1.6277
 6746SOL     OW31696   2.122   1.704   3.377 -0.1244 -0.3788  0.3104
 6746SOL    HW131697   2.132   1.784   3.327  1.5546 -0.9998 -0.3547
 6746SOL    HW231698   2.082   1.640   3.318  1.2132  0.0811 -1.0947
 6747SOL     OW31699   3.237   0.803   8.790 -0.1433  0.2777 -0.1082
 6747SOL    HW131700   3.184   0.783   8.866 -0.5679 -1.6697 -0.9213
 6747SOL    HW231701   3.219   0.897   8.786  0.0636  0.2399 -2.1134
 6748SOL     OW31702   4.243   4.717   3.740 -0.1253  0.0849  1.0298
 6748SOL    HW131703   4.313   4.703   3.677 -1.0428  0.7979 -0.1525
 6748SOL    HW231704   4.228   0.086   3.708  0.8932  0.0599  0.5009
 6749SOL     OW31705   1.581   0.054   5.513  0.0517 -0.3131 -0.4321
 6749SOL    HW131706   1.617   0.135   5.477 -0.6359 -0.2508 -0.9737
 6749SOL    HW231707   1.563   0.015   5.428 -0.3711  1.2495 -1.0641
 6750SOL     OW31708   4.028   4.223  10.544 -0.1220 -0.3865 -0.6213
 6750SOL    HW131709   3.980   4.219  10.627  0.0931 -2.7703 -0.6102
 6750SOL    HW231710   4.118   4.244  10.568  0.2833 -0.7529 -1.8262
 6751SOL     OW31711   2.485   4.676   4.419 -0.1631  0.4901 -0.0277
 6751SOL    HW131712   2.392   4.686   4.441  0.0761  1.5918  0.4622
 6751SOL    HW231713   2.521   0.043   4.402  0.2635 -0.0037 -1.6735
 6752SOL     OW31714   1.564   3.629  13.709  0.1699 -0.1728  0.1846
 6752SOL    HW131715   1.602   3.663  13.629 -0.6870  1.2382  0.3863
 6752SOL    HW231716   1.641   3.613  13.765 -0.1154 -0.4125  0.5111
 6753SOL     OW31717   3.592   2.925   6.641  0.4797 -0.3289  0.2151
 6753SOL    HW131718   3.676   2.901   6.680 -0.4368  0.9203  2.9748
 6753SOL    HW231719   3.584   3.010   6.685 -0.1421 -0.4393  0.3118
 6754SOL     OW31720   2.501   1.665   5.110  0.2581  0.6082  0.1615
 6754SOL    HW131721   2.515   1.717   5.189  0.1143 -1.5153  1.5836
 6754SOL    HW231722   2.581   1.613   5.101 -1.4294 -1.9913  0.1986
 6755SOL     OW31723   1.257   0.532   4.241  0.3594 -0.0396  0.4318
 6755SOL    HW131724   1.274   0.502   4.330 -0.0766 -2.0820 -0.1726
 6755SOL    HW231725   1.332   0.588   4.222 -0.3034  0.9659  0.7412
 6756SOL     OW31726   2.252   2.067   2.727 -0.3928 -0.3975  0.4254
 6756SOL    HW131727   2.325   2.125   2.749 -1.5549  1.3576 -0.3587
 6756SOL    HW231728   2.173   2.119   2.717  0.8031  1.1689 -0.8110
 6757SOL     OW31729   3.746   2.780   5.581  0.0704 -0.0272 -0.7021
 6757SOL    HW131730   3.796   2.766   5.501 -0.3465 -1.8957 -0.6493
 6757SOL    HW231731   3.718   2.871   5.578  0.9384  0.2638  0.4709
 6758SOL     OW31732   0.674   4.580  11.355  0.2934 -0.0661  0.1930
 6758SOL    HW131733   0.744   4.612  11.412  0.9439 -0.0464 -0.6307
 6758SOL    HW231734   0.722   4.556  11.276 -0.2143  1.5945 -0.6045
 6759SOL     OW31735   3.258   1.321   3.312  0.4402 -0.4326 -0.0362
 6759SOL    HW131736   3.309   1.285   3.384  1.7105  0.3909 -0.5291
 6759SOL    HW231737   3.196   1.251   3.292  1.6445 -1.2485 -0.9470
 6760SOL     OW31738   2.739   1.833   5.712  0.2788  0.4015  0.9155
 6760SOL    HW131739   2.714   1.906   5.655  0.7192 -0.1317  0.0448
 6760SOL    HW231740   2.788   1.877   5.781 -0.3352 -1.1393  2.3376
 6761SOL     OW31741   0.340   2.699  13.944  0.2559  0.0515 -0.4377
 6761SOL    HW131742   0.271   2.637  13.967  1.2771 -1.6260 -1.8624
 6761SOL    HW231743   0.393   2.709  14.023 -2.5321  1.2990  1.2710
 6762SOL     OW31744   4.582   3.306   7.855 -0.1278 -0.2973  0.1402
 6762SOL    HW131745   4.531   3.336   7.930 -2.2926 -2.2897 -0.5322
 6762SOL    HW231746   4.533   3.345   7.784  1.3468  1.8902  0.3212
 6763SOL     OW31747   0.053   2.918   5.967 -0.0036  0.2151  0.4112
 6763SOL    HW131748   0.137   2.964   5.964  1.2936 -2.0895  1.4639
 6763SOL    HW231749   0.014   2.982   6.026  0.1136  1.6680 -1.0950
 6764SOL     OW31750   2.222   0.382   9.006 -0.3429  0.5851  0.5122
 6764SOL    HW131751   2.279   0.317   8.967  0.5781 -0.1598  3.1214
 6764SOL    HW231752   2.273   0.443   9.060 -1.5348  2.0975 -0.0512
 6765SOL     OW31753   2.552   1.338   4.816 -0.0936 -0.0941  0.2268
 6765SOL    HW131754   2.574   1.250   4.786 -1.5990 -0.8803  1.3929
 6765SOL    HW231755   2.487   1.324   4.885 -0.0069 -2.4961 -0.1746
 6766SOL     OW31756   0.761   0.650   5.077  0.0838 -0.2063 -0.1595
 6766SOL    HW131757   0.669   0.668   5.057 -0.0535 -0.7177 -0.0040
 6766SOL    HW231758   0.775   0.676   5.168 -0.0226  0.0511 -0.2171
 6767SOL     OW31759   1.479   2.473   8.723  0.5362  0.3075  0.1153
 6767SOL    HW131760   1.488   2.558   8.681  1.5135 -1.1939 -2.7388
 6767SOL    HW231761   1.468   2.411   8.650  1.4027  1.5189 -1.0476
 6768SOL     OW31762   2.527   0.243   8.171 -0.3406  0.1453 -0.8807
 6768SOL    HW131763   2.546   0.269   8.080 -0.7388 -3.2880 -1.9336
 6768SOL    HW231764   2.563   0.155   8.170 -0.0714  0.2626 -1.9261
 6769SOL     OW31765   3.095   4.061   5.551  0.0262 -0.4513  0.5414
 6769SOL    HW131766   3.186   4.067   5.580  0.3975  1.9983 -1.1399
 6769SOL    HW231767   3.109   4.041   5.459  0.4826  2.1206  0.0716
 6770SOL     OW31768   4.714   0.028   4.856  0.0710  0.1095  0.0504
 6770SOL    HW131769   0.061   0.090   4.829  0.5739 -0.3090  0.3453
 6770SOL    HW231770   4.691   0.080   4.933  0.4829 -0.6042  0.6547
 6771SOL     OW31771   1.095   1.344   7.909 -0.5602  0.0819  0.4152
 6771SOL    HW131772   1.090   1.347   8.004  4.4601 -2.3517  0.7257
 6771SOL    HW231773   1.184   1.370   7.884 -0.5084 -1.4802 -1.0504
 6772SOL     OW31774   1.377   0.015   4.000 -0.1299  0.2641  0.5320
 6772SOL    HW131775   1.374   0.105   4.032  2.8254  0.9045 -0.9989
 6772SOL    HW231776   1.383   4.695   4.087 -0.0104  2.3811  1.4854
 6773SOL     OW31777   0.563   3.185  16.540 -0.2362  0.4667  0.2152
 6773SOL    HW131778   0.605   3.145  16.616  0.2337  2.1346  0.8326
 6773SOL    HW231779   0.640   3.184  16.482  0.1859 -4.5549  0.8318
 6774SOL     OW31780   0.343   0.861  11.518 -0.2839 -0.0818 -0.2465
 6774SOL    HW131781   0.342   0.935  11.579 -1.2044 -2.3944  2.5268
 6774SOL    HW231782   0.406   0.894  11.454 -1.2363  1.9771 -0.1416
 6775SOL     OW31783   3.596   1.759   4.905  0.0338  0.0247 -0.3635
 6775SOL    HW131784   3.640   1.802   4.979 -0.4702  1.3779 -0.8484
 6775SOL    HW231785   3.654   1.684   4.891  0.9835  0.9456 -1.3257
 6776SOL     OW31786   0.728   3.764   2.189 -0.2036  0.4860  0.2004
 6776SOL    HW131787   0.712   3.672   2.213  2.2799 -0.0825 -0.3180
 6776SOL    HW231788   0.705   3.770   2.097  1.1473 -1.7221 -0.2982
 6777SOL     OW31789   2.101   0.010   6.949 -0.6076  0.0331  0.4603
 6777SOL    HW131790   2.014   4.693   6.935  0.4495 -1.3378 -2.6213
 6777SOL    HW231791   2.084   0.100   6.976 -0.8432  0.2597 -0.4274
 6778SOL     OW31792   3.497   1.435   6.834 -0.5198 -0.1177  0.2060
 6778SOL    HW131793   3.553   1.365   6.801  0.2630  0.4839  0.2546
 6778SOL    HW231794   3.408   1.401   6.825  0.0370 -1.8322  1.1708
 6779SOL     OW31795   2.856   3.759  12.767 -0.1645 -0.2218  0.1475
 6779SOL    HW131796   2.774   3.807  12.775 -0.3276 -0.5779  0.5501
 6779SOL    HW231797   2.912   3.834  12.745 -0.3339  0.4929  2.2157
 6780SOL     OW31798   0.292   1.604   8.791 -0.0886 -0.5016  0.2173
 6780SOL    HW131799   0.293   1.695   8.822  0.6693 -0.6599  0.6753
 6780SOL    HW231800   0.214   1.602   8.736 -1.1077 -0.6129  1.6698
 6781SOL     OW31801   0.252   0.518  17.112 -0.7292  0.5462  0.8359
 6781SOL    HW131802   0.244   0.499  17.019 -0.2012  0.2102  0.8643
 6781SOL    HW231803   0.339   0.485  17.133 -0.5501 -0.6312 -1.8336
 6782SOL     OW31804   2.966   2.996   7.706 -0.0733 -0.5625  0.7221
 6782SOL    HW131805   2.876   2.987   7.736 -0.3307  1.3015  0.4810
 6782SOL    HW231806   2.994   2.904   7.701  1.3910 -0.1901  1.8622
 6783SOL     OW31807   2.686   4.122   1.520  0.2124  0.3933  0.0855
 6783SOL    HW131808   2.667   4.171   1.600  3.1675  0.9391  0.4247
 6783SOL    HW231809   2.754   4.064   1.555 -0.0267 -0.2159 -0.4556
 6784SOL     OW31810   1.780   3.627  16.098  0.1372 -0.3749 -0.1932
 6784SOL    HW131811   1.724   3.618  16.175 -0.0316 -0.6831 -0.3506
 6784SOL    HW231812   1.853   3.676  16.135 -0.9625  1.3277 -0.2704
 6785SOL     OW31813   2.329   1.507   4.674  0.4848  0.2198 -0.3302
 6785SOL    HW131814   2.409   1.465   4.707 -0.1305 -0.0249  0.8437
 6785SOL    HW231815   2.308   1.578   4.734  3.2331 -0.2837  1.2238
 6786SOL     OW31816   0.852   2.756   7.796  0.2991 -0.9477  0.1493
 6786SOL    HW131817   0.881   2.666   7.805  3.5868 -0.0146 -1.1125
 6786SOL    HW231818   0.904   2.817   7.848  0.6316 -0.1814 -1.0715
 6787SOL     OW31819   0.069   0.734   3.559  0.3538 -0.1729 -0.0393
 6787SOL    HW131820   0.138   0.800   3.550 -1.8034  1.9434 -0.8003
 6787SOL    HW231821   4.712   0.778   3.593  0.6225  0.9104 -0.8322
 6788SOL     OW31822   2.131   0.131   1.243 -0.0428  0.4109  0.1908
 6788SOL    HW131823   2.217   0.138   1.202 -0.0656 -3.3731 -0.4994
 6788SOL    HW231824   2.128   0.035   1.251 -1.2499  0.4443  0.1068
 6789SOL     OW31825   1.936   0.631  11.154  0.5878 -0.2330  0.0635
 6789SOL    HW131826   1.998   0.573  11.198  0.7399  0.0358  0.2101
 6789SOL    HW231827   1.859   0.629  11.210 -1.0153 -0.0527 -2.1584
 6790SOL     OW31828   4.698   3.307   7.119 -0.4984 -0.4022  0.3321
 6790SOL    HW131829   0.049   3.250   7.148  0.6178  0.1829 -1.2363
 6790SOL    HW231830   4.618   3.261   7.146 -0.2484 -0.5786  0.7679
 6791SOL     OW31831   0.634   0.188  15.645  0.2834 -0.4129  0.2952
 6791SOL    HW131832   0.723   0.159  15.624 -0.6251 -1.6239 -1.8533
 6791SOL    HW231833   0.653   0.281  15.634 -0.3972 -0.4642 -1.3827
 6792SOL     OW31834   1.836   1.568  12.073  0.7461  0.1246 -0.2530
 6792SOL    HW131835   1.841   1.632  12.002 -0.0917 -0.8654 -1.1978
 6792SOL    HW231836   1.746   1.593  12.094  0.8686  0.3841 -0.0283
 6793SOL     OW31837   3.823   0.761   0.660 -0.3101  0.4482 -0.2141
 6793SOL    HW131838   3.762   0.826   0.695 -1.4731  0.7004 -2.6691
 6793SOL    HW231839   3.784   0.682   0.699 -2.5752  0.9558 -1.4226
 6794SOL     OW31840   3.361   0.781   9.079  0.1817  0.0581 -0.3231
 6794SOL    HW131841   3.367   0.695   9.037 -1.8075  0.2410 -0.9937
 6794SOL    HW231842   3.270   0.803   9.059  0.4371  1.9155  0.5884
 6795SOL     OW31843   2.131   1.718   2.109  1.1358 -0.0903 -0.0116
 6795SOL    HW131844   2.112   1.756   2.195  0.9447 -2.8208  1.1561
 6795SOL    HW231845   2.106   1.788   2.048  0.6555  1.9735  2.5480
 6796SOL     OW31846   3.204   3.560  14.632  0.0103 -0.1118  0.5317
 6796SOL    HW131847   3.262   3.497  14.675  1.6359  1.1665  0.2109
 6796SOL    HW231848   3.118   3.518  14.633  0.7580 -1.6737 -0.4716
 6797SOL     OW31849   2.468   1.800  16.464 -0.3831 -0.4439  0.0378
 6797SOL    HW131850   2.431   1.729  16.517 -0.7858  0.7319  1.3376
 6797SOL    HW231851   2.511   1.843  16.537 -0.0297  2.0235 -1.6423
 6798SOL     OW31852   0.527   2.723   0.140  1.0044  0.5969 -0.3115
 6798SOL    HW131853   0.433   2.738   0.129  1.0312  1.8438  1.1314
 6798SOL    HW231854   0.543   2.652   0.078  1.2772 -0.8426  1.4014
 6799SOL     OW31855   2.087   3.830   3.374  0.4375 -0.2724 -0.2199
 6799SOL    HW131856   2.068   3.767   3.305  1.8065 -0.2186 -0.6526
 6799SOL    HW231857   2.015   3.893   3.380  2.2085  1.9135 -1.8847
 6800SOL     OW31858   0.323   0.859  10.594 -0.2551 -0.2682  0.2851
 6800SOL    HW131859   0.253   0.906  10.550  0.0008 -2.8865 -2.8690
 6800SOL    HW231860   0.321   0.907  10.677 -0.1561 -2.5620  1.6239
 6801SOL     OW31861   0.729   1.794   8.955 -0.3344  0.4132 -0.2734
 6801SOL    HW131862   0.815   1.793   8.913  0.0827  1.3396  0.5434
 6801SOL    HW231863   0.765   1.832   9.035 -0.5239  0.3755 -0.1684
 6802SOL     OW31864   2.757   2.885   4.398  0.8629  0.2881 -0.0470
 6802SOL    HW131865   2.689   2.875   4.332  0.1194  3.6091  0.2192
 6802SOL    HW231866   2.820   2.814   4.384 -1.7001 -2.0791  0.6187
 6803SOL     OW31867   3.148   4.306   9.509  0.5459  0.2786 -0.1350
 6803SOL    HW131868   3.155   4.306   9.604  0.3835 -2.6757 -0.1183
 6803SOL    HW231869   3.056   4.324   9.494  0.3049  0.2433  1.3260
 6804SOL     OW31870   2.273   2.993   5.590  0.1603 -0.5842 -0.2406
 6804SOL    HW131871   2.197   2.949   5.629  0.5603 -1.4178 -0.4040
 6804SOL    HW231872   2.343   2.937   5.623 -0.6846 -0.4681  1.7262
 6805SOL     OW31873   2.500   1.383  10.081 -0.1563  0.2509 -0.7493
 6805SOL    HW131874   2.490   1.379   9.986 -1.2049  1.7970 -0.6862
 6805SOL    HW231875   2.447   1.460  10.101 -0.6011 -0.0599 -0.7323
 6806SOL     OW31876   2.438   0.881  13.769 -0.8032 -0.4095 -0.2695
 6806SOL    HW131877   2.524   0.887  13.811 -0.9570 -2.5778  0.3822
 6806SOL    HW231878   2.402   0.799  13.804  0.0241 -0.6858 -0.0588
 6807SOL     OW31879   4.103   1.749   5.691 -0.4495  0.8871  0.2098
 6807SOL    HW131880   4.104   1.778   5.782 -1.0312  0.1234  0.4551
 6807SOL    HW231881   4.160   1.673   5.684  0.3871  1.4757  0.5348
 6808SOL     OW31882   1.775   4.238   5.491  0.1736  0.2373  0.1573
 6808SOL    HW131883   1.777   4.334   5.493  2.7424  0.1638  0.3650
 6808SOL    HW231884   1.683   4.214   5.480 -0.1042  0.6280  1.5905
 6809SOL     OW31885   2.891   2.442  13.182  0.2483  0.2920  0.1531
 6809SOL    HW131886   2.799   2.415  13.184  0.2948  0.1460  0.3087
 6809SOL    HW231887   2.923   2.400  13.262  0.5846  2.2653  1.0520
 6810SOL     OW31888   0.042   4.270   7.848  0.3016 -0.2556 -0.3546
 6810SOL    HW131889   0.111   4.326   7.811 -0.7619  0.9090 -0.5744
 6810SOL    HW231890   0.083   4.187   7.873 -1.4771 -0.3452  2.2074
 6811SOL     OW31891   1.571   1.247   0.976  0.1281 -0.0326  0.2598
 6811SOL    HW131892   1.504   1.311   1.001 -0.4931 -0.2140 -0.9432
 6811SOL    HW231893   1.589   1.215   1.065  0.8886  1.0463  0.4968
 6812SOL     OW31894   1.703   1.367   2.048  0.0210  0.5305  0.1617
 6812SOL    HW131895   1.683   1.378   2.141 -1.4377 -0.3604 -0.0393
 6812SOL    HW231896   1.792   1.402   2.039  0.1953  0.3445  1.1613
 6813SOL     OW31897   0.536   1.671   9.119  0.6000  0.2658 -0.1085
 6813SOL    HW131898   0.581   1.586   9.126 -1.0450 -0.6158 -0.3176
 6813SOL    HW231899   0.603   1.720   9.072  1.6436 -0.8893  0.1557
 6814SOL     OW31900   2.619   0.781  15.319  0.0853  0.1980 -0.5194
 6814SOL    HW131901   2.529   0.802  15.296 -0.1110 -0.3860 -0.2967
 6814SOL    HW231902   2.627   0.844  15.390 -1.3224  1.6121 -1.6215
 6815SOL     OW31903   2.026   0.555   3.557  0.1067 -0.6007 -0.9170
 6815SOL    HW131904   2.063   0.484   3.609  0.0440  0.0464 -0.0064
 6815SOL    HW231905   2.084   0.549   3.480  1.4240 -0.5638  0.0711
 6816SOL     OW31906   3.605   2.110   4.004  0.2090  0.0702 -0.7554
 6816SOL    HW131907   3.597   2.125   4.098 -0.0576 -1.1593 -0.5799
 6816SOL    HW231908   3.579   2.197   3.973 -1.1822 -0.8585 -2.1601
 6817SOL     OW31909   0.281   0.311   0.664  0.5638  0.2577 -0.1947
 6817SOL    HW131910   0.233   0.257   0.601  3.4191 -0.4509 -1.7650
 6817SOL    HW231911   0.250   0.398   0.637 -0.1895 -0.0634 -0.3837
 6818SOL     OW31912   2.753   2.086   3.935  0.0668  0.6325 -0.5837
 6818SOL    HW131913   2.754   2.068   4.029  2.7580 -1.5696 -1.0252
 6818SOL    HW231914   2.668   2.047   3.914  0.4327 -0.3539 -0.2594
 6819SOL     OW31915   4.055   2.835  16.249  0.0768  0.2038  0.1047
 6819SOL    HW131916   4.032   2.890  16.174 -2.5068 -1.9776 -0.6876
 6819SOL    HW231917   4.118   2.895  16.290 -0.8811  1.5271 -0.3837
 6820SOL     OW31918   1.136   1.027   5.486  0.0493  0.5718  0.4829
 6820SOL    HW131919   1.049   0.996   5.511  0.2164  0.9392  1.5484
 6820SOL    HW231920   1.116   1.104   5.434  0.7758  0.2471 -0.2836
 6821SOL     OW31921   2.059   4.569   7.912  0.6527 -0.2743 -0.1883
 6821SOL    HW131922   2.061   4.623   7.990  1.6480  1.8557 -1.6790
 6821SOL    HW231923   1.981   4.597   7.865  0.9252 -0.0813 -0.5317
 6822SOL     OW31924   1.333   0.227   6.041 -0.0991  0.3503 -0.3042
 6822SOL    HW131925   1.272   0.287   5.997  0.4944  1.1107 -0.0839
 6822SOL    HW231926   1.316   0.255   6.131  3.9171  2.3221 -0.1643
 6823SOL     OW31927   2.959   0.747   7.020  0.4100 -0.9444 -0.4200
 6823SOL    HW131928   2.990   0.832   7.052 -2.6747  0.5853 -1.4740
 6823SOL    HW231929   2.865   0.749   7.039  0.6054  0.5280  0.4646
 6824SOL     OW31930   0.694   1.955   3.877 -0.5612  0.3301 -0.3925
 6824SOL    HW131931   0.662   1.866   3.858  1.5465 -0.3852 -0.6191
 6824SOL    HW231932   0.614   1.995   3.909  0.7978  1.8314  1.0984
 6825SOL     OW31933   1.722   3.512   6.441  0.4846  0.1143 -0.4189
 6825SOL    HW131934   1.716   3.602   6.410 -1.9424  0.7050  1.8203
 6825SOL    HW231935   1.809   3.484   6.411  0.4494  0.2226 -0.6170
 6826SOL     OW31936   4.186   2.661  12.672  0.3226 -0.2066  0.5006
 6826SOL    HW131937   4.127   2.720  12.719  0.0748 -1.5002  1.8308
 6826SOL    HW231938   4.194   2.593  12.739  0.4321  0.0724  0.7700
 6827SOL     OW31939   1.423   2.572  10.245  0.2889  0.0291 -0.7841
 6827SOL    HW131940   1.375   2.512  10.302  0.6747 -0.1721 -0.6718
 6827SOL    HW231941   1.445   2.640  10.309 -2.7412 -1.1778  1.5412
 6828SOL     OW31942   0.188   2.089  10.507 -0.5139  0.2040  1.0397
 6828SOL    HW131943   0.113   2.139  10.538 -2.1732 -1.2844 -0.5730
 6828SOL    HW231944   0.229   2.055  10.586 -1.4417 -0.7878  1.0893
 6829SOL     OW31945   0.206   3.979   1.888  0.3482 -0.7869  0.1809
 6829SOL    HW131946   0.258   3.933   1.954  1.5014 -1.7680 -1.4318
 6829SOL    HW231947   0.261   4.037   1.836  0.6073 -0.1017  1.2279
 6830SOL     OW31948   0.951   1.048  10.364  1.1424 -0.5173 -0.1712
 6830SOL    HW131949   0.975   1.107  10.293 -2.6665  0.7592 -0.4151
 6830SOL    HW231950   1.020   1.060  10.429  1.6640 -1.2885 -0.5835
 6831SOL     OW31951   4.132   2.340   6.282 -0.2462 -0.4658 -0.0338
 6831SOL    HW131952   4.215   2.293   6.275  0.3049  0.5213 -0.1286
 6831SOL    HW231953   4.066   2.273   6.300  0.0156 -0.3375  1.3702
 6832SOL     OW31954   3.363   1.841  11.415 -0.5049 -0.1050  0.8735
 6832SOL    HW131955   3.383   1.934  11.424  0.0449  0.0959 -2.2674
 6832SOL    HW231956   3.386   1.809  11.502 -0.2743 -0.5787  0.6377
 6833SOL     OW31957   0.804   0.037   4.889 -0.3246  0.2709  0.2148
 6833SOL    HW131958   0.738   0.106   4.878 -0.5855  0.3919  2.5341
 6833SOL    HW231959   0.790   0.003   4.977  1.8239  0.8047  0.7826
 6834SOL     OW31960   4.057   3.420   3.792 -0.2020  0.1460  0.7593
 6834SOL    HW131961   4.015   3.334   3.783  0.9369 -0.2701 -0.5841
 6834SOL    HW231962   4.134   3.390   3.841 -1.8835 -0.5150  3.0214
 6835SOL     OW31963   0.812   0.499  13.690  0.3142  0.0826 -0.1071
 6835SOL    HW131964   0.864   0.419  13.692  0.9601  0.4338 -2.4344
 6835SOL    HW231965   0.873   0.568  13.664 -1.3620  0.9686 -1.7133
 6836SOL     OW31966   3.817   3.609  16.269 -0.1726 -0.5522 -0.8167
 6836SOL    HW131967   3.746   3.668  16.293  1.1083  0.8487 -0.4369
 6836SOL    HW231968   3.863   3.659  16.202  2.4442 -0.3539  1.1143
 6837SOL     OW31969   4.317   4.416   5.775  0.4073  0.4869 -0.5038
 6837SOL    HW131970   4.409   4.390   5.774  1.0234  2.6292 -0.0193
 6837SOL    HW231971   4.322   4.492   5.834  2.7644  0.1608 -0.2745
 6838SOL     OW31972   3.698   1.644  10.682  0.2026  0.1250 -0.2183
 6838SOL    HW131973   3.674   1.736  10.685  0.5888  0.2243 -0.0957
 6838SOL    HW231974   3.624   1.609  10.730  0.8395 -0.5142  0.3024
 6839SOL     OW31975   2.501   2.140  12.188  0.0940  0.4532  0.3824
 6839SOL    HW131976   2.554   2.065  12.160  0.4274  1.2550 -1.1260
 6839SOL    HW231977   2.559   2.214  12.170 -0.8298  0.6676 -1.6945
 6840SOL     OW31978   1.439   4.405   2.591 -0.1537  0.1740 -0.1937
 6840SOL    HW131979   1.404   4.488   2.623  2.9226  1.9203 -1.3679
 6840SOL    HW231980   1.494   4.376   2.664  0.2496 -0.7999 -0.8826
 6841SOL     OW31981   0.468   4.233   7.983 -0.3251 -0.2319 -0.1269
 6841SOL    HW131982   0.416   4.284   8.045 -1.4978 -0.0839 -1.2402
 6841SOL    HW231983   0.554   4.230   8.025 -0.3053 -1.4723 -0.2799
 6842SOL     OW31984   1.979   1.424   6.199 -0.1339  0.0782 -0.0610
 6842SOL    HW131985   1.901   1.375   6.172  0.2974 -0.5813 -0.1159
 6842SOL    HW231986   2.048   1.401   6.137 -1.7663 -1.8348 -1.1886
 6843SOL     OW31987   4.284   3.041  11.544 -0.0476  0.0242 -0.1479
 6843SOL    HW131988   4.333   2.984  11.603  2.0894  1.2764 -0.7103
 6843SOL    HW231989   4.220   3.081  11.604  0.7985  0.8595  0.1844
 6844SOL     OW31990   3.217   1.212   4.593 -0.4443  0.1604 -0.4635
 6844SOL    HW131991   3.158   1.163   4.650  0.2306  0.6117  0.6246
 6844SOL    HW231992   3.160   1.259   4.533 -2.3422 -0.9177  0.4978
 6845SOL     OW31993   1.220   2.682   9.135  0.3391  0.1832 -0.1517
 6845SOL    HW131994   1.286   2.715   9.196  2.1299 -1.0237 -1.4397
 6845SOL    HW231995   1.262   2.649   9.055  0.6987 -0.4403  0.3003
 6846SOL     OW31996   0.510   3.867  13.872  0.0132  0.2224  0.7888
 6846SOL    HW131997   0.602   3.887  13.853 -0.2969  1.4312  0.5000
 6846SOL    HW231998   0.468   3.915  13.800 -0.2643 -1.4234 -0.1507
 6847SOL     OW31999   2.235   2.594   2.437 -0.1078 -0.3747  0.5224
 6847SOL    HW132000   2.319   2.562   2.469  0.8707 -1.0216 -2.6850
 6847SOL    HW232001   2.259   2.659   2.372  2.5286 -0.7961  1.0556
 6848SOL     OW32002   1.228   1.811   4.467  0.0431 -0.4454 -0.0898
 6848SOL    HW132003   1.164   1.744   4.440  0.5290 -0.9368 -0.0145
 6848SOL    HW232004   1.201   1.820   4.559  0.4125  0.4347 -0.0658
 6849SOL     OW32005   3.835   1.475  12.952  0.6397 -0.4268 -0.4508
 6849SOL    HW132006   3.826   1.426  12.870  0.9049 -0.5809 -0.3859
 6849SOL    HW232007   3.759   1.443  13.001  0.3526  2.5871  1.0894
 6850SOL     OW32008   1.677   2.485   5.144  0.4162  0.6839 -0.3533
 6850SOL    HW132009   1.764   2.459   5.175  0.2033 -0.5069 -0.7769
 6850SOL    HW232010   1.624   2.417   5.183 -0.5725  0.7490 -1.5800
 6851SOL     OW32011   0.877   0.200   1.758 -0.2805  0.3775  0.2284
 6851SOL    HW132012   0.929   0.123   1.734 -0.5639  0.4421 -0.5753
 6851SOL    HW232013   0.788   0.169   1.743  0.0358 -0.5454  0.2329
 6852SOL     OW32014   2.224   4.264   5.175 -0.5540  0.2794 -0.3840
 6852SOL    HW132015   2.207   4.171   5.160  1.9168 -0.3479  0.7323
 6852SOL    HW232016   2.307   4.292   5.137 -1.4374  1.7191 -1.2575
 6853SOL     OW32017   0.172   0.928  16.410 -0.1038 -0.4896 -0.2330
 6853SOL    HW132018   0.232   0.921  16.336  0.1709 -0.9012  0.0261
 6853SOL    HW232019   0.213   0.869  16.474  0.6714  0.3711  0.0576
 6854SOL     OW32020   3.525   1.177   6.667  0.3738  0.1634 -0.1660
 6854SOL    HW132021   3.439   1.138   6.679  1.1757 -1.9647 -1.5177
 6854SOL    HW232022   3.565   1.134   6.592 -0.0659 -0.0340 -0.2842
 6855SOL     OW32023   2.998   0.097   3.674 -0.1707  0.1460 -0.1106
 6855SOL    HW132024   2.990   0.132   3.585 -2.1197 -0.9908 -0.3718
 6855SOL    HW232025   3.076   0.141   3.709  0.0541  0.0851 -0.5317
 6856SOL     OW32026   4.105   1.520   2.307  0.1671 -0.0620  0.1470
 6856SOL    HW132027   4.058   1.437   2.306 -0.2114  0.1586 -0.7460
 6856SOL    HW232028   4.078   1.558   2.223  2.5193 -1.2565 -1.1496
 6857SOL     OW32029   2.166   1.744   2.729 -0.0195 -0.6680  0.4584
 6857SOL    HW132030   2.175   1.834   2.698 -1.0934 -0.0117  2.0151
 6857SOL    HW232031   2.256   1.723   2.750  0.4750 -0.5446 -1.5261
 6858SOL     OW32032   2.642   4.718   5.628 -0.1403  0.1213  0.3707
 6858SOL    HW132033   2.603   4.633   5.606  1.8121 -0.9568  1.0383
 6858SOL    HW232034   2.729   4.690   5.659 -0.6651 -1.8975  0.0371
 6859SOL     OW32035   1.191   4.453   3.960 -0.4592  0.0803 -0.3218
 6859SOL    HW132036   1.282   4.425   3.953 -0.8069 -0.7813 -1.3532
 6859SOL    HW232037   1.202   4.492   4.047 -0.7153  0.1946 -0.3385
 6860SOL     OW32038   1.115   3.032  15.215  0.1139  0.2451  0.1440
 6860SOL    HW132039   1.096   3.120  15.181 -0.4501 -0.1889 -0.6848
 6860SOL    HW232040   1.170   3.057  15.289 -1.6331  0.5309  1.3470
 6861SOL     OW32041   0.903   3.061   7.143  0.6414 -0.2364 -0.6422
 6861SOL    HW132042   0.895   3.032   7.233  1.7458 -0.3948 -0.5921
 6861SOL    HW232043   0.967   3.132   7.149 -0.4070  0.6924 -0.5241
 6862SOL     OW32044   0.422   3.140   9.046  0.0173 -0.5244  0.7512
 6862SOL    HW132045   0.435   3.045   9.048  0.5825 -0.5329 -2.9071
 6862SOL    HW232046   0.513   3.164   9.029  0.0574 -1.7984 -0.8413
 6863SOL     OW32047   3.159   2.541  10.721 -0.5418 -0.1668 -0.2713
 6863SOL    HW132048   3.128   2.611  10.664  0.0606  0.2374 -0.1021
 6863SOL    HW232049   3.087   2.543  10.784  1.0484  1.6262  1.5154
 6864SOL     OW32050   4.020   3.049  16.075  0.3398 -0.0712  0.4819
 6864SOL    HW132051   4.038   3.024  15.984 -1.1251  2.4830 -0.4990
 6864SOL    HW232052   4.081   3.122  16.079 -0.6232  0.8097 -1.0175
 6865SOL     OW32053   2.973   1.723  12.324  0.3806 -0.3961  0.1087
 6865SOL    HW132054   2.982   1.734  12.229 -1.7626 -1.9389 -0.2690
 6865SOL    HW232055   3.025   1.796  12.358 -0.1409  0.6717 -1.4100
 6866SOL     OW32056   0.688   0.352   5.038 -0.2449  0.7598  0.2778
 6866SOL    HW132057   0.752   0.416   5.071 -0.2651  0.7916  0.2546
 6866SOL    HW232058   0.643   0.328   5.119  0.9687 -0.7942  0.4839
 6867SOL     OW32059   1.838   3.678   9.210  0.1654  0.0506  0.4542
 6867SOL    HW132060   1.811   3.588   9.229 -0.2176 -0.0501 -0.5745
 6867SOL    HW232061   1.814   3.728   9.288  1.6682  2.5745 -0.6834
 6868SOL     OW32062   4.217   2.976   0.321  0.7397  0.3699 -0.6527
 6868SOL    HW132063   4.260   3.039   0.263 -1.4475  1.6938 -0.8071
 6868SOL    HW232064   4.128   2.966   0.288  0.8528  0.5319 -1.0000
 6869SOL     OW32065   2.005   1.165   8.125 -0.0991  0.3786 -0.1120
 6869SOL    HW132066   2.031   1.251   8.091  0.6065  0.5250  0.7998
 6869SOL    HW232067   1.911   1.177   8.110 -0.5296 -2.2608  0.4486
 6870SOL     OW32068   3.813   3.367  10.749  0.3627 -0.3081 -0.2924
 6870SOL    HW132069   3.837   3.455  10.778  0.8739 -0.7770  0.7293
 6870SOL    HW232070   3.894   3.325  10.719 -0.0222 -0.4684 -1.0998
 6871SOL     OW32071   3.747   2.327   3.509  0.2202  0.1083 -0.3534
 6871SOL    HW132072   3.795   2.263   3.563 -0.0774 -0.4062 -0.6910
 6871SOL    HW232073   3.739   2.385   3.585  1.0381 -0.6340  0.3145
 6872SOL     OW32074   2.714   0.985   5.575 -0.2159  0.0779 -0.3705
 6872SOL    HW132075   2.807   0.973   5.595  0.1081  2.6690 -0.2497
 6872SOL    HW232076   2.699   0.918   5.508  1.1709 -0.9982  0.4103
 6873SOL     OW32077   0.920   3.585  10.562  0.6037 -0.4763 -0.6251
 6873SOL    HW132078   0.891   3.635  10.485  1.6518  1.0057 -0.0576
 6873SOL    HW232079   1.002   3.631  10.580 -0.2636  1.4989 -1.7166
 6874SOL     OW32080   3.114   2.181   7.888 -0.3207 -0.1786  0.0679
 6874SOL    HW132081   3.073   2.209   7.969 -0.5436 -2.6356  0.8276
 6874SOL    HW232082   3.191   2.237   7.887  0.1744 -0.8540  0.3953
 6875SOL     OW32083   4.273   0.145   9.031  0.0264  0.9733 -0.0497
 6875SOL    HW132084   4.357   0.184   9.009 -0.0403  0.5755 -1.0262
 6875SOL    HW232085   4.205   0.206   9.060 -1.1741 -0.2816 -0.2018
 6876SOL     OW32086   2.875   2.969  11.321  1.2613  0.0958 -0.4182
 6876SOL    HW132087   2.861   3.059  11.292 -0.1664  0.5334  1.6069
 6876SOL    HW232088   2.833   2.923  11.249 -1.4325  0.4142  0.9426
 6877SOL     OW32089   1.593   1.987  16.168  0.0966 -0.5774 -0.4588
 6877SOL    HW132090   1.618   2.050  16.101  0.3967 -0.2624 -0.0508
 6877SOL    HW232091   1.525   2.042  16.208  0.4868 -0.2390 -0.2608
 6878SOL     OW32092   0.519   4.225   7.338 -0.0404 -0.4926 -0.7505
 6878SOL    HW132093   0.483   4.308   7.369  0.0205 -1.2829  1.3777
 6878SOL    HW232094   0.491   4.161   7.403  0.3600  0.4489  0.3517
 6879SOL     OW32095   2.481   1.784   0.528 -0.2530  0.0561 -0.4043
 6879SOL    HW132096   2.401   1.758   0.483 -0.1480 -1.2651  0.1455
 6879SOL    HW232097   2.535   1.819   0.458 -1.5268 -1.3270 -2.0725
 6880SOL     OW32098   2.461   0.732   2.075  0.4169 -0.0738  0.0785
 6880SOL    HW132099   2.384   0.727   2.131 -0.0409  0.2757 -0.5290
 6880SOL    HW232100   2.526   0.695   2.135 -0.0380  1.5388  1.5700
 6881SOL     OW32101   2.178   2.496   4.632 -0.3053  0.3813 -0.1171
 6881SOL    HW132102   2.151   2.404   4.640  1.7382 -0.2610 -0.5316
 6881SOL    HW232103   2.113   2.544   4.684  1.8235  0.7980  2.1487
 6882SOL     OW32104   2.533   1.679   3.914 -0.2963  0.5682  0.5688
 6882SOL    HW132105   2.444   1.675   3.949  0.8249  1.7949  3.5356
 6882SOL    HW232106   2.542   1.769   3.883 -0.7260  1.3252  2.6924
 6883SOL     OW32107   2.100   2.631   5.996  0.2872  0.0009  0.0156
 6883SOL    HW132108   2.121   2.599   6.083 -1.2968 -0.6180  0.1723
 6883SOL    HW232109   2.041   2.561   5.969 -0.0804  0.4440 -0.3281
 6884SOL     OW32110   0.291   1.244   5.680  0.6667  0.4826 -0.4913
 6884SOL    HW132111   0.259   1.262   5.768 -2.7425 -2.0792 -1.1913
 6884SOL    HW232112   0.342   1.323   5.662  0.6531  0.9088  1.3362
 6885SOL     OW32113   0.329   0.567  12.681  0.7247 -0.1106 -0.2285
 6885SOL    HW132114   0.343   0.493  12.623 -0.4048  0.0256 -0.6844
 6885SOL    HW232115   0.343   0.632  12.612 -1.9347  0.0866 -0.5749
 6886SOL     OW32116   0.894   2.954   9.609  0.3892 -0.2823 -0.4331
 6886SOL    HW132117   0.871   2.954   9.702  0.0983  1.3946 -0.4995
 6886SOL    HW232118   0.932   3.040   9.590  0.4970 -0.8193 -2.6551
 6887SOL     OW32119   3.159   0.987   3.575 -0.3264  0.7740 -0.3554
 6887SOL    HW132120   3.158   1.070   3.624 -1.2755  0.2568  0.4862
 6887SOL    HW232121   3.226   1.009   3.510  1.3966 -0.0752  1.1244
 6888SOL     OW32122   1.675   0.796   7.724  0.5268 -0.4122 -0.2553
 6888SOL    HW132123   1.661   0.703   7.711 -1.8738 -0.0884  0.0646
 6888SOL    HW232124   1.769   0.784   7.733  0.6517 -0.5802 -1.9034
 6889SOL     OW32125   1.864   2.742   8.333 -0.3254 -0.4462 -0.4228
 6889SOL    HW132126   1.925   2.815   8.320  0.5436 -0.9739  0.8530
 6889SOL    HW232127   1.814   2.757   8.252 -0.5712 -1.2115 -0.4058
 6890SOL     OW32128   0.003   0.564   6.432  0.0710  0.2737  1.0883
 6890SOL    HW132129   4.701   0.645   6.386 -1.0705 -1.2636 -1.1070
 6890SOL    HW232130   0.055   0.521   6.364  0.8408  1.2145  1.0970
 6891SOL     OW32131   3.019   0.039   6.197 -0.0123  0.4999 -0.2511
 6891SOL    HW132132   2.989   0.125   6.168 -0.3384  0.6073  0.4157
 6891SOL    HW232133   3.091   0.073   6.249 -0.2789  1.7577 -0.7090
 6892SOL     OW32134   0.719   1.329  14.958 -0.2078 -0.3079  0.3338
 6892SOL    HW132135   0.704   1.330  15.053 -2.2113  2.4279  0.0022
 6892SOL    HW232136   0.646   1.381  14.924 -0.2246 -1.0003 -0.6575
 6893SOL     OW32137   0.748   2.398   7.170  0.9508  0.5380 -0.4058
 6893SOL    HW132138   0.758   2.382   7.077  1.6104  1.4324 -0.4959
 6893SOL    HW232139   0.656   2.423   7.172  0.9919  0.8297 -2.0907
 6894SOL     OW32140   2.116   0.478   2.392  0.2409 -0.1463  0.4152
 6894SOL    HW132141   2.176   0.433   2.334 -0.6396 -0.8783  0.0639
 6894SOL    HW232142   2.168   0.556   2.409  1.9409 -1.5864  1.7022
 6895SOL     OW32143   4.643   1.257   4.120  0.8722 -0.1768 -0.0766
 6895SOL    HW132144   4.628   1.304   4.038  0.0100 -1.5628 -0.7277
 6895SOL    HW232145   4.690   1.316   4.178 -0.8434  0.3714  0.7662
 6896SOL     OW32146   1.707   2.307   7.063 -0.3590  0.3884  0.3529
 6896SOL    HW132147   1.622   2.345   7.086 -0.3763 -0.2222  1.2885
 6896SOL    HW232148   1.679   2.221   7.034 -1.6240  0.9902 -0.1852
 6897SOL     OW32149   1.284   0.020   7.496  0.1239 -0.0076  0.1197
 6897SOL    HW132150   1.238   4.671   7.545  1.7286 -1.6870 -0.7501
 6897SOL    HW232151   1.374   4.711   7.480  0.5804  1.8507 -0.6293
 6898SOL     OW32152   0.715   1.968   7.492  0.6882  0.1979 -0.3137
 6898SOL    HW132153   0.810   1.979   7.504  0.6130  0.0234  0.4616
 6898SOL    HW232154   0.691   2.036   7.554  0.6667  0.7303 -0.9160
 6899SOL     OW32155   3.461   4.258   6.561  0.3961 -0.5645  0.3408
 6899SOL    HW132156   3.502   4.175   6.537 -0.1089 -0.6351 -0.2820
 6899SOL    HW232157   3.436   4.240   6.651  0.1327 -4.8318 -0.5736
 6900SOL     OW32158   1.193   4.350   7.032 -0.0376  0.7699 -0.0857
 6900SOL    HW132159   1.235   4.426   7.071 -1.5551  2.1839 -1.2222
 6900SOL    HW232160   1.190   4.380   6.942  0.0214  0.9566 -0.0242
 6901SOL     OW32161   1.956   4.619  10.711  0.1425 -0.2208 -0.0682
 6901SOL    HW132162   2.016   4.571  10.768  3.7076  2.3306 -1.6853
 6901SOL    HW232163   1.885   4.648  10.768 -0.1040 -1.2653  0.1615
 6902SOL     OW32164   0.610   0.832   1.953 -0.2912  0.1656  0.0741
 6902SOL    HW132165   0.651   0.915   1.929  0.0686  0.0742  0.3643
 6902SOL    HW232166   0.520   0.845   1.924 -1.3785  0.5008  3.5275
 6903SOL     OW32167   2.196   1.902  16.052 -0.2366 -0.4828 -0.0893
 6903SOL    HW132168   2.210   1.938  15.965 -1.0164 -1.6528 -0.7054
 6903SOL    HW232169   2.100   1.899  16.056 -0.2266 -1.3255 -0.5031
 6904SOL     OW32170   4.014   3.041   0.744 -0.8096 -0.0154  0.5686
 6904SOL    HW132171   4.003   3.092   0.824 -3.4727  0.3713 -0.0398
 6904SOL    HW232172   3.942   2.978   0.749  1.4338 -2.5019  1.3322
 6905SOL     OW32173   2.015   3.789   6.137  0.1840  0.1477  0.5832
 6905SOL    HW132174   2.039   3.795   6.045  0.2033 -2.1854  0.4305
 6905SOL    HW232175   1.938   3.844   6.150 -1.1724 -1.5450 -0.3411
 6906SOL     OW32176   0.808   1.006  16.280  0.1929 -0.3879 -0.9159
 6906SOL    HW132177   0.876   1.032  16.218 -0.4433 -0.8333 -1.7942
 6906SOL    HW232178   0.737   0.984  16.220  1.0206 -0.5092 -1.8433
 6907SOL     OW32179   1.453   4.584   0.421  0.1211  0.2129  0.2300
 6907SOL    HW132180   1.537   4.582   0.374 -0.7028  2.2307 -1.3173
 6907SOL    HW232181   1.429   4.491   0.422 -1.2850  0.5780  0.4373
 6908SOL     OW32182   4.549   1.177  15.943 -0.1206 -0.4128  0.0164
 6908SOL    HW132183   4.468   1.136  15.974 -1.3216 -0.3471 -2.9746
 6908SOL    HW232184   4.570   1.120  15.870 -0.3315  0.8302 -1.0185
 6909SOL     OW32185   3.291   2.177   6.971  0.1469 -0.0930  0.4730
 6909SOL    HW132186   3.279   2.088   6.939 -0.4129 -0.3342  1.3508
 6909SOL    HW232187   3.359   2.165   7.037  0.5467  0.6384  0.2006
 6910SOL     OW32188   0.076   1.555  11.910 -0.1023  0.1039 -0.1599
 6910SOL    HW132189   0.016   1.589  11.844 -0.3763  1.3656  0.7332
 6910SOL    HW232190   0.106   1.476  11.865 -3.3032 -1.6266  0.7759
 6911SOL     OW32191   1.474   3.628   9.248  0.2660  0.0925  0.3917
 6911SOL    HW132192   1.385   3.620   9.212  0.1635  1.7896  0.2632
 6911SOL    HW232193   1.451   3.662   9.335 -0.6355 -0.8495  0.5289
 6912SOL     OW32194   3.225   3.125   9.418 -0.6593 -0.1242 -0.0937
 6912SOL    HW132195   3.145   3.141   9.468 -0.7635  0.3717 -0.4131
 6912SOL    HW232196   3.284   3.134   9.493 -0.5525 -2.5502  0.1112
 6913SOL     OW32197   1.675   2.837   1.511  0.0369  0.7127  0.2612
 6913SOL    HW132198   1.617   2.762   1.501  0.5054  0.5967 -1.6601
 6913SOL    HW232199   1.762   2.797   1.508 -0.2662  0.2128 -1.9751
 6914SOL     OW32200   3.563   2.179   5.264 -0.5852  0.1079 -0.0305
 6914SOL    HW132201   3.649   2.138   5.264 -0.7783 -0.2996 -0.4711
 6914SOL    HW232202   3.545   2.197   5.356  0.3933 -0.5366  0.2849
 6915SOL     OW32203   1.710   3.113   2.693  0.2998 -0.5999 -0.1711
 6915SOL    HW132204   1.682   3.025   2.665  0.4557 -0.5507 -0.4875
 6915SOL    HW232205   1.804   3.102   2.678  0.5178 -1.6778  2.0512
 6916SOL     OW32206   1.085   3.273   7.238 -0.2451 -0.7096 -0.8037
 6916SOL    HW132207   1.161   3.268   7.180 -0.1641  3.0198 -0.9888
 6916SOL    HW232208   1.125   3.265   7.324  0.6089 -1.2064 -1.2506
 6917SOL     OW32209   2.779   3.259   2.605  0.4853 -0.3583 -0.0800
 6917SOL    HW132210   2.720   3.195   2.566 -1.7828  1.4154  0.4727
 6917SOL    HW232211   2.853   3.271   2.546  0.7499 -0.4625  0.2279
 6918SOL     OW32212   0.403   4.389   2.485 -0.5094 -0.1208  0.5301
 6918SOL    HW132213   0.484   4.342   2.502 -1.6315 -2.4904 -0.6135
 6918SOL    HW232214   0.392   4.451   2.557 -0.5007  1.1932 -0.6022
 6919SOL     OW32215   0.008   3.809   2.654 -0.4557 -0.4161 -0.3221
 6919SOL    HW132216   4.638   3.805   2.685 -0.3729  0.4380  0.0412
 6919SOL    HW232217   0.038   3.894   2.686 -0.0134 -0.3245 -0.9694
 6920SOL     OW32218   0.471   0.547   9.917  0.8135 -0.6969  0.3766
 6920SOL    HW132219   0.457   0.531   9.823 -0.8507 -0.8067  0.6351
 6920SOL    HW232220   0.385   0.529   9.955 -0.1598 -0.1581 -1.5472
 6921SOL     OW32221   2.312   4.027   4.824 -0.3113 -0.1814 -0.3079
 6921SOL    HW132222   2.285   4.088   4.756 -2.8547 -1.2423 -0.2509
 6921SOL    HW232223   2.223   4.015   4.858  0.7937 -2.2669  1.8430
 6922SOL     OW32224   3.070   3.759   2.417 -0.2772  0.0908  0.2969
 6922SOL    HW132225   2.980   3.728   2.428 -0.2394 -0.2002 -0.2420
 6922SOL    HW232226   3.071   3.776   2.323  1.0206 -1.4630  0.0397
 6923SOL     OW32227   0.399   2.664   3.593 -0.3894 -0.3471 -0.2084
 6923SOL    HW132228   0.382   2.734   3.656  2.4465 -1.1354  1.4159
 6923SOL    HW232229   0.483   2.631   3.623  0.1511  2.0786  0.9449
 6924SOL     OW32230   4.554   4.401  12.596  0.3960 -0.4233  0.1354
 6924SOL    HW132231   4.605   4.393  12.677 -0.1179  3.1298  0.7733
 6924SOL    HW232232   4.569   4.319  12.548 -1.1620 -0.9804  0.6271
 6925SOL     OW32233   4.270   3.219   2.875 -0.4986 -0.2213 -0.4632
 6925SOL    HW132234   4.279   3.196   2.967 -3.6635 -0.1334 -0.1312
 6925SOL    HW232235   4.176   3.236   2.871 -0.5646 -1.2820 -3.4470
 6926SOL     OW32236   4.344   2.113   6.592 -0.2945  0.1910  0.6661
 6926SOL    HW132237   4.268   2.155   6.632 -0.9019  0.0509 -0.3396
 6926SOL    HW232238   4.335   2.019   6.605  0.4214 -0.0962 -0.9139
 6927SOL     OW32239   2.707   3.982  14.871  0.4268  0.0721 -0.1282
 6927SOL    HW132240   2.644   3.913  14.889  0.1636  0.7523  1.5485
 6927SOL    HW232241   2.652   4.059  14.860  1.8988  1.1733  0.2575
 6928SOL     OW32242   3.592   4.320   7.822 -0.1875 -0.3624 -0.3564
 6928SOL    HW132243   3.611   4.252   7.886 -1.9357 -0.7992 -0.2974
 6928SOL    HW232244   3.633   4.283   7.744  1.0244  0.2046  0.0167
 6929SOL     OW32245   0.101   0.522   1.542 -0.1545 -0.0499  0.2419
 6929SOL    HW132246   0.151   0.529   1.623  0.2364  1.2382 -0.1252
 6929SOL    HW232247   0.139   0.594   1.493  1.8830 -1.7711 -0.7427
 6930SOL     OW32248   1.310   4.437   9.327 -0.4898  0.4240 -0.6238
 6930SOL    HW132249   1.340   4.393   9.406 -0.3557 -1.2717 -1.6238
 6930SOL    HW232250   1.286   4.366   9.268  0.3179  0.4445 -0.9736
 6931SOL     OW32251   1.475   0.402  15.673 -0.0578  0.2744 -0.0754
 6931SOL    HW132252   1.419   0.336  15.713 -2.0678  1.4953 -0.8866
 6931SOL    HW232253   1.427   0.430  15.595 -1.3154  0.2886  0.7048
 6932SOL     OW32254   4.234   1.777  16.699 -0.2623 -0.4879 -0.4383
 6932SOL    HW132255   4.203   1.688  16.713  0.9140 -1.2151 -2.4342
 6932SOL    HW232256   4.261   1.769  16.608 -0.5783  0.2254 -0.5917
 6933SOL     OW32257   4.340   3.275  15.858 -0.4847 -0.3244 -0.2970
 6933SOL    HW132258   4.357   3.182  15.867  0.5915 -0.0924  0.1326
 6933SOL    HW232259   4.385   3.312  15.934  1.8074 -0.9986 -1.3310
 6934SOL     OW32260   1.873   2.734  11.432  0.1662  0.2724 -0.3035
 6934SOL    HW132261   1.909   2.785  11.504  0.4429  2.3370 -1.9214
 6934SOL    HW232262   1.834   2.809  11.389 -0.6236  0.2998  0.4573
 6935SOL     OW32263   3.581   3.445  13.935 -0.2365  0.0288 -0.7970
 6935SOL    HW132264   3.655   3.488  13.978 -2.0268  3.1932 -0.8559
 6935SOL    HW232265   3.518   3.453  14.007  1.9768  2.2653  0.8617
 6936SOL     OW32266   3.137   3.114   3.375 -0.5535 -0.1975 -0.2010
 6936SOL    HW132267   3.104   3.058   3.445  1.0947 -0.5859  0.2530
 6936SOL    HW232268   3.073   3.185   3.384  0.2307  0.0651  3.1844
 6937SOL     OW32269   1.317   2.731   0.208 -0.1165 -0.1586 -0.2871
 6937SOL    HW132270   1.363   2.664   0.259  0.0875  0.9308  0.9545
 6937SOL    HW232271   1.374   2.731   0.131 -1.3352 -2.7544 -1.1607
 6938SOL     OW32272   2.408   1.432   5.512  0.4324  0.3078 -0.4105
 6938SOL    HW132273   2.461   1.355   5.534 -2.6212 -1.2638  1.5875
 6938SOL    HW232274   2.476   1.494   5.487  1.4501 -0.0080  1.5974
 6939SOL     OW32275   2.082   0.648   4.246 -0.1333 -0.5657  0.0875
 6939SOL    HW132276   2.070   0.562   4.285  0.1186  0.0539  1.5376
 6939SOL    HW232277   2.112   0.632   4.156 -2.2880  1.6120 -1.0229
 6940SOL     OW32278   0.158   2.059   3.040 -0.3975 -0.1493  0.1884
 6940SOL    HW132279   0.143   2.094   2.952 -2.1924  1.1589  1.0190
 6940SOL    HW232280   0.238   2.108   3.059 -0.2512 -0.9205  1.5795
 6941SOL     OW32281   0.049   3.992   4.405 -0.0668 -0.1992 -0.2996
 6941SOL    HW132282   0.100   3.956   4.478 -0.6878 -2.4136 -0.9392
 6941SOL    HW232283   0.078   4.082   4.392 -0.5561  0.4507  2.9108
 6942SOL     OW32284   4.716   3.740   1.086  0.5897  0.1132 -0.1247
 6942SOL    HW132285   0.059   3.773   1.150  1.3146 -2.4522  0.5031
 6942SOL    HW232286   4.632   3.772   1.119 -1.2315 -3.2356 -1.5230
 6943SOL     OW32287   3.113   2.003  14.515 -0.1596 -0.2347 -0.0216
 6943SOL    HW132288   3.023   1.976  14.496 -0.4673 -0.2812  1.4303
 6943SOL    HW232289   3.172   1.948  14.464  2.1908  1.8540  0.4757
 6944SOL     OW32290   0.727   4.156   8.463 -0.3860  0.2213  0.3160
 6944SOL    HW132291   0.696   4.247   8.460 -0.7720  0.0061 -1.6490
 6944SOL    HW232292   0.795   4.167   8.530 -0.1270 -0.8919  0.2189
 6945SOL     OW32293   2.725   1.524   5.139 -0.0159 -0.7832 -0.7323
 6945SOL    HW132294   2.705   1.431   5.152 -2.6380 -0.3982 -1.8310
 6945SOL    HW232295   2.799   1.548   5.194  0.2131 -1.2549 -0.8407
 6946SOL     OW32296   3.738   1.021   5.780 -0.0334 -0.2660  0.4078
 6946SOL    HW132297   3.704   0.993   5.865  0.7881 -1.3834  0.3676
 6946SOL    HW232298   3.830   1.015   5.808 -0.7475  0.0737  2.7775
 6947SOL     OW32299   3.645   3.465   5.726  0.2608 -0.0297  0.1059
 6947SOL    HW132300   3.697   3.407   5.670 -0.3648  0.1768 -0.6899
 6947SOL    HW232301   3.633   3.398   5.793  1.2994 -2.5897 -2.2520
 6948SOL     OW32302   2.376   0.833  11.834 -0.1746  0.5336 -0.4149
 6948SOL    HW132303   2.351   0.817  11.743  0.5046 -1.1580 -0.3040
 6948SOL    HW232304   2.349   0.750  11.872  0.9773  0.3302 -0.0695
 6949SOL     OW32305   0.583   0.719   6.380  0.1692 -0.2986 -0.2206
 6949SOL    HW132306   0.528   0.678   6.446  0.1469 -1.6950 -1.0945
 6949SOL    HW232307   0.549   0.665   6.308 -2.6461  1.5973 -0.3077
 6950SOL     OW32308   3.943   1.230   2.856 -0.1482  0.0413  0.3178
 6950SOL    HW132309   4.029   1.245   2.815  0.8322 -0.6161  2.1340
 6950SOL    HW232310   3.968   1.215   2.947 -0.0227  3.2085  0.8039
 6951SOL     OW32311   4.696   3.208   3.293 -0.4070 -0.1276 -0.1379
 6951SOL    HW132312   4.710   3.264   3.369  1.6929  3.4173 -3.1537
 6951SOL    HW232313   4.715   3.263   3.217 -0.4653  1.1377  0.7693
 6952SOL     OW32314   3.275   4.466  11.775 -0.8113  0.3865 -0.3433
 6952SOL    HW132315   3.345   4.423  11.824 -0.2239  1.5142 -0.1926
 6952SOL    HW232316   3.249   4.393  11.719  2.3161 -0.8273 -0.2541
 6953SOL     OW32317   1.355   0.308   1.978  0.1681 -0.1801  0.9636
 6953SOL    HW132318   1.263   0.288   1.996 -0.5506  0.9292 -1.4277
 6953SOL    HW232319   1.374   0.230   1.926  0.2221 -0.6771  1.7323
 6954SOL     OW32320   0.325   0.533   3.414  0.1000 -0.5072  0.3470
 6954SOL    HW132321   0.249   0.510   3.468 -0.8920  0.5569 -0.6057
 6954SOL    HW232322   0.379   0.568   3.486  1.8597 -1.0442 -0.7167
 6955SOL     OW32323   2.748   0.725  15.778  0.2142 -0.8678  0.1707
 6955SOL    HW132324   2.772   0.637  15.751  0.0674 -0.4103 -1.4435
 6955SOL    HW232325   2.827   0.777  15.769 -0.4032 -0.2367 -1.6270
 6956SOL     OW32326   0.558   1.805   2.546  0.0391  0.0656 -0.0506
 6956SOL    HW132327   0.472   1.764   2.533  0.4462 -1.0074  0.5656
 6956SOL    HW232328   0.622   1.736   2.565 -1.5260 -1.6888 -1.0948
 6957SOL     OW32329   3.119   3.422   5.820  0.0311  0.2526  0.2594
 6957SOL    HW132330   3.100   3.511   5.791 -0.1099  0.1573  0.0611
 6957SOL    HW232331   3.161   3.387   5.741  0.6578 -0.2828  0.8230
 6958SOL     OW32332   4.474   2.914   0.737 -0.4962  0.3585  0.0375
 6958SOL    HW132333   4.456   2.947   0.648 -0.8021 -0.0565 -0.0518
 6958SOL    HW232334   4.569   2.903   0.732 -0.6860 -0.8498 -0.7637
 6959SOL     OW32335   1.492   3.041   5.564 -0.2942  0.5411  0.0109
 6959SOL    HW132336   1.478   2.947   5.559  1.3989  0.1852  1.8910
 6959SOL    HW232337   1.552   3.056   5.491 -0.5713  2.5409  0.1910
 6960SOL     OW32338   0.185   4.366   9.479 -0.4142 -0.5455  0.4010
 6960SOL    HW132339   0.222   4.305   9.416  0.2604 -3.0500  3.2603
 6960SOL    HW232340   0.110   4.317   9.514 -0.1753 -1.0930  0.1334
 6961SOL     OW32341   3.167   2.307   7.527 -0.0180 -0.2654  0.0627
 6961SOL    HW132342   3.223   2.234   7.553  1.6533  1.5860  1.6867
 6961SOL    HW232343   3.182   2.303   7.432  0.9941  0.1088  0.2071
 6962SOL     OW32344   4.490   3.533   3.084  0.1926 -0.3577 -0.0366
 6962SOL    HW132345   4.564   3.472   3.077 -0.1819 -1.0795  2.1827
 6962SOL    HW232346   4.509   3.590   3.009  0.6023 -0.1158  0.2525
 6963SOL     OW32347   1.980   3.867  16.041  0.3275 -0.7739 -0.3368
 6963SOL    HW132348   1.901   3.916  16.019 -0.2314 -1.1240  0.8937
 6963SOL    HW232349   1.973   3.890  16.134 -0.7741  1.2391 -0.9279
 6964SOL     OW32350   2.428   2.299  17.121 -0.1382  0.0678 -0.0899
 6964SOL    HW132351   2.484   2.221  17.115  0.4429  0.4303  0.6501
 6964SOL    HW232352   2.343   2.258  17.129  1.0830 -1.8943  2.5320
 6965SOL     OW32353   4.710   0.698   3.255 -0.9322 -0.4970 -0.0594
 6965SOL    HW132354   0.062   0.686   3.317 -0.3847 -0.5010 -0.6961
 6965SOL    HW232355   4.679   0.787   3.272 -0.3798 -0.6191  1.5626
 6966SOL     OW32356   1.319   0.359   1.269  0.7479  0.2800  1.1382
 6966SOL    HW132357   1.374   0.281   1.268  0.0993 -0.1321 -1.2012
 6966SOL    HW232358   1.231   0.328   1.247  0.6658 -0.1926  2.0956
 6967SOL     OW32359   1.025   1.599  17.625 -0.1922 -0.5870  0.6043
 6967SOL    HW132360   1.035   1.511  17.662 -0.6198 -0.7957  0.2139
 6967SOL    HW232361   1.023   1.567  17.535  4.7466  0.1169  0.2441
 6968SOL     OW32362   1.309   4.150  14.349  0.2810 -0.2395  0.1715
 6968SOL    HW132363   1.282   4.131  14.438 -1.9343  3.8907  0.3569
 6968SOL    HW232364   1.228   4.176  14.307 -0.6276 -1.2587  1.3052
 6969SOL     OW32365   3.438   2.171  14.773  0.0011 -0.3775 -0.1812
 6969SOL    HW132366   3.424   2.131  14.858 -1.6260  1.5221  0.4529
 6969SOL    HW232367   3.452   2.099  14.711  1.6632  0.0337 -0.3041
 6970SOL     OW32368   0.444   1.180  13.633  0.0363  0.8907 -0.0610
 6970SOL    HW132369   0.496   1.149  13.559 -0.4043  1.1860 -0.4982
 6970SOL    HW232370   0.355   1.176  13.598  0.7660  0.8950 -1.9110
 6971SOL     OW32371   3.975   3.470   8.474 -0.0609 -0.6401 -0.2703
 6971SOL    HW132372   3.933   3.544   8.520 -2.8048 -2.8131  0.7460
 6971SOL    HW232373   4.053   3.476   8.528  1.4021  0.5763 -2.5347
 6972SOL     OW32374   1.928   1.614   7.312 -0.1560  0.0489  0.0351
 6972SOL    HW132375   1.995   1.641   7.250  1.9414 -1.8872  1.4387
 6972SOL    HW232376   1.968   1.617   7.399  0.7260  0.9416 -0.4008
 6973SOL     OW32377   3.756   0.011   6.181 -0.0294 -0.0326 -0.5395
 6973SOL    HW132378   3.797   4.650   6.150  2.2747  0.5510  0.9847
 6973SOL    HW232379   3.711   4.698   6.258 -0.7895 -1.2180 -1.5051
 6974SOL     OW32380   0.639   2.993   8.228 -0.2759  0.5002 -1.3040
 6974SOL    HW132381   0.603   2.920   8.278 -0.4381  1.4874  0.0055
 6974SOL    HW232382   0.612   3.065   8.285 -5.2682 -0.7113 -2.0906
 6975SOL     OW32383   3.141   0.076   8.649 -0.0537 -0.2708 -0.0856
 6975SOL    HW132384   3.154   0.012   8.579  1.6834 -1.1387  1.0370
 6975SOL    HW232385   3.199   0.056   8.723 -1.4541 -1.1675  0.7665
 6976SOL     OW32386   0.059   3.961  17.567 -0.2494 -0.2176  0.1087
 6976SOL    HW132387   4.705   3.908  17.536  1.6199 -3.3587  0.9499
 6976SOL    HW232388   0.037   4.043  17.524 -1.5650 -1.7783 -2.2305
 6977SOL     OW32389   4.505   4.208   5.461  0.1306  0.0632 -0.0653
 6977SOL    HW132390   4.541   4.252   5.384  1.9521 -0.4573  0.4756
 6977SOL    HW232391   4.492   4.121   5.424  0.1527  0.7171 -1.5870
 6978SOL     OW32392   3.670   1.970  17.053 -0.1819 -0.1954 -0.4732
 6978SOL    HW132393   3.660   1.927  16.969 -2.9400 -1.2006  0.3672
 6978SOL    HW232394   3.765   1.982  17.054 -0.3196  1.0748 -1.7407
 6979SOL     OW32395   3.994   0.320   5.739 -0.4155  0.1116 -0.6079
 6979SOL    HW132396   3.940   0.355   5.810 -0.5206  0.9606 -1.1127
 6979SOL    HW232397   3.958   0.232   5.744  1.6301 -0.6186  1.4722
 6980SOL     OW32398   0.812   0.151   4.498 -0.0770 -0.1409  0.3727
 6980SOL    HW132399   0.825   0.123   4.407  1.7079  0.8788  0.3027
 6980SOL    HW232400   0.724   0.188   4.489 -0.3779 -0.6389  1.3431
 6981SOL     OW32401   0.814   1.527   5.252  0.2455 -0.3165  0.4077
 6981SOL    HW132402   0.808   1.448   5.200 -1.0176  0.1734 -0.1843
 6981SOL    HW232403   0.905   1.523   5.283  0.0126  0.2691  1.1780
 6982SOL     OW32404   0.322   4.154   9.376  0.1248  0.0964  0.7070
 6982SOL    HW132405   0.314   4.081   9.315  1.0495  2.2512 -2.0392
 6982SOL    HW232406   0.392   4.129   9.436  1.0368  0.5808 -0.1365
 6983SOL     OW32407   1.510   0.323   9.759  0.1643  0.2398 -0.0269
 6983SOL    HW132408   1.504   0.275   9.676  0.2680 -0.0265  0.1195
 6983SOL    HW232409   1.575   0.387   9.730  1.6052 -1.5938 -0.8882
 6984SOL     OW32410   3.813   2.709  16.946 -0.1622  0.0885 -0.0592
 6984SOL    HW132411   3.761   2.788  16.955 -0.7828 -0.5280  1.8257
 6984SOL    HW232412   3.773   2.666  16.870 -0.8140  2.1488 -0.8613
 6985SOL     OW32413   2.615   4.580   4.078 -0.8629 -0.0542 -0.0987
 6985SOL    HW132414   2.655   4.527   4.009 -0.5112 -2.4621  1.9522
 6985SOL    HW232415   2.638   4.530   4.157 -2.9712 -0.1575  0.4459
 6986SOL     OW32416   4.056   2.964  15.831  0.0094 -0.5390  0.3713
 6986SOL    HW132417   4.151   2.967  15.847 -0.0975  2.0429  0.5148
 6986SOL    HW232418   4.048   2.997  15.742  0.5177 -0.5174  0.3311
 6987SOL     OW32419   3.831   0.153  16.853 -0.0623  0.2731  0.4003
 6987SOL    HW132420   3.739   0.139  16.873 -0.0127 -3.6727 -2.1702
 6987SOL    HW232421   3.850   0.086  16.787 -0.9858 -1.2681  1.6806
 6988SOL     OW32422   1.054   1.321   8.175  0.0592 -0.1144  0.7274
 6988SOL    HW132423   0.974   1.271   8.192 -0.0583  0.0921  0.7762
 6988SOL    HW232424   1.097   1.319   8.261 -1.2188 -0.0818  1.3616
 6989SOL     OW32425   2.330   4.196  10.234  0.0845 -0.5212  0.4654
 6989SOL    HW132426   2.398   4.184  10.168 -1.1658 -1.2119 -0.7232
 6989SOL    HW232427   2.378   4.207  10.315 -0.4259  0.6895  0.6067
 6990SOL     OW32428   1.857   3.310   3.215  0.0687 -0.0900 -0.0278
 6990SOL    HW132429   1.881   3.266   3.297  0.1640  0.2466  0.1225
 6990SOL    HW232430   1.767   3.281   3.206 -0.2061  1.4216 -2.1706
 6991SOL     OW32431   1.555   3.945   9.461  0.2951  0.2374 -0.3632
 6991SOL    HW132432   1.484   3.885   9.484  0.5290 -0.4435 -1.4230
 6991SOL    HW232433   1.542   3.955   9.367  2.2367  1.5578 -0.5040
 6992SOL     OW32434   0.882   2.293   2.610 -0.5224  0.6683  0.2457
 6992SOL    HW132435   0.936   2.234   2.557 -1.4003 -0.1280  0.2223
 6992SOL    HW232436   0.815   2.233   2.644 -0.6352  0.0080 -1.1071
 6993SOL     OW32437   2.708   2.753   5.922 -0.7081  0.0541  0.2510
 6993SOL    HW132438   2.622   2.742   5.963 -0.9300  2.0047  0.3159
 6993SOL    HW232439   2.719   2.848   5.917  1.8038 -0.1907  1.2681
 6994SOL     OW32440   0.499   1.388   4.724 -0.3300 -0.1594  0.6929
 6994SOL    HW132441   0.528   1.351   4.807  3.1629  1.7409  0.3400
 6994SOL    HW232442   0.520   1.314   4.666 -0.8277 -0.1646  0.5193
 6995SOL     OW32443   1.555   3.978   6.442  0.3998  0.2014  0.3869
 6995SOL    HW132444   1.482   4.031   6.411  1.1457  0.9589 -0.0723
 6995SOL    HW232445   1.620   4.045   6.464 -0.6179  1.9107 -1.7866
 6996SOL     OW32446   1.749   0.290   1.915  0.6593 -0.6850  0.2644
 6996SOL    HW132447   1.805   0.217   1.940  0.1764 -1.1663 -0.0405
 6996SOL    HW232448   1.688   0.287   1.989  1.2197 -0.0315  0.7452
 6997SOL     OW32449   3.952   0.940  15.021 -0.2448  0.1421  0.0432
 6997SOL    HW132450   3.942   0.845  15.015  0.0593  0.1238 -0.1738
 6997SOL    HW232451   4.038   0.959  15.059 -0.4593  1.0886  0.0397
 6998SOL     OW32452   3.272   1.238   6.271  1.0085  0.0669  0.3268
 6998SOL    HW132453   3.232   1.304   6.213  0.1593  1.1328  2.1066
 6998SOL    HW232454   3.202   1.245   6.337  0.4124  3.5786 -0.6661
 6999SOL     OW32455   1.704   1.565   3.602  0.1988  0.2619 -0.2546
 6999SOL    HW132456   1.663   1.623   3.538  2.6912  1.1922 -1.0011
 6999SOL    HW232457   1.653   1.486   3.583  1.3207 -0.8013  1.1598
 7000SOL     OW32458   2.577   2.820   7.006  0.0714 -0.2685  0.0521
 7000SOL    HW132459   2.638   2.824   7.080 -0.1270  1.8037  0.1136
 7000SOL    HW232460   2.620   2.864   6.933 -0.8478 -0.4401 -0.5823
 7001SOL     OW32461   1.806   4.053   7.647 -0.4959 -0.0303  0.1116
 7001SOL    HW132462   1.772   4.142   7.642 -1.0262 -0.2289  0.2361
 7001SOL    HW232463   1.899   4.075   7.656 -0.8424  1.3656  0.2228
 7002SOL     OW32464   0.527   1.524  14.865  0.0623  0.1848 -0.6348
 7002SOL    HW132465   0.574   1.588  14.812  2.7487 -2.4078 -1.3388
 7002SOL    HW232466   0.532   1.568  14.949 -2.5229 -0.1221 -0.3216
 7003SOL     OW32467   4.078   2.442   5.246  0.5133 -0.0624  0.0937
 7003SOL    HW132468   4.027   2.378   5.195  0.3079  0.4033 -0.2946
 7003SOL    HW232469   4.117   2.482   5.168  0.4634  0.2314  0.2192
 7004SOL     OW32470   3.499   0.608   4.001  0.2110 -0.3469  0.6809
 7004SOL    HW132471   3.473   0.675   4.065  2.2105 -0.2333  1.3881
 7004SOL    HW232472   3.547   0.660   3.936  0.1225 -0.4896  0.5035
 7005SOL     OW32473   0.980   0.080   0.231  0.7137  0.3830 -0.4152
 7005SOL    HW132474   0.998   0.006   0.172  1.8926  0.0859  0.3190
 7005SOL    HW232475   0.886   0.083   0.212  0.0495 -2.1265  2.4483
 7006SOL     OW32476   2.243   4.163  10.725 -0.2406  0.7204 -0.1515
 7006SOL    HW132477   2.180   4.195  10.790 -0.6922  1.4114 -0.9304
 7006SOL    HW232478   2.187   4.147  10.649  0.1181  1.2981 -0.5361
 7007SOL     OW32479   0.652   3.197  13.430  0.9192 -0.2604  0.0317
 7007SOL    HW132480   0.558   3.197  13.448  0.7733  0.9183 -0.7265
 7007SOL    HW232481   0.676   3.126  13.490  0.1648 -1.7896 -1.4884
 7008SOL     OW32482   2.843   1.686   7.994  1.0299 -0.2192  0.2000
 7008SOL    HW132483   2.861   1.639   7.912 -1.8390 -2.5284  0.8822
 7008SOL    HW232484   2.867   1.775   7.969  1.1761 -0.3450 -0.1144
 7009SOL     OW32485   3.551   0.412   5.419  0.1696 -0.7948 -0.5762
 7009SOL    HW132486   3.517   0.333   5.378  1.5186 -0.3201 -2.6025
 7009SOL    HW232487   3.539   0.385   5.510 -1.6737 -0.0156 -0.5734
 7010SOL     OW32488   2.165   1.385  11.457 -0.4865  0.0293 -0.0381
 7010SOL    HW132489   2.255   1.390  11.424 -0.4855 -1.5256 -0.2478
 7010SOL    HW232490   2.131   1.467  11.421  0.6581  0.9373  0.9172
 7011SOL     OW32491   2.160   4.263   0.098 -0.3988  0.0985  0.4335
 7011SOL    HW132492   2.158   4.203   0.023 -2.6981  1.0509 -0.2580
 7011SOL    HW232493   2.107   4.329   0.053 -1.3275 -0.4054  0.7911
 7012SOL     OW32494   0.201   4.199   7.125 -0.0035 -0.3175  0.6230
 7012SOL    HW132495   0.204   4.122   7.181  2.5479 -1.9166 -1.6805
 7012SOL    HW232496   0.111   4.223   7.143 -0.1629  0.1500 -0.7577
 7013SOL     OW32497   3.867   3.728   8.599 -0.2045 -0.0948  0.4210
 7013SOL    HW132498   3.812   3.780   8.541 -1.0984  1.4589  2.6669
 7013SOL    HW232499   3.926   3.798   8.626 -1.0534  0.3320  1.1635
 7014SOL     OW32500   2.588   2.243  11.784 -0.6705  0.4530 -0.2933
 7014SOL    HW132501   2.586   2.151  11.809  1.9834  0.5651  0.3224
 7014SOL    HW232502   2.679   2.266  11.803 -0.0481 -2.2346 -0.0757
 7015SOL     OW32503   1.102   2.069   6.368  0.2268  0.2044  0.2482
 7015SOL    HW132504   1.068   1.995   6.420 -0.8099  0.4801 -0.0390
 7015SOL    HW232505   1.183   2.029   6.338 -0.2784 -2.7026  2.6751
 7016SOL     OW32506   4.688   3.055   7.937  0.2926  0.2536  0.7450
 7016SOL    HW132507   4.616   3.038   7.997 -0.6362 -0.5221 -0.5830
 7016SOL    HW232508   4.670   3.145   7.907 -1.3051  0.3486  1.9885
 7017SOL     OW32509   4.295   2.451   6.856  1.0689  0.4613  0.6933
 7017SOL    HW132510   4.288   2.457   6.951  0.2331 -0.3624  0.6839
 7017SOL    HW232511   4.202   2.457   6.835  1.5341 -1.5017 -1.9269
 7018SOL     OW32512   4.366   1.278   5.241  0.0449 -0.1379 -0.6183
 7018SOL    HW132513   4.303   1.206   5.234  0.2886 -0.3938 -0.1683
 7018SOL    HW232514   4.393   1.284   5.149  0.8317  3.9078 -0.1188
 7019SOL     OW32515   2.803   3.497   4.278 -0.1681 -0.2662 -0.1689
 7019SOL    HW132516   2.717   3.482   4.317 -1.2204 -1.2602 -2.8300
 7019SOL    HW232517   2.850   3.544   4.346  0.3821 -0.8017 -0.1798
 7020SOL     OW32518   4.681   2.242  15.018  0.1063  0.5006  0.4378
 7020SOL    HW132519   4.658   2.247  15.111  1.4651  0.6212  0.7660
 7020SOL    HW232520   0.018   2.165  15.013 -0.0392  0.3429  1.1998
 7021SOL     OW32521   3.114   0.945  11.587 -0.0107  0.2557 -0.2466
 7021SOL    HW132522   3.050   0.954  11.658 -0.4456  0.7634 -0.6915
 7021SOL    HW232523   3.087   1.022  11.536  0.8359  2.7427  3.0019
 7022SOL     OW32524   0.652   4.630   8.788  0.9806  0.1043  0.6501
 7022SOL    HW132525   0.597   4.609   8.864  0.2104  4.3298  1.2728
 7022SOL    HW232526   0.630   4.551   8.739 -0.7370  0.2342  1.1906
 7023SOL     OW32527   2.353   4.280   4.264  0.5628  0.4812  0.1794
 7023SOL    HW132528   2.343   4.327   4.181  1.2073  0.7442  0.2537
 7023SOL    HW232529   2.361   4.348   4.330 -0.6713  1.7005 -0.9490
 7024SOL     OW32530   0.023   0.947   7.504  0.1637  0.1689  0.0890
 7024SOL    HW132531   0.087   0.883   7.536  1.3545  1.2409 -0.1528
 7024SOL    HW232532   4.714   0.976   7.590  1.9241  2.9053 -0.2323
 7025SOL     OW32533   2.265   0.310   2.187  0.4400 -0.0200  0.1103
 7025SOL    HW132534   2.328   0.376   2.158 -0.5505  0.5047 -0.8626
 7025SOL    HW232535   2.294   0.290   2.276  0.9161  1.2896  0.2426
 7026SOL     OW32536   0.649   2.185   9.281  0.2624  0.3224 -0.0811
 7026SOL    HW132537   0.598   2.202   9.360 -1.1701  1.3266 -1.2238
 7026SOL    HW232538   0.612   2.238   9.211  0.5795 -0.7564 -1.0697
 7027SOL     OW32539   3.671   1.090   1.919  0.0102 -0.1248 -0.1707
 7027SOL    HW132540   3.577   1.079   1.934 -0.0377  0.2279 -0.2082
 7027SOL    HW232541   3.693   1.024   1.853  3.5742  1.6023 -0.6782
 7028SOL     OW32542   1.365   0.901   5.434 -0.2200 -0.3026 -0.2107
 7028SOL    HW132543   1.276   0.931   5.449 -1.1307 -2.2433 -1.7328
 7028SOL    HW232544   1.380   0.851   5.514 -2.3849  0.0646  0.4314
 7029SOL     OW32545   4.124   2.557  11.197  0.4129 -0.7476 -0.6300
 7029SOL    HW132546   4.217   2.547  11.220  0.5136 -1.2076 -1.2454
 7029SOL    HW232547   4.107   2.477  11.148  2.4738 -0.5204 -1.7155
 7030SOL     OW32548   2.871   4.109  13.647 -0.6434 -0.1426  0.1326
 7030SOL    HW132549   2.848   4.021  13.677  2.3268 -1.4231 -1.3070
 7030SOL    HW232550   2.955   4.086  13.607  0.4482 -1.0931  2.9235
 7031SOL     OW32551   3.746   1.011  13.734  0.0092 -0.7919  0.0763
 7031SOL    HW132552   3.728   1.033  13.642 -0.4161 -1.4111  0.0129
 7031SOL    HW232553   3.760   1.101  13.766  3.2921 -1.3015 -0.0359
 7032SOL     OW32554   0.430   4.346   1.633 -0.2391 -0.6374 -0.2540
 7032SOL    HW132555   0.412   4.269   1.687 -3.2228  0.3569  0.2115
 7032SOL    HW232556   0.453   4.314   1.546 -1.3102  0.4837 -0.9572
 7033SOL     OW32557   0.332   3.784   2.091  0.0408 -0.2150  0.4791
 7033SOL    HW132558   0.363   3.809   2.178  0.5154 -1.4964  0.6820
 7033SOL    HW232559   0.268   3.718   2.118  1.1403 -1.7655 -0.7211
 7034SOL     OW32560   3.639   2.150   2.671  0.2793 -0.0162 -0.4595
 7034SOL    HW132561   3.610   2.226   2.723 -0.7543 -0.4276 -0.4249
 7034SOL    HW232562   3.686   2.188   2.597 -1.0260  2.5822  0.0176
 7035SOL     OW32563   3.323   1.727   1.044  0.4204 -0.0076  0.2940
 7035SOL    HW132564   3.267   1.750   0.970 -3.1639 -1.0601  2.7401
 7035SOL    HW232565   3.268   1.662   1.088 -2.1692  1.4640 -0.7756
 7036SOL     OW32566   0.193   3.521  12.085 -0.1476  0.3762 -0.1150
 7036SOL    HW132567   0.200   3.484  12.173  2.8290  1.3136  0.0557
 7036SOL    HW232568   0.218   3.448  12.029  2.4915 -0.1680  1.7716
 7037SOL     OW32569   1.869   1.225   7.468 -0.1726 -0.4453 -0.6593
 7037SOL    HW132570   1.787   1.177   7.476  0.6341 -1.3016  2.6303
 7037SOL    HW232571   1.863   1.254   7.377  0.6502 -0.4591 -0.7202
 7038SOL     OW32572   3.770   4.216  10.133  0.2153  0.6072 -0.6633
 7038SOL    HW132573   3.777   4.126  10.100 -0.4614 -0.2282  1.4461
 7038SOL    HW232574   3.752   4.202  10.226 -2.4134 -1.4981 -1.5064
 7039SOL     OW32575   3.225   2.278   9.087 -0.0336  0.0334 -0.4468
 7039SOL    HW132576   3.229   2.281   9.182 -1.5024  0.1818 -0.3890
 7039SOL    HW232577   3.280   2.202   9.068 -0.6264 -0.6749  0.6869
 7040SOL     OW32578   2.357   4.517   7.849 -0.3680 -0.2461 -0.4324
 7040SOL    HW132579   2.366   4.519   7.754  1.6159  0.8764 -0.2399
 7040SOL    HW232580   2.273   4.561   7.859 -0.3506 -0.1332 -0.7700
 7041SOL     OW32581   3.903   1.952   8.393  0.2705 -0.3589  0.4965
 7041SOL    HW132582   3.856   1.966   8.476 -2.7418 -1.1497 -1.0995
 7041SOL    HW232583   3.846   1.878   8.375 -1.6805  1.4444 -0.7064
 7042SOL     OW32584   2.240   4.245  12.365 -0.2705  0.1999  0.2184
 7042SOL    HW132585   2.266   4.265  12.455  1.3977  0.9946 -0.4306
 7042SOL    HW232586   2.317   4.292  12.331  0.8820 -1.4679  0.4944
 7043SOL     OW32587   3.973   3.543  15.847 -0.4433  0.6556 -0.1422
 7043SOL    HW132588   4.033   3.470  15.863 -1.7045 -0.6588 -1.3964
 7043SOL    HW232589   3.926   3.516  15.768 -0.9966  0.0111  0.4104
 7044SOL     OW32590   4.322   0.597  15.444 -0.1670 -0.1094  0.7181
 7044SOL    HW132591   4.232   0.584  15.416  0.2186 -1.4132  0.0531
 7044SOL    HW232592   4.337   0.690  15.430  2.0976 -0.8455 -1.6881
 7045SOL     OW32593   0.852   0.488  10.229  0.4883 -0.0064  0.8301
 7045SOL    HW132594   0.846   0.469  10.323 -0.6297 -0.0554  0.7418
 7045SOL    HW232595   0.774   0.450  10.190  0.9178 -1.0179  0.9567
 7046SOL     OW32596   2.267   2.517   1.895 -0.6757  0.4339 -0.0222
 7046SOL    HW132597   2.263   2.430   1.936 -4.1879  0.5290 -0.1827
 7046SOL    HW232598   2.180   2.539   1.929 -0.3003  1.7391  0.0728
 7047SOL     OW32599   0.815   2.442  10.117 -0.4814  0.1842  0.0253
 7047SOL    HW132600   0.814   2.515  10.180 -1.1786  0.2345 -0.0391
 7047SOL    HW232601   0.751   2.381  10.155 -0.8805 -1.2813 -3.0569
 7048SOL     OW32602   4.555   4.256   3.614  0.2302  0.2435 -0.7350
 7048SOL    HW132603   4.578   4.265   3.707  1.3057  1.2751 -1.1006
 7048SOL    HW232604   4.470   4.300   3.616  0.9142  1.5578 -0.9053
 7049SOL     OW32605   2.810   4.672   7.174 -0.3025 -0.0900  0.5443
 7049SOL    HW132606   2.761   4.656   7.093 -1.6580 -0.0893  1.3541
 7049SOL    HW232607   2.843   4.583   7.186 -2.6557 -1.1351 -0.5406
 7050SOL     OW32608   4.681   2.754   7.955  0.3052  0.5074 -0.1502
 7050SOL    HW132609   4.659   2.751   8.048  0.9793 -1.6753 -0.0541
 7050SOL    HW232610   4.695   2.849   7.951  0.0100  0.5672  0.2326
 7051SOL     OW32611   2.739   1.527   6.735 -0.4458  0.0085 -0.0959
 7051SOL    HW132612   2.666   1.466   6.747 -1.8648  1.6015 -0.5021
 7051SOL    HW232613   2.696   1.605   6.699 -1.2038 -0.0969  0.5980
 7052SOL     OW32614   3.408   2.856   8.948  0.6058 -0.5477 -0.1237
 7052SOL    HW132615   3.318   2.835   8.924  0.0088 -0.5424  2.1736
 7052SOL    HW232616   3.411   2.807   9.030  0.1612  0.1179  0.2930
 7053SOL     OW32617   2.727   3.928   9.057 -0.4001 -0.1607  0.2857
 7053SOL    HW132618   2.793   3.992   9.030  0.2100 -0.7174  0.4487
 7053SOL    HW232619   2.701   3.895   8.971  0.1973  0.7229 -0.2423
 7054SOL     OW32620   4.423   0.655   8.796 -0.9561  0.8686 -0.2007
 7054SOL    HW132621   4.513   0.624   8.789 -1.2765 -0.0958 -0.0748
 7054SOL    HW232622   4.373   0.579   8.767 -1.6103  1.1713  0.1289
 7055SOL     OW32623   2.351   3.020   0.885  0.4151  0.3301  0.5486
 7055SOL    HW132624   2.271   3.049   0.842  0.2063  0.4836  1.0545
 7055SOL    HW232625   2.384   2.945   0.834  2.2069  0.8774  0.8897
 7056SOL     OW32626   2.486   1.834   6.919 -0.4182 -0.0937  0.8346
 7056SOL    HW132627   2.424   1.762   6.907 -0.4607  0.0409  0.2384
 7056SOL    HW232628   2.430   1.911   6.931 -0.2778  0.1099  0.2085
 7057SOL     OW32629   1.342   2.557   8.009 -0.3170 -0.0709  0.3013
 7057SOL    HW132630   1.380   2.499   8.075  0.8371  2.5374  1.9054
 7057SOL    HW232631   1.419   2.589   7.962  0.1600 -0.1434  1.0386
 7058SOL     OW32632   3.694   3.631  11.705 -0.1485 -0.0801  0.1671
 7058SOL    HW132633   3.679   3.553  11.758 -0.9499 -0.4011 -0.5342
 7058SOL    HW232634   3.744   3.587  11.637  0.8901 -0.8591  1.4269
 7059SOL     OW32635   1.532   0.172   1.201 -0.2453  0.0998  0.1723
 7059SOL    HW132636   1.611   0.152   1.250 -1.7692  0.7413  2.8726
 7059SOL    HW232637   1.494   0.084   1.190  1.2594 -0.4351 -0.8074
 7060SOL     OW32638   0.765   1.424  13.231  0.6583 -0.0778 -0.1184
 7060SOL    HW132639   0.755   1.442  13.138 -2.2381  0.6825  0.3316
 7060SOL    HW232640   0.675   1.398  13.253 -0.2298  0.9714 -2.4686
 7061SOL     OW32641   0.115   4.130   4.924 -0.7687 -0.0562 -0.2411
 7061SOL    HW132642   0.107   4.199   4.858 -2.3130  1.2539  1.3248
 7061SOL    HW232643   0.023   4.115   4.944 -0.8979 -0.2446 -0.9637
 7062SOL     OW32644   1.642   0.931   0.073  0.0273 -0.3835  0.3431
 7062SOL    HW132645   1.696   1.010   0.073  0.1059 -0.4382 -2.4142
 7062SOL    HW232646   1.638   0.924  17.660  0.7481 -2.1984  0.4533
 7063SOL     OW32647   2.802   3.792   6.747  0.2110 -0.3078 -0.5316
 7063SOL    HW132648   2.853   3.715   6.769 -0.5882 -0.8729 -0.6496
 7063SOL    HW232649   2.711   3.774   6.772  0.2596  1.5924  1.0580
 7064SOL     OW32650   3.530   2.036   0.140 -0.6809  0.5061 -0.4244
 7064SOL    HW132651   3.585   2.001   0.070 -0.7774 -0.7605  0.1151
 7064SOL    HW232652   3.494   2.116   0.103 -1.4561  0.2486 -0.2208
 7065SOL     OW32653   2.701   2.775  17.245  0.4998  0.1395 -0.1730
 7065SOL    HW132654   2.794   2.790  17.230  0.6176 -0.6453 -0.2398
 7065SOL    HW232655   2.676   2.849  17.300 -1.6559 -0.4299 -0.3914
 7066SOL     OW32656   0.213   4.036   8.213  0.5587 -0.3012  0.5966
 7066SOL    HW132657   0.221   4.096   8.287  4.0554 -2.1468  1.6842
 7066SOL    HW232658   0.192   3.951   8.251  2.2595 -1.3073 -0.7511
 7067SOL     OW32659   1.632   2.805   7.197  0.0152 -0.7320 -0.6447
 7067SOL    HW132660   1.597   2.742   7.134  0.9009 -0.6621 -1.2113
 7067SOL    HW232661   1.590   2.763   7.272 -3.4701  0.3234 -1.9994
 7068SOL     OW32662   2.049   2.765  13.893 -0.4162  0.4123 -0.0354
 7068SOL    HW132663   2.016   2.679  13.869  2.0032  0.5271 -3.6822
 7068SOL    HW232664   2.003   2.787  13.974 -0.4651  0.8394 -0.1805
 7069SOL     OW32665   3.769   1.308   4.414 -0.7675  0.3121 -0.1284
 7069SOL    HW132666   3.776   1.295   4.508  1.7336 -0.2277 -0.3993
 7069SOL    HW232667   3.808   1.229   4.377  0.2292  0.5874  0.3426
 7070SOL     OW32668   0.707   1.839   3.543 -0.2096  0.5531 -0.0981
 7070SOL    HW132669   0.763   1.891   3.601 -0.2052 -1.5477  1.7772
 7070SOL    HW232670   0.662   1.780   3.604  0.8400 -0.5703 -0.3935
 7071SOL     OW32671   2.453   1.371  11.385 -0.3569 -0.2986  0.2543
 7071SOL    HW132672   2.498   1.325  11.314 -1.1327 -0.2599 -0.2629
 7071SOL    HW232673   2.480   1.461  11.366  1.7449 -1.0255 -0.1889
 7072SOL     OW32674   3.042   3.456   6.213  0.4346  0.7698 -0.3114
 7072SOL    HW132675   3.108   3.502   6.263  3.3724 -3.4417 -0.3288
 7072SOL    HW232676   2.971   3.518   6.226 -1.1630 -0.8154 -1.3532
 7073SOL     OW32677   2.715   2.602   6.735  0.0722 -0.0857 -0.3030
 7073SOL    HW132678   2.731   2.617   6.829  3.0493 -0.8866 -0.7106
 7073SOL    HW232679   2.625   2.570   6.730 -0.4291  1.1805  0.5676
 7074SOL     OW32680   1.088   0.082   4.228 -0.1794 -0.0081 -0.0867
 7074SOL    HW132681   1.089   0.149   4.297 -0.7024  2.4005 -2.4254
 7074SOL    HW232682   1.023   0.121   4.170 -0.8302 -1.5452 -0.4083
 7075SOL     OW32683   2.400   2.613  12.710 -0.3286 -0.0691  0.3735
 7075SOL    HW132684   2.336   2.547  12.685  0.1767  0.0426 -1.2585
 7075SOL    HW232685   2.350   2.679  12.758  1.8935  2.0619 -0.2131
 7076SOL     OW32686   3.095   2.193   2.727 -0.4321  0.4602  0.5558
 7076SOL    HW132687   3.066   2.273   2.684  0.3646  0.7704  0.5919
 7076SOL    HW232688   3.108   2.205   2.821 -0.6378  0.3066  0.6049
 7077SOL     OW32689   0.422   1.163   2.864 -0.4572 -0.4056 -0.0857
 7077SOL    HW132690   0.506   1.192   2.829  0.7335 -0.2947  2.8166
 7077SOL    HW232691   0.372   1.245   2.865 -1.4711 -1.0069 -2.8332
 7078SOL     OW32692   0.069   1.988   2.286  0.2566  0.1974 -0.2934
 7078SOL    HW132693   0.034   1.992   2.375 -0.1215  1.8354 -0.5187
 7078SOL    HW232694   0.140   1.924   2.292  1.3963  1.7660  3.2340
 7079SOL     OW32695   3.010   4.589   2.714 -0.0583 -0.0734  0.5422
 7079SOL    HW132696   3.099   4.601   2.681 -0.5434  0.3723 -0.5991
 7079SOL    HW232697   2.985   4.501   2.686  1.4495 -0.8245  1.5578
 7080SOL     OW32698   1.328   4.111   3.378  0.0567  0.4591  0.1896
 7080SOL    HW132699   1.294   4.138   3.463 -0.8439 -1.1645  0.3412
 7080SOL    HW232700   1.258   4.056   3.344  1.4142 -2.0461  1.4338
 7081SOL     OW32701   3.523   3.320  11.631  0.4912 -0.3407  0.1627
 7081SOL    HW132702   3.503   3.353  11.719 -0.0935  1.2642 -0.5611
 7081SOL    HW232703   3.516   3.405  11.587  0.1493 -1.9464 -2.8729
 7082SOL     OW32704   1.305   0.011  17.151  0.5719  0.2780 -0.0893
 7082SOL    HW132705   1.369   4.702  17.086  0.5386 -2.3259  1.0298
 7082SOL    HW232706   1.267   0.083  17.101 -1.2099 -0.5213  0.1119
 7083SOL     OW32707   2.822   2.890   0.071  0.5415  0.1104 -0.5734
 7083SOL    HW132708   2.829   2.979   0.037  1.9526  0.1364 -0.2043
 7083SOL    HW232709   2.787   2.843  17.678 -1.3304  1.1824 -0.3698
 7084SOL     OW32710   4.262   4.460  13.705  0.2686  0.7584  0.4736
 7084SOL    HW132711   4.184   4.515  13.716 -1.1783 -1.1197 -0.2016
 7084SOL    HW232712   4.311   4.493  13.779  0.9627  0.3095  0.2131
 7085SOL     OW32713   3.837   4.296   3.392  0.0571  0.2508  0.3468
 7085SOL    HW132714   3.818   4.238   3.318  0.9369  0.8219 -0.3280
 7085SOL    HW232715   3.772   4.263   3.454  1.0053 -0.2565  1.0784
 7086SOL     OW32716   2.327   1.721   8.767 -0.1891  0.0196  0.2342
 7086SOL    HW132717   2.305   1.805   8.807 -3.6630 -0.3061 -0.9061
 7086SOL    HW232718   2.366   1.744   8.683  1.0349 -0.1263  0.7709
 7087SOL     OW32719   2.481   1.884   7.370 -0.3041  0.2417 -0.4686
 7087SOL    HW132720   2.414   1.918   7.311  0.6426  2.8493 -0.0440
 7087SOL    HW232721   2.417   1.858   7.435  1.2264 -1.5043  0.3648
 7088SOL     OW32722   3.695   0.680   4.940  0.5003  0.4481 -0.5343
 7088SOL    HW132723   3.774   0.727   4.911  0.2482  1.3630  0.2482
 7088SOL    HW232724   3.697   0.618   4.867 -2.2824 -1.3154  0.8977
 7089SOL     OW32725   0.334   3.064  10.193  0.3434 -0.1388 -0.2466
 7089SOL    HW132726   0.383   3.019  10.263  0.9351  1.6802  0.5167
 7089SOL    HW232727   0.282   3.126  10.245  0.0675 -2.5383  2.3533
 7090SOL     OW32728   1.964   0.427   4.420  0.0006 -0.0722 -0.2859
 7090SOL    HW132729   1.873   0.420   4.449 -0.1372 -1.6941 -1.1397
 7090SOL    HW232730   1.953   0.409   4.327 -1.0665  5.0287 -1.1505
 7091SOL     OW32731   0.797   0.114  13.587  0.2323  0.0125 -0.1034
 7091SOL    HW132732   0.854   0.072  13.523  0.0516 -1.6822  0.8214
 7091SOL    HW232733   0.852   0.167  13.643 -0.3558  0.3093  0.1977
 7092SOL     OW32734   2.908   3.121   6.779 -1.2871  0.0315 -0.0628
 7092SOL    HW132735   2.970   3.085   6.841 -1.4072  0.3855  0.2622
 7092SOL    HW232736   2.927   3.210   6.809 -0.0710 -0.3381  0.2546
 7093SOL     OW32737   3.729   1.438   5.205 -0.0152  0.6890  0.7453
 7093SOL    HW132738   3.651   1.491   5.187 -0.6652 -0.4711  0.1186
 7093SOL    HW232739   3.789   1.510   5.225  1.6278 -0.3214 -0.5939
 7094SOL     OW32740   0.505   2.357   9.133  0.3261 -0.1038 -0.0598
 7094SOL    HW132741   0.427   2.313   9.168  0.8588 -0.3153  0.8821
 7094SOL    HW232742   0.466   2.386   9.051  0.3320 -0.7772 -0.3045
 7095SOL     OW32743   0.400   1.770  15.292 -0.2819 -0.3132 -0.2560
 7095SOL    HW132744   0.388   1.718  15.371 -0.6572 -2.3352 -1.6188
 7095SOL    HW232745   0.324   1.827  15.297  1.2269  1.6290  0.4367
 7096SOL     OW32746   2.332   0.030   0.805  0.6799 -0.2266  0.1158
 7096SOL    HW132747   2.273   4.707   0.867  0.4828 -1.6389 -1.0360
 7096SOL    HW232748   2.391   4.678   0.782  1.7480  1.2803 -1.8577
 7097SOL     OW32749   2.343   1.841   7.903 -0.7152  0.0437 -0.0880
 7097SOL    HW132750   2.411   1.793   7.950 -1.1226 -2.5201 -2.1735
 7097SOL    HW232751   2.297   1.891   7.972 -1.1514  0.3715 -0.6134
 7098SOL     OW32752   4.337   2.436   1.184 -0.1206  0.0101  0.2654
 7098SOL    HW132753   4.400   2.366   1.172  0.1653  0.6313 -1.8174
 7098SOL    HW232754   4.379   2.514   1.148 -0.8288 -0.8516 -2.4088
 7099SOL     OW32755   3.977   2.659   9.087  0.5136 -0.0935 -0.3194
 7099SOL    HW132756   4.066   2.650   9.053  0.6729  1.7114 -0.3686
 7099SOL    HW232757   3.983   2.735   9.145 -0.6881  0.9365 -1.5331
 7100SOL     OW32758   4.346   4.643   4.681  0.3953 -0.0038 -0.0804
 7100SOL    HW132759   4.309   4.670   4.764 -0.0341 -0.5528 -0.0940
 7100SOL    HW232760   4.322   4.554   4.655  0.3931  0.5641 -2.0570
 7101SOL     OW32761   1.874   0.237   3.325 -0.5807 -0.2491  0.0690
 7101SOL    HW132762   1.932   0.311   3.306 -0.5524  0.1205  1.5797
 7101SOL    HW232763   1.910   0.179   3.258  0.1419 -0.1337  0.3514
 7102SOL     OW32764   1.725   2.563   1.860 -0.1656  0.0402 -0.2897
 7102SOL    HW132765   1.694   2.645   1.898 -1.5519 -0.0643 -1.1925
 7102SOL    HW232766   1.818   2.583   1.869 -0.4935  2.1506 -1.5819
 7103SOL     OW32767   2.077   0.477   7.956  0.0476  0.0553 -0.7873
 7103SOL    HW132768   2.112   0.531   8.027 -0.0721 -2.1742  0.9326
 7103SOL    HW232769   2.161   0.463   7.913  0.3415 -0.1401 -0.1432
 7104SOL     OW32770   2.231   0.080   6.338 -0.8551 -0.3581 -0.0756
 7104SOL    HW132771   2.217   0.154   6.279  0.7428 -2.5391 -3.1330
 7104SOL    HW232772   2.305   0.106   6.392 -1.5351 -1.3451  1.3260
 7105SOL     OW32773   2.996   3.368  10.556  0.1173  0.0767 -0.2174
 7105SOL    HW132774   2.971   3.290  10.508 -3.0968  0.6625  0.5432
 7105SOL    HW232775   3.030   3.338  10.641  0.7470 -1.9999 -1.2111
 7106SOL     OW32776   0.302   4.540   5.274 -0.1762  0.4874 -0.3550
 7106SOL    HW132777   0.243   4.615   5.287 -1.1552 -0.2132 -0.8169
 7106SOL    HW232778   0.381   4.592   5.289 -0.5304  0.1181  2.7555
 7107SOL     OW32779   3.311   4.089   7.786  0.1969  0.5423 -0.5203
 7107SOL    HW132780   3.269   4.168   7.820 -1.0531 -0.2219 -0.3203
 7107SOL    HW232781   3.307   4.112   7.693 -0.8590 -0.1092 -0.6284
 7108SOL     OW32782   4.216   3.829   5.125  0.0955 -0.2149  0.3098
 7108SOL    HW132783   4.178   3.741   5.113 -1.7892  0.5857  0.3582
 7108SOL    HW232784   4.308   3.806   5.135 -0.0593 -0.3068  1.5483
 7109SOL     OW32785   1.735   4.400   2.759 -0.4478 -0.5183 -0.0985
 7109SOL    HW132786   1.654   4.386   2.807 -0.1923  0.2619  0.5662
 7109SOL    HW232787   1.755   4.311   2.731  2.8269  0.3179 -0.4848
 7110SOL     OW32788   2.300   3.560   6.015  0.3541 -0.6289 -0.3735
 7110SOL    HW132789   2.377   3.581   5.962  1.1111  1.1457  1.4521
 7110SOL    HW232790   2.344   3.531   6.095  2.1309  2.6350 -0.1739
 7111SOL     OW32791   0.176   0.447   2.916 -0.2425  0.2979  0.3721
 7111SOL    HW132792   0.134   0.362   2.928  0.7223 -0.3265 -0.6641
 7111SOL    HW232793   0.222   0.474   2.996  1.2029 -1.2892  0.0989
 7112SOL     OW32794   1.998   1.376   5.054 -0.1700 -0.2074 -0.0345
 7112SOL    HW132795   1.933   1.377   4.983 -1.3554  1.8433  1.0881
 7112SOL    HW232796   1.995   1.281   5.066  0.3396 -0.2985 -0.6409
 7113SOL     OW32797   4.524   0.297  11.284  0.2987 -0.4589  0.0354
 7113SOL    HW132798   4.476   0.358  11.228  0.5332  0.8818  1.2987
 7113SOL    HW232799   4.614   0.330  11.276  0.1977  0.1841  1.6927
 7114SOL     OW32800   2.084   3.677  11.145  0.0952  0.0118 -0.2852
 7114SOL    HW132801   2.057   3.680  11.237  1.2019  0.5392  0.0108
 7114SOL    HW232802   2.119   3.587  11.148  1.4876  0.5645 -0.0624
 7115SOL     OW32803   2.161   1.231  10.115 -0.2116 -0.0233  0.0873
 7115SOL    HW132804   2.131   1.321  10.125 -1.1901 -0.5884  2.3961
 7115SOL    HW232805   2.164   1.193  10.203  1.2963 -3.4963 -1.4504
 7116SOL     OW32806   1.395   2.640   2.780 -0.6186  0.2650  0.2969
 7116SOL    HW132807   1.364   2.623   2.691 -0.7429  0.1740  0.3573
 7116SOL    HW232808   1.370   2.731   2.795 -1.3544  0.3959 -1.8573
 7117SOL     OW32809   1.878   3.979   2.236  0.0654 -0.1973  0.0428
 7117SOL    HW132810   1.903   3.901   2.187 -3.8458 -1.3691 -0.0853
 7117SOL    HW232811   1.809   3.943   2.292 -2.0941  1.7419 -1.4054
 7118SOL     OW32812   2.254   0.670   2.232 -0.0557 -0.2662 -0.1836
 7118SOL    HW132813   2.254   0.691   2.325 -0.2678 -0.6580 -0.0911
 7118SOL    HW232814   2.163   0.695   2.215  0.4781  1.0626 -1.0729
 7119SOL     OW32815   4.283   0.935  13.159  0.4777  0.5859  0.4258
 7119SOL    HW132816   4.365   0.930  13.109  0.8220  1.2982  0.9182
 7119SOL    HW232817   4.254   0.849  13.129  0.0802  0.0957  2.2326
 7120SOL     OW32818   2.937   1.600   3.130  0.7358  0.1507  0.1831
 7120SOL    HW132819   2.978   1.560   3.054 -0.6092  1.1456 -1.0758
 7120SOL    HW232820   2.975   1.688   3.124  0.5197  0.0476 -2.7571
 7121SOL     OW32821   1.965   3.061   2.649 -1.0949  0.0752  0.1883
 7121SOL    HW132822   1.977   3.037   2.557 -2.0069  1.2240 -0.2368
 7121SOL    HW232823   2.033   3.011   2.694 -1.7979 -0.6347  0.4714
 7122SOL     OW32824   1.629   0.517   7.719 -0.1686  0.0214 -0.4599
 7122SOL    HW132825   1.553   0.508   7.777 -1.2157  0.5846 -1.7494
 7122SOL    HW232826   1.699   0.515   7.784 -1.3996  2.1987  0.9152
 7123SOL     OW32827   0.422   1.151  16.523  0.4267 -0.1699  0.1055
 7123SOL    HW132828   0.503   1.190  16.489 -0.7085  0.5074 -1.8368
 7123SOL    HW232829   0.395   1.088  16.455 -1.0061  0.6055 -0.0359
 7124SOL     OW32830   0.469   1.809   4.726  0.3565  0.0419 -0.0769
 7124SOL    HW132831   0.377   1.807   4.703  0.1762  0.9618  0.5563
 7124SOL    HW232832   0.484   1.903   4.717 -0.5926  0.0945 -1.0659
 7125SOL     OW32833   2.722   2.391   2.114  0.1796  0.7717 -0.1257
 7125SOL    HW132834   2.792   2.330   2.134 -1.1091 -0.5737  0.3020
 7125SOL    HW232835   2.776   2.459   2.075  1.3979 -0.4932 -0.6324
 7126SOL     OW32836   3.705   1.236   6.397 -0.1564  0.0264  0.4812
 7126SOL    HW132837   3.734   1.325   6.417 -0.0647 -0.1143  0.9812
 7126SOL    HW232838   3.658   1.259   6.317  0.8976 -2.3296 -0.8090
 7127SOL     OW32839   2.372   1.101   0.398 -0.1646  0.0063 -0.5145
 7127SOL    HW132840   2.397   1.114   0.306 -0.4319  0.8045 -0.4761
 7127SOL    HW232841   2.318   1.179   0.406  0.2297  0.2343 -0.1137
 7128SOL     OW32842   3.065   2.331   6.965  0.0645 -0.2307 -0.2145
 7128SOL    HW132843   3.087   2.373   6.882 -0.3369  1.4456  0.5224
 7128SOL    HW232844   3.147   2.283   6.977  0.1278  0.2223  1.1908
 7129SOL     OW32845   3.647   2.960  10.042  0.6934  0.3362  0.1475
 7129SOL    HW132846   3.616   3.050  10.043 -1.0210 -0.2432 -0.3176
 7129SOL    HW232847   3.731   2.965  10.088 -0.5359  1.8829  2.1841
 7130SOL     OW32848   3.302   0.788   2.636 -0.3546  0.1834 -0.7726
 7130SOL    HW132849   3.290   0.882   2.649  1.8654  0.1934  1.2309
 7130SOL    HW232850   3.325   0.789   2.543 -2.1306  1.3062 -1.2102
 7131SOL     OW32851   1.953   1.484   5.676 -0.0506  0.4062  0.5204
 7131SOL    HW132852   1.908   1.486   5.760 -1.7266  1.0141 -0.3881
 7131SOL    HW232853   2.045   1.471   5.696 -0.1026  1.3051  1.3621
 7132SOL     OW32854   0.199   2.780   6.738 -0.2465 -0.1224 -0.4029
 7132SOL    HW132855   0.157   2.777   6.651 -4.0794  2.4097  1.3528
 7132SOL    HW232856   0.224   2.872   6.749 -2.0165  0.4247 -0.8334
 7133SOL     OW32857   4.248   3.383   6.692 -0.0272 -0.1082 -0.1518
 7133SOL    HW132858   4.220   3.421   6.608  1.7897  0.7191 -0.3957
 7133SOL    HW232859   4.344   3.379   6.686 -0.0839 -2.3185  0.7538
 7134SOL     OW32860   4.059   0.542   4.634 -0.4260  0.2024  0.4373
 7134SOL    HW132861   3.981   0.592   4.659 -1.6509 -0.4726 -2.0611
 7134SOL    HW232862   4.117   0.617   4.645  1.6913 -1.4893  0.7469
 7135SOL     OW32863   3.253   4.308   4.680  0.1766  0.7236 -0.0006
 7135SOL    HW132864   3.169   4.302   4.635 -1.2814  2.1086  2.5218
 7135SOL    HW232865   3.305   4.277   4.606  0.4879  1.5248 -0.1172
 7136SOL     OW32866   1.904   0.451   6.568 -0.0951  0.6397  0.3718
 7136SOL    HW132867   1.901   0.541   6.536 -1.0977  0.1581 -0.8980
 7136SOL    HW232868   1.979   0.416   6.520 -0.6134  0.2950 -0.1942
 7137SOL     OW32869   0.618   2.840  10.223  0.2275  0.3308 -0.6450
 7137SOL    HW132870   0.671   2.911  10.185  2.6343 -0.8219  0.5159
 7137SOL    HW232871   0.690   2.777  10.229  0.3964  0.3441 -2.4779
 7138SOL     OW32872   4.452   4.137  15.329 -0.3598  0.5524 -0.0127
 7138SOL    HW132873   4.543   4.165  15.314 -0.0539 -0.6347 -0.4278
 7138SOL    HW232874   4.454   4.103  15.418 -1.7980  1.3019  0.3023
 7139SOL     OW32875   1.370   1.885  14.044  0.0546  0.4979 -0.2383
 7139SOL    HW132876   1.343   1.959  14.100  0.0478 -1.1548  1.9483
 7139SOL    HW232877   1.377   1.812  14.105  1.4615 -0.5522 -1.6475
 7140SOL     OW32878   2.300   3.440   4.282  0.2291 -0.4269 -0.1786
 7140SOL    HW132879   2.261   3.498   4.217  1.5929  0.7324  0.0281
 7140SOL    HW232880   2.360   3.504   4.319  1.6117 -1.2016 -1.0632
 7141SOL     OW32881   2.848   2.600   9.286 -0.0695 -0.1249  0.3887
 7141SOL    HW132882   2.782   2.554   9.338  1.1598 -0.3505  1.7457
 7141SOL    HW232883   2.804   2.683   9.267 -0.6749 -0.7772 -1.0512
 7142SOL     OW32884   0.332   2.419   5.926 -0.1612 -0.0955  0.2230
 7142SOL    HW132885   0.241   2.388   5.933  0.4790 -2.0223  0.1389
 7142SOL    HW232886   0.328   2.502   5.878  0.9301 -0.2772 -0.1828
 7143SOL     OW32887   4.259   1.145  16.536 -0.6577 -0.3289 -0.2616
 7143SOL    HW132888   4.278   1.236  16.511 -0.8969  0.6569  3.1447
 7143SOL    HW232889   4.344   1.105  16.552 -0.0234  0.4669 -1.6559
 7144SOL     OW32890   2.654   2.010   1.905 -0.2685  0.1179  0.0832
 7144SOL    HW132891   2.703   2.028   1.985 -2.5805  1.1125  1.2524
 7144SOL    HW232892   2.679   2.091   1.860 -0.0652  0.4307  0.7608
 7145SOL     OW32893   3.069   2.577   8.056  0.3514  0.0647  0.4246
 7145SOL    HW132894   3.014   2.521   8.000  0.6316  0.3617 -0.1497
 7145SOL    HW232895   3.017   2.657   8.058  1.0007  0.5174 -0.6178
 7146SOL     OW32896   2.931   0.506   8.493  0.3757  0.1649 -0.0365
 7146SOL    HW132897   3.002   0.453   8.530  0.4652 -0.3696 -0.9972
 7146SOL    HW232898   2.944   0.508   8.399  2.9828  0.3447  0.3154
 7147SOL     OW32899   3.268   1.725   5.097  0.3244 -0.3083 -0.0506
 7147SOL    HW132900   3.251   1.640   5.056  2.3350 -2.0775  2.8230
 7147SOL    HW232901   3.234   1.704   5.184 -0.6269 -1.2094 -0.6438
 7148SOL     OW32902   3.364   2.706   4.072  0.8385  0.6013  0.0486
 7148SOL    HW132903   3.271   2.723   4.055  0.8353 -1.2411 -1.6965
 7148SOL    HW232904   3.392   2.794   4.098 -0.5027  1.5237 -1.6127
 7149SOL     OW32905   3.444   2.805  16.871 -0.1579  0.1628 -0.1277
 7149SOL    HW132906   3.494   2.803  16.789 -1.4470  1.8881 -0.9656
 7149SOL    HW232907   3.511   2.826  16.936  0.9025  0.5035 -1.3268
 7150SOL     OW32908   0.732   2.917   8.707 -0.1230  0.4712 -0.2756
 7150SOL    HW132909   0.638   2.923   8.688 -0.4743 -2.0882  0.6822
 7150SOL    HW232910   0.734   2.926   8.802  0.5845  1.9196 -0.4258
 7151SOL     OW32911   1.856   1.565   1.527 -0.2237 -0.3499 -0.0868
 7151SOL    HW132912   1.905   1.525   1.455  0.6112  0.1237  0.2174
 7151SOL    HW232913   1.919   1.583   1.597  0.7156 -1.9380 -0.5212
 7152SOL     OW32914   3.635   2.374   1.813  0.3488  0.5108 -0.3188
 7152SOL    HW132915   3.571   2.395   1.881 -1.1313  2.1112 -2.2161
 7152SOL    HW232916   3.579   2.321   1.756  0.3543  0.2245 -0.0608
 7153SOL     OW32917   2.898   2.082  16.299 -0.0331  0.2952 -0.1651
 7153SOL    HW132918   2.945   2.000  16.286  2.6276  1.7737  0.0949
 7153SOL    HW232919   2.929   2.126  16.220  1.5304 -1.7786 -0.7152
 7154SOL     OW32920   2.832   0.129   8.093  0.6092  0.3085  0.0099
 7154SOL    HW132921   2.788   0.045   8.103 -2.4686  1.8457 -0.6138
 7154SOL    HW232922   2.834   0.161   8.183  2.2700  1.3653 -0.4013
 7155SOL     OW32923   1.285   0.231   5.326 -0.0443  0.2000 -0.3310
 7155SOL    HW132924   1.227   0.222   5.402  0.7716 -0.6870  0.1761
 7155SOL    HW232925   1.221   0.248   5.257 -1.5718  0.0809  1.0514
 7156SOL     OW32926   2.747   1.819   8.516 -0.2564  0.2091 -0.0307
 7156SOL    HW132927   2.839   1.812   8.544 -0.2643  0.9342  0.1794
 7156SOL    HW232928   2.706   1.779   8.592  3.2547 -1.1896  1.1591
 7157SOL     OW32929   1.789   2.583   4.502  0.1307 -0.1381 -0.7314
 7157SOL    HW132930   1.792   2.574   4.406 -1.3258  1.0748 -0.8915
 7157SOL    HW232931   1.866   2.634   4.527  1.0734 -1.9110 -0.0159
 7158SOL     OW32932   2.929   3.500  14.492 -0.0154 -0.2044 -0.4285
 7158SOL    HW132933   2.951   3.538  14.407  0.7710 -3.3168 -1.6235
 7158SOL    HW232934   2.970   3.415  14.475  0.8646  0.0643  0.3434
 7159SOL     OW32935   4.130   4.506  11.510 -0.1745  0.3911  0.3574
 7159SOL    HW132936   4.079   4.477  11.586  1.0015 -0.5528  0.7830
 7159SOL    HW232937   4.153   4.426  11.463 -1.7584 -0.3303  0.7961
 7160SOL     OW32938   3.721   2.045   8.200  0.0721 -0.0275 -0.2060
 7160SOL    HW132939   3.756   2.068   8.287  0.1423  0.6148 -0.3995
 7160SOL    HW232940   3.761   1.958   8.198 -1.6347 -0.7784 -1.2039
 7161SOL     OW32941   0.014   1.158   4.651  0.0916  0.2575  0.0929
 7161SOL    HW132942   0.019   1.250   4.673  1.3171  0.2150 -0.0546
 7161SOL    HW232943   4.656   1.126   4.697  0.6605  0.0863  0.9380
 7162SOL     OW32944   4.622   4.103   4.056  0.2913 -0.8341  0.0393
 7162SOL    HW132945   4.615   4.012   4.084 -1.7958  0.0521  2.3816
 7162SOL    HW232946   4.572   4.101   3.974  0.0370 -0.8229  0.1950
 7163SOL     OW32947   1.554   1.739   8.851  0.1038 -0.2502 -0.0591
 7163SOL    HW132948   1.595   1.660   8.815  0.3653  1.5447 -3.7536
 7163SOL    HW232949   1.613   1.807   8.816 -0.9076  2.1709  2.9572
 7164SOL     OW32950   0.884   4.598  11.533  0.2234  0.5857  0.1508
 7164SOL    HW132951   0.936   4.557  11.602  1.3550  1.0719 -0.4165
 7164SOL    HW232952   0.882   4.691  11.557 -1.6533  1.2069 -2.3720
 7165SOL     OW32953   3.357   4.106   5.705 -0.1875 -0.2239 -0.5848
 7165SOL    HW132954   3.352   4.161   5.783 -1.7848 -1.9832  0.5609
 7165SOL    HW232955   3.335   4.019   5.740  2.9520 -1.5301 -1.8095
 7166SOL     OW32956   1.983   0.798  10.964 -0.2370  0.3215  0.4657
 7166SOL    HW132957   1.973   0.736  11.036  0.2342  0.5393  0.7184
 7166SOL    HW232958   1.894   0.831  10.973 -0.6088 -1.0591  1.7887
 7167SOL     OW32959   3.984   3.267   8.821  0.0434  0.3563 -0.3311
 7167SOL    HW132960   3.967   3.207   8.894 -0.8943 -0.0738 -0.9061
 7167SOL    HW232961   3.922   3.243   8.752 -2.1789 -0.4282  1.9216
 7168SOL     OW32962   3.258   2.457  13.528  0.2069  0.5847  0.2427
 7168SOL    HW132963   3.190   2.501  13.478 -0.4923 -0.4545  0.2749
 7168SOL    HW232964   3.200   2.411  13.589  1.8215 -0.7465  0.8064
 7169SOL     OW32965   4.633   1.991   4.994  0.1888 -0.3823 -0.6700
 7169SOL    HW132966   4.652   1.897   4.993  0.1491 -0.3855 -1.3965
 7169SOL    HW232967   4.540   1.986   4.971  0.0845 -1.1892 -0.0833
 7170SOL     OW32968   3.870   2.953   8.513  0.5380  0.4527 -0.4715
 7170SOL    HW132969   3.943   2.936   8.453 -0.5346 -2.2139 -1.0431
 7170SOL    HW232970   3.848   3.042   8.487 -0.6407  0.1239 -0.6298
 7171SOL     OW32971   2.861   2.525   7.793 -0.5126  0.3948 -0.2935
 7171SOL    HW132972   2.780   2.549   7.747  0.0127 -1.1926 -2.0458
 7171SOL    HW232973   2.901   2.473   7.723 -0.6412 -0.6285  0.4003
 7172SOL     OW32974   3.104   0.677  15.082  0.2833 -0.1967 -0.5840
 7172SOL    HW132975   3.101   0.586  15.053 -1.2135  0.3454 -2.1554
 7172SOL    HW232976   3.026   0.711  15.037  0.1603  1.1472  0.6431
 7173SOL     OW32977   0.963   2.870  14.533 -0.0622  0.1429 -0.8339
 7173SOL    HW132978   0.899   2.809  14.572 -0.4272  0.4328 -0.9815
 7173SOL    HW232979   0.931   2.889  14.445 -0.2253 -2.5088 -1.3386
 7174SOL     OW32980   1.242   2.361   8.402  0.2380 -0.1129 -0.1086
 7174SOL    HW132981   1.326   2.373   8.447 -0.3273  1.0965  0.6239
 7174SOL    HW232982   1.194   2.435   8.440 -1.8028 -0.4573 -2.0904
 7175SOL     OW32983   1.667   3.329   5.619 -0.3497 -0.7007 -0.6254
 7175SOL    HW132984   1.583   3.284   5.624  0.4217 -1.9792  1.1693
 7175SOL    HW232985   1.660   3.424   5.613 -1.4855 -0.8693 -1.8312
 7176SOL     OW32986   2.351   1.528   2.042  0.4805 -0.1735  0.6403
 7176SOL    HW132987   2.328   1.481   1.962  2.1225  0.4028 -0.1580
 7176SOL    HW232988   2.285   1.597   2.040 -1.7758 -2.2924  2.1486
 7177SOL     OW32989   0.185   2.755   0.553  0.2908 -0.4907  0.6422
 7177SOL    HW132990   0.229   2.702   0.620 -2.8340 -2.5778  1.0323
 7177SOL    HW232991   0.129   2.688   0.514  0.5490  0.0462 -0.6502
 7178SOL     OW32992   3.808   3.529  14.098  0.1259 -0.5936 -0.8466
 7178SOL    HW132993   3.844   3.469  14.163  2.3075  1.0337 -0.5415
 7178SOL    HW232994   3.735   3.561  14.151  2.2220  1.4042  0.8578
 7179SOL     OW32995   0.364   4.342   9.168  0.1316  0.0476  0.4269
 7179SOL    HW132996   0.324   4.269   9.216 -1.3301  1.4113  1.2803
 7179SOL    HW232997   0.353   4.423   9.217 -2.4348 -0.8394  1.3080
 7180SOL     OW32998   2.343   0.991   8.743  0.0844  0.0451  0.0301
 7180SOL    HW132999   2.267   1.039   8.775  0.0385 -1.1324  1.6310
 7180SOL    HW233000   2.394   0.972   8.822  0.9317  1.6345 -0.1374
 7181SOL     OW33001   3.727   4.659   4.803 -0.3805 -0.2265 -0.1949
 7181SOL    HW133002   3.682   0.002   4.746  1.6722  0.2155 -1.3334
 7181SOL    HW233003   3.678   4.578   4.794 -1.5475  0.5662 -1.0229
 7182SOL     OW33004   1.798   0.744   4.002  0.7835 -0.0290  0.7054
 7182SOL    HW133005   1.883   0.745   3.958  0.4609  0.4916  0.0901
 7182SOL    HW233006   1.765   0.662   3.967  1.4605 -1.0426  2.4414
 7183SOL     OW33007   3.908   1.339   4.763 -0.6510 -0.2580  0.1246
 7183SOL    HW133008   3.960   1.287   4.701 -1.1948 -0.0747 -0.4865
 7183SOL    HW233009   3.866   1.266   4.807 -2.0752  1.0623  0.9515
 7184SOL     OW33010   1.903   2.355   7.537  0.0266 -0.1279 -0.2185
 7184SOL    HW133011   1.906   2.343   7.442  1.3573  0.7577 -0.2795
 7184SOL    HW233012   1.839   2.424   7.553 -0.0522  0.0769 -1.4099
 7185SOL     OW33013   4.118   3.062  15.573  0.7884  0.1283 -0.2572
 7185SOL    HW133014   4.201   3.015  15.568  1.0089  0.5945 -1.0670
 7185SOL    HW233015   4.121   3.104  15.486  1.9781  2.1401  0.7381
 7186SOL     OW33016   0.653   1.186   2.638 -0.4599 -0.3151 -0.0250
 7186SOL    HW133017   0.706   1.158   2.713  0.0427  1.4435  0.2801
 7186SOL    HW233018   0.683   1.126   2.569  0.0920 -0.4784  0.3583
 7187SOL     OW33019   4.655   3.464   1.540 -0.0437 -0.1289  1.1656
 7187SOL    HW133020   4.654   3.396   1.473  1.0954  1.6706 -0.6676
 7187SOL    HW233021   0.014   3.512   1.516 -1.2867 -0.6321 -3.8507
 7188SOL     OW33022   4.245   1.162  12.508 -0.2656  0.9420  0.0111
 7188SOL    HW133023   4.303   1.086  12.498 -3.6219 -1.8316  1.4288
 7188SOL    HW233024   4.170   1.123  12.554  2.8800  0.3684  4.5883
 7189SOL     OW33025   4.572   1.505  11.486  0.0344 -0.5677  0.3618
 7189SOL    HW133026   4.521   1.549  11.418  1.3235  1.9098  0.9925
 7189SOL    HW233027   4.501   1.460  11.533 -0.9672  1.7714  1.1151
 7190SOL     OW33028   0.738   1.503  10.706 -1.0091 -0.0657  0.1225
 7190SOL    HW133029   0.795   1.443  10.657  0.0492 -0.6404  2.0620
 7190SOL    HW233030   0.798   1.522  10.779 -0.2589  0.8693 -0.7387
 7191SOL     OW33031   3.590   0.446   4.235 -0.0895 -0.0944 -0.5097
 7191SOL    HW133032   3.527   0.484   4.295 -1.4877 -1.4996 -1.0711
 7191SOL    HW233033   3.566   0.476   4.147  0.0499 -0.9499 -0.8476
 7192SOL     OW33034   0.081   3.058   7.326 -0.3973  0.1806 -1.0980
 7192SOL    HW133035   0.169   3.095   7.329  0.2107 -1.6300  3.3277
 7192SOL    HW233036   0.046   3.084   7.411  0.2492 -1.0929 -0.4419
 7193SOL     OW33037   1.600   3.551   2.250 -0.2597 -0.3000  0.0958
 7193SOL    HW133038   1.673   3.493   2.227  0.6797  1.5478 -1.5273
 7193SOL    HW233039   1.585   3.522   2.340  0.7589  1.2897  0.7778
 7194SOL     OW33040   1.931   4.529   3.338 -0.4311  0.2488  0.5306
 7194SOL    HW133041   1.931   4.586   3.261  1.0877 -0.0941  0.2720
 7194SOL    HW233042   1.876   4.457   3.306 -0.4392 -0.0293  1.1637
 7195SOL     OW33043   2.728   1.758   6.936  0.2985 -0.0533  0.2338
 7195SOL    HW133044   2.636   1.782   6.952 -0.4955 -1.8767 -1.5317
 7195SOL    HW233045   2.716   1.778   6.843 -1.8671  0.6242  0.6337
 7196SOL     OW33046   3.633   4.100   6.418 -0.1111  0.0732  0.1218
 7196SOL    HW133047   3.570   4.034   6.389 -1.1108  0.9610  0.2484
 7196SOL    HW233048   3.697   4.090   6.348  0.4412  2.6395  0.2360
 7197SOL     OW33049   2.547   1.138   6.037 -0.1069  0.6941  0.4634
 7197SOL    HW133050   2.599   1.217   6.055  1.7752 -0.1459 -1.2240
 7197SOL    HW233051   2.546   1.096   6.122  1.6018 -3.0895 -1.4076
 7198SOL     OW33052   2.623   3.612   8.642  0.4331 -0.0687 -0.2891
 7198SOL    HW133053   2.628   3.529   8.596 -2.6675 -1.0748  1.1582
 7198SOL    HW233054   2.555   3.655   8.589 -1.0780 -1.1398  0.7696
 7199SOL     OW33055   2.066   4.249  10.924 -0.2387  0.0075  0.0478
 7199SOL    HW133056   2.091   4.341  10.930  2.6557 -0.8312  1.0018
 7199SOL    HW233057   2.048   4.224  11.014 -0.7435 -0.5028 -0.1980
 7200SOL     OW33058   3.111   2.425   5.065  0.3981 -0.7445 -0.5689
 7200SOL    HW133059   3.046   2.451   5.131 -0.6382 -0.6570 -1.6194
 7200SOL    HW233060   3.095   2.333   5.045  0.6488 -1.4170  2.2373
 7201SOL     OW33061   3.587   3.857  16.061 -0.1771  0.3169  0.1771
 7201SOL    HW133062   3.529   3.791  16.023 -1.2721  2.0560 -1.1412
 7201SOL    HW233063   3.557   3.849  16.151  2.4427 -0.2552  0.9982
 7202SOL     OW33064   1.391   4.449   7.611 -0.0978 -0.1077  0.7493
 7202SOL    HW133065   1.425   4.411   7.531 -0.1820 -0.0542  0.6879
 7202SOL    HW233066   1.299   4.459   7.587 -0.0252  1.1970  1.0227
 7203SOL     OW33067   1.298   2.012   2.394 -0.0243 -0.5679 -0.3708
 7203SOL    HW133068   1.255   2.091   2.429  3.5936  1.1554  0.1318
 7203SOL    HW233069   1.372   2.045   2.343 -0.8715 -0.7380 -1.7110
 7204SOL     OW33070   0.169   1.224   1.680 -0.1656 -0.1230  0.1282
 7204SOL    HW133071   0.216   1.286   1.624  2.8948 -1.9127  0.7346
 7204SOL    HW233072   0.093   1.212   1.622 -0.3007 -1.4903  0.5858
 7205SOL     OW33073   0.772   1.549   8.747  0.6156  0.1259  0.1122
 7205SOL    HW133074   0.789   1.576   8.657 -2.0132 -1.1590 -0.7332
 7205SOL    HW233075   0.840   1.597   8.796  2.2654 -0.7325 -1.3545
 7206SOL     OW33076   1.922   4.032   5.849 -0.0041  0.1987  0.2775
 7206SOL    HW133077   1.860   3.966   5.879  1.4269 -1.6235 -0.7515
 7206SOL    HW233078   1.851   4.093   5.829  0.0442  0.5958  1.3063
 7207SOL     OW33079   0.476   4.605   6.016 -0.3831 -0.2225 -0.5388
 7207SOL    HW133080   0.434   4.622   6.100  1.7958 -0.1180  0.5145
 7207SOL    HW233081   0.554   4.660   6.011 -1.9017  1.9755 -0.2583
 7208SOL     OW33082   1.225   0.785  13.405  0.1449  0.4283  0.0248
 7208SOL    HW133083   1.288   0.718  13.380 -1.5437 -1.1232 -0.1052
 7208SOL    HW233084   1.263   0.794  13.493 -0.9870 -0.0807  0.5652
 7209SOL     OW33085   1.582   1.546  11.048 -0.2516  0.2517 -0.2264
 7209SOL    HW133086   1.536   1.495  10.981 -2.3349  0.7367  0.8478
 7209SOL    HW233087   1.665   1.571  11.005  0.2463 -1.0010  0.0089
 7210SOL     OW33088   3.734   3.096   3.839 -0.5145 -0.4448 -0.3021
 7210SOL    HW133089   3.698   3.148   3.911 -0.8714 -1.1368  0.0235
 7210SOL    HW233090   3.827   3.100   3.859 -0.2780 -1.3180 -1.2308
 7211SOL     OW33091   2.893   0.877   8.835 -0.5590 -0.3248 -0.0159
 7211SOL    HW133092   2.940   0.819   8.894  1.0210 -0.0348 -0.9900
 7211SOL    HW233093   2.841   0.808   8.793 -0.4654  0.0096 -0.6778
 7212SOL     OW33094   0.621   2.936   7.919  0.5118  0.3051 -0.6383
 7212SOL    HW133095   0.668   2.856   7.942  0.4116  0.5151  0.3108
 7212SOL    HW233096   0.553   2.935   7.987  0.3278 -0.9783 -0.8476
 7213SOL     OW33097   1.464   0.553   1.160 -0.1334  0.4491  0.2705
 7213SOL    HW133098   1.437   0.469   1.199 -0.1011  0.4382  0.2692
 7213SOL    HW233099   1.465   0.613   1.235 -0.5297 -0.0642  0.6882
 7214SOL     OW33100   4.235   1.458   5.709  0.1024 -1.2108  0.2512
 7214SOL    HW133101   4.259   1.419   5.625  0.8050 -0.7534  0.2426
 7214SOL    HW233102   4.159   1.402   5.727 -0.4069 -0.4858  0.3754
 7215SOL     OW33103   2.465   3.550  13.896  0.1344  0.6078 -0.2340
 7215SOL    HW133104   2.440   3.616  13.961  0.8661 -0.9774  1.6595
 7215SOL    HW233105   2.382   3.536  13.851  0.5975 -0.8221 -0.6384
 7216SOL     OW33106   2.340   4.170   7.735  0.0843  0.4900  0.2726
 7216SOL    HW133107   2.315   4.262   7.743 -0.5386  0.5068 -1.8480
 7216SOL    HW233108   2.348   4.151   7.828 -0.9310 -0.2425  0.2077
 7217SOL     OW33109   4.009   2.614   4.265 -0.2004  0.1199  0.1895
 7217SOL    HW133110   4.067   2.624   4.340  2.6408 -0.2072 -1.9545
 7217SOL    HW233111   3.924   2.582   4.297  0.2251  0.0105  1.2179
 7218SOL     OW33112   2.289   1.433   1.757  0.3542  0.3473  0.0350
 7218SOL    HW133113   2.343   1.455   1.681  0.5283  1.3959  0.4619
 7218SOL    HW233114   2.258   1.344   1.744  1.3341 -0.1167  0.8754
 7219SOL     OW33115   3.621   4.701   5.645  0.8222 -0.1976 -0.1222
 7219SOL    HW133116   3.652   0.040   5.714 -2.0808 -0.6388  1.5956
 7219SOL    HW233117   3.680   4.626   5.658 -0.4182 -1.2682 -0.6480
 7220SOL     OW33118   1.530   4.178   0.259  0.1283 -0.4519  0.1533
 7220SOL    HW133119   1.488   4.118   0.198  0.6749  2.6459 -3.2863
 7220SOL    HW233120   1.588   4.235   0.207  1.2683 -1.7548 -0.0116
 7221SOL     OW33121   0.143   4.292  17.525 -0.5390 -0.0172  0.6143
 7221SOL    HW133122   0.115   4.245  17.446  1.7569  0.1553 -0.3045
 7221SOL    HW233123   0.128   4.383  17.498 -0.3076 -0.6971 -1.8090
 7222SOL     OW33124   2.449   0.581   5.031 -0.2536 -0.2071 -0.6581
 7222SOL    HW133125   2.411   0.494   5.041  0.1111 -0.3139 -0.1766
 7222SOL    HW233126   2.459   0.592   4.937 -0.2321  0.2508 -0.6005
 7223SOL     OW33127   1.845   1.228  14.802 -0.1405 -0.0056 -0.5032
 7223SOL    HW133128   1.930   1.270  14.815  0.2423 -1.2246  0.8359
 7223SOL    HW233129   1.789   1.285  14.854 -1.0852  0.1409 -1.6805
 7224SOL     OW33130   0.815   0.044   2.038  0.5240  0.3022  0.5081
 7224SOL    HW133131   0.785   4.674   2.052  0.0522  0.3369 -0.2841
 7224SOL    HW233132   0.785   0.051   1.947  1.1131 -2.1261  0.1310
 7225SOL     OW33133   2.947   2.796   7.957  0.1721 -0.0931  0.3642
 7225SOL    HW133134   2.932   2.890   7.956  4.9538  0.6498  0.2806
 7225SOL    HW233135   2.891   2.756   7.890  0.1020 -2.1394  1.6393
 7226SOL     OW33136   0.985   0.821   4.371  0.1400 -0.3961  0.0585
 7226SOL    HW133137   1.004   0.742   4.320 -3.0061 -3.3959  3.5460
 7226SOL    HW233138   1.046   0.806   4.443  1.1136 -1.7868 -1.0500
 7227SOL     OW33139   4.211   0.437  13.340  0.1036  0.3262  0.2701
 7227SOL    HW133140   4.296   0.482  13.338  0.8537 -1.0712  0.1360
 7227SOL    HW233141   4.172   0.463  13.257  0.2580 -0.9830 -0.2139
 7228SOL     OW33142   2.897   1.383   8.209 -0.1967 -0.0061 -1.0087
 7228SOL    HW133143   2.828   1.420   8.264  0.5849  0.5487 -0.4163
 7228SOL    HW233144   2.839   1.344   8.143 -1.3976 -1.7018  1.0411
 7229SOL     OW33145   0.618   0.122   9.027 -0.1585 -0.5861  0.0304
 7229SOL    HW133146   0.687   0.059   9.045 -1.4091 -1.5131  1.4701
 7229SOL    HW233147   0.666   0.202   9.003  0.4446 -0.3310  2.1531
 7230SOL     OW33148   4.405   2.180   8.456  0.0170  0.4952 -0.0621
 7230SOL    HW133149   4.351   2.134   8.519 -0.7991 -0.5654 -1.5528
 7230SOL    HW233150   4.402   2.114   8.388 -1.6970 -0.4164  0.9083
 7231SOL     OW33151   0.921   2.275   9.304  0.2121  0.2243 -0.0281
 7231SOL    HW133152   0.826   2.276   9.305  0.2122 -3.1756  0.5938
 7231SOL    HW233153   0.939   2.360   9.263 -1.4201  0.2030 -0.7875
 7232SOL     OW33154   2.345   4.282   8.011 -0.1951 -0.4572 -0.0764
 7232SOL    HW133155   2.258   4.292   8.050  0.1738 -0.5204  0.7736
 7232SOL    HW233156   2.358   4.370   7.974 -1.7856 -0.0241  0.3902
 7233SOL     OW33157   3.834   3.605  13.010  0.5491  0.2609  0.4618
 7233SOL    HW133158   3.883   3.603  13.092  2.2088 -2.4790 -0.6063
 7233SOL    HW233159   3.849   3.695  12.980  2.3209 -0.1241  0.2143
 7234SOL     OW33160   2.192   0.782   9.643  0.0105  0.1875  0.2157
 7234SOL    HW133161   2.159   0.871   9.654 -0.8581 -0.3348  1.8741
 7234SOL    HW233162   2.218   0.780   9.551  0.3808 -0.6263  0.3376
 7235SOL     OW33163   4.278   2.946   2.347 -0.1311  0.2476  0.5803
 7235SOL    HW133164   4.280   2.867   2.399 -1.9727 -0.6054 -0.6395
 7235SOL    HW233165   4.183   2.961   2.349 -0.4424 -1.5406 -1.0724
 7236SOL     OW33166   1.142   0.515   6.797  1.1395 -0.5033  0.1571
 7236SOL    HW133167   1.172   0.605   6.792  0.9220 -0.5390 -2.0683
 7236SOL    HW233168   1.161   0.487   6.886 -1.7098 -3.5329 -0.1758
 7237SOL     OW33169   1.559   3.267   6.380  0.2319 -0.7958  0.2451
 7237SOL    HW133170   1.626   3.331   6.405  0.0947 -0.5301 -0.0663
 7237SOL    HW233171   1.584   3.182   6.414  2.3081 -0.6041 -0.8077
 7238SOL     OW33172   4.160   2.788   5.758  0.2980  0.1127 -0.5749
 7238SOL    HW133173   4.177   2.784   5.664 -0.8304  0.5089 -0.7989
 7238SOL    HW233174   4.118   2.703   5.771  1.1415 -0.3693 -0.9951
 7239SOL     OW33175   4.605   2.494   4.153 -0.3466 -0.1446  0.1600
 7239SOL    HW133176   4.517   2.458   4.153 -0.0961 -0.7444  0.9745
 7239SOL    HW233177   4.598   2.555   4.079 -0.7694  1.0021  1.1412
 7240SOL     OW33178   2.939   2.762   1.876 -0.4979  0.3679  0.2707
 7240SOL    HW133179   3.025   2.797   1.853 -0.6699  0.7796  0.2615
 7240SOL    HW233180   2.921   2.702   1.804 -0.5182  0.1833  0.4278
 7241SOL     OW33181   3.482   2.796   2.144  0.8111  0.3622  0.5499
 7241SOL    HW133182   3.516   2.861   2.205  0.7952 -1.2984  2.3243
 7241SOL    HW233183   3.556   2.770   2.089  1.0290 -0.7998  1.3973
 7242SOL     OW33184   3.400   2.557   0.060 -0.6755 -0.4284  0.2890
 7242SOL    HW133185   3.420   2.545  17.650  2.6127  1.1429  0.7957
 7242SOL    HW233186   3.487   2.580   0.093 -0.0325 -1.0315 -0.9737
 7243SOL     OW33187   2.910   3.115  13.207 -0.0151 -0.2874 -0.1553
 7243SOL    HW133188   2.882   3.205  13.191 -0.6478 -0.2428  1.1784
 7243SOL    HW233189   2.928   3.091  13.116 -2.0427  2.6722 -1.3045
 7244SOL     OW33190   4.250   4.481   5.217  0.0475 -0.0698  0.1547
 7244SOL    HW133191   4.228   4.533   5.139  0.7407 -0.4697 -0.3007
 7244SOL    HW233192   4.161   4.459   5.245 -0.5028  0.3979 -1.2186
 7245SOL     OW33193   3.651   3.238  10.473 -0.0175  0.2769  0.0361
 7245SOL    HW133194   3.586   3.169  10.485  0.9278 -0.2346  2.1191
 7245SOL    HW233195   3.660   3.276  10.560  0.4808  2.0550 -0.7832
 7246SOL     OW33196   4.241   4.052   4.345  0.2588 -0.4116 -0.3231
 7246SOL    HW133197   4.192   4.119   4.297 -0.5281 -1.0937 -0.4782
 7246SOL    HW233198   4.248   4.091   4.432 -0.9426 -0.4406 -0.2076
 7247SOL     OW33199   2.766   1.487  11.074 -0.0931  0.0511 -0.3274
 7247SOL    HW133200   2.843   1.507  11.022 -0.4516 -0.1176 -0.9211
 7247SOL    HW233201   2.741   1.402  11.037  2.4236 -0.5899 -0.5628
 7248SOL     OW33202   3.819   1.704   3.888 -0.4088  0.2570 -0.0029
 7248SOL    HW133203   3.753   1.643   3.855  0.6281 -0.7066 -0.2814
 7248SOL    HW233204   3.888   1.715   3.823 -1.1506  0.0083 -0.8309
 7249SOL     OW33205   3.651   4.572  14.298  0.1722  0.6311  0.1734
 7249SOL    HW133206   3.669   4.564  14.205 -0.3333  0.0009  0.1304
 7249SOL    HW233207   3.577   4.633  14.302 -2.3016 -2.3094 -1.2537
 7250SOL     OW33208   3.179   0.934   7.948  0.0058 -0.0952  0.6917
 7250SOL    HW133209   3.110   0.924   7.882 -0.1472  0.4116  0.7751
 7250SOL    HW233210   3.136   0.968   8.026  0.1489  4.1086 -1.0763
 7251SOL     OW33211   1.834   1.940   3.827  0.1100  0.2206 -0.0190
 7251SOL    HW133212   1.786   2.019   3.801 -1.7816 -2.1190 -3.5814
 7251SOL    HW233213   1.899   1.969   3.890  0.5552  1.0253 -0.8374
 7252SOL     OW33214   4.319   0.073   2.843  0.7614 -0.1892 -0.1923
 7252SOL    HW133215   4.246   0.059   2.784  0.1865  1.4043  0.1313
 7252SOL    HW233216   4.351   0.155   2.804  1.3799 -1.1274 -1.6436
 7253SOL     OW33217   3.055   4.093   9.299 -0.2831 -0.2843  0.1337
 7253SOL    HW133218   3.080   4.151   9.371  1.2862 -0.8658  0.0449
 7253SOL    HW233219   2.966   4.067   9.325  0.8088 -1.3810  2.7326
 7254SOL     OW33220   1.188   4.616  12.479 -0.1361 -0.1155  0.6387
 7254SOL    HW133221   1.224   4.539  12.435 -1.9616  0.0687 -1.1612
 7254SOL    HW233222   1.142   4.671  12.416 -0.9776 -0.7343  0.7203
 7255SOL     OW33223   2.668   2.438   1.648 -0.4301  0.0029  0.5626
 7255SOL    HW133224   2.584   2.484   1.636  0.1496  0.9255  0.0554
 7255SOL    HW233225   2.659   2.393   1.732  0.6120  3.0515  2.3083
 7256SOL     OW33226   4.148   1.781   7.775  0.8603  0.2092  0.3060
 7256SOL    HW133227   4.240   1.794   7.795  0.5101  0.0693  2.0611
 7256SOL    HW233228   4.115   1.815   7.859  1.1913  0.2192  0.4301
 7257SOL     OW33229   3.940   2.739  10.942  0.0397  0.1709  0.2795
 7257SOL    HW133230   3.946   2.835  10.947  2.7003  0.1224 -2.4999
 7257SOL    HW233231   3.856   2.715  10.901 -0.1467 -1.0263  1.4009
 7258SOL     OW33232   2.239   1.344   9.516  0.1604 -0.3972  0.4415
 7258SOL    HW133233   2.258   1.251   9.524  0.2074 -0.4263 -0.0142
 7258SOL    HW233234   2.207   1.350   9.425  0.7328  0.3040  0.2846
 7259SOL     OW33235   3.377   2.337  11.543  0.1230 -0.6340 -0.4712
 7259SOL    HW133236   3.313   2.380  11.486  1.9031  3.2964  0.4800
 7259SOL    HW233237   3.343   2.353  11.631  1.1890  0.4738 -0.2532
 7260SOL     OW33238   1.979   1.898   7.332 -0.4301 -0.6536  0.0236
 7260SOL    HW133239   1.980   1.803   7.331 -1.0941 -0.6348 -1.7947
 7260SOL    HW233240   1.889   1.905   7.363 -0.9233 -2.2165 -1.0772
 7261SOL     OW33241   2.249   1.981   3.205  0.0496  0.5637  0.3599
 7261SOL    HW133242   2.294   1.931   3.137  1.4172  1.2517  0.7666
 7261SOL    HW233243   2.170   2.012   3.162  0.6014 -0.5310 -1.4390
 7262SOL     OW33244   0.962   0.515   0.518  0.0043 -0.0379  0.0802
 7262SOL    HW133245   0.983   0.422   0.509 -2.0531 -0.5809  0.9363
 7262SOL    HW233246   0.996   0.530   0.606  1.2467 -2.0065 -0.0610
 7263SOL     OW33247   2.978   1.458   4.657  0.0663  0.4177 -0.1390
 7263SOL    HW133248   2.939   1.432   4.741 -1.4311 -1.4671 -1.4160
 7263SOL    HW233249   3.061   1.488   4.694 -0.3594 -0.8399  1.8294
 7264SOL     OW33250   1.599   2.389  10.624  0.3604 -0.1355 -0.1391
 7264SOL    HW133251   1.514   2.345  10.631 -1.3405  2.8613 -1.9379
 7264SOL    HW233252   1.585   2.434  10.707  0.3304 -0.6848  0.1577
 7265SOL     OW33253   1.084   4.462   6.476  0.3193 -0.1715 -0.1853
 7265SOL    HW133254   1.071   4.429   6.387 -2.2375 -0.1694  0.2070
 7265SOL    HW233255   1.086   4.382   6.529 -2.3277 -1.2494 -1.7280
 7266SOL     OW33256   2.799   3.691   5.674  0.1579 -0.0947 -0.3227
 7266SOL    HW133257   2.745   3.615   5.654 -1.6753  0.7047  1.6277
 7266SOL    HW233258   2.830   3.713   5.586 -0.0923 -2.6324 -1.0525
 7267SOL     OW33259   3.339   0.882   3.380 -0.1630 -0.6902 -0.0373
 7267SOL    HW133260   3.270   0.816   3.378  0.3505 -1.1551 -1.7128
 7267SOL    HW233261   3.411   0.830   3.416 -1.3102 -0.9985  1.8550
 7268SOL     OW33262   2.811   2.114  15.008 -0.3003 -1.1283 -0.1788
 7268SOL    HW133263   2.855   2.173  14.947 -0.6322 -1.1010 -0.3938
 7268SOL    HW233264   2.744   2.074  14.951 -1.9385 -1.5609  2.0509
 7269SOL     OW33265   1.828   0.607   3.730 -0.1806 -0.1994 -0.2318
 7269SOL    HW133266   1.756   0.545   3.717 -0.2658 -0.0881 -0.2858
 7269SOL    HW233267   1.898   0.579   3.671  0.2244  1.7092 -0.6531
 7270SOL     OW33268   3.020   3.190   7.524 -0.3859 -0.1293  0.0383
 7270SOL    HW133269   2.999   3.114   7.579  0.5275  0.2868  0.9517
 7270SOL    HW233270   2.943   3.245   7.542 -0.5262 -0.7485  1.3753
 7271SOL     OW33271   1.392   1.195   0.619 -0.6595 -0.0856 -0.1412
 7271SOL    HW133272   1.361   1.150   0.541  0.8426 -1.3444 -0.0134
 7271SOL    HW233273   1.330   1.160   0.683 -0.9340  1.7872  0.6234
 7272SOL     OW33274   4.018   2.337   0.911 -0.3944  0.6870 -0.1951
 7272SOL    HW133275   4.076   2.274   0.868  0.0881 -0.9722  2.8874
 7272SOL    HW233276   4.023   2.311   1.003  2.3472  3.1208  0.3313
 7273SOL     OW33277   4.624   2.931  16.314  0.1033  0.0195 -0.7735
 7273SOL    HW133278   4.655   2.874  16.385  1.1226  1.7399  0.1827
 7273SOL    HW233279   4.637   3.020  16.347  3.0664 -0.8459  0.4115
 7274SOL     OW33280   3.432   2.808   5.110 -0.2730  0.7387 -0.0318
 7274SOL    HW133281   3.491   2.853   5.050  0.9624  0.1682  0.7468
 7274SOL    HW233282   3.351   2.801   5.059 -0.3805 -1.2469  0.4096
 7275SOL     OW33283   4.025   2.951   2.436 -0.6565  0.2099  0.0194
 7275SOL    HW133284   4.038   2.865   2.476  0.5402 -0.4537 -1.7988
 7275SOL    HW233285   3.954   2.938   2.372  0.3830  0.0415 -1.1018
 7276SOL     OW33286   3.741   2.736   3.420  0.2178 -0.3307  0.3577
 7276SOL    HW133287   3.673   2.695   3.367  1.1093 -0.6736 -0.5130
 7276SOL    HW233288   3.716   2.828   3.433  1.0044 -0.2119  1.0787
 7277SOL     OW33289   2.581   0.130   7.556  0.1919  0.2278 -0.1968
 7277SOL    HW133290   2.590   0.157   7.465  2.6283  0.0352 -0.0304
 7277SOL    HW233291   2.672   0.141   7.584 -0.7117  1.6223  2.1703
 7278SOL     OW33292   3.514   0.525   2.264  0.1113 -0.1656 -0.7274
 7278SOL    HW133293   3.609   0.530   2.269 -0.0249  0.6209  1.2653
 7278SOL    HW233294   3.504   0.547   2.171 -1.6559  0.2378 -0.4417
 7279SOL     OW33295   0.465   0.924   2.223 -0.0019 -0.4102 -0.1428
 7279SOL    HW133296   0.439   1.013   2.199 -0.5978 -0.5900 -0.1456
 7279SOL    HW233297   0.407   0.904   2.296  1.0639 -0.3251  0.7404
 7280SOL     OW33298   3.960   2.310   8.176 -0.1306  0.1239  0.3959
 7280SOL    HW133299   3.975   2.257   8.255  1.1594  2.3571  1.6431
 7280SOL    HW233300   4.045   2.353   8.168 -0.2881  0.4118  0.2883
 7281SOL     OW33301   3.392   0.345  11.515  0.2145  0.1347  0.5194
 7281SOL    HW133302   3.474   0.296  11.517 -0.5345 -1.1195  0.5235
 7281SOL    HW233303   3.339   0.274  11.552  1.1416 -0.1190  1.3527
 7282SOL     OW33304   0.665   1.600   2.087 -0.2455 -0.4128  0.1505
 7282SOL    HW133305   0.617   1.552   2.155 -2.6539 -0.6054 -1.6995
 7282SOL    HW233306   0.734   1.538   2.064  0.2150  0.5630 -1.0514
 7283SOL     OW33307   0.813   2.989   4.043 -0.3872 -0.9095  0.5172
 7283SOL    HW133308   0.737   2.993   3.984  0.4629 -2.3478 -0.6798
 7283SOL    HW233309   0.791   3.070   4.089 -3.2845 -1.7384  0.5908
 7284SOL     OW33310   4.246   3.464   3.168  0.1589 -0.1749  0.6226
 7284SOL    HW133311   4.237   3.370   3.153 -0.5048 -0.4883  3.0576
 7284SOL    HW233312   4.338   3.474   3.142  0.5080 -0.1753  1.8414
 7285SOL     OW33313   3.525   1.388  13.689  0.1992  0.1855  0.5258
 7285SOL    HW133314   3.477   1.308  13.708 -2.0368  0.2526 -4.8246
 7285SOL    HW233315   3.463   1.426  13.626 -0.1368 -1.4435 -0.1091
 7286SOL     OW33316   0.458   2.917   1.211  0.0502  0.1507  0.8824
 7286SOL    HW133317   0.438   3.000   1.255  2.2017  2.2864 -2.1412
 7286SOL    HW233318   0.391   2.916   1.142  0.6059 -0.9012  0.3639
 7287SOL     OW33319   1.738   3.864  10.944  0.3178 -0.1652  0.5277
 7287SOL    HW133320   1.742   3.914  11.026 -0.5928 -1.2420  1.2272
 7287SOL    HW233321   1.832   3.856  10.926  0.6351  1.4144  1.4889
 7288SOL     OW33322   3.866   4.612  16.679  0.4035  0.3608 -0.2640
 7288SOL    HW133323   3.833   4.552  16.612 -0.2751 -0.2100  0.5766
 7288SOL    HW233324   3.918   4.668  16.622  1.4434 -1.7380 -1.3781
 7289SOL     OW33325   3.298   1.242   4.087 -0.3064  0.3320 -0.0701
 7289SOL    HW133326   3.288   1.331   4.054  2.5407  1.3631  1.8894
 7289SOL    HW233327   3.217   1.197   4.061 -1.1342  1.1969  1.0390
 7290SOL     OW33328   1.847   1.866   1.717 -0.1804  0.1425 -0.5834
 7290SOL    HW133329   1.758   1.868   1.684  0.6382 -1.9722 -2.8980
 7290SOL    HW233330   1.900   1.883   1.639 -0.5674  1.3858 -0.5708
 7291SOL     OW33331   0.915   1.248   5.462 -0.4814 -0.0952  0.6937
 7291SOL    HW133332   0.983   1.257   5.395  2.4268 -2.5364  3.3288
 7291SOL    HW233333   0.903   1.341   5.484 -1.7525 -0.1871  0.3833
 7292SOL     OW33334   1.730   1.427   9.121  0.4364 -0.3463 -0.2705
 7292SOL    HW133335   1.709   1.521   9.116  2.3887  0.0140 -1.7723
 7292SOL    HW233336   1.647   1.382   9.106 -0.4573  1.3012 -0.2871
 7293SOL     OW33337   3.769   0.063   4.466  0.3362  0.6177 -0.5866
 7293SOL    HW133338   3.740   0.100   4.383  1.3760  2.9306  0.0812
 7293SOL    HW233339   3.854   0.108   4.467  1.4184 -1.4613  0.1766
 7294SOL     OW33340   0.144   4.074   6.861 -0.2687 -0.3437 -0.1467
 7294SOL    HW133341   0.190   4.137   6.917 -1.5914 -1.6088  2.3459
 7294SOL    HW233342   0.123   4.007   6.927 -0.8058 -1.1235 -1.1150
 7295SOL     OW33343   3.816   0.033  12.237 -0.3969  0.0688 -0.2612
 7295SOL    HW133344   3.830   0.119  12.197  3.3509  0.2778  1.5086
 7295SOL    HW233345   3.809   0.063  12.328 -1.1960  0.0449 -0.3093
 7296SOL     OW33346   2.182   0.574   6.897  0.4578 -0.3926 -0.0362
 7296SOL    HW133347   2.172   0.667   6.916  0.5540 -0.1834 -1.0018
 7296SOL    HW233348   2.098   0.542   6.931  0.7096  0.9115  1.7852
 7297SOL     OW33349   4.626   1.213   9.141  0.3506 -0.0452  0.2496
 7297SOL    HW133350   4.646   1.300   9.107 -0.4464  0.9582  2.3747
 7297SOL    HW233351   4.534   1.209   9.116  1.1545  1.2872 -3.0011
 7298SOL     OW33352   4.679   3.196  14.329  0.0197  0.5827 -0.0296
 7298SOL    HW133353   0.013   3.210  14.251  0.5068 -1.9697 -0.1680
 7298SOL    HW233354   4.649   3.105  14.332  0.5765  0.3571 -1.3550
 7299SOL     OW33355   4.092   3.901   7.267 -0.5755  0.4408 -0.2171
 7299SOL    HW133356   4.097   3.985   7.313 -0.6480  0.7623 -0.7918
 7299SOL    HW233357   4.014   3.913   7.213 -2.2052 -0.5556  1.9207
 7300SOL     OW33358   4.392   1.744   5.524  0.4618 -0.3206 -0.1743
 7300SOL    HW133359   4.360   1.754   5.434  1.0854  0.3349 -0.3251
 7300SOL    HW233360   4.387   1.651   5.544 -1.4084  0.0323  0.9743
 7301SOL     OW33361   4.216   3.813  16.910  0.1054 -0.0427  0.2039
 7301SOL    HW133362   4.218   3.724  16.874 -1.2408  0.2800 -0.6540
 7301SOL    HW233363   4.230   3.856  16.826  0.4616 -0.3397  0.1077
 7302SOL     OW33364   3.552   0.780   5.243  0.3169 -0.1399  0.0663
 7302SOL    HW133365   3.589   0.803   5.329  0.9018  0.8406 -0.4459
 7302SOL    HW233366   3.604   0.708   5.207  0.3987 -0.8929  1.6870
 7303SOL     OW33367   3.170   3.916  11.584  0.2981  0.0610 -0.0215
 7303SOL    HW133368   3.179   3.877  11.671  0.1802 -0.3814 -0.2107
 7303SOL    HW233369   3.231   3.870  11.526  0.3029 -0.3616  0.3208
 7304SOL     OW33370   4.035   4.255   6.003  0.5137 -0.5837  0.1523
 7304SOL    HW133371   4.041   4.162   5.980 -1.7173 -1.2123  2.1298
 7304SOL    HW233372   4.089   4.246   6.082  0.5165  0.0617  0.2217
 7305SOL     OW33373   4.364   1.895   9.730  0.2260  0.3940  0.0484
 7305SOL    HW133374   4.347   1.880   9.823  0.9916  0.5242  0.2107
 7305SOL    HW233375   4.324   1.816   9.696  2.4702  0.3036 -2.3958
 7306SOL     OW33376   1.580   0.822   6.191  0.4966  1.1236  0.3078
 7306SOL    HW133377   1.488   0.847   6.195  0.0229 -0.3037 -1.3531
 7306SOL    HW233378   1.567   0.735   6.229 -0.4842  0.4266 -1.5803
 7307SOL     OW33379   2.011   0.158   7.826  0.3785 -0.3223  0.3876
 7307SOL    HW133380   1.982   0.164   7.917  1.6301 -1.3185  0.8464
 7307SOL    HW233381   2.095   0.203   7.827  1.0044 -1.3714 -5.2910
 7308SOL     OW33382   2.087   1.501   4.169 -0.0686 -0.0384 -0.0291
 7308SOL    HW133383   2.182   1.513   4.161 -0.1913  0.3496 -0.9679
 7308SOL    HW233384   2.060   1.517   4.079 -1.7283 -1.5316  0.2112
 7309SOL     OW33385   0.504   0.273   5.231  0.3301  0.3680 -0.4396
 7309SOL    HW133386   0.461   0.204   5.281  3.3001 -0.1244  1.4568
 7309SOL    HW233387   0.553   0.314   5.303 -1.5213  1.1547  0.3552
 7310SOL     OW33388   3.203   3.329   3.139 -0.2836 -0.5340  0.4312
 7310SOL    HW133389   3.132   3.381   3.101 -0.8712 -0.6840  1.3328
 7310SOL    HW233390   3.177   3.241   3.112 -2.0324 -0.5665  2.3108
 7311SOL     OW33391   2.229   4.618   2.794 -0.4125 -0.2171 -0.2509
 7311SOL    HW133392   2.238   4.541   2.739 -0.7959  0.6342 -1.5131
 7311SOL    HW233393   2.284   4.586   2.865 -0.1750 -0.0151 -0.3437
 7312SOL     OW33394   3.707   2.561   8.614  0.5135 -0.1461 -0.1717
 7312SOL    HW133395   3.712   2.575   8.708 -0.5338 -0.1366 -0.1086
 7312SOL    HW233396   3.656   2.638   8.588  2.3858  0.5350 -1.8307
 7313SOL     OW33397   1.647   2.041   9.747  0.3531 -0.9316 -0.8916
 7313SOL    HW133398   1.568   2.089   9.771  1.8074  0.2586  1.5082
 7313SOL    HW233399   1.675   2.097   9.675  0.8704  1.2806  1.0522
 7314SOL     OW33400   0.518   3.100   4.878  0.2680 -0.9101 -0.4320
 7314SOL    HW133401   0.544   3.090   4.970  0.9674  0.6115 -0.4720
 7314SOL    HW233402   0.594   3.075   4.827  1.5699  0.7873  0.7036
 7315SOL     OW33403   4.305   1.198  15.242  0.1795 -0.1640 -0.3149
 7315SOL    HW133404   4.328   1.289  15.262 -0.4769 -0.1808  0.5028
 7315SOL    HW233405   4.331   1.156  15.325  3.4934 -0.9796 -1.7371
 7316SOL     OW33406   2.436   4.490   6.468  0.2890 -0.2012  0.0397
 7316SOL    HW133407   2.455   4.579   6.499 -0.5215 -0.2496  0.6619
 7316SOL    HW233408   2.424   4.507   6.374 -0.6385 -1.7678 -0.1097
 7317SOL     OW33409   3.136   2.681   2.904  0.3026 -0.2255  0.3349
 7317SOL    HW133410   3.173   2.755   2.951  4.3662 -2.1392  0.1457
 7317SOL    HW233411   3.075   2.646   2.969  0.2392  2.1722  1.5555
 7318SOL     OW33412   1.877   0.572   0.572  0.1366 -0.2935  0.1471
 7318SOL    HW133413   1.936   0.516   0.623 -0.2669  0.7268  1.7619
 7318SOL    HW233414   1.939   0.644   0.564 -1.1347  0.9128  0.9599
 7319SOL     OW33415   2.309   3.037  15.871  0.0677  0.3959  0.0034
 7319SOL    HW133416   2.228   3.012  15.827  0.6193 -1.3074 -0.0307
 7319SOL    HW233417   2.325   3.130  15.857  0.5335  0.3353  0.1147
 7320SOL     OW33418   0.974   0.419   0.923  0.4575  0.2206 -0.3494
 7320SOL    HW133419   0.894   0.391   0.878  0.5400 -0.4754 -0.0591
 7320SOL    HW233420   0.936   0.493   0.970  2.9913  1.8116 -0.8231
 7321SOL     OW33421   2.378   3.132   7.836  0.5686  0.6041 -0.1616
 7321SOL    HW133422   2.369   3.090   7.921  1.5288  0.9719  0.1144
 7321SOL    HW233423   2.303   3.191   7.829 -1.1934 -1.7586 -1.2219
 7322SOL     OW33424   1.018   0.280   5.809 -0.5721 -0.3160 -0.0406
 7322SOL    HW133425   0.970   0.215   5.861 -0.5470  0.2217  0.6562
 7322SOL    HW233426   1.010   0.355   5.869  0.0091  0.9235 -1.5067
 7323SOL     OW33427   2.289   0.308   5.813  0.2931 -0.0070 -0.2773
 7323SOL    HW133428   2.334   0.286   5.732 -0.4443 -1.1799 -0.3620
 7323SOL    HW233429   2.262   0.225   5.852 -1.8031  0.0466 -1.5874
 7324SOL     OW33430   4.276   2.092   7.192  0.1979  0.6021 -0.3194
 7324SOL    HW133431   4.280   2.001   7.161  0.7295  0.4195  0.2996
 7324SOL    HW233432   4.182   2.107   7.184  0.3962  1.6571 -0.7073
 7325SOL     OW33433   3.992   0.350   2.429 -0.2186 -0.5199 -0.4342
 7325SOL    HW133434   3.925   0.355   2.497 -0.9066  0.9111 -1.2330
 7325SOL    HW233435   4.040   0.273   2.461  0.2866 -0.5127 -1.1581
 7326SOL     OW33436   4.573   3.798   7.912  0.6711  0.3635 -0.6277
 7326SOL    HW133437   4.524   3.829   7.988 -0.7581 -0.1794 -1.3230
 7326SOL    HW233438   4.656   3.773   7.954 -1.1280 -3.5334  0.5939
 7327SOL     OW33439   3.711   1.172   4.924 -0.5958  0.9164 -0.1855
 7327SOL    HW133440   3.693   1.128   4.841 -1.3438 -0.6415  0.8087
 7327SOL    HW233441   3.702   1.099   4.984  3.5448 -0.3417 -1.0664
 7328SOL     OW33442   3.029   4.220  15.189 -0.2608 -0.1708  0.5921
 7328SOL    HW133443   2.946   4.252  15.153  0.0194 -0.9702 -0.7741
 7328SOL    HW233444   3.027   4.135  15.145  1.7373  0.8496 -1.4730
 7329SOL     OW33445   3.187   1.799   3.946 -0.9850 -0.0018 -0.3532
 7329SOL    HW133446   3.198   1.777   3.853 -0.3234  1.5584 -0.6415
 7329SOL    HW233447   3.275   1.831   3.964 -0.9015 -0.6668  0.4416
 7330SOL     OW33448   1.784   2.079   6.255  0.7951 -0.6494  0.2867
 7330SOL    HW133449   1.786   2.113   6.344  1.3327  0.3162 -0.0905
 7330SOL    HW233450   1.864   2.126   6.230 -1.0682 -0.2384 -4.8940
 7331SOL     OW33451   4.109   4.284   9.437  0.2203 -0.0922  0.0986
 7331SOL    HW133452   4.171   4.335   9.385  1.2668 -1.4887 -0.0386
 7331SOL    HW233453   4.039   4.258   9.376 -0.4609  0.7028  0.5526
 7332SOL     OW33454   2.763   3.290   2.048  0.2147 -0.0748 -0.1377
 7332SOL    HW133455   2.850   3.311   2.083  0.7000  1.2657 -2.1855
 7332SOL    HW233456   2.799   3.227   1.985  1.6126 -0.0731  0.6609
 7333SOL     OW33457   2.775   3.264  14.614  0.6358 -0.5412  0.3031
 7333SOL    HW133458   2.859   3.299  14.644 -0.5142  1.2902  1.3604
 7333SOL    HW233459   2.769   3.285  14.521 -3.8414 -1.9787  0.3092
 7334SOL     OW33460   2.718   4.119  17.386 -0.3267  0.2882 -0.1737
 7334SOL    HW133461   2.712   4.125  17.481  0.4830  0.1312 -0.1142
 7334SOL    HW233462   2.808   4.088  17.376 -0.7318 -0.9137 -0.1641
 7335SOL     OW33463   3.236   1.870  14.018 -0.0054 -0.1505  0.5089
 7335SOL    HW133464   3.208   1.795  13.965 -1.5243  0.8176 -0.0381
 7335SOL    HW233465   3.248   1.928  13.943  0.8400  0.0474  0.7935
 7336SOL     OW33466   1.103   2.406   3.517  0.5219  0.6452  0.7616
 7336SOL    HW133467   1.117   2.313   3.535  0.6903  0.5043 -0.1213
 7336SOL    HW233468   1.194   2.438   3.519  0.5895  0.5486 -0.7965
 7337SOL     OW33469   3.473   3.659   5.010 -0.5069  0.4884  0.0386
 7337SOL    HW133470   3.449   3.735   4.957 -0.9961  0.5419  0.3390
 7337SOL    HW233471   3.451   3.687   5.099 -0.2316 -1.3690  0.6971
 7338SOL     OW33472   1.391   1.168   4.981 -0.0590  0.2415 -0.3570
 7338SOL    HW133473   1.483   1.145   4.981 -0.5488 -1.7511  0.3635
 7338SOL    HW233474   1.394   1.248   5.034  0.8172 -0.0566  0.0376
 7339SOL     OW33475   0.500   2.634   1.224  0.1437 -0.6408 -0.1633
 7339SOL    HW133476   0.406   2.634   1.243  0.5187 -0.0524  1.7487
 7339SOL    HW233477   0.506   2.726   1.199  0.1394 -0.6151 -0.0691
 7340SOL     OW33478   3.322   3.540   6.001 -0.0600  0.1506 -0.4945
 7340SOL    HW133479   3.250   3.523   5.940 -0.3332 -0.9460  0.1425
 7340SOL    HW233480   3.373   3.459   5.999 -2.2434 -1.2130 -0.2444
 7341SOL     OW33481   0.636   0.632  12.469 -0.2319 -0.2425  0.3193
 7341SOL    HW133482   0.565   0.581  12.430 -1.3725 -1.1128  3.5550
 7341SOL    HW233483   0.627   0.717  12.425 -0.2082 -0.4728 -0.1297
 7342SOL     OW33484   3.866   0.782   6.421  0.4361  0.2095  0.0592
 7342SOL    HW133485   3.943   0.761   6.368  0.4093 -0.5490  0.3248
 7342SOL    HW233486   3.859   0.874   6.393 -1.8160  0.4383  1.3845
 7343SOL     OW33487   2.130   1.445  17.600 -0.3369  0.2694 -0.1357
 7343SOL    HW133488   2.142   1.374  17.662 -1.0695  1.9617  1.9561
 7343SOL    HW233489   2.183   1.422  17.524 -2.2248  0.9145 -1.6420
 7344SOL     OW33490   2.672   2.780   6.552 -0.4601 -0.3374 -0.3159
 7344SOL    HW133491   2.705   2.717   6.617 -0.2042 -2.6281 -2.6786
 7344SOL    HW233492   2.655   2.857   6.606 -1.9905  1.1593 -2.9652
 7345SOL     OW33493   2.461   1.435  14.420  0.1924  0.1612 -0.7922
 7345SOL    HW133494   2.528   1.405  14.359  0.8889  0.2894 -0.0888
 7345SOL    HW233495   2.439   1.521  14.386 -1.5023 -0.8163 -2.1761
 7346SOL     OW33496   2.727   0.116   4.047  0.0072 -0.0660  0.0128
 7346SOL    HW133497   2.686   0.037   4.083  0.9340 -0.3499  0.4254
 7346SOL    HW233498   2.777   0.071   3.979 -0.4119 -1.0792  0.3696
 7347SOL     OW33499   1.797   1.632   9.830 -0.1483  0.4913 -0.0571
 7347SOL    HW133500   1.881   1.591   9.811 -0.7163 -0.8467  0.3025
 7347SOL    HW233501   1.790   1.698   9.761 -3.0144  1.5443  1.2397
 7348SOL     OW33502   1.217   4.579   4.198  0.0381 -0.4131  0.0948
 7348SOL    HW133503   1.165   4.659   4.191  1.9238  0.8738  0.7634
 7348SOL    HW233504   1.165   4.533   4.265  0.9331  1.1427  1.8781
 7349SOL     OW33505   1.907   2.548  13.786  0.2682 -0.0281 -0.0337
 7349SOL    HW133506   1.924   2.455  13.768 -0.9083  0.1025 -1.8534
 7349SOL    HW233507   1.923   2.580  13.697  2.0266  0.2804  0.4019
 7350SOL     OW33508   1.546   0.827   0.522 -0.2845  0.0880 -0.0539
 7350SOL    HW133509   1.581   0.893   0.461 -2.7211  1.6691  0.2201
 7350SOL    HW233510   1.490   0.875   0.583 -0.7731  0.3780 -0.7273
 7351SOL     OW33511   2.782   4.107  10.201 -0.1488  0.4864 -0.0310
 7351SOL    HW133512   2.739   4.192  10.210 -0.6376  0.1154  1.2088
 7351SOL    HW233513   2.870   4.134  10.178 -0.4147  0.0279 -1.6272
 7352SOL     OW33514   2.872   1.371   4.947  0.0481  0.1438  0.2130
 7352SOL    HW133515   2.843   1.431   5.016  0.6504  1.5135 -0.7046
 7352SOL    HW233516   2.792   1.358   4.896 -1.4183  2.3671  1.9708
 7353SOL     OW33517   3.341   3.046   2.717  0.5119  0.1635  0.1092
 7353SOL    HW133518   3.255   3.069   2.753 -0.3670 -1.1509 -1.1480
 7353SOL    HW233519   3.369   3.131   2.682  0.1530  0.6844  1.0901
 7354SOL     OW33520   4.652   3.285   9.402  0.4219 -0.3031 -0.2703
 7354SOL    HW133521   4.577   3.260   9.456 -0.4072  0.4366 -1.0878
 7354SOL    HW233522   4.615   3.363   9.361 -0.7899  0.0113  1.4540
 7355SOL     OW33523   1.075   0.050  16.375 -0.1110  0.2430  0.0264
 7355SOL    HW133524   1.076   4.701  16.441  2.0302 -2.0923 -2.4664
 7355SOL    HW233525   1.080   0.127  16.431 -1.8946  0.1839  0.2742
 7356SOL     OW33526   1.414   1.029   4.373 -0.1990  0.0296  0.2746
 7356SOL    HW133527   1.420   1.116   4.334  0.1181  0.7529  1.9503
 7356SOL    HW233528   1.414   0.977   4.293 -0.0265 -2.1702  1.7023
 7357SOL     OW33529   1.125   1.078   3.158  0.6581 -0.0387 -0.3929
 7357SOL    HW133530   1.200   1.060   3.101  0.3830 -0.7454 -0.5386
 7357SOL    HW233531   1.177   1.086   3.238 -0.9526  2.5756  0.3951
 7358SOL     OW33532   1.696   4.119   4.320  0.4422  0.4905 -0.5355
 7358SOL    HW133533   1.733   4.082   4.400 -1.5709  0.2994  0.3085
 7358SOL    HW233534   1.615   4.155   4.357 -0.8189 -1.8517 -0.9659
 7359SOL     OW33535   3.390   4.180   6.827  0.0674  0.5334  0.4409
 7359SOL    HW133536   3.380   4.170   6.922  0.3866  0.0520  0.4242
 7359SOL    HW233537   3.365   4.090   6.808 -1.8466  1.5097 -1.6613
 7360SOL     OW33538   0.169   3.571  17.103 -0.6127 -0.3854 -0.1995
 7360SOL    HW133539   0.216   3.589  17.022 -1.5550 -2.4973 -1.2081
 7360SOL    HW233540   0.173   3.476  17.107  1.0685 -0.2589  1.0882
 7361SOL     OW33541   2.058   3.915   9.112 -0.2928  0.0246 -0.2715
 7361SOL    HW133542   2.028   3.963   9.189  1.6262  0.3202  0.2842
 7361SOL    HW233543   1.984   3.856   9.099 -0.7169  0.2581  1.0579
 7362SOL     OW33544   0.252   0.285  14.250 -0.4167  0.5897  0.0887
 7362SOL    HW133545   0.228   0.204  14.293 -0.3505  1.0004  0.8935
 7362SOL    HW233546   0.180   0.344  14.274 -1.3236 -1.3897  2.2583
 7363SOL     OW33547   1.306   3.753   5.355  0.3079  0.2194 -0.4165
 7363SOL    HW133548   1.386   3.726   5.310  0.4982  1.8018 -1.0370
 7363SOL    HW233549   1.322   3.847   5.342  2.6815 -0.2995 -1.2851
 7364SOL     OW33550   4.077   0.151  17.653  0.4480  0.0206  0.2607
 7364SOL    HW133551   4.140   0.220  17.674 -1.7390  1.6215  1.4908
 7364SOL    HW233552   4.127   0.089  17.599 -1.5754 -2.3393  1.0666
 7365SOL     OW33553   3.505   2.942   7.906 -0.0008  0.3633 -0.2751
 7365SOL    HW133554   3.481   2.870   7.964 -1.3798  0.9003 -0.1782
 7365SOL    HW233555   3.482   3.013   7.966 -0.7412  0.0163 -0.1504
 7366SOL     OW33556   3.835   0.541   3.740  0.1202  0.1143  0.0305
 7366SOL    HW133557   3.882   0.604   3.685 -3.1973  1.9864 -0.6584
 7366SOL    HW233558   3.898   0.471   3.757 -2.3816 -1.9458  1.0115
 7367SOL     OW33559   4.377   0.529   7.199  1.3078 -0.6718  0.6704
 7367SOL    HW133560   4.335   0.468   7.260  1.2338 -1.8475 -0.5401
 7367SOL    HW233561   4.296   0.561   7.159  2.1413  1.1167  0.4342
 7368SOL     OW33562   2.787   4.511  13.457  0.1115 -0.7137 -0.6400
 7368SOL    HW133563   2.877   4.487  13.438 -0.0379 -0.9177 -1.0950
 7368SOL    HW233564   2.753   4.497  13.368  0.0118  1.5086 -0.9531
 7369SOL     OW33565   1.722   4.515   2.046  0.1257 -0.1265  0.4534
 7369SOL    HW133566   1.804   4.537   2.001  0.7359 -2.0145  0.6448
 7369SOL    HW233567   1.676   4.599   2.037  0.0671  0.0813  2.5865
 7370SOL     OW33568   4.172   0.785  12.878  0.5363 -0.3367  0.1834
 7370SOL    HW133569   4.175   0.879  12.863 -0.5343 -0.3901 -0.3470
 7370SOL    HW233570   4.245   0.762  12.820  1.0138  2.0781 -0.1479
 7371SOL     OW33571   0.631   4.001  11.897 -0.1926 -0.1151 -0.4163
 7371SOL    HW133572   0.546   3.984  11.856 -0.4190 -0.1856  0.0873
 7371SOL    HW233573   0.641   4.094  11.877  0.2856 -0.2020 -0.5702
 7372SOL     OW33574   3.051   2.211   5.492  0.4157  0.2021 -0.0558
 7372SOL    HW133575   3.032   2.249   5.578  0.7199  0.7102 -0.2147
 7372SOL    HW233576   3.140   2.245   5.485  1.3026 -1.6360  2.0260
 7373SOL     OW33577   3.195   3.045  10.440 -0.6796  0.3082 -0.2633
 7373SOL    HW133578   3.130   3.083  10.381 -1.1495  1.3683  0.9343
 7373SOL    HW233579   3.207   2.956  10.408  1.1644  0.5632 -0.3155
 7374SOL     OW33580   3.646   2.580   8.305 -0.1631 -0.1035  0.0209
 7374SOL    HW133581   3.735   2.615   8.313 -0.4393  0.9996 -1.8822
 7374SOL    HW233582   3.657   2.489   8.332  3.7083  0.4110  0.1054
 7375SOL     OW33583   2.721   4.121   0.371  0.3300  0.0675 -0.5683
 7375SOL    HW133584   2.771   4.203   0.375  0.4393  0.0344 -1.1985
 7375SOL    HW233585   2.773   4.055   0.417 -0.5363  0.9199  1.6387
 7376SOL     OW33586   1.733   1.161   1.463 -0.3678  0.2578  0.2244
 7376SOL    HW133587   1.695   1.238   1.506  2.4389  2.1791 -0.6822
 7376SOL    HW233588   1.695   1.086   1.508 -0.1342 -0.5965 -0.9933
 7377SOL     OW33589   0.968   0.831   9.756  0.1074  0.2657 -0.1582
 7377SOL    HW133590   0.896   0.892   9.741  0.8428  0.7071 -1.9220
 7377SOL    HW233591   0.924   0.746   9.760  1.6964 -0.4639  1.8587
 7378SOL     OW33592   1.231   1.917  13.030 -0.3181  0.1671 -0.3908
 7378SOL    HW133593   1.312   1.938  12.984  0.1644 -0.4848  0.1500
 7378SOL    HW233594   1.247   1.841  13.086  0.8032  1.3798  0.9559
 7379SOL     OW33595   4.557   2.174  14.781 -0.1223 -0.8533 -0.3894
 7379SOL    HW133596   4.499   2.113  14.826 -2.6042  0.5341 -1.6845
 7379SOL    HW233597   4.607   2.204  14.856 -1.7898 -1.2529  0.8849
 7380SOL     OW33598   2.650   4.250   2.789  0.5535 -0.0911  0.5788
 7380SOL    HW133599   2.603   4.328   2.759  0.6417 -0.6849 -1.1402
 7380SOL    HW233600   2.741   4.267   2.763  0.5385 -1.4005 -0.3349
 7381SOL     OW33601   4.348   2.164   1.951 -0.1697 -0.2940  0.3562
 7381SOL    HW133602   4.284   2.230   1.978 -0.1501  0.0543 -0.4571
 7381SOL    HW233603   4.430   2.204   1.980 -0.1153 -0.4681  0.4461
 7382SOL     OW33604   0.404   1.955   4.261 -0.3662 -0.2526  0.2391
 7382SOL    HW133605   0.418   1.988   4.173  1.0203 -1.9546 -0.1913
 7382SOL    HW233606   0.475   1.893   4.276  0.4366  0.6758  0.2433
 7383SOL     OW33607   2.749   2.843   7.282 -1.2258 -0.0595  0.0548
 7383SOL    HW133608   2.659   2.822   7.308 -0.4821 -2.3983  0.7310
 7383SOL    HW233609   2.784   2.755   7.296 -1.9710 -0.0891  1.7079
 7384SOL     OW33610   4.268   0.013   7.064 -0.0830 -0.4653  0.2663
 7384SOL    HW133611   4.251   4.688   6.981 -0.5847 -0.1293  0.1893
 7384SOL    HW233612   4.237   4.670   7.130 -1.4088  0.5043  0.5807
 7385SOL     OW33613   0.452   2.032  12.190 -0.1940  0.0657  0.2428
 7385SOL    HW133614   0.380   1.977  12.161  2.2884 -0.9939 -3.8481
 7385SOL    HW233615   0.503   1.972  12.245 -1.6629 -1.6099 -0.2250
 7386SOL     OW33616   1.783   3.491   5.196  0.4548 -0.3488  0.7158
 7386SOL    HW133617   1.802   3.419   5.136 -1.3510  1.2689 -1.8171
 7386SOL    HW233618   1.840   3.476   5.271  1.8418  0.4845 -0.1612
 7387SOL     OW33619   3.438   1.359  15.421  0.1628 -0.0410  0.8262
 7387SOL    HW133620   3.347   1.388  15.426 -0.0420 -0.5440  0.0399
 7387SOL    HW233621   3.454   1.398  15.336 -0.2652  0.1533  0.8329
 7388SOL     OW33622   4.263   3.378   6.316  0.3616 -0.3481  0.0167
 7388SOL    HW133623   4.196   3.323   6.355  1.8267 -2.9924 -1.1292
 7388SOL    HW233624   4.335   3.373   6.379  1.0857  1.2289 -0.6668
 7389SOL     OW33625   1.045   2.478   5.609 -0.0322  0.2900  0.6721
 7389SOL    HW133626   1.097   2.559   5.616  1.9054 -0.9804  1.0714
 7389SOL    HW233627   1.056   2.433   5.693 -1.1515  1.1495  1.2786
 7390SOL     OW33628   1.753   1.845   2.764 -0.1470 -0.4728 -0.7595
 7390SOL    HW133629   1.734   1.767   2.817  0.6535 -0.2166 -0.0982
 7390SOL    HW233630   1.821   1.814   2.704 -1.8327 -1.8212 -1.9793
 7391SOL     OW33631   0.819   2.089  14.509  0.6533 -0.3776  0.5076
 7391SOL    HW133632   0.819   2.055  14.420 -0.2730 -0.7928  0.6674
 7391SOL    HW233633   0.731   2.125  14.512 -0.0775 -2.1585  0.6928
 7392SOL     OW33634   1.340   0.098   8.970  0.1749  0.0131  0.2827
 7392SOL    HW133635   1.357   0.006   8.990  0.3192 -0.0932 -0.3320
 7392SOL    HW233636   1.273   0.118   9.036  1.7357 -0.9576  2.1640
 7393SOL     OW33637   0.293   2.784   2.055  0.1365  0.2938  0.4852
 7393SOL    HW133638   0.360   2.716   2.065 -1.5459 -1.4583 -0.1444
 7393SOL    HW233639   0.315   2.831   1.975  1.3868 -0.1087  0.6002
 7394SOL     OW33640   3.813   2.762   4.955  0.3846  0.1488 -0.7028
 7394SOL    HW133641   3.803   2.717   4.870  3.3040 -0.8262 -0.5324
 7394SOL    HW233642   3.733   2.812   4.968 -0.8176 -1.3521 -2.2429
 7395SOL     OW33643   2.648   3.223   4.327  0.0606 -0.1103 -0.1123
 7395SOL    HW133644   2.730   3.241   4.281  0.9933 -3.3173  0.2969
 7395SOL    HW233645   2.616   3.312   4.344  2.9183  0.9075 -0.1477
 7396SOL     OW33646   0.115   3.328   4.177 -0.1098 -0.7075  0.0925
 7396SOL    HW133647   0.145   3.323   4.267 -0.9669 -0.3288  0.3985
 7396SOL    HW233648   0.020   3.332   4.191 -0.6864 -1.0005 -3.5699
 7397SOL     OW33649   3.731   0.193   4.235 -0.4350 -0.2492 -0.1808
 7397SOL    HW133650   3.791   0.218   4.165  1.9468 -0.5219  1.7509
 7397SOL    HW233651   3.698   0.281   4.250 -0.1202 -0.5230  2.1858
 7398SOL     OW33652   0.350   2.142   3.287 -0.0671 -0.1097 -0.0695
 7398SOL    HW133653   0.417   2.076   3.303 -0.0896  0.5190  2.6767
 7398SOL    HW233654   0.277   2.097   3.329 -0.3708 -1.7563 -2.3254
 7399SOL     OW33655   2.532   0.693   3.815 -0.4758 -0.3828 -0.4359
 7399SOL    HW133656   2.473   0.660   3.883  0.1786 -1.0066 -0.1591
 7399SOL    HW233657   2.533   0.612   3.764  0.7041 -2.3255  2.6362
 7400SOL     OW33658   2.383   0.456   4.658  0.5875  0.1245  0.1661
 7400SOL    HW133659   2.423   0.526   4.710  1.3063 -0.0384 -0.1616
 7400SOL    HW233660   2.384   0.485   4.566  1.0214 -0.7471 -0.1025
 7401SOL     OW33661   0.069   1.352   9.964 -0.2312  0.7650 -0.6028
 7401SOL    HW133662   4.710   1.330  10.014  0.5057 -0.8820 -0.1473
 7401SOL    HW233663   0.049   1.445   9.956 -0.1419  0.6713 -1.9414
 7402SOL     OW33664   4.472   3.679   7.482  0.3617 -0.0651  0.3919
 7402SOL    HW133665   4.478   3.670   7.387 -1.7226 -0.3026  0.2990
 7402SOL    HW233666   4.500   3.593   7.513 -1.9557 -0.7333  0.6058
 7403SOL     OW33667   4.384   0.042   6.324  0.2405 -0.2125  0.2266
 7403SOL    HW133668   4.305   0.066   6.371 -0.2781 -0.4938 -0.4973
 7403SOL    HW233669   4.346   0.003   6.245  1.3414 -1.3041  0.2305
 7404SOL     OW33670   1.464   2.218   1.676 -0.3650  0.0699  0.0030
 7404SOL    HW133671   1.369   2.217   1.693 -0.9028 -0.3634 -3.1389
 7404SOL    HW233672   1.478   2.310   1.696 -0.7944  0.4211 -1.3700
 7405SOL     OW33673   3.805   1.075   4.320 -0.7742 -0.1682  0.4780
 7405SOL    HW133674   3.759   1.092   4.238 -1.1641 -0.1043  0.7104
 7405SOL    HW233675   3.794   0.983   4.345 -1.3291  0.2018  1.5731
 7406SOL     OW33676   0.746   3.933   7.868  0.5727 -0.0117  0.1709
 7406SOL    HW133677   0.778   3.924   7.778  1.4790  0.0619  0.4894
 7406SOL    HW233678   0.659   3.894   7.852  0.9699 -1.0203  0.4807
 7407SOL     OW33679   1.166   0.619  10.383  0.2425 -0.1707 -0.2104
 7407SOL    HW133680   1.136   0.675  10.311 -1.0856  1.7991  1.8646
 7407SOL    HW233681   1.093   0.643  10.441  0.6243 -1.4973  0.8052
 7408SOL     OW33682   0.172   2.332   8.281  0.1511 -0.3399 -0.0361
 7408SOL    HW133683   0.083   2.306   8.307  0.1902 -0.7532 -0.3161
 7408SOL    HW233684   0.193   2.265   8.216  1.4236 -1.9297  2.0483
 7409SOL     OW33685   2.110   3.185  11.193  0.0311 -0.0853 -0.0003
 7409SOL    HW133686   2.135   3.258  11.136  1.2305 -0.9339 -0.5586
 7409SOL    HW233687   2.166   3.209  11.267  1.8791 -0.3431 -1.3157
 7410SOL     OW33688   1.269   0.042   3.735  0.3835 -0.0309 -0.1740
 7410SOL    HW133689   1.348   0.056   3.683 -0.6594 -0.6211 -1.9217
 7410SOL    HW233690   1.307   0.012   3.817  2.3166 -0.4209 -1.1987
 7411SOL     OW33691   2.865   0.577   4.139  0.3336  0.2890 -0.5828
 7411SOL    HW133692   2.910   0.528   4.071 -0.1639 -2.8393  1.3160
 7411SOL    HW233693   2.816   0.510   4.188 -0.9342  1.9349  0.3825
 7412SOL     OW33694   3.768   3.644   7.659 -0.4200 -0.2958  0.4740
 7412SOL    HW133695   3.727   3.567   7.699 -3.7927  0.8305 -0.8579
 7412SOL    HW233696   3.741   3.640   7.567 -0.4060 -0.7342  0.4883
 7413SOL     OW33697   0.177   3.418   6.960 -0.1552 -0.6259  0.2271
 7413SOL    HW133698   0.096   3.383   6.997 -0.2378 -0.2527  0.3995
 7413SOL    HW233699   0.181   3.370   6.877 -0.4296  2.1930 -1.3888
 7414SOL     OW33700   1.695   0.693   5.522 -0.1310 -0.2918  0.3805
 7414SOL    HW133701   1.771   0.635   5.529  0.3535  0.2511 -0.3428
 7414SOL    HW233702   1.694   0.719   5.430  0.6195 -0.4248  0.3366
 7415SOL     OW33703   1.696   3.882  10.464 -0.1673 -0.1474  0.0370
 7415SOL    HW133704   1.772   3.847  10.418 -0.7956  0.9744 -1.8472
 7415SOL    HW233705   1.708   3.974  10.438 -1.1018 -0.1790 -0.4977
 7416SOL     OW33706   0.592   4.125   2.574  0.2329  0.1207 -0.0749
 7416SOL    HW133707   0.603   4.127   2.669  0.5793  0.6504 -0.1217
 7416SOL    HW233708   0.533   4.050   2.562  0.9463 -0.0317 -2.7736
 7417SOL     OW33709   3.724   3.112   4.760  0.9276 -0.1865 -0.7253
 7417SOL    HW133710   3.774   3.040   4.722  0.2046 -0.1856 -1.6860
 7417SOL    HW233711   3.768   3.182   4.712  1.6853  0.2320  0.5883
 7418SOL     OW33712   1.512   2.688   8.320  0.4114 -0.5849 -0.6010
 7418SOL    HW133713   1.502   2.718   8.229 -2.8282 -0.2462 -0.1211
 7418SOL    HW233714   1.566   2.610   8.305  1.8645  0.2236  0.4922
 7419SOL     OW33715   0.006   4.070   6.468 -0.2935  0.0708  0.2537
 7419SOL    HW133716   4.717   3.976   6.454  1.0099  0.2220 -1.6812
 7419SOL    HW233717   4.687   4.093   6.384  1.0505  0.3604 -0.2970
 7420SOL     OW33718   0.501   3.931   9.638 -0.1581  0.1855 -0.0921
 7420SOL    HW133719   0.564   3.942   9.709 -1.8734  2.3201  1.1133
 7420SOL    HW233720   0.543   3.984   9.571  0.0894  0.0382 -0.0543
 7421SOL     OW33721   0.565   2.737   4.631 -0.3304  0.5940  0.0488
 7421SOL    HW133722   0.584   2.741   4.725  1.4605  0.3564 -0.3153
 7421SOL    HW233723   0.524   2.651   4.622 -0.3974  0.5367  0.9315
 7422SOL     OW33724   0.244   3.676   5.284 -0.4436  0.3200  0.3349
 7422SOL    HW133725   0.317   3.621   5.313 -0.9500  0.4082  1.7811
 7422SOL    HW233726   0.179   3.606   5.291  1.6551 -1.4501  2.1625
 7423SOL     OW33727   3.275   2.330   8.273  0.2144  0.4967  0.0078
 7423SOL    HW133728   3.318   2.398   8.220 -2.0545  1.5672 -0.4447
 7423SOL    HW233729   3.241   2.389   8.340  0.3689 -0.1363  0.6418
 7424SOL     OW33730   1.880   0.295   8.341 -0.1176  0.1811  0.1370
 7424SOL    HW133731   1.813   0.363   8.331 -0.3958 -0.1256 -0.0934
 7424SOL    HW233732   1.839   0.228   8.395 -0.3898  0.1129 -0.1499
 7425SOL     OW33733   4.473   2.482   9.352  0.1361  0.2137 -0.5253
 7425SOL    HW133734   4.474   2.525   9.437  2.2599 -0.1791 -0.3604
 7425SOL    HW233735   4.479   2.556   9.292 -0.4891 -0.3298 -1.2584
 7426SOL     OW33736   1.484   2.655   1.450 -0.6497 -0.0664 -0.5179
 7426SOL    HW133737   1.486   2.695   1.363 -0.6446  0.5298 -0.2477
 7426SOL    HW233738   1.463   2.562   1.441  1.5528 -0.7051  0.9237
 7427SOL     OW33739   1.247   4.635   4.980 -0.5701 -0.9558  0.3054
 7427SOL    HW133740   1.194   4.592   5.046 -0.2767 -0.5058  0.8378
 7427SOL    HW233741   1.279   4.559   4.932  2.7525  0.1606  0.7023
 7428SOL     OW33742   4.179   3.370  14.491  0.4800  0.8073  0.5165
 7428SOL    HW133743   4.251   3.307  14.479 -0.3929 -0.0494 -0.1811
 7428SOL    HW233744   4.146   3.348  14.578 -0.0101 -2.6022 -0.5418
 7429SOL     OW33745   3.522   2.248   5.978  0.0412 -0.3793  0.1596
 7429SOL    HW133746   3.554   2.303   6.049 -1.8217  1.7774 -0.6385
 7429SOL    HW233747   3.554   2.290   5.898 -0.5948 -2.2791 -1.1053
 7430SOL     OW33748   3.862   4.134   7.820  0.1479  0.4662 -0.1406
 7430SOL    HW133749   3.861   4.073   7.894 -0.1525 -0.8919 -1.2606
 7430SOL    HW233750   3.827   4.082   7.748 -1.4817  0.1760  0.8456
 7431SOL     OW33751   3.486   0.583  12.032  0.5881  0.3202 -0.1239
 7431SOL    HW133752   3.442   0.522  12.091  0.2679 -0.0361 -0.7320
 7431SOL    HW233753   3.422   0.644  11.997  1.3260  0.6170 -0.9564
 7432SOL     OW33754   1.974   0.025  17.533  0.4431 -0.7812  0.2640
 7432SOL    HW133755   1.964   0.052  17.441  0.5286  0.3464  0.5936
 7432SOL    HW233756   2.032   0.098  17.555  0.7012 -1.3821  1.5477
 7433SOL     OW33757   0.620   4.180   5.191 -0.0708  0.8788 -0.7258
 7433SOL    HW133758   0.652   4.183   5.101  1.8674 -2.8536 -0.1533
 7433SOL    HW233759   0.525   4.191   5.182 -0.2316 -0.4357 -0.6260
 7434SOL     OW33760   0.199   2.738   4.650 -0.1360 -0.0654  0.4090
 7434SOL    HW133761   0.171   2.733   4.742 -0.0255  0.3725  0.4644
 7434SOL    HW233762   0.190   2.646   4.623 -3.8591  0.3215  0.2358
 7435SOL     OW33763   2.115   0.939   7.982 -1.0689  0.4654 -1.1418
 7435SOL    HW133764   2.092   1.018   8.030 -1.1310 -0.0094 -0.3915
 7435SOL    HW233765   2.030   0.901   7.964 -1.1162 -0.4703  1.0062
 7436SOL     OW33766   2.138   2.507   9.012 -0.2458  0.5606  1.0628
 7436SOL    HW133767   2.134   2.481   8.920  2.1814  0.6286  0.9229
 7436SOL    HW233768   2.101   2.595   9.011 -0.2563  0.5477 -0.5233
 7437SOL     OW33769   2.009   0.074   2.733 -0.1287 -0.3689  0.0134
 7437SOL    HW133770   2.062   0.142   2.693 -0.2001  0.0282  0.5889
 7437SOL    HW233771   2.058   4.713   2.719 -0.4892 -0.1436 -2.4426
 7438SOL     OW33772   3.883   2.675   3.072 -0.2453 -0.1453  0.7387
 7438SOL    HW133773   3.808   2.732   3.086 -1.2241 -0.9915 -0.9964
 7438SOL    HW233774   3.829   2.600   3.046 -0.3605 -0.0431  0.6834
 7439SOL     OW33775   1.216   0.885  14.240 -0.2998 -0.2641  0.4059
 7439SOL    HW133776   1.133   0.844  14.216 -1.1103  0.7038  1.5435
 7439SOL    HW233777   1.268   0.861  14.163  0.2470  0.3582  0.5789
 7440SOL     OW33778   4.455   4.011  14.791 -0.7103  0.3180  0.3506
 7440SOL    HW133779   4.529   4.011  14.852  0.5624 -2.5326 -1.2225
 7440SOL    HW233780   4.425   4.102  14.800  0.1094  0.4601  1.5500
 7441SOL     OW33781   3.029   0.963   7.317 -0.1234  0.0037 -0.1588
 7441SOL    HW133782   3.107   1.017   7.330  0.1775 -0.3957 -0.2905
 7441SOL    HW233783   3.003   0.989   7.229 -0.4439  0.0866 -0.0376
 7442SOL     OW33784   1.322   1.380   5.125 -0.6049 -0.1262  0.5380
 7442SOL    HW133785   1.272   1.431   5.061  0.4545  0.8763  0.5082
 7442SOL    HW233786   1.379   1.452   5.154  0.4819 -0.4074 -0.8852
 7443SOL     OW33787   1.335   3.567   1.955 -0.2699 -0.6722 -0.4413
 7443SOL    HW133788   1.288   3.648   1.934  1.4238  0.2594 -0.6331
 7443SOL    HW233789   1.361   3.589   2.045  1.5723 -2.9948 -0.4292
 7444SOL     OW33790   1.761   3.576   6.082 -0.8773  0.5628 -0.3011
 7444SOL    HW133791   1.673   3.609   6.103 -0.0666  1.5037  1.5578
 7444SOL    HW233792   1.817   3.629   6.138 -0.4831  1.4535 -1.5356
 7445SOL     OW33793   1.360   4.633  10.749 -0.5687  0.4100 -0.8384
 7445SOL    HW133794   1.432   4.589  10.702 -0.5237  1.8258 -2.1018
 7445SOL    HW233795   1.332   4.700  10.687 -1.3940  2.6763  1.9724
 7446SOL     OW33796   3.650   3.941   8.344 -0.0099 -0.1648  0.5595
 7446SOL    HW133797   3.647   3.845   8.349  0.4895 -0.1529  1.2344
 7446SOL    HW233798   3.745   3.954   8.350  0.2801 -1.7364 -0.6192
 7447SOL     OW33799   3.403   4.444   6.101  0.3830  0.6402  0.1427
 7447SOL    HW133800   3.325   4.388   6.088  1.1995 -0.7833  1.4239
 7447SOL    HW233801   3.421   4.473   6.011  0.8596 -0.4151 -0.1090
 7448SOL     OW33802   0.409   0.541  12.331  0.1320 -0.5016  0.2724
 7448SOL    HW133803   0.398   0.478  12.402  1.5686  0.3448  1.2606
 7448SOL    HW233804   0.334   0.598  12.346 -0.1499 -0.9631  0.5996
 7449SOL     OW33805   2.077   1.710   3.902 -0.3816  0.1137 -1.2026
 7449SOL    HW133806   2.091   1.751   3.817 -0.2409  1.0784 -0.7179
 7449SOL    HW233807   1.988   1.677   3.886 -0.8172  0.8551 -0.3608
 7450SOL     OW33808   3.664   0.158   2.805  0.0919 -0.4292  0.7671
 7450SOL    HW133809   3.756   0.133   2.807  0.3899  0.6477 -0.0700
 7450SOL    HW233810   3.638   0.074   2.845 -1.3737  1.0374  2.8849
 7451SOL     OW33811   3.382   2.564  16.548 -0.0957  0.4026  0.1357
 7451SOL    HW133812   3.420   2.649  16.528  0.8586  0.0518  0.4693
 7451SOL    HW233813   3.352   2.572  16.638  0.7192  1.3248  0.3223
 7452SOL     OW33814   0.887   2.016   3.694 -0.3015  0.1158 -0.5933
 7452SOL    HW133815   0.852   1.990   3.779 -1.9509  0.1715 -1.2606
 7452SOL    HW233816   0.872   2.110   3.707  1.1295  0.4257 -1.1477
 7453SOL     OW33817   2.407   4.180   3.327  0.2215  0.1779 -0.3746
 7453SOL    HW133818   2.349   4.256   3.330 -0.8601 -0.6514 -0.1986
 7453SOL    HW233819   2.494   4.218   3.336  1.1264 -1.8564 -0.6082
 7454SOL     OW33820   3.223   0.510   4.812 -0.3081  0.1028 -0.1455
 7454SOL    HW133821   3.253   0.588   4.859 -1.3108  1.9582 -2.5652
 7454SOL    HW233822   3.288   0.444   4.837  0.4045 -0.0001 -2.2622
 7455SOL     OW33823   4.061   3.909   3.464  0.1743 -0.1022 -0.0742
 7455SOL    HW133824   4.063   4.002   3.441  1.2984  0.0501  0.6176
 7455SOL    HW233825   4.139   3.878   3.418 -1.4715  0.8737 -3.5245
 7456SOL     OW33826   0.360   4.357   8.365  0.0517 -0.3092  0.4809
 7456SOL    HW133827   0.353   4.341   8.459 -2.5527 -2.7391 -0.1610
 7456SOL    HW233828   0.456   4.360   8.365  0.0233  0.7131  1.1018
 7457SOL     OW33829   2.735   0.026  10.233 -0.1816 -0.1543 -0.5188
 7457SOL    HW133830   2.765   0.099  10.179 -2.2471 -0.0368 -1.5212
 7457SOL    HW233831   2.654   4.715  10.192 -0.4420  0.0213 -0.1398
 7458SOL     OW33832   2.960   4.351   9.976 -0.0054 -0.4753  0.3369
 7458SOL    HW133833   2.954   4.258   9.998  0.4671 -0.4709  0.4837
 7458SOL    HW233834   2.879   4.389  10.009 -0.8259 -1.2026 -0.8632
 7459SOL     OW33835   0.890   1.449   2.111  0.2913 -0.2602 -0.0718
 7459SOL    HW133836   0.945   1.376   2.083 -0.9560 -1.4491  0.5948
 7459SOL    HW233837   0.916   1.452   2.203  1.7407  0.0335 -0.4862
 7460SOL     OW33838   1.287   3.727   0.934 -0.4683  0.0182  0.3312
 7460SOL    HW133839   1.199   3.689   0.936  0.5137 -2.3705 -1.3681
 7460SOL    HW233840   1.275   3.816   0.967  0.4732 -0.0239  0.7990
 7461SOL     OW33841   3.642   2.952  12.724  0.2649  0.0148 -0.2554
 7461SOL    HW133842   3.625   2.879  12.663 -0.1701  0.2935 -0.4684
 7461SOL    HW233843   3.559   2.966  12.769  1.0053  2.7242  0.2070
 7462SOL     OW33844   1.325   2.087  14.252  0.4270 -0.2989  0.5026
 7462SOL    HW133845   1.265   2.082  14.326 -1.3457  0.2769 -0.9031
 7462SOL    HW233846   1.386   2.157  14.274  0.3618 -0.5044  1.3331
 7463SOL     OW33847   3.024   2.330  10.864  0.2901  0.3275 -0.9151
 7463SOL    HW133848   3.063   2.278  10.794 -0.7661  0.8386 -1.8931
 7463SOL    HW233849   2.936   2.343  10.828 -1.7193  1.5167  4.4278
 7464SOL     OW33850   1.220   1.604   3.764  0.2844 -0.6876  0.1091
 7464SOL    HW133851   1.271   1.625   3.842 -1.3688 -2.5729  1.6530
 7464SOL    HW233852   1.148   1.665   3.775  0.2652 -0.7411  0.2688
 7465SOL     OW33853   1.169   2.442   2.283  0.1067  0.4450  0.1259
 7465SOL    HW133854   1.178   2.538   2.278 -2.3533  0.6505 -0.4855
 7465SOL    HW233855   1.085   2.422   2.241  0.1091  2.0716 -0.6921
 7466SOL     OW33856   0.044   1.054  16.640  0.0391 -0.2376  0.0391
 7466SOL    HW133857   0.115   1.100  16.597  1.3537  0.6587  3.2108
 7466SOL    HW233858   0.069   0.963  16.623 -0.3606 -0.2987 -0.2473
 7467SOL     OW33859   1.688   3.016   6.181 -0.7298  0.3563 -0.2282
 7467SOL    HW133860   1.740   3.089   6.147 -0.9527  0.2975 -0.6951
 7467SOL    HW233861   1.747   2.945   6.157 -1.9409 -0.6839 -0.1354
 7468SOL     OW33862   2.466   1.067  10.915 -0.3888  0.5506  0.2588
 7468SOL    HW133863   2.388   1.013  10.927 -0.8129  1.2969  0.8123
 7468SOL    HW233864   2.520   1.003  10.869 -0.1600  0.3640  0.7836
 7469SOL     OW33865   0.924   4.412   2.618 -0.4848  0.3933  0.0338
 7469SOL    HW133866   0.991   4.427   2.552 -1.5447 -1.6016 -1.5030
 7469SOL    HW233867   0.896   4.502   2.632 -0.6178 -0.0970  2.9880
 7470SOL     OW33868   0.495   4.226  10.091 -0.5274  0.4344 -0.0914
 7470SOL    HW133869   0.450   4.310  10.099  2.0678  1.5338  2.7107
 7470SOL    HW233870   0.508   4.232   9.996 -0.0364  1.2531  0.0361
 7471SOL     OW33871   2.790   3.460   6.452 -0.2912 -0.5193  0.5429
 7471SOL    HW133872   2.754   3.424   6.371  0.3294  1.1102 -0.4583
 7471SOL    HW233873   2.723   3.419   6.506  0.9834  1.2964  3.5242
 7472SOL     OW33874   1.181   1.539   1.409  0.7073 -0.0542 -0.6168
 7472SOL    HW133875   1.265   1.560   1.368  0.8444 -0.8396 -0.7300
 7472SOL    HW233876   1.155   1.628   1.434 -0.1834  0.2057 -2.5459
 7473SOL     OW33877   4.336   0.002   8.008 -0.7495 -0.0834  0.3585
 7473SOL    HW133878   4.347   4.629   7.989 -0.0005  0.3483 -1.3480
 7473SOL    HW233879   4.322   0.002   8.103  1.6980  2.9141  0.7463
 7474SOL     OW33880   2.349   0.059   5.924 -0.3079  0.3103  0.0317
 7474SOL    HW133881   2.397   0.045   6.005 -2.1473 -0.3491  1.0073
 7474SOL    HW233882   2.415   0.040   5.857 -0.7931  0.3317 -0.4494
 7475SOL     OW33883   2.428   3.115   1.712 -0.4074  0.6061  0.0966
 7475SOL    HW133884   2.441   3.031   1.755  0.6712  0.7209  0.0082
 7475SOL    HW233885   2.420   3.096   1.618 -0.1992  2.5597 -0.3171
 7476SOL     OW33886   1.044   0.205   4.880  0.3493 -0.2155 -0.4103
 7476SOL    HW133887   1.055   0.192   4.786  2.9382 -1.0049 -0.0191
 7476SOL    HW233888   0.965   0.156   4.902  1.9044 -1.7055  1.9326
 7477SOL     OW33889   4.492   2.336   4.839  0.4148 -0.4101  0.2378
 7477SOL    HW133890   4.511   2.429   4.850 -1.6836  0.0370  0.2249
 7477SOL    HW233891   4.562   2.289   4.795  0.5723 -1.4983  1.6771
 7478SOL     OW33892   0.784   0.589   6.774  0.4067 -0.3493  0.6453
 7478SOL    HW133893   0.813   0.675   6.744  1.9465 -1.0490  0.0619
 7478SOL    HW233894   0.699   0.595   6.816 -0.7571  0.0019 -1.7696
 7479SOL     OW33895   1.864   4.080   9.740  0.0037  0.0991  0.2264
 7479SOL    HW133896   1.906   4.001   9.774  1.6078  1.3561  1.2201
 7479SOL    HW233897   1.921   4.144   9.784  1.5975 -0.2046 -1.4149
 7480SOL     OW33898   4.261   1.466  12.199 -0.7165 -0.3907  1.0042
 7480SOL    HW133899   4.313   1.463  12.279 -0.1663  0.2554  0.6712
 7480SOL    HW233900   4.260   1.372  12.179  0.2567 -0.1843 -0.0252
 7481SOL     OW33901   1.322   4.407  12.756  0.3962 -0.2348  0.0745
 7481SOL    HW133902   1.402   4.454  12.730 -0.1939  1.3543  1.0852
 7481SOL    HW233903   1.308   4.450  12.841 -0.9448  0.3195 -0.4303
 7482SOL     OW33904   1.589   3.931   5.082 -0.0616 -0.0737 -0.0292
 7482SOL    HW133905   1.502   3.895   5.062  0.3269 -1.8685  1.4506
 7482SOL    HW233906   1.640   3.854   5.108  0.0165 -0.3499 -1.0214
 7483SOL     OW33907   2.936   3.740   3.530 -0.2492 -0.6214  0.4975
 7483SOL    HW133908   2.882   3.695   3.596  2.5581  0.9912  3.8711
 7483SOL    HW233909   2.962   3.806   3.594 -2.0414 -0.6701  1.2793
 7484SOL     OW33910   1.509   3.116   8.256 -0.2463 -0.4605  0.4016
 7484SOL    HW133911   1.427   3.147   8.295 -0.1141  0.2875  0.0996
 7484SOL    HW233912   1.563   3.138   8.331  1.0782 -0.2065 -0.6258
 7485SOL     OW33913   4.112   2.105   3.335 -0.5052 -0.2045 -0.3196
 7485SOL    HW133914   4.079   2.190   3.365  0.7234  0.3057 -0.3956
 7485SOL    HW233915   4.124   2.106   3.240 -1.6805 -0.4267 -0.4670
 7486SOL     OW33916   2.853   2.075   7.289 -0.3190 -0.1594  0.2111
 7486SOL    HW133917   2.882   2.028   7.366  2.0121 -0.3403 -0.7733
 7486SOL    HW233918   2.807   2.007   7.239 -1.3498  0.0341  0.8949
 7487SOL     OW33919   4.047   1.636   8.737 -0.0993 -0.0724  0.1064
 7487SOL    HW133920   4.006   1.566   8.685 -0.6396 -0.1513  0.6354
 7487SOL    HW233921   4.001   1.622   8.820 -1.2946 -1.3473 -0.7711
 7488SOL     OW33922   4.135   2.362   7.532 -0.1510  0.6145 -0.1787
 7488SOL    HW133923   4.203   2.429   7.533  0.6919 -0.2425  0.5423
 7488SOL    HW233924   4.201   2.293   7.522 -0.8655  0.1259 -1.5115
 7489SOL     OW33925   2.481   0.162  11.933 -0.0552 -0.0085  0.6515
 7489SOL    HW133926   2.409   0.152  11.995  0.7828 -0.9890  1.4541
 7489SOL    HW233927   2.559   0.157  11.988  1.2794  1.1714 -1.1209
 7490SOL     OW33928   4.284   2.488   5.399 -0.3229  0.2706  0.0788
 7490SOL    HW133929   4.274   2.556   5.465 -0.7324  0.3889 -0.1032
 7490SOL    HW233930   4.193   2.476   5.371 -0.1460 -0.6244 -0.1100
 7491SOL     OW33931   0.387   3.744   7.364 -0.0356  0.0739  1.1535
 7491SOL    HW133932   0.402   3.674   7.300 -0.7753 -0.7087  1.8536
 7491SOL    HW233933   0.474   3.782   7.379 -0.2018  0.6778  0.6230
 7492SOL     OW33934   1.023   2.655   6.611  0.4074  0.1363 -0.0549
 7492SOL    HW133935   1.029   2.576   6.664  1.3687 -0.4035 -0.9912
 7492SOL    HW233936   1.028   2.630   6.519 -2.0219  0.8165 -0.3830
 7493SOL     OW33937   1.871   1.499   4.329 -0.2777  0.0560  0.5285
 7493SOL    HW133938   1.837   1.444   4.259  1.7928 -2.7246  1.7190
 7493SOL    HW233939   1.952   1.526   4.286 -0.1506 -1.8926 -0.4588
 7494SOL     OW33940   0.225   4.390   7.704 -1.0323  0.2072 -0.9028
 7494SOL    HW133941   0.187   4.335   7.635 -1.5831  1.0906 -1.3021
 7494SOL    HW233942   0.190   4.476   7.678  0.8250  1.1287 -0.3408
 7495SOL     OW33943   3.046   2.506   2.714 -0.4664 -0.3393 -0.1772
 7495SOL    HW133944   3.060   2.595   2.746 -0.5039  0.2868 -1.9018
 7495SOL    HW233945   2.994   2.479   2.790  1.2547 -1.4226  0.6012
 7496SOL     OW33946   0.523   1.156   7.102  0.0156  0.4387 -0.5507
 7496SOL    HW133947   0.591   1.132   7.038  0.5484 -0.6465  0.4370
 7496SOL    HW233948   0.444   1.117   7.065  0.2993 -0.0360 -0.6641
 7497SOL     OW33949   0.549   0.793  15.778 -0.0207  0.8389  0.0251
 7497SOL    HW133950   0.638   0.800  15.813  0.4332  1.0644 -1.1776
 7497SOL    HW233951   0.572   0.792  15.685  1.1890  1.0298  0.3191
 7498SOL     OW33952   0.483   0.303   3.497  0.0789 -0.2743 -0.0385
 7498SOL    HW133953   0.561   0.304   3.553  0.0846  3.3002 -0.0915
 7498SOL    HW233954   0.414   0.307   3.563  1.4840 -0.3068  1.4261
 7499SOL     OW33955   2.940   2.780   0.907  0.0483  0.2162 -0.5179
 7499SOL    HW133956   2.978   2.866   0.923 -0.4824  0.3732 -0.1037
 7499SOL    HW233957   2.864   2.807   0.854  1.5085  1.1404 -2.1448
 7500SOL     OW33958   3.194   2.854  13.229 -0.0473 -0.2327 -0.0693
 7500SOL    HW133959   3.246   2.826  13.305  1.0494 -0.2348 -0.8233
 7500SOL    HW233960   3.138   2.919  13.271  1.7437 -0.2729  2.4104
 7501SOL     OW33961   4.467   1.553   9.021 -0.5148  0.1481 -0.0234
 7501SOL    HW133962   4.390   1.589   8.976 -0.7978  0.1340  0.4524
 7501SOL    HW233963   4.529   1.531   8.952  2.3366  2.9229  1.6778
 7502SOL     OW33964   1.012   1.330  14.931 -0.1765  0.5138  0.6452
 7502SOL    HW133965   0.918   1.338  14.916 -0.2962  0.4394  1.3275
 7502SOL    HW233966   1.043   1.365  14.848  0.5261 -2.5897 -0.4035
 7503SOL     OW33967   0.935   4.496  12.709  0.3575 -0.3109  0.1710
 7503SOL    HW133968   0.914   4.540  12.792  0.8530  0.9363 -0.3619
 7503SOL    HW233969   0.854   4.509  12.660 -1.2007 -0.4730  2.7225
 7504SOL     OW33970   4.193   1.401   7.483  0.7371  0.2315  0.3019
 7504SOL    HW133971   4.225   1.323   7.528  1.1644  0.3959  0.2900
 7504SOL    HW233972   4.129   1.420   7.552 -0.8325 -0.9241 -0.8550
 7505SOL     OW33973   2.416   4.461   9.599  0.5840 -0.5614 -0.6040
 7505SOL    HW133974   2.474   4.497   9.666 -0.7683  0.2098  0.1579
 7505SOL    HW233975   2.436   4.369   9.614 -0.1995 -0.5488  0.5454
 7506SOL     OW33976   4.265   2.798  14.019 -1.0407  0.2761 -0.2799
 7506SOL    HW133977   4.206   2.730  14.052  1.6370 -0.7375  2.3456
 7506SOL    HW233978   4.226   2.809  13.932  1.7879  0.9030 -1.4633
 7507SOL     OW33979   2.978   0.555   4.677  0.3132 -0.2790 -0.0175
 7507SOL    HW133980   3.054   0.525   4.728 -1.2199  0.5643  2.7598
 7507SOL    HW233981   2.926   0.555   4.757 -1.5734  2.0122 -1.2654
 7508SOL     OW33982   3.272   3.424   3.518  0.1093  0.2612 -0.5294
 7508SOL    HW133983   3.177   3.425   3.503  0.1768  0.4124 -0.9612
 7508SOL    HW233984   3.298   3.513   3.543  0.4330 -0.3370  1.2371
 7509SOL     OW33985   0.497   4.376  15.308  0.3613  0.5095 -0.5781
 7509SOL    HW133986   0.487   4.438  15.236  0.1855 -0.5737 -1.4734
 7509SOL    HW233987   0.476   4.434  15.382  1.1305  1.2072 -0.9022
 7510SOL     OW33988   1.744   4.531  17.621  0.1750 -0.0462  0.1168
 7510SOL    HW133989   1.748   4.626  17.632  4.2745 -0.2379  0.3007
 7510SOL    HW233990   1.675   4.509  17.559 -0.0143  0.4950  0.1310
 7511SOL     OW33991   1.369   0.882   0.712  0.3814  0.1408  0.4179
 7511SOL    HW133992   1.279   0.890   0.744  0.4165  0.5840  0.4021
 7511SOL    HW233993   1.409   0.873   0.798  0.8771  1.6776  0.3500
 7512SOL     OW33994   1.406   4.360   0.695  0.3459 -0.6908  0.1994
 7512SOL    HW133995   1.319   4.353   0.657  0.1294 -4.0165  1.2607
 7512SOL    HW233996   1.458   4.293   0.650 -0.7432 -0.7640 -0.9538
 7513SOL     OW33997   0.134   1.483   5.024  0.2681  0.1156 -0.1514
 7513SOL    HW133998   0.055   1.430   5.034 -0.4823  1.3315  0.3649
 7513SOL    HW233999   0.190   1.456   5.096 -0.4752  1.2228  0.8511
 7514SOL     OW34000   3.158   0.566  14.726  0.0586  0.2758  0.0459
 7514SOL    HW134001   3.212   0.533  14.799 -0.2891  0.9939  0.6336
 7514SOL    HW234002   3.070   0.548  14.758  0.2510  1.6563  1.3674
 7515SOL     OW34003   3.859   1.022   6.319 -0.5265 -0.1816 -0.0045
 7515SOL    HW134004   3.931   1.080   6.295  0.3173 -1.1979  0.0689
 7515SOL    HW234005   3.797   1.086   6.355  0.9438  2.4697 -2.1866
 7516SOL     OW34006   1.427   1.454   1.082  0.1877 -0.0027 -0.4942
 7516SOL    HW134007   1.336   1.428   1.092  0.0121  0.7289 -0.1480
 7516SOL    HW234008   1.450   1.458   1.175  0.1025  0.0873 -0.4771
 7517SOL     OW34009   0.247   0.646  13.920 -0.0287 -0.1508  0.0723
 7517SOL    HW134010   0.182   0.665  13.987  0.3637  2.9983 -0.4714
 7517SOL    HW234011   0.191   0.660  13.844 -0.1405 -1.1255 -0.0268
 7518SOL     OW34012   0.218   0.488   2.070  0.8110 -0.0833 -0.5066
 7518SOL    HW134013   0.162   0.423   2.027  0.0907 -0.4981  1.0379
 7518SOL    HW234014   0.302   0.463   2.032 -0.9556 -1.6799 -3.3113
 7519SOL     OW34015   1.607   3.007   6.428 -0.4792 -0.7875  0.4975
 7519SOL    HW134016   1.618   3.005   6.333 -0.4521  2.7191  0.4201
 7519SOL    HW234017   1.523   2.962   6.433 -0.1763 -1.3615  0.3809
 7520SOL     OW34018   3.511   4.083   4.142  0.1448  0.1762  0.1493
 7520SOL    HW134019   3.460   4.113   4.067  0.6030 -1.5053 -0.8455
 7520SOL    HW234020   3.573   4.156   4.139 -1.1591  1.3359  1.3323
 7521SOL     OW34021   4.262   1.875   9.362 -0.1396  0.1691  0.0845
 7521SOL    HW134022   4.354   1.897   9.344  0.1304 -1.3394 -0.3611
 7521SOL    HW234023   4.226   1.944   9.417  0.5068  0.5915 -0.0140
 7522SOL     OW34024   2.691   2.910   5.119 -0.6086  0.0416 -0.1339
 7522SOL    HW134025   2.677   2.865   5.036 -1.4656 -0.0719  0.0658
 7522SOL    HW234026   2.678   2.835   5.179  1.0645  1.0590  1.4903
 7523SOL     OW34027   0.737   2.625   8.930  0.1075 -0.1836  0.1253
 7523SOL    HW134028   0.695   2.701   8.890 -0.7193 -2.7796 -3.8215
 7523SOL    HW234029   0.681   2.555   8.899  3.2181 -1.0817 -3.4546
 7524SOL     OW34030   2.172   3.455   3.961  0.6199  0.6121 -0.2626
 7524SOL    HW134031   2.198   3.401   4.036 -3.2757 -1.6186 -0.5394
 7524SOL    HW234032   2.079   3.474   3.973  0.2249 -0.9220 -1.0108
 7525SOL     OW34033   0.687   0.761  14.155 -0.3366 -0.2277  0.2163
 7525SOL    HW134034   0.604   0.763  14.203  0.7875 -0.6092  2.1582
 7525SOL    HW234035   0.679   0.678  14.108  0.5438  0.1985 -0.6713
 7526SOL     OW34036   1.310   3.362   6.437  0.1806 -0.5759 -0.9282
 7526SOL    HW134037   1.336   3.416   6.512  1.5861  1.1676 -2.6603
 7526SOL    HW234038   1.387   3.307   6.422  0.1919 -1.2835  1.7622
 7527SOL     OW34039   0.812   3.752   6.735  0.2543  0.2346  0.2394
 7527SOL    HW134040   0.761   3.692   6.790  1.9090 -1.0223  0.4037
 7527SOL    HW234041   0.851   3.815   6.794 -1.4386  2.4469 -1.0032
 7528SOL     OW34042   2.429   2.308  14.436 -0.3019 -0.3305 -0.1608
 7528SOL    HW134043   2.363   2.296  14.503 -0.4398 -0.6942 -0.3612
 7528SOL    HW234044   2.405   2.392  14.396  0.5158  0.2402  0.5424
 7529SOL     OW34045   3.159   0.676   3.365 -0.4244 -0.1235  0.6014
 7529SOL    HW134046   3.120   0.715   3.286 -0.9552 -1.2974  0.2798
 7529SOL    HW234047   3.151   0.582   3.349  2.4912 -0.6199  2.2098
 7530SOL     OW34048   1.507   1.050   8.784 -0.2939  0.4619  0.8160
 7530SOL    HW134049   1.419   1.052   8.822 -0.8728  0.9153 -0.5793
 7530SOL    HW234050   1.549   0.992   8.847 -2.2135 -1.5988  0.2019
 7531SOL     OW34051   3.784   3.919   5.444  0.1685 -0.0158 -0.5236
 7531SOL    HW134052   3.839   3.928   5.366  1.0219 -0.3426  0.0415
 7531SOL    HW234053   3.847   3.895   5.512 -0.4980  1.8080  0.7543
 7532SOL     OW34054   3.647   1.504   3.777 -0.1806  0.0151 -0.7214
 7532SOL    HW134055   3.616   1.502   3.686 -0.6289  0.8231 -0.5863
 7532SOL    HW234056   3.696   1.422   3.781 -0.2142 -0.0092 -0.8120
 7533SOL     OW34057   0.619   0.937  13.917 -0.1264  0.0140 -0.3297
 7533SOL    HW134058   0.598   0.857  13.869  1.1899 -0.1770 -0.5856
 7533SOL    HW234059   0.695   0.912  13.970  0.2198 -2.4281 -1.9759
 7534SOL     OW34060   1.969   4.319  12.611 -0.4690 -0.0729  0.3365
 7534SOL    HW134061   1.934   4.289  12.695  0.2872  0.7526  0.9361
 7534SOL    HW234062   2.063   4.324  12.625 -0.2333 -3.2629 -0.1417
 7535SOL     OW34063   1.218   3.917   7.888 -0.3153 -0.2041 -0.0432
 7535SOL    HW134064   1.253   3.837   7.849  1.6266 -0.1781  1.6181
 7535SOL    HW234065   1.136   3.874   7.909  0.0772 -0.7364  0.3879
 7536SOL     OW34066   0.424   1.351   3.761  0.3918  0.3956 -0.0920
 7536SOL    HW134067   0.498   1.299   3.729  0.5273  0.1708  0.5799
 7536SOL    HW234068   0.373   1.367   3.682  2.5817  0.3274 -1.5192
 7537SOL     OW34069   2.554   2.525  17.276 -0.2009 -0.3413  0.0035
 7537SOL    HW134070   2.593   2.497  17.359  2.3632  1.8588 -0.4743
 7537SOL    HW234071   2.605   2.605  17.270  0.4441 -0.7844 -0.3766
 7538SOL     OW34072   0.733   0.109  12.534  0.2068 -0.0493  0.1400
 7538SOL    HW134073   0.740   0.016  12.513 -2.5095 -0.4921  1.2375
 7538SOL    HW234074   0.826   0.124  12.554  0.5233 -0.6096 -0.9390
 7539SOL     OW34075   4.401   3.870   3.615  0.6212  0.1978  0.1567
 7539SOL    HW134076   4.326   3.821   3.647  0.0151  2.6078  2.4404
 7539SOL    HW234077   4.381   3.875   3.521  0.1222  1.2613  0.3265
 7540SOL     OW34078   0.608   1.464   5.879  0.6445  0.1812  0.6164
 7540SOL    HW134079   0.691   1.505   5.853  0.6535 -0.8297 -0.9170
 7540SOL    HW234080   0.619   1.451   5.973 -0.8915  0.6378  0.8565
 7541SOL     OW34081   0.000   1.248   5.031  0.0913  0.2040  0.1936
 7541SOL    HW134082   0.094   1.229   5.026  0.1004  0.2373  0.2391
 7541SOL    HW234083   4.688   1.181   5.091  1.8658 -0.6589  0.1752
 7542SOL     OW34084   0.575   2.047  10.649  0.1995 -0.1992 -0.2059
 7542SOL    HW134085   0.656   2.043  10.701 -0.3920 -2.0797  0.5659
 7542SOL    HW234086   0.518   2.015  10.719 -0.3364  2.6788  0.6633
 7543SOL     OW34087   4.641   1.157   8.092  0.4785  0.4347 -0.3492
 7543SOL    HW134088   4.572   1.176   8.027  1.7982  0.4809 -1.7336
 7543SOL    HW234089   4.714   1.191   8.040  0.7386  0.0973 -0.2012
 7544SOL     OW34090   2.805   0.238  14.358  0.4888 -0.1242 -0.2847
 7544SOL    HW134091   2.834   0.159  14.404 -1.3720 -0.0305  1.0512
 7544SOL    HW234092   2.856   0.305  14.403  1.3998 -0.5794 -0.6417
 7545SOL     OW34093   1.016   4.222  12.030  0.6205  0.3501 -0.2502
 7545SOL    HW134094   0.935   4.180  12.062  1.4763 -0.8596  0.3296
 7545SOL    HW234095   1.084   4.173  12.077 -0.0495 -0.3165  0.0371
 7546SOL     OW34096   2.053   4.495  17.643 -0.1058  0.0998 -0.0420
 7546SOL    HW134097   1.966   4.460  17.623  1.5473 -2.8199 -2.1864
 7546SOL    HW234098   2.048   4.588  17.620  0.8702  0.1651  0.0415
 7547SOL     OW34099   0.752   4.183   6.462  0.4781  0.3100  0.1308
 7547SOL    HW134100   0.689   4.236   6.511 -2.5140 -2.2863 -0.8467
 7547SOL    HW234101   0.690   4.122   6.420  2.0033 -1.3973  0.3606
 7548SOL     OW34102   0.134   2.583   3.535  0.7796 -0.2384  0.4086
 7548SOL    HW134103   0.124   2.500   3.581  0.7190 -0.7033 -0.4441
 7548SOL    HW234104   0.210   2.622   3.577  0.7592  0.9869 -0.6757
 7549SOL     OW34105   4.154   0.929   9.057  0.1119 -0.0731  0.0678
 7549SOL    HW134106   4.137   0.902   9.147  0.5843 -2.0218 -0.4147
 7549SOL    HW234107   4.071   0.959   9.021  1.1677 -1.5446 -3.6199
 7550SOL     OW34108   0.862   3.946  12.060  0.4160  0.7841  0.0475
 7550SOL    HW134109   0.816   3.969  12.141 -0.1031  0.3511 -0.1280
 7550SOL    HW234110   0.797   3.939  11.990  1.7655 -0.4469 -1.1041
 7551SOL     OW34111   3.989   3.236   2.981 -0.0657 -0.1305  0.0854
 7551SOL    HW134112   3.932   3.189   3.042 -0.2498  0.0593  0.0579
 7551SOL    HW234113   4.009   3.315   3.031 -0.1306  0.3632 -0.6843
 7552SOL     OW34114   4.352   3.471   4.637  0.4788 -0.1990 -0.2174
 7552SOL    HW134115   4.413   3.540   4.662 -2.1785  2.3393 -0.7295
 7552SOL    HW234116   4.324   3.499   4.550  1.0518  0.1114 -0.3011
 7553SOL     OW34117   0.963   0.124   0.703 -0.0926 -0.2460  0.8088
 7553SOL    HW134118   0.988   0.044   0.658  2.2789  1.8064 -1.5466
 7553SOL    HW234119   1.048   0.152   0.736  0.5332 -1.5882  0.2919
 7554SOL     OW34120   4.521   3.744   1.863 -0.2246 -0.1977 -0.4325
 7554SOL    HW134121   4.510   3.671   1.802  1.3255  0.3230 -1.3355
 7554SOL    HW234122   4.453   3.803   1.829  0.6347  0.3199 -1.2593
 7555SOL     OW34123   4.141   1.961  10.625  0.1908 -0.0769  0.1825
 7555SOL    HW134124   4.126   1.912  10.544  3.5550 -1.5966  0.4833
 7555SOL    HW234125   4.158   1.889  10.686  0.7972  0.3280  0.4904
 7556SOL     OW34126   0.744   1.055   9.998 -0.1745  0.5223 -0.5682
 7556SOL    HW134127   0.667   1.100  10.033 -1.3544 -0.9657 -1.1989
 7556SOL    HW234128   0.702   0.998   9.933  0.4766  0.8776 -1.3023
 7557SOL     OW34129   4.032   2.206   5.008  0.7156  0.2194  0.8736
 7557SOL    HW134130   4.014   2.202   4.914  0.2537 -0.6277  0.9922
 7557SOL    HW234131   4.126   2.222   5.008  0.9285 -1.0948 -0.4416
 7558SOL     OW34132   1.821   0.524   6.249 -0.0137  0.3600  0.1629
 7558SOL    HW134133   1.898   0.489   6.295 -0.4981 -0.6194  0.2205
 7558SOL    HW234134   1.853   0.521   6.158 -1.1222  0.3207 -0.2193
 7559SOL     OW34135   3.089   1.762  17.040  0.7116  0.1164  0.2616
 7559SOL    HW134136   3.160   1.825  17.043  1.6283 -0.8623 -0.9826
 7559SOL    HW234137   3.067   1.752  17.133 -1.3234 -0.3100 -0.2469
 7560SOL     OW34138   4.021   1.291   3.797  0.1188  0.5925 -0.0049
 7560SOL    HW134139   4.082   1.364   3.799  0.2165  0.4707  1.8612
 7560SOL    HW234140   4.002   1.306   3.705 -2.6870  1.7337  0.7583
 7561SOL     OW34141   3.350   3.496   8.089 -1.1916  0.1951  0.0069
 7561SOL    HW134142   3.354   3.414   8.039 -0.2792 -0.2166  0.7724
 7561SOL    HW234143   3.425   3.545   8.058  0.1992 -2.6438 -1.1449
 7562SOL     OW34144   1.337   4.596   7.028 -0.2106 -0.2676  0.6538
 7562SOL    HW134145   1.308   4.626   6.942 -0.9593 -2.0956  0.2464
 7562SOL    HW234146   1.405   4.660   7.045  2.8103 -3.2639 -0.1222
 7563SOL     OW34147   2.042   0.232   2.058 -0.2101 -0.3500  0.2254
 7563SOL    HW134148   2.102   0.267   2.124  1.5112  0.7912 -1.9490
 7563SOL    HW234149   2.055   0.294   1.986 -1.1789 -0.3267  0.0769
 7564SOL     OW34150   3.872   1.955   0.209 -0.1486 -0.6270 -0.8575
 7564SOL    HW134151   3.849   1.862   0.210  1.1517 -0.9308  0.2193
 7564SOL    HW234152   3.863   1.961   0.304  2.6231 -0.6703 -0.5951
 7565SOL     OW34153   4.675   0.638   1.838  0.2543  0.0736  0.7588
 7565SOL    HW134154   4.602   0.633   1.777  0.0897 -1.4243  1.0870
 7565SOL    HW234155   0.008   0.560   1.823  0.3322  0.0904  0.9378
 7566SOL     OW34156   1.106   2.951   6.211  0.0222  0.6867 -0.3154
 7566SOL    HW134157   1.137   3.039   6.191  0.5471  0.0739 -2.2042
 7566SOL    HW234158   1.049   2.929   6.138  1.0516 -0.9405 -0.6359
 7567SOL     OW34159   4.071   3.691   9.005  0.2035 -0.0797  0.0442
 7567SOL    HW134160   4.046   3.659   8.919  1.9486 -1.5920  0.1127
 7567SOL    HW234161   3.991   3.663   9.051 -0.2332  0.1786 -0.5578
 7568SOL     OW34162   0.896   3.232   2.614 -0.5833 -0.0145  0.4045
 7568SOL    HW134163   0.864   3.159   2.667  1.2335  0.5823  2.2903
 7568SOL    HW234164   0.844   3.222   2.534 -1.5113 -3.4279  1.4342
 7569SOL     OW34165   3.472   0.342   8.424  0.0906 -0.2476  0.4566
 7569SOL    HW134166   3.396   0.390   8.392  0.1508 -0.1477  0.4649
 7569SOL    HW234167   3.448   0.316   8.513  1.7536  1.4344  1.3957
 7570SOL     OW34168   0.498   2.379   8.130 -0.0986 -0.1947  0.3334
 7570SOL    HW134169   0.466   2.305   8.078 -3.7942  1.4297  0.3078
 7570SOL    HW234170   0.419   2.404   8.178 -0.5671 -0.1740 -0.4599
 7571SOL     OW34171   3.704   3.634   7.376 -0.1371 -0.3346  0.5770
 7571SOL    HW134172   3.756   3.639   7.295 -0.8963 -0.4883  0.0762
 7571SOL    HW234173   3.651   3.711   7.355 -0.0350 -0.4631 -0.1551
 7572SOL     OW34174   2.403   4.400  10.802  0.0525 -0.1168 -0.2511
 7572SOL    HW134175   2.430   4.341  10.873 -0.8417  0.7553  0.8175
 7572SOL    HW234176   2.345   4.339  10.756 -0.6568  0.0292  0.4332
 7573SOL     OW34177   0.686   0.340   3.668 -0.5984  0.1962  0.3538
 7573SOL    HW134178   0.672   0.429   3.700  1.1267  0.4851  0.2955
 7573SOL    HW234179   0.718   0.374   3.584 -0.7201 -0.9537 -0.1576
 7574SOL     OW34180   0.661   2.601   3.648 -0.7565 -0.4749  0.3347
 7574SOL    HW134181   0.752   2.578   3.668 -0.1306 -0.0864 -2.0713
 7574SOL    HW234182   0.661   2.694   3.670  2.1977 -0.4389  0.1972
 7575SOL     OW34183   3.153   0.912   5.445 -0.5924  0.4525  0.1615
 7575SOL    HW134184   3.201   0.982   5.400 -1.1086  0.9799  0.4184
 7575SOL    HW234185   3.186   0.838   5.395  0.6851  0.4357  1.0215
 7576SOL     OW34186   4.075   2.997   3.332 -0.4113  0.0709 -0.1991
 7576SOL    HW134187   4.032   3.082   3.343 -0.2711  0.0672  0.4284
 7576SOL    HW234188   4.131   2.993   3.410  0.3102 -0.6656 -0.7549
 7577SOL     OW34189   2.367   4.648   8.546  0.2586 -0.2783 -0.0883
 7577SOL    HW134190   2.376   0.023   8.549 -0.7107 -0.1566 -0.9876
 7577SOL    HW234191   2.358   4.632   8.640  1.9023  0.5798  0.2152
 7578SOL     OW34192   2.336   1.250   9.013 -0.3030  0.0358 -0.2346
 7578SOL    HW134193   2.350   1.333   8.968 -1.1525  0.0966 -0.3855
 7578SOL    HW234194   2.293   1.212   8.936 -1.4540 -0.0994  0.4651
 7579SOL     OW34195   0.041   3.062   7.588  0.6316 -0.3230  0.4856
 7579SOL    HW134196   4.684   3.032   7.636 -1.9129  3.5911 -1.1187
 7579SOL    HW234197   0.057   3.145   7.634  1.5551  0.1047 -0.6199
 7580SOL     OW34198   2.996   3.477   6.626  0.6393  0.2063  0.0689
 7580SOL    HW134199   2.920   3.474   6.568  1.6791  1.5337 -1.3717
 7580SOL    HW234200   3.065   3.431   6.580  0.9089  1.0775 -0.3987
 7581SOL     OW34201   2.601   3.268   2.259  0.7281 -0.1582  0.1369
 7581SOL    HW134202   2.648   3.277   2.176 -0.3070 -1.9705 -0.6479
 7581SOL    HW234203   2.511   3.266   2.226 -0.0513  2.4016  2.1689
 7582SOL     OW34204   4.660   3.402  17.429  0.7008 -0.0309  1.0405
 7582SOL    HW134205   4.659   3.488  17.388  1.5950  0.0514  1.1920
 7582SOL    HW234206   0.031   3.393  17.458  1.3725  3.2247 -0.0225
 7583SOL     OW34207   3.258   4.670   6.733 -0.1214  0.1978 -0.1104
 7583SOL    HW134208   3.201   4.593   6.732  0.3128 -0.1321  0.4806
 7583SOL    HW234209   3.261   4.695   6.640 -0.7888 -0.3069 -0.2702
 7584SOL     OW34210   3.158   3.023   7.377  0.5329  0.1751 -0.1726
 7584SOL    HW134211   3.116   3.093   7.426  3.8957  1.0018  1.5137
 7584SOL    HW234212   3.078   3.001   7.330  0.1453 -0.4388  0.7666
 7585SOL     OW34213   2.348   4.062   8.774 -0.2447  0.2295 -0.1861
 7585SOL    HW134214   2.340   4.022   8.861 -0.5646 -0.7082 -0.6360
 7585SOL    HW234215   2.272   4.119   8.784 -0.5853 -0.4522  1.1946
 7586SOL     OW34216   3.755   4.266   9.188 -0.9470  0.1611 -0.1388
 7586SOL    HW134217   3.702   4.236   9.262 -0.8050 -0.4539 -0.2878
 7586SOL    HW234218   3.735   4.197   9.125  1.5424 -2.4049  1.8728
 7587SOL     OW34219   1.763   3.361   1.862  0.0917 -0.0373 -0.2760
 7587SOL    HW134220   1.744   3.350   1.769 -0.3969 -1.4662 -0.0157
 7587SOL    HW234221   1.718   3.444   1.876 -1.8459 -0.8604 -1.6456
 7588SOL     OW34222   0.298   4.699   5.542  0.1247  1.0305 -0.3613
 7588SOL    HW134223   0.236   4.626   5.547 -1.0835  2.0800  0.0691
 7588SOL    HW234224   0.355   4.691   5.619 -1.0497 -0.5601  0.3479
 7589SOL     OW34225   4.432   4.167   7.374 -0.4862 -0.3708  0.1938
 7589SOL    HW134226   4.472   4.179   7.460 -1.6567 -0.2822  0.7171
 7589SOL    HW234227   4.339   4.166   7.397  0.0573  0.5397  2.4263
 7590SOL     OW34228   3.926   2.663   5.360 -0.1969 -0.5882  0.7422
 7590SOL    HW134229   3.957   2.575   5.342  2.4035 -0.1720  3.1380
 7590SOL    HW234230   3.838   2.667   5.324  0.9193  1.0441 -1.8485
 7591SOL     OW34231   1.596   1.713   7.212  0.6512 -0.6843 -0.0981
 7591SOL    HW134232   1.649   1.753   7.281  1.1308 -1.7472  0.1546
 7591SOL    HW234233   1.526   1.670   7.262 -1.6774  2.6117 -0.5179
 7592SOL     OW34234   4.408   0.629   7.588 -0.7467  0.3425  0.4297
 7592SOL    HW134235   4.368   0.712   7.561  0.9977  0.4840 -1.6979
 7592SOL    HW234236   4.454   0.647   7.670  1.8112 -1.1457 -0.6693
 7593SOL     OW34237   0.510   2.419  13.366  0.0605  0.0769  0.1143
 7593SOL    HW134238   0.540   2.393  13.279  1.0661 -1.5737  0.9517
 7593SOL    HW234239   0.584   2.394  13.423 -0.5875  3.1195  2.2872
 7594SOL     OW34240   4.621   2.025   2.526 -0.1198  0.5343  0.1346
 7594SOL    HW134241   4.618   1.965   2.601 -1.4446 -0.0536 -0.4035
 7594SOL    HW234242   4.532   2.017   2.493 -0.3343  2.9406  0.0742
 7595SOL     OW34243   0.096   3.217   5.611  0.2097  0.0964 -0.0949
 7595SOL    HW134244   0.065   3.126   5.615  3.2713 -0.8867  1.4020
 7595SOL    HW234245   0.172   3.198   5.666 -0.7626 -1.3374  0.7380
 7596SOL     OW34246   4.116   3.246   5.553 -0.6228  0.3569 -0.5683
 7596SOL    HW134247   4.150   3.297   5.626 -1.1423 -1.5955  1.0286
 7596SOL    HW234248   4.168   3.289   5.485  1.2249  1.0094  1.2641
 7597SOL     OW34249   1.661   0.810   3.721 -0.6074  0.3203  0.3571
 7597SOL    HW134250   1.736   0.753   3.735 -0.6649  0.5720  1.6631
 7597SOL    HW234251   1.695   0.893   3.756 -0.3597  1.2932 -2.1590
 7598SOL     OW34252   3.545   0.285   8.990  0.4537  0.4846  0.3496
 7598SOL    HW134253   3.536   0.262   9.083  0.9275  1.3266  0.6121
 7598SOL    HW234254   3.540   0.198   8.952 -0.2908  0.1179  1.2685
 7599SOL     OW34255   1.168   2.975   0.474 -0.2726  0.1059 -0.0173
 7599SOL    HW134256   1.075   2.979   0.454  0.1003 -1.6675 -2.1022
 7599SOL    HW234257   1.161   2.983   0.569 -1.2014  0.9700 -0.1564
 7600SOL     OW34258   4.524   0.768   9.243  0.3405  0.4001 -0.2872
 7600SOL    HW134259   4.574   0.813   9.175 -1.4363  1.3301 -0.9841
 7600SOL    HW234260   4.475   0.707   9.187 -0.0165  0.2717  0.1612
 7601SOL     OW34261   2.162   3.359   2.157 -0.3842 -0.4123  0.1690
 7601SOL    HW134262   2.138   3.385   2.068  0.8376  1.0502  0.2627
 7601SOL    HW234263   2.194   3.439   2.197 -0.2851 -0.5247  0.3133
 7602SOL     OW34264   4.199   1.595  15.715 -0.1470 -0.1371  0.0845
 7602SOL    HW134265   4.133   1.539  15.674  0.9289  0.0774 -1.9646
 7602SOL    HW234266   4.253   1.535  15.767 -0.4046 -2.0515 -1.8405
 7603SOL     OW34267   4.521   2.623  10.122 -0.6447  0.3103 -0.7633
 7603SOL    HW134268   4.541   2.532  10.145  0.9448  1.0347  0.6719
 7603SOL    HW234269   4.497   2.616  10.030  0.2081  0.8653 -1.0188
 7604SOL     OW34270   0.421   2.496   4.687  0.0384 -0.0326 -0.6166
 7604SOL    HW134271   0.410   2.490   4.592 -1.2047 -1.0059 -0.4161
 7604SOL    HW234272   0.340   2.454   4.716 -0.3897  1.7791  0.7827
 7605SOL     OW34273   2.611   1.354   7.399 -0.6372 -0.6252 -0.0890
 7605SOL    HW134274   2.567   1.333   7.482  0.0397  1.0656  0.6860
 7605SOL    HW234275   2.536   1.396   7.356  0.1488  1.4331  0.5667
 7606SOL     OW34276   0.810   2.760   2.274  0.2221  0.7349  0.3585
 7606SOL    HW134277   0.801   2.813   2.195  0.1813  0.5125  0.2154
 7606SOL    HW234278   0.728   2.778   2.320 -0.3289 -0.8114 -0.0135
 7607SOL     OW34279   4.211   1.208   8.633  0.1952 -0.1592  0.1046
 7607SOL    HW134280   4.285   1.158   8.601  0.9725  0.6870  0.5731
 7607SOL    HW234281   4.162   1.227   8.553 -1.6195 -2.7497  0.6149
 7608SOL     OW34282   3.934   1.554   4.379  0.2195  0.3666 -0.0532
 7608SOL    HW134283   3.936   1.597   4.293 -0.6591  0.7569  0.1166
 7608SOL    HW234284   3.891   1.473   4.351  0.9904  0.0878 -0.4202
 7609SOL     OW34285   4.651   1.129  15.298 -0.3012 -0.1330 -0.0478
 7609SOL    HW134286   4.568   1.136  15.345 -1.0336  0.0887 -1.3653
 7609SOL    HW234287   4.624   1.063  15.234 -0.6271 -1.8851  1.8862
 7610SOL     OW34288   1.220   0.146  16.768  0.1683  0.0988  0.2502
 7610SOL    HW134289   1.136   0.184  16.743  0.7148  1.6436  0.7425
 7610SOL    HW234290   1.201   0.062  16.728 -0.1725  0.1005  0.4129
 7611SOL     OW34291   2.068   1.170  15.304 -0.0824 -0.5059  0.0499
 7611SOL    HW134292   1.982   1.211  15.295 -0.1672 -0.3857  1.4561
 7611SOL    HW234293   2.116   1.205  15.228 -2.0142  0.3093 -0.7908
 7612SOL     OW34294   0.236   2.270   3.584  0.4995 -1.2886 -0.6972
 7612SOL    HW134295   0.294   2.316   3.523 -0.8042  1.4592  0.1730
 7612SOL    HW234296   0.186   2.217   3.522 -1.4973  0.4715 -0.5547
 7613SOL     OW34297   4.047   3.029   4.374  0.0807 -0.5973  0.0881
 7613SOL    HW134298   3.956   3.003   4.363 -0.3886  1.1486 -0.1270
 7613SOL    HW234299   4.103   2.962   4.334  0.3508  0.5504 -1.4252
 7614SOL     OW34300   1.119   2.728  14.805 -0.1117 -0.2643 -0.2562
 7614SOL    HW134301   1.093   2.798  14.864  0.1681 -1.1042  0.8625
 7614SOL    HW234302   1.207   2.712  14.838  0.6942  1.7432 -1.4292
 7615SOL     OW34303   2.247   4.153   6.108 -0.2028  0.0076 -0.9979
 7615SOL    HW134304   2.227   4.111   6.024 -1.2085  1.4677 -1.4716
 7615SOL    HW234305   2.162   4.194   6.121  0.2673  0.6386 -0.0258
 7616SOL     OW34306   2.152   4.501   5.761  0.1223  0.2915 -0.4423
 7616SOL    HW134307   2.198   4.507   5.677  1.1637  1.9441  0.2481
 7616SOL    HW234308   2.063   4.475   5.736  0.7569 -1.8703 -0.5189
 7617SOL     OW34309   1.679   2.413  12.532 -0.2178 -0.5778 -0.5880
 7617SOL    HW134310   1.630   2.472  12.474 -2.3720 -1.5339  0.2869
 7617SOL    HW234311   1.709   2.471  12.602  1.5836 -0.5540 -1.3732
 7618SOL     OW34312   2.451   0.555   4.418  0.1118  0.1402  1.1477
 7618SOL    HW134313   2.460   0.644   4.450 -0.0661  0.1624  1.1383
 7618SOL    HW234314   2.461   0.557   4.323 -2.1478 -2.5818  0.8462
 7619SOL     OW34315   4.405   4.581  11.726 -0.0165  0.2970 -0.2355
 7619SOL    HW134316   4.385   4.675  11.729  0.5223  0.3505  1.6345
 7619SOL    HW234317   4.403   4.546  11.637  3.7399  1.9567 -0.9720
 7620SOL     OW34318   0.351   4.663  10.609  0.3101  0.0734 -0.2524
 7620SOL    HW134319   0.349   4.612  10.690  0.9840  1.1243  0.4097
 7620SOL    HW234320   0.390   4.602  10.545  0.2815  0.4659 -0.6438
 7621SOL     OW34321   0.194   0.695   1.373  0.2245  0.0316  0.1745
 7621SOL    HW134322   0.168   0.779   1.334  0.3928  0.3637  0.7924
 7621SOL    HW234323   0.278   0.668   1.336 -0.3600 -0.6460 -0.6858
 7622SOL     OW34324   4.049   4.430   9.920 -0.0111 -0.0246  0.1298
 7622SOL    HW134325   4.138   4.461   9.933  1.0925 -3.3630  0.4780
 7622SOL    HW234326   4.047   4.400   9.829  1.0633 -1.7578  0.6830
 7623SOL     OW34327   1.983   3.993   2.687 -0.7194 -0.3624  0.0913
 7623SOL    HW134328   1.926   3.916   2.688 -0.3732 -0.6238 -0.1445
 7623SOL    HW234329   1.986   4.030   2.599 -1.2123  0.7867  0.5684
 7624SOL     OW34330   2.101   3.269   7.413 -0.2162  0.5525  0.4178
 7624SOL    HW134331   2.171   3.205   7.422 -0.6877  0.1133  0.9207
 7624SOL    HW234332   2.055   3.240   7.333  0.2317 -0.3597  0.4921
 7625SOL     OW34333   2.386   4.007   9.384  0.4654 -0.1009  0.3420
 7625SOL    HW134334   2.323   3.937   9.401 -1.0282  0.4799 -2.8673
 7625SOL    HW234335   2.337   4.077   9.342  0.5429  1.0992  2.2643
 7626SOL     OW34336   3.762   1.825  14.673 -0.0048 -0.1721 -0.0657
 7626SOL    HW134337   3.752   1.757  14.606  0.2365 -0.4480  0.1770
 7626SOL    HW234338   3.718   1.785  14.748 -0.3609  1.4817  0.6088
 7627SOL     OW34339   1.637   0.794   4.420  0.4360 -0.0070  0.1042
 7627SOL    HW134340   1.591   0.744   4.353  0.0938 -1.2708  1.3032
 7627SOL    HW234341   1.662   0.867   4.363  1.7488 -0.5768 -0.0546
 7628SOL     OW34342   1.829   0.206  12.813  0.6921 -0.5379  0.2206
 7628SOL    HW134343   1.885   0.265  12.864  1.1295  0.7798 -1.8017
 7628SOL    HW234344   1.854   0.231  12.724  0.3776 -1.5244 -0.1411
 7629SOL     OW34345   4.020   2.012   4.270 -0.3865  0.0848  0.0243
 7629SOL    HW134346   4.059   2.045   4.189 -1.0337 -1.1338 -0.7727
 7629SOL    HW234347   4.093   1.959   4.300 -0.5316 -0.5088 -0.6768
 7630SOL     OW34348   0.740   3.671   7.154  0.3022 -0.1828 -0.4927
 7630SOL    HW134349   0.787   3.606   7.207  0.7767  1.2781  0.8832
 7630SOL    HW234350   0.649   3.641   7.158 -0.5362  2.4743  0.2030
 7631SOL     OW34351   3.753   1.702   2.576 -0.0205  0.5078  0.0550
 7631SOL    HW134352   3.686   1.769   2.564  1.6801  2.6193  2.2881
 7631SOL    HW234353   3.730   1.666   2.662 -0.6946  1.3328  0.2224
 7632SOL     OW34354   4.412   4.649   5.906 -0.6195 -0.3959  0.4062
 7632SOL    HW134355   4.345   4.712   5.879 -1.3975 -0.4858  2.1351
 7632SOL    HW234356   4.433   4.698   5.985 -1.2205 -1.8926  1.5059
 7633SOL     OW34357   2.455   1.369   4.061  0.1160 -0.2545 -0.0233
 7633SOL    HW134358   2.453   1.337   3.971  1.6788 -1.7586  0.4837
 7633SOL    HW234359   2.497   1.454   4.042 -0.0128 -0.2425 -0.2584
 7634SOL     OW34360   3.670   1.206   1.279 -0.6721  0.5478 -0.1635
 7634SOL    HW134361   3.677   1.301   1.270 -0.5557  0.6910  1.3448
 7634SOL    HW234362   3.710   1.166   1.202 -0.9828  1.7834 -0.9741
 7635SOL     OW34363   2.964   3.726   4.491  0.0607 -0.1149 -0.2745
 7635SOL    HW134364   2.953   3.644   4.539  1.7434  0.4422  1.0597
 7635SOL    HW234365   3.043   3.758   4.535  1.8007 -4.0653 -0.5495
 7636SOL     OW34366   0.126   1.521  16.144 -0.5635  0.6850 -0.4165
 7636SOL    HW134367   0.085   1.435  16.156  0.2715  0.3560  0.1016
 7636SOL    HW234368   0.058   1.572  16.100 -2.5055 -0.6055  1.0730
 7637SOL     OW34369   2.657   1.318   0.253  0.5383  0.7375 -0.2230
 7637SOL    HW134370   2.593   1.266   0.205  0.2550  1.7477 -0.9507
 7637SOL    HW234371   2.620   1.407   0.255  1.7658  1.2581 -0.3304
 7638SOL     OW34372   2.652   2.967   6.789  0.1765 -0.2205  0.1307
 7638SOL    HW134373   2.615   3.052   6.814 -0.9538 -0.0779 -2.0429
 7638SOL    HW234374   2.740   3.003   6.784  0.4517 -1.0546 -0.9943
 7639SOL     OW34375   1.631   1.822   8.129  0.0418 -0.4693 -0.1357
 7639SOL    HW134376   1.544   1.791   8.104  0.3968  0.2120 -2.1766
 7639SOL    HW234377   1.638   1.871   8.047 -0.7155  1.5502  1.0125
 7640SOL     OW34378   3.414   3.173   9.610 -0.0031  0.6007  0.0268
 7640SOL    HW134379   3.482   3.150   9.674 -1.1142  0.5147  1.1845
 7640SOL    HW234380   3.437   3.262   9.585 -0.4451  0.2046 -1.7739
 7641SOL     OW34381   4.312   4.386   4.607 -0.7278  0.6212  0.6729
 7641SOL    HW134382   4.270   4.300   4.596 -0.7093  0.8349 -1.0257
 7641SOL    HW234383   4.395   4.376   4.562 -1.1215 -0.3188  0.1457
 7642SOL     OW34384   0.499   0.369   2.493 -0.3971  0.0878 -0.1227
 7642SOL    HW134385   0.554   0.445   2.513  1.4417 -1.5342  0.9195
 7642SOL    HW234386   0.417   0.415   2.476 -0.5495  0.8144  2.6082
 7643SOL     OW34387   1.190   3.650  11.957 -0.2007  0.0061 -0.0261
 7643SOL    HW134388   1.129   3.612  12.021  1.3949  2.8877  3.1664
 7643SOL    HW234389   1.139   3.730  11.943 -1.8354 -1.3001 -1.5732
 7644SOL     OW34390   1.765   4.201   0.964  0.3399  0.3165  0.4390
 7644SOL    HW134391   1.741   4.112   0.989 -0.1355  0.2073 -0.4187
 7644SOL    HW234392   1.790   4.195   0.872  0.7872  2.3218  0.4199
 7645SOL     OW34393   3.455   4.540   5.855  0.1490 -0.0540 -0.0238
 7645SOL    HW134394   3.447   4.518   5.762  1.7517  1.9691 -0.6245
 7645SOL    HW234395   3.547   4.519   5.870  0.4220  0.3590 -1.1324
 7646SOL     OW34396   4.132   1.028   7.235 -0.1285  0.1682  0.3714
 7646SOL    HW134397   4.212   1.052   7.280 -0.1426  2.6930 -0.9531
 7646SOL    HW234398   4.154   0.940   7.203 -1.4267  0.3037 -0.9179
 7647SOL     OW34399   3.729   1.163   1.550  0.0713  0.3941  0.2645
 7647SOL    HW134400   3.817   1.184   1.519  0.0535  1.2488  0.7752
 7647SOL    HW234401   3.679   1.183   1.471 -0.3628 -0.1166  0.4163
 7648SOL     OW34402   3.892   4.392   7.712 -0.1961  0.1854 -0.6646
 7648SOL    HW134403   3.878   4.321   7.774  2.1608 -1.1464 -1.6771
 7648SOL    HW234404   3.981   4.369   7.686  0.5753 -0.1520  2.2634
 7649SOL     OW34405   2.999   1.876   2.257  0.6245 -0.7995  0.2132
 7649SOL    HW134406   2.996   1.781   2.266 -0.6771 -1.1403 -4.1807
 7649SOL    HW234407   2.988   1.905   2.348  0.8361  0.2025 -0.0800
 7650SOL     OW34408   2.602   3.740   8.078  0.0267  0.2855 -0.7919
 7650SOL    HW134409   2.507   3.741   8.067 -0.1932  2.2022  1.2370
 7650SOL    HW234410   2.625   3.652   8.049 -1.0420  0.2512 -1.5235
 7651SOL     OW34411   0.375   1.089  11.771 -0.0130  0.4532  0.1188
 7651SOL    HW134412   0.467   1.067  11.779  0.2444  1.5377  0.1578
 7651SOL    HW234413   0.363   1.171  11.819 -1.3852 -0.4699  1.3852
 7652SOL     OW34414   4.154   3.349   6.058 -0.2692  1.3392 -0.1238
 7652SOL    HW134415   4.188   3.370   6.145 -0.3970 -2.9013  0.9586
 7652SOL    HW234416   4.067   3.387   6.070 -0.2058  0.6189  2.7265
 7653SOL     OW34417   0.613   1.067   7.806  0.7092 -0.3699 -0.1945
 7653SOL    HW134418   0.675   0.996   7.791  0.4824 -0.3666 -1.1239
 7653SOL    HW234419   0.570   1.034   7.885 -2.9321  3.5435 -0.5246
 7654SOL     OW34420   3.010   1.006   8.223  0.2118 -0.0855 -0.0223
 7654SOL    HW134421   2.915   1.010   8.224  0.2371  0.6898 -0.6728
 7654SOL    HW234422   3.021   1.028   8.315  2.9702  1.4289 -0.7085
 7655SOL     OW34423   2.255   1.455  13.400  0.3138 -0.3817  0.8992
 7655SOL    HW134424   2.207   1.427  13.322  1.3535 -1.1740  0.5458
 7655SOL    HW234425   2.180   1.486  13.451 -0.3334 -1.8003  0.8235
 7656SOL     OW34426   4.172   3.469   7.880 -0.1972  0.5966  0.1477
 7656SOL    HW134427   4.095   3.413   7.877  1.0972 -1.0994 -1.1038
 7656SOL    HW234428   4.138   3.535   7.820  1.9767  0.5999 -1.1109
 7657SOL     OW34429   0.002   1.371   7.761 -0.3505 -0.1721  0.2078
 7657SOL    HW134430   4.669   1.428   7.707  1.0362  2.1058  1.2539
 7657SOL    HW234431   0.020   1.426   7.837 -2.0078  1.4931 -0.6211
 7658SOL     OW34432   1.582   2.234   8.823  0.2044  0.1791  0.4032
 7658SOL    HW134433   1.542   2.232   8.736 -0.9189 -2.5170  1.0048
 7658SOL    HW234434   1.629   2.150   8.818 -0.2822 -0.1687  1.7155
 7659SOL     OW34435   2.221   1.545   0.213 -0.3620 -0.2502  0.1577
 7659SOL    HW134436   2.258   1.512   0.132 -0.8929 -1.7781  0.5346
 7659SOL    HW234437   2.153   1.484   0.243  0.0234 -1.0056 -0.4823
 7660SOL     OW34438   1.539   0.109   7.094 -0.2769  0.2336 -0.1172
 7660SOL    HW134439   1.555   0.167   7.020  0.4822 -2.4760 -2.0868
 7660SOL    HW234440   1.619   0.120   7.146 -0.4610  1.0273  0.0056
 7661SOL     OW34441   0.545   2.177   5.470 -0.3913  0.1533 -0.1901
 7661SOL    HW134442   0.561   2.268   5.443 -1.5347  0.7137  1.0016
 7661SOL    HW234443   0.585   2.141   5.392 -1.8903 -1.4167 -0.2345
 7662SOL     OW34444   1.751   2.219   8.065  0.5000 -0.0015 -0.2608
 7662SOL    HW134445   1.845   2.211   8.083  0.3122 -2.4133 -0.2769
 7662SOL    HW234446   1.754   2.236   7.971 -0.1523 -0.9707 -0.4561
 7663SOL     OW34447   1.727   2.981   2.966 -0.6169  0.4229  0.1441
 7663SOL    HW134448   1.652   2.960   2.909  0.1905 -0.9595 -0.4173
 7663SOL    HW234449   1.683   3.047   3.019  1.9805  0.7895  1.8105
 7664SOL     OW34450   1.656   2.137   5.690  0.3132  0.0232  0.4169
 7664SOL    HW134451   1.650   2.184   5.773  1.5801 -0.1918  0.6232
 7664SOL    HW234452   1.703   2.207   5.645  0.0971 -0.2810 -0.2910
 7665SOL     OW34453   3.957   1.812   3.653 -0.1820  0.0277  0.2182
 7665SOL    HW134454   4.030   1.842   3.599  0.6036  0.4070  1.4774
 7665SOL    HW234455   3.947   1.729   3.607 -0.6789  0.0064  0.3607
 7666SOL     OW34456   0.702   3.028  10.831 -0.0157  0.5398  0.2018
 7666SOL    HW134457   0.635   3.080  10.788 -1.9580 -3.1006 -1.1768
 7666SOL    HW234458   0.678   2.935  10.827  2.7807 -0.2831  2.1324
 7667SOL     OW34459   0.771   2.039   5.308  0.2977 -0.0969 -0.1955
 7667SOL    HW134460   0.806   2.121   5.274 -1.6151  0.6616 -0.3473
 7667SOL    HW234461   0.678   2.042   5.285  0.5973  3.0757 -0.9285
 7668SOL     OW34462   3.803   2.789   6.736 -0.0136  0.2462  0.0909
 7668SOL    HW134463   3.761   2.743   6.808 -0.2348  0.3962  0.0565
 7668SOL    HW234464   3.896   2.784   6.761  0.2815  0.5888 -0.9603
 7669SOL     OW34465   3.164   1.756  15.577 -0.7112  0.0110  0.0712
 7669SOL    HW134466   3.251   1.737  15.612 -0.7333 -1.1935 -0.5028
 7669SOL    HW234467   3.163   1.850  15.563 -0.9545  0.2127  1.4124
 7670SOL     OW34468   0.767   4.543   6.952  0.3387 -0.3674 -0.7894
 7670SOL    HW134469   0.828   4.589   6.895  0.4881  0.6832  0.2147
 7670SOL    HW234470   0.691   4.547   6.893  1.1825 -0.0519 -1.8525
 7671SOL     OW34471   1.250   0.851  11.982 -0.3991 -0.2274  0.1852
 7671SOL    HW134472   1.296   0.770  12.002  0.5851  0.6857  1.6579
 7671SOL    HW234473   1.323   0.913  11.979  0.0448 -0.9153 -3.2491
 7672SOL     OW34474   0.977   4.024   5.723 -0.0564  0.4067  0.1981
 7672SOL    HW134475   0.884   4.025   5.701  0.1690 -0.5427 -0.8343
 7672SOL    HW234476   1.006   3.981   5.642 -0.7921 -0.8509  0.6043
 7673SOL     OW34477   3.552   4.617   7.483 -1.0319  0.4548 -0.1942
 7673SOL    HW134478   3.563   4.681   7.553  2.1510 -0.5460  0.2233
 7673SOL    HW234479   3.478   4.564   7.514 -1.0453  0.0829 -0.8750
 7674SOL     OW34480   2.117   2.487  11.082 -0.4555  0.4378  0.0941
 7674SOL    HW134481   2.081   2.433  11.011 -1.4824 -0.2251  1.1082
 7674SOL    HW234482   2.190   2.434  11.113 -1.4462 -0.0642  1.6041
 7675SOL     OW34483   3.854   4.695   3.034  0.4887  0.5608 -0.0754
 7675SOL    HW134484   3.920   4.636   3.071 -1.3498 -1.5141 -0.1682
 7675SOL    HW234485   3.889   4.710   2.946 -0.0145 -0.1997 -0.4012
 7676SOL     OW34486   3.547   0.100   9.954  0.2256  0.1870  0.2269
 7676SOL    HW134487   3.640   0.112   9.968  0.3587 -0.2270 -0.2779
 7676SOL    HW234488   3.512   0.158  10.021 -1.0461  0.7327 -0.9031
 7677SOL     OW34489   0.930   1.945   4.659  0.0703  0.1074 -0.0610
 7677SOL    HW134490   0.882   1.951   4.742  2.3859  0.1927  1.2600
 7677SOL    HW234491   0.859   1.937   4.595  1.2304 -0.4953 -1.2640
 7678SOL     OW34492   1.312   0.255   0.180 -0.1527  0.4914 -0.3810
 7678SOL    HW134493   1.355   0.339   0.170  2.2386 -0.8442 -1.3989
 7678SOL    HW234494   1.353   0.213   0.256 -2.2417  0.4918  0.7268
 7679SOL     OW34495   1.761   2.269   2.330  0.2076  0.1366 -0.1877
 7679SOL    HW134496   1.843   2.235   2.297  0.6690 -1.8376  2.9921
 7679SOL    HW234497   1.730   2.319   2.255  0.8123  1.3416  0.3604
 7680SOL     OW34498   0.065   2.786   7.543  0.2552  0.1623 -0.5413
 7680SOL    HW134499   0.059   2.880   7.525 -0.2823 -0.0149 -1.2770
 7680SOL    HW234500   4.707   2.771   7.597 -0.1666 -0.1697 -1.2363
 7681SOL     OW34501   2.464   2.157   6.220 -0.0551 -0.1489 -0.2328
 7681SOL    HW134502   2.528   2.105   6.172 -1.1121  1.0341 -2.9454
 7681SOL    HW234503   2.525   2.211   6.270 -0.7576  1.0957 -0.7178
 7682SOL     OW34504   3.786   1.562   4.875 -0.0866 -0.0433  0.2227
 7682SOL    HW134505   3.819   1.476   4.852 -1.0161  0.3480 -2.6100
 7682SOL    HW234506   3.858   1.614   4.838 -0.5567  0.4501 -0.0069
 7683SOL     OW34507   3.903   3.291  12.929  0.2317 -0.2890 -0.7590
 7683SOL    HW134508   3.989   3.326  12.954  0.8998 -1.2255 -1.7969
 7683SOL    HW234509   3.852   3.339  12.995 -1.5253 -0.8013 -1.7772
 7684SOL     OW34510   2.375   1.717   8.493 -0.1217  0.8296 -0.3026
 7684SOL    HW134511   2.366   1.646   8.430 -1.1553 -0.2676  1.0906
 7684SOL    HW234512   2.449   1.689   8.547  0.5104 -1.3290 -2.3223
 7685SOL     OW34513   3.746   2.299  13.681 -0.0871 -0.6050  0.2593
 7685SOL    HW134514   3.667   2.316  13.630 -0.4781 -0.6904  0.8307
 7685SOL    HW234515   3.715   2.317  13.770 -1.2288  3.1114 -0.9050
 7686SOL     OW34516   3.942   3.949  13.628 -0.8424 -0.2628 -0.7486
 7686SOL    HW134517   3.923   4.034  13.588  2.8208  0.2739 -1.3402
 7686SOL    HW234518   3.960   3.977  13.717 -1.2130 -0.0484 -0.7415
 7687SOL     OW34519   3.706   0.503  10.476 -0.5540  0.3865  0.4826
 7687SOL    HW134520   3.794   0.500  10.437 -1.1076  0.2494 -0.7501
 7687SOL    HW234521   3.727   0.431  10.537  1.6227 -0.4915 -1.2733
 7688SOL     OW34522   2.778   4.005   5.454 -0.0637 -0.3609 -0.4567
 7688SOL    HW134523   2.701   4.049   5.491  0.2894  0.5807 -0.8419
 7688SOL    HW234524   2.844   4.066   5.487 -0.3701 -0.8086  0.9910
 7689SOL     OW34525   0.815   4.290   1.150 -0.0775 -0.1473  0.2459
 7689SOL    HW134526   0.798   4.372   1.197  0.3489 -1.0173  1.9107
 7689SOL    HW234527   0.740   4.233   1.165 -1.2337  0.9506 -1.3134
 7690SOL     OW34528   1.221   1.087   5.747  0.1940  0.2749  0.5768
 7690SOL    HW134529   1.309   1.117   5.725  0.4686 -1.6873 -0.9126
 7690SOL    HW234530   1.181   1.080   5.661  1.1499 -1.1077  0.2441
 7691SOL     OW34531   0.906   4.646   6.508  0.0642  0.9091 -0.2675
 7691SOL    HW134532   0.917   4.675   6.599  1.5503  1.4015 -0.6006
 7691SOL    HW234533   0.972   4.578   6.493 -0.6045 -0.0405  1.1169
 7692SOL     OW34534   1.266   1.457   0.784 -0.7659 -0.0242 -0.1372
 7692SOL    HW134535   1.357   1.480   0.802 -0.1017 -1.7297 -1.2682
 7692SOL    HW234536   1.242   1.491   0.698 -0.0658 -2.0912 -1.1530
 7693SOL     OW34537   2.077   0.085  16.477 -0.2289  0.6541 -0.1373
 7693SOL    HW134538   2.102   0.057  16.389 -0.1057 -0.8131  0.3590
 7693SOL    HW234539   2.039   0.006  16.515 -0.3306 -0.5882 -2.8280
 7694SOL     OW34540   1.482   4.173   3.109 -0.4650 -0.2564 -0.0390
 7694SOL    HW134541   1.561   4.130   3.144 -1.0679 -0.2711  1.3140
 7694SOL    HW234542   1.422   4.099   3.124  2.2324 -2.7681 -1.6385
 7695SOL     OW34543   4.297   0.382   6.539 -0.9592  0.4255 -0.9307
 7695SOL    HW134544   4.331   0.311   6.594 -2.3868 -0.3721 -1.0849
 7695SOL    HW234545   4.367   0.382   6.474 -0.2855  0.8697 -0.2113
 7696SOL     OW34546   2.991   4.277   4.558  0.2601 -0.2895 -0.4944
 7696SOL    HW134547   2.972   4.322   4.475 -0.0457 -0.7059 -0.6483
 7696SOL    HW234548   3.033   4.196   4.528 -1.7265 -1.0832 -1.1797
 7697SOL     OW34549   2.527   1.813   0.225 -0.4563  0.4613 -0.2033
 7697SOL    HW134550   2.442   1.826   0.182 -0.4039  0.3626 -0.3361
 7697SOL    HW234551   2.570   1.895   0.201 -0.4374  0.8681  1.2264
 7698SOL     OW34552   1.239   3.851   6.440  0.0145  0.0856  0.1265
 7698SOL    HW134553   1.166   3.820   6.495  0.9817  0.1987  1.4774
 7698SOL    HW234554   1.279   3.768   6.416  0.2683  1.0131 -2.6080
 7699SOL     OW34555   0.474   4.626   5.729 -0.4043 -0.6608 -0.3599
 7699SOL    HW134556   0.492   4.582   5.812  0.1926 -1.8590 -1.1158
 7699SOL    HW234557   0.566   4.629   5.700  0.0111  0.1982  1.0480
 7700SOL     OW34558   0.529   1.676  13.265  0.1324 -0.2293  0.3085
 7700SOL    HW134559   0.563   1.647  13.181  0.2229 -0.7147  0.5142
 7700SOL    HW234560   0.598   1.729  13.306 -0.5607  0.1344  1.0085
 7701SOL     OW34561   1.919   3.910  14.393 -0.0642 -0.5120  0.4194
 7701SOL    HW134562   2.012   3.933  14.389 -0.3385  0.9810  2.1140
 7701SOL    HW234563   1.880   3.983  14.443 -0.2078  0.2281 -0.7834
 7702SOL     OW34564   1.147   2.914   5.429 -0.2419 -0.2822  0.4624
 7702SOL    HW134565   1.185   2.861   5.498  0.0827 -0.4553  0.1486
 7702SOL    HW234566   1.149   2.997   5.476 -0.7690 -0.2083  0.3559
 7703SOL     OW34567   4.494   2.439   8.510  0.2817  0.0263  0.4728
 7703SOL    HW134568   4.418   2.491   8.534 -1.8733 -1.6988 -2.6094
 7703SOL    HW234569   4.450   2.355   8.497  0.7647 -0.1974  0.2542
 7704SOL     OW34570   3.263   0.112   7.416  0.0729 -0.1241  0.1971
 7704SOL    HW134571   3.323   0.070   7.353 -1.8047 -1.7117 -0.5292
 7704SOL    HW234572   3.190   0.050   7.418 -1.4259  1.6943  0.9053
 7705SOL     OW34573   3.926   0.217  10.886 -0.1499  0.7254  0.4013
 7705SOL    HW134574   4.005   0.251  10.844 -0.1490 -0.2701 -0.4125
 7705SOL    HW234575   3.938   0.261  10.971  0.1020  0.9548  0.2491
 7706SOL     OW34576   1.632   1.428   5.449  0.4469  0.0061 -0.1662
 7706SOL    HW134577   1.561   1.452   5.507 -0.2367 -2.3652 -0.0041
 7706SOL    HW234578   1.585   1.424   5.365 -1.0887 -2.1166  0.7830
 7707SOL     OW34579   1.119   1.426   2.305 -0.5015 -0.2952 -0.0021
 7707SOL    HW134580   1.111   1.410   2.211  1.2592  0.3245 -0.2622
 7707SOL    HW234581   1.175   1.352   2.328 -1.4312 -0.6390  1.1375
 7708SOL     OW34582   2.246   1.468  14.713 -0.1955  0.1326 -0.0208
 7708SOL    HW134583   2.238   1.562  14.727 -1.9283  0.1636 -1.1430
 7708SOL    HW234584   2.174   1.429  14.762 -0.0809  0.1590  0.1684
 7709SOL     OW34585   2.096   4.631  11.695 -0.4828 -0.0459 -0.1829
 7709SOL    HW134586   2.139   4.651  11.778  0.2297  0.8017 -0.7374
 7709SOL    HW234587   2.110   4.539  11.675  2.3807  0.4102 -0.3676
 7710SOL     OW34588   0.697   0.757   4.455  0.1835  0.2436  0.4823
 7710SOL    HW134589   0.731   0.836   4.413 -1.1027 -0.2300 -1.4645
 7710SOL    HW234590   0.621   0.795   4.497 -0.4703 -0.6809  0.1428
 7711SOL     OW34591   3.909   1.926  17.578 -0.3037  0.0468 -0.3371
 7711SOL    HW134592   3.841   1.945  17.642 -0.0127 -0.9126  0.2587
 7711SOL    HW234593   3.968   1.871  17.629  1.0295  1.1677 -0.6634
 7712SOL     OW34594   1.917   0.485   5.999  0.2272  0.2936 -0.1494
 7712SOL    HW134595   1.978   0.525   5.936  1.7114 -1.0617  0.4295
 7712SOL    HW234596   1.925   0.390   5.986 -1.5016 -0.0551  1.3593
 7713SOL     OW34597   0.234   0.159   4.354  0.9143  0.2903 -0.0319
 7713SOL    HW134598   0.324   0.128   4.342  0.2742 -0.7490 -2.2383
 7713SOL    HW234599   0.238   0.251   4.328  0.8295 -0.5072 -2.9386
 7714SOL     OW34600   1.272   1.009  15.357  0.1391  0.0092 -0.3569
 7714SOL    HW134601   1.214   1.047  15.423 -0.6934  0.0588 -1.1191
 7714SOL    HW234602   1.229   1.049  15.282  2.1414  1.4469 -0.7414
 7715SOL     OW34603   1.647   4.679   1.617 -0.4445 -0.3759  0.4337
 7715SOL    HW134604   1.651   4.666   1.522 -0.2351 -1.3692  0.5811
 7715SOL    HW234605   1.735   4.716   1.625 -0.3637 -0.6287  0.6909
 7716SOL     OW34606   1.914   2.360   5.287  0.4756  0.2664  0.1501
 7716SOL    HW134607   1.981   2.428   5.278 -0.0374  0.6363 -0.7682
 7716SOL    HW234608   1.965   2.279   5.277  0.6892  0.4188  0.0079
 7717SOL     OW34609   3.284   0.499   0.566 -0.1433  0.3882  0.3011
 7717SOL    HW134610   3.196   0.476   0.597 -0.4332  0.7373 -0.2412
 7717SOL    HW234611   3.293   0.580   0.616 -0.1400  0.9569 -0.6103
 7718SOL     OW34612   2.825   4.520   9.196  0.5278  0.0553 -0.3346
 7718SOL    HW134613   2.850   4.533   9.105  3.1068 -0.5392  0.2839
 7718SOL    HW234614   2.731   4.533   9.182  0.4964 -1.0475 -1.1455
 7719SOL     OW34615   0.238   3.893   4.949  0.2820  0.7395  0.2323
 7719SOL    HW134616   0.204   3.983   4.941 -0.4338  0.3255 -1.3920
 7719SOL    HW234617   0.164   3.846   4.987  1.2127 -2.0144 -1.3434
 7720SOL     OW34618   3.920   2.135   9.017 -0.3051 -0.4922  0.0531
 7720SOL    HW134619   3.923   2.215   9.069 -2.8813 -1.1153  1.1563
 7720SOL    HW234620   3.890   2.179   8.937 -0.7201  1.0433  1.0512
 7721SOL     OW34621   4.425   0.626  13.083 -0.1085  0.0568  0.5383
 7721SOL    HW134622   4.429   0.587  13.170  0.8492  1.0352  0.9384
 7721SOL    HW234623   4.510   0.668  13.069  0.0661 -0.9183 -1.2494
 7722SOL     OW34624   3.978   2.867   9.244 -0.5594  0.0648  0.3118
 7722SOL    HW134625   4.051   2.859   9.306 -1.4566  0.3358  1.4039
 7722SOL    HW234626   3.954   2.957   9.266 -1.6085 -0.3950  1.0535
 7723SOL     OW34627   1.382   1.875   6.297  0.0720 -0.0867 -0.4755
 7723SOL    HW134628   1.448   1.942   6.280 -1.4159  1.9270  1.6366
 7723SOL    HW234629   1.357   1.891   6.389  0.6187 -0.1799 -0.3115
 7724SOL     OW34630   3.583   3.005   6.911  0.1407  0.0456  0.2327
 7724SOL    HW134631   3.676   2.982   6.903  0.4665  0.8839  1.4184
 7724SOL    HW234632   3.572   3.000   7.006 -2.3839 -1.3688 -0.1489
 7725SOL     OW34633   2.139   0.194   8.682  0.0647 -0.5937  0.3039
 7725SOL    HW134634   2.113   0.151   8.601 -2.1179  0.9432  0.1783
 7725SOL    HW234635   2.098   0.138   8.748  2.4197 -0.5803  1.7787
 7726SOL     OW34636   1.128   3.137   8.156 -0.3389 -0.4197  0.4243
 7726SOL    HW134637   1.085   3.060   8.194  0.3326 -0.8617  0.2923
 7726SOL    HW234638   1.187   3.172   8.223  0.3248  1.3019 -1.0559
 7727SOL     OW34639   3.932   3.411   8.186  0.3235  0.4288 -0.2193
 7727SOL    HW134640   3.934   3.403   8.281  2.6351 -0.4847 -0.3572
 7727SOL    HW234641   3.969   3.329   8.154 -0.1965  0.1268 -0.0523
 7728SOL     OW34642   1.629   2.896   2.468  0.3909  0.1890  0.1258
 7728SOL    HW134643   1.682   2.825   2.432 -0.4133 -0.1024 -0.4868
 7728SOL    HW234644   1.648   2.970   2.410 -0.2147  0.4216  0.2216
 7729SOL     OW34645   3.098   0.458  17.297 -0.2032 -0.6963 -0.8635
 7729SOL    HW134646   3.186   0.484  17.269 -0.4013  2.4343  1.4688
 7729SOL    HW234647   3.121   0.399  17.368  2.9669 -1.0613 -2.1747
 7730SOL     OW34648   1.420   1.687  15.823  0.2971 -0.0386 -0.4577
 7730SOL    HW134649   1.348   1.749  15.811 -0.2115 -0.2063  1.8655
 7730SOL    HW234650   1.441   1.704  15.915 -1.5811  0.4053 -0.1089
 7731SOL     OW34651   3.982   2.033  16.997 -0.3700  0.0703 -0.0472
 7731SOL    HW134652   3.970   1.991  16.912 -1.9360 -0.4231  0.4227
 7731SOL    HW234653   4.072   2.024  17.027 -0.4409 -3.2249 -0.8227
 7732SOL     OW34654   2.084   1.252   0.630 -0.2625  0.0472  0.3184
 7732SOL    HW134655   2.166   1.271   0.674 -1.0040 -1.7183  2.4878
 7732SOL    HW234656   2.015   1.297   0.678  1.2792  2.0042  0.6954
 7733SOL     OW34657   0.626   0.428   7.606  0.2952 -0.2537 -0.3586
 7733SOL    HW134658   0.657   0.500   7.661  2.3682 -1.3250 -0.1305
 7733SOL    HW234659   0.566   0.476   7.549 -1.9356 -0.1029  2.0752
 7734SOL     OW34660   2.446   1.341   3.783 -0.1231  0.2759  0.3790
 7734SOL    HW134661   2.385   1.406   3.751 -1.8300 -0.9199  1.1982
 7734SOL    HW234662   2.474   1.289   3.707  2.8670  0.6218  1.2218
 7735SOL     OW34663   2.519   3.893   4.515  0.0636  0.3777 -0.5772
 7735SOL    HW134664   2.570   3.842   4.451 -0.8003  2.0508 -2.5829
 7735SOL    HW234665   2.570   3.974   4.513  0.2866  0.2654  0.3360
 7736SOL     OW34666   2.377   1.905   4.645  0.0319 -0.3817 -0.3002
 7736SOL    HW134667   2.463   1.873   4.670  0.3067  1.4375  1.0684
 7736SOL    HW234668   2.335   1.880   4.727  0.3714 -2.6048 -0.8042
 7737SOL     OW34669   2.946   1.252   3.888 -0.1397 -0.2488 -0.0894
 7737SOL    HW134670   2.914   1.164   3.906 -1.5813 -0.0492 -1.6950
 7737SOL    HW234671   2.870   1.301   3.918 -0.1554 -1.9814  2.6705
 7738SOL     OW34672   1.875   0.478  17.235  0.0200 -0.0685  0.0965
 7738SOL    HW134673   1.789   0.519  17.226 -0.8490 -2.1375 -1.1446
 7738SOL    HW234674   1.907   0.485  17.145  0.2350 -0.0526  0.1741
 7739SOL     OW34675   4.561   2.037   9.038  0.4771 -0.2626 -0.1418
 7739SOL    HW134676   4.475   2.021   8.999 -0.2085  0.5621  1.0286
 7739SOL    HW234677   4.618   1.981   8.985  1.3338 -1.3524  1.9594
 7740SOL     OW34678   2.992   2.898  15.257  0.2554 -0.7846 -0.1130
 7740SOL    HW134679   2.900   2.921  15.269  0.5348 -0.0893  0.6595
 7740SOL    HW234680   3.005   2.891  15.162 -2.4728  3.5301 -0.7721
 7741SOL     OW34681   3.404   0.604   4.360 -0.2607 -0.3499 -0.2907
 7741SOL    HW134682   3.389   0.686   4.314  1.6108 -0.1115 -0.4697
 7741SOL    HW234683   3.355   0.622   4.441 -0.0593  1.1490 -0.5110
 7742SOL     OW34684   4.579   4.262   5.727 -0.2432  0.1965  0.0461
 7742SOL    HW134685   4.624   4.346   5.717  1.1573 -0.5912 -0.3527
 7742SOL    HW234686   4.568   4.235   5.635 -0.6690  0.4423  0.0252
 7743SOL     OW34687   0.359   3.479   8.872  0.0590  0.2222 -0.2223
 7743SOL    HW134688   0.322   3.527   8.945 -1.3158  0.9610 -1.4100
 7743SOL    HW234689   0.344   3.530   8.793 -0.2999  1.5133  0.6913
 7744SOL     OW34690   1.106   2.242  14.153  0.2189  0.5925  0.0709
 7744SOL    HW134691   1.192   2.200  14.153  0.4462  1.0622 -0.7894
 7744SOL    HW234692   1.104   2.292  14.071 -0.0793  1.7472  0.7840
 7745SOL     OW34693   2.255   0.832   4.025 -0.2202 -0.0833 -0.2030
 7745SOL    HW134694   2.310   0.906   4.000  0.7495 -0.6119  0.3724
 7745SOL    HW234695   2.185   0.882   4.066  0.3424  0.3144  0.2627
 7746SOL     OW34696   4.114   0.796   6.317  0.6338 -0.0488 -0.1461
 7746SOL    HW134697   4.137   0.846   6.396 -2.7229  0.0138  0.7619
 7746SOL    HW234698   4.185   0.823   6.258  1.6886 -0.4085  0.9570
 7747SOL     OW34699   0.587   2.822   9.808  0.0628  0.8282  0.5322
 7747SOL    HW134700   0.595   2.743   9.754  1.3061  0.3241  1.4754
 7747SOL    HW234701   0.515   2.800   9.867 -1.8655  1.2975 -1.6404
 7748SOL     OW34702   2.495   3.240  12.360 -0.0118 -0.2188  0.5995
 7748SOL    HW134703   2.401   3.225  12.375 -0.0065 -0.1854  0.6695
 7748SOL    HW234704   2.532   3.189  12.432 -1.0891 -3.2188 -0.9593
 7749SOL     OW34705   0.645   4.419   8.434 -0.2274  0.2409 -0.1424
 7749SOL    HW134706   0.628   4.430   8.528 -1.2764 -1.2216 -0.1712
 7749SOL    HW234707   0.729   4.465   8.424 -0.4088  0.2230 -1.7893
 7750SOL     OW34708   3.759   0.374   3.418 -0.4077  0.0079 -0.0096
 7750SOL    HW134709   3.793   0.323   3.491  0.1218 -0.8635 -0.8593
 7750SOL    HW234710   3.815   0.352   3.343 -0.8147  2.8718 -1.1457
 7751SOL     OW34711   3.771   0.915  16.284  0.3105  0.1926  0.0415
 7751SOL    HW134712   3.741   0.978  16.219 -0.6868  0.6566  0.9401
 7751SOL    HW234713   3.693   0.863  16.302 -1.4172  2.6731 -0.2242
 7752SOL     OW34714   4.473   1.891   2.072  0.0541 -0.2694 -0.5119
 7752SOL    HW134715   4.461   1.972   2.122  0.5524 -1.5071  1.6068
 7752SOL    HW234716   4.541   1.911   2.008 -1.0756  0.8647 -1.3411
 7753SOL     OW34717   2.505   2.574  10.120  0.4311 -0.2026  0.9609
 7753SOL    HW134718   2.411   2.568  10.108  0.4441 -1.6425  1.6196
 7753SOL    HW234719   2.512   2.639  10.191 -0.7212 -0.1179  0.9906
 7754SOL     OW34720   3.774   1.670  11.102  0.5386 -0.0101 -0.5639
 7754SOL    HW134721   3.748   1.638  11.016  0.8898  1.2919 -1.1610
 7754SOL    HW234722   3.869   1.660  11.110  0.6360  1.7201  0.5517
 7755SOL     OW34723   2.725   4.131   3.338  0.2215  0.5634  0.4364
 7755SOL    HW134724   2.759   4.212   3.375  1.4339  0.0363  0.4692
 7755SOL    HW234725   2.704   4.162   3.250 -0.4523  1.1949  0.8173
 7756SOL     OW34726   3.555   3.613  15.929 -0.0035  0.0538 -0.1226
 7756SOL    HW134727   3.631   3.626  15.872 -0.6383 -0.5619 -1.1091
 7756SOL    HW234728   3.593   3.542  15.981  2.1313  0.3861 -1.2110
 7757SOL     OW34729   4.706   1.410  15.239 -0.3116 -0.5143 -0.0034
 7757SOL    HW134730   4.619   1.433  15.271 -0.4512  1.0323 -1.4904
 7757SOL    HW234731   4.715   1.315  15.233  1.6864 -0.1611 -2.5799
 7758SOL     OW34732   2.127   2.907   2.837 -0.1858 -0.1756  0.1511
 7758SOL    HW134733   2.095   2.840   2.777  0.5763 -1.6580  1.3840
 7758SOL    HW234734   2.219   2.884   2.842 -0.0157  0.1629 -1.4562
 7759SOL     OW34735   1.491   0.788   1.298  0.3499  0.3524  0.1330
 7759SOL    HW134736   1.398   0.807   1.281  0.5633  0.8266 -0.4829
 7759SOL    HW234737   1.488   0.738   1.380  0.6357  3.3685  2.0031
 7760SOL     OW34738   2.228   2.805  12.893 -0.1816  0.1730 -0.0584
 7760SOL    HW134739   2.174   2.840  12.823  1.0507 -2.2108 -2.2245
 7760SOL    HW234740   2.231   2.872  12.961 -0.7322  0.0087  0.1242
 7761SOL     OW34741   4.669   1.054  16.313  0.2670  0.0752 -0.3247
 7761SOL    HW134742   4.623   1.084  16.392  0.2960 -1.1623  0.1629
 7761SOL    HW234743   0.025   1.001  16.338 -1.3205 -0.6377  3.0368
 7762SOL     OW34744   1.813   3.343   4.747 -0.2591  0.1174  0.1744
 7762SOL    HW134745   1.751   3.308   4.683  0.8570 -0.6547 -0.4847
 7762SOL    HW234746   1.891   3.315   4.699 -0.0051  2.4411 -0.7356
 7763SOL     OW34747   0.325   0.493  10.372 -0.1005  1.0153  0.8401
 7763SOL    HW134748   0.384   0.550  10.421 -0.7043  2.6490 -0.3463
 7763SOL    HW234749   0.286   0.440  10.443  0.0943 -1.7801 -1.1467
 7764SOL     OW34750   0.148   3.607   1.451 -0.5357  0.4050 -0.4881
 7764SOL    HW134751   0.191   3.565   1.376  0.5249  1.1196 -0.2849
 7764SOL    HW234752   0.217   3.593   1.516 -1.1080 -1.1977 -0.2211
 7765SOL     OW34753   2.237   0.989   4.988  0.7588 -0.1824  0.6051
 7765SOL    HW134754   2.167   0.976   4.924  0.8409  0.9086  0.2908
 7765SOL    HW234755   2.200   1.002   5.075 -1.3212 -1.8242 -0.0513
 7766SOL     OW34756   3.483   1.984   6.052 -0.2655 -0.1176  0.6153
 7766SOL    HW134757   3.484   2.076   6.025 -0.8323 -1.0174 -2.4270
 7766SOL    HW234758   3.556   1.979   6.114  0.7470 -0.0942 -0.5889
 7767SOL     OW34759   1.560   2.295   5.304  0.0331 -0.0489 -0.1060
 7767SOL    HW134760   1.480   2.309   5.353  0.3472  0.9846  0.1203
 7767SOL    HW234761   1.555   2.200   5.293  1.9444 -0.2127  0.4500
 7768SOL     OW34762   0.565   1.375  16.815  0.6224 -0.4711 -0.1348
 7768SOL    HW134763   0.537   1.406  16.729 -0.2475  0.8030  0.6179
 7768SOL    HW234764   0.615   1.453  16.839  1.7366 -0.0648 -3.7670
 7769SOL     OW34765   0.711   3.913   8.591 -0.3205  0.0939  0.2738
 7769SOL    HW134766   0.697   4.000   8.553  1.0342  0.0785 -0.2569
 7769SOL    HW234767   0.778   3.942   8.653  0.9444  0.2665 -1.1791
 7770SOL     OW34768   4.293   0.900  10.617  0.0037  0.3170 -0.4105
 7770SOL    HW134769   4.336   0.868  10.538 -0.3687 -0.6506 -0.2181
 7770SOL    HW234770   4.334   0.843  10.682  0.2813  0.9006 -0.0738
 7771SOL     OW34771   1.330   3.684   2.939  0.3014  0.0245  0.1368
 7771SOL    HW134772   1.289   3.628   2.872 -0.5277 -0.0835  0.7249
 7771SOL    HW234773   1.419   3.651   2.930  1.5388  2.9479  1.9011
 7772SOL     OW34774   0.272   1.452   5.248  0.2309 -0.0807  0.5623
 7772SOL    HW134775   0.220   1.389   5.298  2.4208 -3.2989 -1.2073
 7772SOL    HW234776   0.359   1.413   5.263  0.2181 -0.5259 -0.5469
 7773SOL     OW34777   0.522   0.023   2.631 -0.1430 -0.5130 -0.1708
 7773SOL    HW134778   0.480   0.108   2.642  1.2946  0.4862 -2.4267
 7773SOL    HW234779   0.456   4.684   2.667 -1.3770  0.9332 -0.0748
 7774SOL     OW34780   3.744   1.469   1.019 -0.1017 -0.3328 -0.1135
 7774SOL    HW134781   3.723   1.491   1.110 -0.8648 -1.6501  0.0415
 7774SOL    HW234782   3.705   1.382   1.004  1.0328 -1.0043  0.8087
 7775SOL     OW34783   4.053   4.405   5.771  0.3475 -0.4337 -0.2382
 7775SOL    HW134784   4.148   4.404   5.760  0.5990  1.8900  1.7753
 7775SOL    HW234785   4.038   4.319   5.811  3.1785 -1.4843 -1.5115
 7776SOL     OW34786   3.412   1.530   3.206 -0.3586  0.5065 -0.9136
 7776SOL    HW134787   3.350   1.458   3.218 -1.1227  0.6460 -3.8281
 7776SOL    HW234788   3.359   1.610   3.219 -1.6444 -0.4652 -0.1583
 7777SOL     OW34789   1.952   2.844   6.885  0.0827  0.1715 -0.4176
 7777SOL    HW134790   1.859   2.862   6.876 -0.2397 -0.8190  1.1600
 7777SOL    HW234791   1.986   2.892   6.809  3.6626 -2.2627 -0.3675
 7778SOL     OW34792   1.899   1.024   0.318 -0.0085  0.4674 -0.3117
 7778SOL    HW134793   1.874   1.074   0.240  4.3284  1.0227 -1.3517
 7778SOL    HW234794   1.930   0.945   0.273  1.6578  0.5157  0.7489
 7779SOL     OW34795   1.924   3.852   1.253  0.2318 -0.0850  0.3647
 7779SOL    HW134796   1.879   3.890   1.178  0.2144  0.5319  0.6896
 7779SOL    HW234797   1.863   3.785   1.282 -0.5651  0.3417 -0.3484
 7780SOL     OW34798   0.489   0.407  17.149 -0.1115  0.1656  0.2926
 7780SOL    HW134799   0.562   0.469  17.150 -0.2878  0.3765 -0.0470
 7780SOL    HW234800   0.521   0.328  17.194 -1.2020 -0.2321  0.3812
 7781SOL     OW34801   2.446   2.334   1.092  0.1970  0.2472 -0.1197
 7781SOL    HW134802   2.464   2.395   1.021 -0.1003  1.2717  0.6816
 7781SOL    HW234803   2.376   2.280   1.057 -1.4168  1.6507  0.9397
 7782SOL     OW34804   1.443   1.214   1.852  0.0894 -0.0277  0.6145
 7782SOL    HW134805   1.365   1.233   1.799  0.6781  0.5200 -0.0569
 7782SOL    HW234806   1.428   1.280   1.920  0.0979  1.3545 -0.7260
 7783SOL     OW34807   1.659   0.829   7.349 -0.6769  0.3810 -0.5580
 7783SOL    HW134808   1.633   0.907   7.398  0.6588  0.8975 -0.6611
 7783SOL    HW234809   1.745   0.810   7.385 -1.0922  1.5587  1.0196
 7784SOL     OW34810   2.057   4.084   2.435  0.0199  0.4160 -0.0377
 7784SOL    HW134811   1.998   4.046   2.369  1.0732  0.2924 -0.9045
 7784SOL    HW234812   2.023   4.173   2.442 -0.7115  0.1101  0.3088
 7785SOL     OW34813   1.486   2.548   0.328 -0.3371 -1.3061 -0.0120
 7785SOL    HW134814   1.536   2.527   0.249 -1.6298  2.2549 -1.7818
 7785SOL    HW234815   1.554   2.546   0.395 -0.6603  2.8957  0.4692
 7786SOL     OW34816   3.396   0.855   4.223 -0.2853 -0.8463  0.0321
 7786SOL    HW134817   3.317   0.843   4.171 -0.0828  0.0523 -0.5015
 7786SOL    HW234818   3.398   0.941   4.266  4.4591 -0.4477 -0.9187
 7787SOL     OW34819   1.932   0.076   3.957 -0.4738 -0.0364  0.5143
 7787SOL    HW134820   1.978   0.159   3.967  0.0437 -0.4132  1.2564
 7787SOL    HW234821   1.988   0.044   3.886  0.2328  1.5182  0.3830
 7788SOL     OW34822   4.395   2.332   3.379  0.2021 -0.4802  0.2031
 7788SOL    HW134823   4.444   2.406   3.412  3.4363 -2.4070 -0.2435
 7788SOL    HW234824   4.377   2.280   3.457  2.8157  1.5994  2.1689
 7789SOL     OW34825   1.150   2.144   5.576  0.6220  0.1748  0.4455
 7789SOL    HW134826   1.056   2.156   5.564  0.7168  0.4050 -0.0730
 7789SOL    HW234827   1.162   2.092   5.496 -3.3873 -0.4006  0.2450
 7790SOL     OW34828   2.368   0.819   5.534 -0.5674  0.3128 -0.3114
 7790SOL    HW134829   2.299   0.777   5.482 -2.9687  2.6093  1.0322
 7790SOL    HW234830   2.447   0.785   5.491 -0.5789  0.6538 -0.6042
 7791SOL     OW34831   4.277   1.040  12.070  0.4940 -0.3651 -0.1235
 7791SOL    HW134832   4.197   1.001  12.033  0.6965  1.0413 -2.0029
 7791SOL    HW234833   4.322   1.072  11.993  3.7743 -0.3659  1.8099
 7792SOL     OW34834   4.646   4.196   7.201 -0.5906  0.5752 -0.1250
 7792SOL    HW134835   4.568   4.183   7.254 -0.4163 -2.2381 -0.5163
 7792SOL    HW234836   4.648   4.107   7.163 -0.1733  0.9411 -0.9684
 7793SOL     OW34837   3.462   0.516   9.576  0.1535 -0.0604  0.4990
 7793SOL    HW134838   3.454   0.602   9.617 -2.0840 -0.4649  0.9501
 7793SOL    HW234839   3.533   0.530   9.514  0.1253  0.2013  0.5237
 7794SOL     OW34840   2.020   1.118   2.929  0.5799  0.1904 -0.3364
 7794SOL    HW134841   1.997   1.108   2.837  1.5932  0.7292 -0.6379
 7794SOL    HW234842   2.085   1.187   2.927  0.1625  0.6098  0.5570
 7795SOL     OW34843   3.095   0.321  13.617  0.4419 -0.0398  0.3618
 7795SOL    HW134844   3.106   0.416  13.625 -0.5661 -0.0132  1.4510
 7795SOL    HW234845   3.039   0.323  13.539  0.7535 -0.2727  0.1313
 7796SOL     OW34846   3.826   4.045   3.179  0.0042 -0.2391 -0.1289
 7796SOL    HW134847   3.754   4.034   3.241 -0.5969 -1.6430 -1.0903
 7796SOL    HW234848   3.787   4.010   3.099  1.8115  0.4071 -1.3139
 7797SOL     OW34849   4.403   1.825   6.346  0.1196 -0.2130 -0.0495
 7797SOL    HW134850   4.367   1.845   6.260  1.2724 -1.6867 -0.8738
 7797SOL    HW234851   4.391   1.730   6.350 -0.2604 -0.2407 -1.8191
 7798SOL     OW34852   2.284   3.909   0.388  0.2317  0.3561 -0.4629
 7798SOL    HW134853   2.200   3.864   0.392  0.5446 -0.3357 -1.8714
 7798SOL    HW234854   2.263   4.003   0.387  1.4625  0.6471  1.4729
 7799SOL     OW34855   0.334   1.431   2.799 -0.0511  0.0039 -0.1842
 7799SOL    HW134856   0.275   1.413   2.727  0.3640 -0.5687 -0.3829
 7799SOL    HW234857   0.415   1.444   2.750 -0.2399 -1.6357 -0.9287
 7800SOL     OW34858   0.270   0.063   3.626  0.0451  0.3146  0.1694
 7800SOL    HW134859   0.307   0.151   3.636  2.1131 -0.3470 -1.5475
 7800SOL    HW234860   0.279   0.031   3.715 -0.0368  1.6930  0.6774
 7801SOL     OW34861   0.302   1.354  13.397 -0.2941  0.0424 -0.2523
 7801SOL    HW134862   0.235   1.356  13.329 -0.9620  2.6768  0.4880
 7801SOL    HW234863   0.259   1.300  13.463 -0.7206 -2.0642 -2.2524
 7802SOL     OW34864   0.373   1.918   8.190  0.5602 -0.2929  0.8079
 7802SOL    HW134865   0.455   1.902   8.143  0.9120  1.4228  0.8330
 7802SOL    HW234866   0.335   1.838   8.153  2.6584 -2.2220  2.8201
 7803SOL     OW34867   2.186   0.903   7.041 -0.3500  0.4643  0.2486
 7803SOL    HW134868   2.161   0.907   7.134 -0.4389 -0.1795  0.2525
 7803SOL    HW234869   2.280   0.922   7.041 -0.6083  1.6636 -1.7493
 7804SOL     OW34870   1.183   4.352   5.203  0.3732  0.4220  0.1183
 7804SOL    HW134871   1.243   4.278   5.204  2.7151  2.3254  0.1094
 7804SOL    HW234872   1.101   4.305   5.218 -0.1747  1.8004  1.5111
 7805SOL     OW34873   4.175   1.997   8.247 -0.2089 -0.1705  0.0662
 7805SOL    HW134874   4.095   1.991   8.298 -1.6417  3.7453 -1.7115
 7805SOL    HW234875   4.153   1.936   8.177  0.1766  0.8191 -0.9262
 7806SOL     OW34876   1.780   2.695   8.650  0.1279  0.1649 -0.6096
 7806SOL    HW134877   1.723   2.763   8.613 -0.9253 -0.3252  0.1139
 7806SOL    HW234878   1.830   2.733   8.722  0.0267 -1.5377  0.3533
 7807SOL     OW34879   2.789   3.348   7.589  0.2760 -0.2213  0.3662
 7807SOL    HW134880   2.757   3.421   7.536 -0.1180 -0.9982 -0.4630
 7807SOL    HW234881   2.712   3.304   7.626  0.9999  0.7864  3.0621
 7808SOL     OW34882   1.640   4.596   5.717 -0.1835  0.1747  0.6599
 7808SOL    HW134883   1.566   4.636   5.763  0.3647 -0.5580  2.1695
 7808SOL    HW234884   1.632   4.646   5.636 -0.0123  1.1802  1.2664
 7809SOL     OW34885   2.149   0.295   5.366  0.3205 -0.3299  0.3449
 7809SOL    HW134886   2.155   0.200   5.353  2.0246 -0.3248  1.0522
 7809SOL    HW234887   2.056   0.306   5.388  0.7344  2.6438  0.5331
 7810SOL     OW34888   3.340   0.837   6.207 -0.3751 -0.2994  0.6908
 7810SOL    HW134889   3.356   0.897   6.134  2.2748 -0.5878  1.0173
 7810SOL    HW234890   3.333   0.902   6.277  0.8649  0.7239 -0.1338
 7811SOL     OW34891   1.696   2.721   3.039 -0.0487  0.4953  0.7354
 7811SOL    HW134892   1.613   2.736   3.085  0.1051  0.3742  1.0516
 7811SOL    HW234893   1.731   2.809   3.026  1.7296 -0.2993  0.1845
 7812SOL     OW34894   1.736   3.333   1.570 -0.4062  0.1751 -0.2291
 7812SOL    HW134895   1.756   3.276   1.496  2.2598  0.5074  0.2307
 7812SOL    HW234896   1.811   3.392   1.566  0.7277 -1.2442  0.0493
 7813SOL     OW34897   0.622   0.011   7.674  0.6188 -0.0169  0.1444
 7813SOL    HW134898   0.575   0.092   7.694  0.9599  0.6448 -1.7475
 7813SOL    HW234899   0.584   4.706   7.589 -0.2478  0.4558  0.3985
 7814SOL     OW34900   2.724   1.236   4.148 -0.3368  0.4906 -0.1875
 7814SOL    HW134901   2.674   1.154   4.145  1.4716 -0.6124 -0.1498
 7814SOL    HW234902   2.655   1.299   4.171  1.0354  2.2651 -0.9884
 7815SOL     OW34903   4.118   2.775   3.186  0.3302 -0.1194 -0.0612
 7815SOL    HW134904   4.076   2.833   3.250  2.4503 -0.8977  2.0539
 7815SOL    HW234905   4.047   2.720   3.153 -1.3198  0.7817  1.9704
 7816SOL     OW34906   3.875   3.978  17.149  0.4278 -0.3827 -0.2576
 7816SOL    HW134907   3.857   3.884  17.161  1.9507 -0.2776  2.8016
 7816SOL    HW234908   3.832   4.013  17.226  0.6248 -1.8144  0.5082
 7817SOL     OW34909   4.281   3.661   2.481  0.4727 -0.3437 -0.1069
 7817SOL    HW134910   4.329   3.651   2.399  0.2631 -3.0327  0.1228
 7817SOL    HW234911   4.188   3.663   2.458  0.2002 -2.0024  0.8618
 7818SOL     OW34912   1.226   1.211  13.840 -0.4057  0.0411  0.3280
 7818SOL    HW134913   1.276   1.279  13.795  1.8623 -2.1065 -0.3339
 7818SOL    HW234914   1.161   1.268  13.882  1.1290  0.8194  1.6411
 7819SOL     OW34915   1.863   3.341  13.660 -0.2988  0.5327  0.0094
 7819SOL    HW134916   1.817   3.277  13.714  0.8868  0.3242  0.7594
 7819SOL    HW234917   1.955   3.320  13.677  0.3575  0.8308 -3.0187
 7820SOL     OW34918   3.799   4.569   4.190 -0.0077  0.5226 -0.0981
 7820SOL    HW134919   3.890   4.562   4.161 -0.3369  0.3022 -1.1037
 7820SOL    HW234920   3.818   4.588   4.281 -1.8135 -2.8799  0.9925
 7821SOL     OW34921   2.780   0.507   1.746  0.1791  0.0472  0.1787
 7821SOL    HW134922   2.832   0.536   1.821 -1.5536  1.1929  0.9251
 7821SOL    HW234923   2.760   0.416   1.767  0.4090  0.0648  0.4713
 7822SOL     OW34924   2.457   1.640  10.529  0.7735 -0.0183  0.0653
 7822SOL    HW134925   2.425   1.701  10.464  2.7254  0.7036 -0.2249
 7822SOL    HW234926   2.503   1.701  10.587  1.9238  0.3069 -1.1815
 7823SOL     OW34927   1.192   4.106  14.623 -0.6667  0.8276 -0.3481
 7823SOL    HW134928   1.125   4.038  14.630 -1.0453  1.3357  0.9869
 7823SOL    HW234929   1.161   4.175  14.682 -0.0498  1.0443 -0.2806
 7824SOL     OW34930   0.119   3.028   2.427  0.4359  0.2467  0.2552
 7824SOL    HW134931   0.025   3.012   2.430  0.5917 -0.5242  1.2289
 7824SOL    HW234932   0.156   2.944   2.399  4.9650  1.9881  0.9369
 7825SOL     OW34933   3.973   1.747   2.399  0.1194 -0.0325  0.2835
 7825SOL    HW134934   3.898   1.721   2.453 -0.5427 -2.3496 -1.7654
 7825SOL    HW234935   4.014   1.665   2.371  0.7205  0.0132  1.0508
 7826SOL     OW34936   3.773   3.928  13.385  0.1788  0.0991 -0.4978
 7826SOL    HW134937   3.786   3.962  13.473  0.8728  4.1873 -2.1467
 7826SOL    HW234938   3.754   4.011  13.340  1.2477  0.9166  0.5646
 7827SOL     OW34939   3.509   2.705   2.536 -0.9439  0.3755 -0.2630
 7827SOL    HW134940   3.414   2.698   2.539 -0.8510 -0.7922 -0.1111
 7827SOL    HW234941   3.526   2.684   2.628  1.8111  0.0893 -0.8342
 7828SOL     OW34942   1.215   3.726   7.496 -0.2890  0.3696 -0.2168
 7828SOL    HW134943   1.276   3.660   7.465 -0.3973 -0.4426  1.2702
 7828SOL    HW234944   1.151   3.734   7.426 -1.9920 -3.1143  0.9490
 7829SOL     OW34945   3.812   0.518   4.417 -0.3848  0.1745 -0.1778
 7829SOL    HW134946   3.881   0.512   4.351  0.7223 -1.5902  1.1391
 7829SOL    HW234947   3.730   0.507   4.368 -0.2554 -0.1763 -0.3171
 7830SOL     OW34948   1.485   2.317  12.704 -0.8698  0.5759  0.4971
 7830SOL    HW134949   1.438   2.400  12.710 -0.4603  0.8270  0.2226
 7830SOL    HW234950   1.555   2.335  12.641  0.0114  0.8340  1.5568
 7831SOL     OW34951   2.488   3.663   7.722  0.1982  0.8168  0.6453
 7831SOL    HW134952   2.474   3.755   7.746 -0.2474  0.8056  0.4316
 7831SOL    HW234953   2.583   3.657   7.712  0.2421 -0.3436  1.7366
 7832SOL     OW34954   3.904   0.755  12.806 -0.5882 -0.4125 -0.1330
 7832SOL    HW134955   3.996   0.757  12.830 -0.6269 -0.8047  0.0602
 7832SOL    HW234956   3.872   0.673  12.845  0.5461 -1.1004 -0.6590
 7833SOL     OW34957   1.064   0.440   8.661  0.0637  0.0939 -0.1340
 7833SOL    HW134958   1.089   0.367   8.605  1.4796 -0.7148  1.5444
 7833SOL    HW234959   0.970   0.428   8.677 -0.4148  0.4638 -2.6506
 7834SOL     OW34960   4.599   3.629   2.345 -0.1845 -0.2681 -0.0072
 7834SOL    HW134961   4.555   3.664   2.423  2.2722  4.1005 -0.6124
 7834SOL    HW234962   4.523   3.585   2.307 -1.4304  1.3522  0.6058
 7835SOL     OW34963   4.266   2.476  12.897 -0.2539 -0.4479 -0.4385
 7835SOL    HW134964   4.231   2.425  12.971 -1.2054 -0.4656 -0.8923
 7835SOL    HW234965   4.305   2.411  12.840 -1.7690 -1.4739 -0.2981
 7836SOL     OW34966   3.509   0.225  10.477 -0.3695  0.0771 -0.1035
 7836SOL    HW134967   3.451   0.195  10.547 -0.7420 -0.3822 -0.6071
 7836SOL    HW234968   3.581   0.268  10.524 -1.1081  1.7677 -0.5010
 7837SOL     OW34969   0.217   4.679   5.898  0.0268  0.1485 -0.0051
 7837SOL    HW134970   0.298   4.660   5.944  0.1115  0.1812 -0.1413
 7837SOL    HW234971   0.186   0.037   5.945 -0.6015 -0.6077  0.8411
 7838SOL     OW34972   0.399   1.120  10.422 -0.4450 -0.5799 -0.1029
 7838SOL    HW134973   0.461   1.106  10.350  1.8269  0.5652  1.6380
 7838SOL    HW234974   0.425   1.208  10.450  0.7680 -1.2030  0.6811
 7839SOL     OW34975   4.392   3.144   2.197 -0.0280  0.4640 -0.0409
 7839SOL    HW134976   4.323   3.087   2.228  1.3358 -0.6950  0.8580
 7839SOL    HW234977   4.343   3.219   2.163 -0.8567 -0.6282 -1.2485
 7840SOL     OW34978   1.754   1.375   7.907  0.3419 -0.4557 -0.2443
 7840SOL    HW134979   1.843   1.355   7.879 -0.2183 -0.4224 -2.0884
 7840SOL    HW234980   1.739   1.302   7.967  2.0243 -0.5483  0.0478
 7841SOL     OW34981   2.718   0.227  11.549  0.2702 -0.2146  0.1813
 7841SOL    HW134982   2.794   0.207  11.604 -0.6569  0.6166  1.7796
 7841SOL    HW234983   2.660   0.159  11.584 -0.5470  0.7899  0.7903
 7842SOL     OW34984   1.220   3.669   6.155  0.3022  0.0987  0.1270
 7842SOL    HW134985   1.264   3.692   6.073 -1.4710  2.0769 -0.2585
 7842SOL    HW234986   1.135   3.712   6.145 -0.1701 -0.5989  1.1148
 7843SOL     OW34987   2.788   1.372   3.165  0.5079 -0.2777 -0.2030
 7843SOL    HW134988   2.798   1.351   3.258  0.3739 -0.9654 -0.3401
 7843SOL    HW234989   2.829   1.457   3.149 -1.1435  0.6325  0.3670
 7844SOL     OW34990   1.205   1.536   3.053 -0.3132 -0.4305  0.0529
 7844SOL    HW134991   1.228   1.625   3.080 -1.7255  0.0467 -0.3339
 7844SOL    HW234992   1.209   1.539   2.958  1.2397 -2.4747  0.0442
 7845SOL     OW34993   1.897   3.411   8.947 -0.4545  0.2538 -0.0106
 7845SOL    HW134994   1.867   3.322   8.928  0.7128 -0.1674  0.1443
 7845SOL    HW234995   1.851   3.456   8.876 -1.0376 -0.4676 -0.0919
 7846SOL     OW34996   0.912   1.178   8.751  0.8517  0.3409 -0.3134
 7846SOL    HW134997   0.816   1.169   8.750  0.8202  0.5449  0.7478
 7846SOL    HW234998   0.915   1.254   8.694  1.1829  1.6270  1.4282
 7847SOL     OW34999   0.639   2.774   7.288  0.0446 -0.7002 -0.8028
 7847SOL    HW135000   0.558   2.723   7.299 -0.1132 -0.0985  0.8345
 7847SOL    HW235001   0.677   2.778   7.376 -1.9476  2.1677 -0.0902
 7848SOL     OW35002   2.865   3.621   2.550 -0.3945 -0.6800 -0.0957
 7848SOL    HW135003   2.831   3.587   2.467  1.3297  0.9197 -1.4503
 7848SOL    HW235004   2.862   3.542   2.604 -0.1530  0.7407  1.9627
 7849SOL     OW35005   2.469   1.128   5.519  0.5187 -0.3219  0.2120
 7849SOL    HW135006   2.403   1.077   5.566  1.2607 -0.4925  1.0550
 7849SOL    HW235007   2.550   1.080   5.535  0.0755 -2.2179 -3.0479
 7850SOL     OW35008   1.337   2.112  12.567  0.0125 -0.7700  0.9794
 7850SOL    HW135009   1.382   2.177  12.622  2.3102 -0.5151 -1.1996
 7850SOL    HW235010   1.371   2.034  12.609  2.6010 -0.5753 -0.8182
 7851SOL     OW35011   4.109   2.402   8.845  0.2291 -0.0196  0.1670
 7851SOL    HW135012   4.048   2.452   8.900 -0.5225 -0.1897 -0.5038
 7851SOL    HW235013   4.052   2.380   8.771 -0.4719  0.5729  0.5243
 7852SOL     OW35014   2.706   4.684   3.184  0.1705  0.0196 -0.0972
 7852SOL    HW135015   2.719   4.625   3.110  0.0647  0.4905 -0.4950
 7852SOL    HW235016   2.655   4.631   3.245 -1.4282  0.5973 -0.9203
 7853SOL     OW35017   4.566   4.193   7.624  0.0838  0.2817  0.1183
 7853SOL    HW135018   4.645   4.219   7.670  0.4916 -0.6158 -0.0681
 7853SOL    HW235019   4.582   4.101   7.644  0.6696  0.2625 -0.4288
 7854SOL     OW35020   2.374   3.452   8.311 -0.0081  0.1377  0.2926
 7854SOL    HW135021   2.335   3.489   8.390 -0.4068 -0.1832  0.2483
 7854SOL    HW235022   2.466   3.475   8.323  0.1383 -0.5869  0.5570
 7855SOL     OW35023   3.255   3.630   1.680  0.1823 -0.0962 -0.3534
 7855SOL    HW135024   3.332   3.578   1.657  0.8070 -0.1464  1.8375
 7855SOL    HW235025   3.252   3.708   1.625 -2.0685 -0.3683 -0.6354
 7856SOL     OW35026   3.257   3.080   1.997  0.3965  0.3274  0.4160
 7856SOL    HW135027   3.242   2.995   1.956  0.4230 -0.5475  2.2402
 7856SOL    HW235028   3.311   3.119   1.928  1.1253  0.5092  1.0824
 7857SOL     OW35029   1.381   2.060   8.655  0.1536  0.2859 -0.6271
 7857SOL    HW135030   1.392   2.001   8.730 -2.3160 -0.7152 -1.0603
 7857SOL    HW235031   1.432   2.019   8.585  0.0410  0.7455 -0.9750
 7858SOL     OW35032   1.694   1.060  15.004 -0.6428 -0.0452  0.2345
 7858SOL    HW135033   1.774   1.047  14.953 -0.6924 -1.5805  0.5705
 7858SOL    HW235034   1.700   1.002  15.079  0.8834  1.2314  1.1123
 7859SOL     OW35035   2.609   0.076   6.926 -0.3131  0.1341 -0.1518
 7859SOL    HW135036   2.619   4.709   6.964  0.0180 -0.3043 -1.2462
 7859SOL    HW235037   2.533   0.067   6.869 -0.1738  1.9730 -0.6360
 7860SOL     OW35038   2.438   4.629  12.398  0.1921 -0.0759  0.1013
 7860SOL    HW135039   2.494   4.660  12.327 -1.7807  1.2656 -0.8841
 7860SOL    HW235040   2.451   4.535  12.388 -1.0737 -0.4822  2.1238
 7861SOL     OW35041   4.422   3.615   8.515  0.0345  0.0201 -0.1729
 7861SOL    HW135042   4.504   3.569   8.536 -0.8008 -1.9890 -1.2965
 7861SOL    HW235043   4.355   3.557   8.549 -1.4075  3.7225  3.2185
 7862SOL     OW35044   3.514   0.455   2.592  0.0675  0.4303 -0.1743
 7862SOL    HW135045   3.465   0.482   2.514  0.2507  0.1060 -0.4040
 7862SOL    HW235046   3.497   0.361   2.595  2.1219  0.1882  3.3743
 7863SOL     OW35047   2.519   1.047   7.668  0.0443  0.8010  0.4234
 7863SOL    HW135048   2.431   1.011   7.660  0.5198 -0.1502 -0.4882
 7863SOL    HW235049   2.577   0.971   7.680 -0.1072  0.4430 -1.1014
 7864SOL     OW35050   3.192   1.687   3.280  0.3129  0.2228 -0.2514
 7864SOL    HW135051   3.127   1.735   3.228 -0.7506 -0.8857  0.0826
 7864SOL    HW235052   3.123   1.641   3.327  1.2352 -0.7049  0.1936
 7865SOL     OW35053   2.227   2.456   6.651 -0.3230 -0.3456  0.1994
 7865SOL    HW135054   2.299   2.518   6.645  0.9694 -1.8226  0.4535
 7865SOL    HW235055   2.213   2.430   6.742 -0.1522  0.4365  0.4497
 7866SOL     OW35056   2.445   3.253   3.957 -0.2159  0.0238 -0.3998
 7866SOL    HW135057   2.458   3.170   4.003  1.1992 -0.0684 -0.9607
 7866SOL    HW235058   2.398   3.226   3.879  1.2914 -0.9618 -0.9522
 7867SOL     OW35059   3.119   0.719  15.333 -0.0844 -0.5719 -0.1527
 7867SOL    HW135060   3.080   0.706  15.247  0.3427  2.8961 -0.8610
 7867SOL    HW235061   3.170   0.638  15.330 -1.6779 -1.6440  1.2693
 7868SOL     OW35062   2.441   1.441   9.825 -0.5506 -0.0675  0.1826
 7868SOL    HW135063   2.479   1.512   9.774  0.1401  0.0778  0.8963
 7868SOL    HW235064   2.498   1.365   9.811  1.4998  0.9495  3.1141
 7869SOL     OW35065   2.078   3.599   9.465  0.0381 -0.2667 -0.0640
 7869SOL    HW135066   2.162   3.559   9.486 -1.3270 -1.7677  2.4847
 7869SOL    HW235067   2.033   3.521   9.433  0.6206 -1.6915  2.6701
 7870SOL     OW35068   2.746   1.514  11.349  0.2338  0.0639  0.0677
 7870SOL    HW135069   2.808   1.587  11.359  0.1251  0.3937 -1.6556
 7870SOL    HW235070   2.751   1.496  11.255  1.2001  2.1163 -0.2684
 7871SOL     OW35071   3.595   2.984   1.911 -0.1592 -0.1511 -0.0694
 7871SOL    HW135072   3.539   2.924   1.961  0.1240 -2.2121 -2.2129
 7871SOL    HW235073   3.649   2.933   1.850  0.4793  1.3716 -0.7730
 7872SOL     OW35074   2.873   0.414   6.496  0.4146 -0.1430 -0.0123
 7872SOL    HW135075   2.833   0.490   6.540 -0.2577  0.5889 -1.9162
 7872SOL    HW235076   2.932   0.464   6.440  0.4721 -1.5216 -1.1521
 7873SOL     OW35077   3.758   1.744   7.125 -0.2817  0.3732  0.6156
 7873SOL    HW135078   3.714   1.755   7.041 -1.8343  0.3112  1.4328
 7873SOL    HW235079   3.716   1.664   7.157 -0.1636  0.2486  0.4660
 7874SOL     OW35080   4.337   0.898   8.876  0.2630  0.3268 -0.3472
 7874SOL    HW135081   4.352   0.806   8.856  0.3227  0.4184 -0.7162
 7874SOL    HW235082   4.274   0.897   8.948  1.8006  0.1133  1.0014
 7875SOL     OW35083   3.723   2.164  12.014 -0.4127 -0.5262 -0.0086
 7875SOL    HW135084   3.793   2.165  11.949  0.6764  0.5610  1.2042
 7875SOL    HW235085   3.787   2.157  12.084  0.0730 -2.7355 -0.7007
 7876SOL     OW35086   0.532   2.242   9.810 -0.2775 -0.5105  0.0249
 7876SOL    HW135087   0.442   2.222   9.836  0.0817 -2.4246 -0.1649
 7876SOL    HW235088   0.578   2.159   9.824 -0.3200 -0.4355  0.6520
 7877SOL     OW35089   2.611   0.330  16.938 -0.2545 -0.1881  0.0915
 7877SOL    HW135090   2.618   0.320  16.843  0.5036 -2.2426  0.3678
 7877SOL    HW235091   2.549   0.402  16.930 -1.2086 -0.8022  1.9726
 7878SOL     OW35092   0.072   0.659  14.128 -0.2083 -0.2415 -0.5560
 7878SOL    HW135093   0.066   0.618  14.214 -1.8275  1.0879 -0.0377
 7878SOL    HW235094   4.704   0.688  14.106 -0.3963 -1.1232 -0.9619
 7879SOL     OW35095   3.588   0.433   5.101  0.2283 -0.2139  0.8919
 7879SOL    HW135096   3.647   0.507   5.086  0.1532 -0.3529 -0.0891
 7879SOL    HW235097   3.583   0.421   5.196 -3.5321 -0.4872  0.6307
 7880SOL     OW35098   3.202   4.341   2.730  0.1401 -0.4946  0.0448
 7880SOL    HW135099   3.266   4.410   2.744  0.0442 -0.4456  0.2501
 7880SOL    HW235100   3.269   4.278   2.704 -0.7840 -0.1680 -3.1056
 7881SOL     OW35101   2.282   1.860   6.130  0.2227  0.0620  0.4293
 7881SOL    HW135102   2.330   1.783   6.099  0.6650  0.4317  0.1927
 7881SOL    HW235103   2.262   1.901   6.046  0.6356  0.8004  0.6894
 7882SOL     OW35104   2.261   1.208  13.938  0.0911 -0.5306 -0.7123
 7882SOL    HW135105   2.308   1.284  13.903  2.1600 -0.8071  1.5168
 7882SOL    HW235106   2.303   1.199  14.023 -0.8557 -1.7478 -0.3744
 7883SOL     OW35107   3.250   2.583  14.953 -0.0767 -0.8662 -0.2587
 7883SOL    HW135108   3.313   2.654  14.971 -0.7691 -0.8265  1.9217
 7883SOL    HW235109   3.234   2.557  15.043 -1.0680 -2.9718 -1.0602
 7884SOL     OW35110   3.215   2.247  14.439 -0.3104  0.6070 -0.9094
 7884SOL    HW135111   3.192   2.305  14.512  1.9695 -0.8274  0.9493
 7884SOL    HW235112   3.200   2.166  14.488 -0.7177  1.4339  0.3382
 7885SOL     OW35113   0.629   2.258  13.176 -0.2746  0.0345  0.2788
 7885SOL    HW135114   0.624   2.185  13.237 -2.4264  1.7177  2.1379
 7885SOL    HW235115   0.722   2.254  13.155 -1.1540 -2.0853 -3.2866
 7886SOL     OW35116   2.584   2.370   7.945  0.0618 -0.3800  0.4273
 7886SOL    HW135117   2.611   2.308   7.878  1.3157 -0.7824  1.3080
 7886SOL    HW235118   2.668   2.396   7.983 -0.5622  0.1507  1.4587
 7887SOL     OW35119   4.191   0.789   7.785  0.0873  0.3130 -0.1068
 7887SOL    HW135120   4.133   0.761   7.856  1.2554 -0.2003  0.6488
 7887SOL    HW235121   4.171   0.714   7.729  1.3049 -0.3035  0.2791
 7888SOL     OW35122   3.957   3.907   8.329 -0.7196  0.2395 -0.1541
 7888SOL    HW135123   3.913   3.843   8.272 -0.6768 -1.7534  2.0313
 7888SOL    HW235124   4.050   3.885   8.329 -0.3212  1.9370  1.2436
 7889SOL     OW35125   2.878   2.668   3.112 -0.6352 -0.0088  0.5331
 7889SOL    HW135126   2.821   2.695   3.183 -0.1951 -1.0439  1.2867
 7889SOL    HW235127   2.874   2.749   3.061 -0.9196  0.8992  2.0120
 7890SOL     OW35128   1.395   3.332   7.414  0.2309  0.4297 -0.0806
 7890SOL    HW135129   1.428   3.278   7.486 -0.9549 -0.5813 -0.3105
 7890SOL    HW235130   1.455   3.293   7.350  1.5529 -0.5556  1.7549
 7891SOL     OW35131   0.787   0.684   5.579 -0.4946 -0.5452  0.6663
 7891SOL    HW135132   0.716   0.735   5.618 -1.5372 -0.3001 -1.5308
 7891SOL    HW235133   0.846   0.664   5.651 -0.0533 -2.3316 -0.2095
 7892SOL     OW35134   2.214   0.874   1.315  0.2983  0.0705  0.3366
 7892SOL    HW135135   2.127   0.877   1.275  1.5479  0.9712 -2.3036
 7892SOL    HW235136   2.210   0.930   1.393  1.6986 -0.3502  0.7087
 7893SOL     OW35137   1.811   4.151  10.052 -0.0101 -0.2218 -0.1877
 7893SOL    HW135138   1.844   4.079  10.105 -0.4279 -1.0045 -0.9870
 7893SOL    HW235139   1.888   4.190  10.011  1.3656 -2.0348  0.6844
 7894SOL     OW35140   1.594   1.020  11.129  0.0310 -0.0958  0.3417
 7894SOL    HW135141   1.641   1.101  11.151 -2.2762  1.6458 -1.2016
 7894SOL    HW235142   1.506   1.053  11.112  0.3536  0.0979 -0.9344
 7895SOL     OW35143   4.666   3.278   4.855  0.0743 -0.2117 -0.3311
 7895SOL    HW135144   4.677   3.370   4.879 -2.5329  0.1218 -0.3977
 7895SOL    HW235145   4.577   3.272   4.891 -1.3025  0.7351 -3.5360
 7896SOL     OW35146   1.445   2.734   5.505  0.5703 -0.8555  0.1658
 7896SOL    HW135147   1.446   2.720   5.411 -0.6297 -1.3325  0.2198
 7896SOL    HW235148   1.492   2.661   5.545 -0.3454 -1.8543 -0.5822
 7897SOL     OW35149   3.899   3.445   6.116 -0.3653  0.6184 -0.1426
 7897SOL    HW135150   3.858   3.518   6.163 -0.1787  0.4697  0.2511
 7897SOL    HW235151   3.857   3.452   6.030 -0.4403  0.3773 -0.1254
 7898SOL     OW35152   2.708   3.084   3.757  0.5523  0.2833 -0.3900
 7898SOL    HW135153   2.686   3.119   3.843  2.3899  0.2136  0.1100
 7898SOL    HW235154   2.804   3.088   3.756  0.6046 -1.1229 -1.5330
 7899SOL     OW35155   2.103   1.951   7.617 -0.0470  0.3479  0.7904
 7899SOL    HW135156   2.075   1.890   7.549  0.8984 -0.7006  1.3458
 7899SOL    HW235157   2.190   1.917   7.637  0.5346  1.7604  0.6794
 7900SOL     OW35158   4.338   1.010  15.994  0.4796  0.1795  0.0697
 7900SOL    HW135159   4.356   0.989  16.086  1.1386 -1.8947 -0.5357
 7900SOL    HW235160   4.343   0.923  15.954 -1.6484 -1.5258  3.4876
 7901SOL     OW35161   1.339   1.450   7.855 -0.1399  0.0440 -0.1601
 7901SOL    HW135162   1.403   1.392   7.815 -2.0291 -0.2305 -2.8198
 7901SOL    HW235163   1.314   1.503   7.778 -0.7254  1.5353  1.0603
 7902SOL     OW35164   2.434   0.486   1.575  0.0609 -0.3622  0.5974
 7902SOL    HW135165   2.354   0.483   1.523  0.9319  1.4856 -0.8511
 7902SOL    HW235166   2.484   0.409   1.547  1.6564  0.2759  1.6572
 7903SOL     OW35167   0.800   4.071   3.061 -0.0465  0.4422 -0.5737
 7903SOL    HW135168   0.870   4.076   3.126 -0.6771  1.5934  0.0153
 7903SOL    HW235169   0.826   4.137   2.997  1.0758 -0.6216 -1.2131
 7904SOL     OW35170   1.678   1.885   5.099  0.0052 -0.5097  0.2553
 7904SOL    HW135171   1.758   1.935   5.080  0.2926  0.0524  2.8638
 7904SOL    HW235172   1.694   1.862   5.191 -0.6676 -0.3423  0.4139
 7905SOL     OW35173   3.504   4.180   5.100  0.1238 -0.2834 -0.4977
 7905SOL    HW135174   3.423   4.199   5.053  1.2896  2.6248 -1.3728
 7905SOL    HW235175   3.503   4.250   5.166 -1.2039 -2.3471  1.6354
 7906SOL     OW35176   4.451   2.662   4.930  0.0664 -0.4827 -0.3086
 7906SOL    HW135177   4.439   2.603   5.005  2.4940 -2.0570 -1.1450
 7906SOL    HW235178   4.450   2.751   4.966 -1.3470 -0.4715 -0.3715
 7907SOL     OW35179   0.770   3.596  17.148  0.2792 -0.4945 -0.0756
 7907SOL    HW135180   0.748   3.504  17.136  1.4369 -0.6913 -0.6210
 7907SOL    HW235181   0.725   3.630  17.225 -2.6137 -1.4386 -1.3457
 7908SOL     OW35182   2.044   4.496   6.379  0.0069  0.4041 -0.4273
 7908SOL    HW135183   2.075   4.548   6.453 -0.1555 -0.1444  0.0301
 7908SOL    HW235184   1.949   4.500   6.390 -0.0748 -0.7020 -0.7426
 7909SOL     OW35185   0.434   4.693   9.892 -0.1149 -0.0191 -0.1816
 7909SOL    HW135186   0.394   4.678   9.806  0.5290  0.6121 -0.5822
 7909SOL    HW235187   0.434   0.068   9.902  0.3073 -0.1033  0.6522
 7910SOL     OW35188   0.064   2.942   5.684 -0.2279  0.6115 -0.1060
 7910SOL    HW135189   0.143   2.953   5.738  0.4103 -1.1384 -0.7014
 7910SOL    HW235190   4.717   2.921   5.749  1.5794 -1.7097  1.0443
 7911SOL     OW35191   1.002   0.566   5.717  0.2034  0.1485  0.2362
 7911SOL    HW135192   1.086   0.607   5.695  0.0451  0.7717  0.8204
 7911SOL    HW235193   1.015   0.478   5.681 -0.6342 -0.2516  0.9287
 7912SOL     OW35194   1.231   2.021   5.338  0.0552  0.7657  0.4445
 7912SOL    HW135195   1.227   1.960   5.264  1.0711 -1.2724  2.0891
 7912SOL    HW235196   1.322   2.016   5.365  0.4327 -0.5905 -1.0328
 7913SOL     OW35197   3.074   2.472   4.381  0.3448 -0.9647 -0.1338
 7913SOL    HW135198   3.149   2.478   4.441 -0.2424  0.6931  0.4449
 7913SOL    HW235199   3.063   2.378   4.367  2.5242 -1.3036  0.3637
 7914SOL     OW35200   1.670   1.022   4.624  0.4274  0.1287 -0.0671
 7914SOL    HW135201   1.676   1.113   4.594  0.0170  0.0647 -0.3510
 7914SOL    HW235202   1.687   0.978   4.541 -1.7800 -0.3402 -0.2748
 7915SOL     OW35203   0.522   0.260   2.247  0.4758  0.1133  0.1055
 7915SOL    HW135204   0.551   0.173   2.272  1.3946  0.6146  0.7852
 7915SOL    HW235205   0.508   0.294   2.335  1.1440  1.2978 -0.2441
 7916SOL     OW35206   0.041   3.678   4.086 -0.2313  0.3771 -0.1240
 7916SOL    HW135207   4.704   3.748   4.054 -1.3280 -0.0978  0.8053
 7916SOL    HW235208   0.053   3.624   4.008  2.0921 -1.3277  1.3993
 7917SOL     OW35209   1.534   1.373   6.996 -0.0124 -0.2768  0.7817
 7917SOL    HW135210   1.475   1.417   7.058  1.2544  1.2873  0.8729
 7917SOL    HW235211   1.594   1.333   7.060 -0.9884 -2.7051  0.1599
 7918SOL     OW35212   1.807   1.085   3.441 -0.3589  0.1365 -0.3299
 7918SOL    HW135213   1.793   1.097   3.347 -1.2413  0.1847 -0.1887
 7918SOL    HW235214   1.874   1.017   3.443  0.1660  0.5554 -3.4836
 7919SOL     OW35215   3.372   3.749   2.242 -0.3104 -0.3364  0.0922
 7919SOL    HW135216   3.349   3.663   2.207 -0.5532 -0.9282  1.7213
 7919SOL    HW235217   3.293   3.793   2.212 -0.5295 -1.4543 -0.9882
 7920SOL     OW35218   1.819   3.572   3.329 -0.3944 -0.1186  0.3174
 7920SOL    HW135219   1.833   3.477   3.334  2.0735  0.1715 -1.3656
 7920SOL    HW235220   1.758   3.575   3.255 -2.0500 -0.0968  1.6604
 7921SOL     OW35221   4.450   1.772  15.023  0.2041 -0.1777 -0.0318
 7921SOL    HW135222   4.394   1.745  15.096 -1.8702  4.8302  0.2191
 7921SOL    HW235223   4.386   1.834  14.987  1.4504 -0.2298 -2.3260
 7922SOL     OW35224   2.356   0.077   2.613 -0.1335 -0.6677  0.0412
 7922SOL    HW135225   2.288   0.039   2.669 -0.0295  1.0349  1.3586
 7922SOL    HW235226   2.432   0.059   2.669  0.4443 -0.8322 -0.8085
 7923SOL     OW35227   1.663   1.044   9.404  0.2029 -0.9051 -0.1935
 7923SOL    HW135228   1.673   1.126   9.453  2.2059 -0.1748 -1.8203
 7923SOL    HW235229   1.637   1.069   9.316  1.6282  0.3516 -0.2552
 7924SOL     OW35230   1.214   1.835   9.133 -0.0426 -0.2835  0.5461
 7924SOL    HW135231   1.163   1.827   9.214  1.7237  0.2925  1.7217
 7924SOL    HW235232   1.265   1.754   9.132 -0.8590 -0.7955  0.0392
 7925SOL     OW35233   2.726   3.255   8.446  0.8826  0.2467 -0.4206
 7925SOL    HW135234   2.648   3.216   8.485  0.0382  2.3418 -0.0198
 7925SOL    HW235235   2.691   3.342   8.428  2.0615  0.3875 -1.9923
 7926SOL     OW35236   2.490   0.380   6.660  0.5400 -0.1095 -0.4101
 7926SOL    HW135237   2.534   0.335   6.732 -0.3776 -0.7298 -0.2431
 7926SOL    HW235238   2.564   0.387   6.599  1.2860  1.3485  0.6690
 7927SOL     OW35239   2.241   4.367   3.273  0.2454  0.1721 -0.1086
 7927SOL    HW135240   2.229   4.348   3.180  2.0399  4.3314 -1.1962
 7927SOL    HW235241   2.192   4.449   3.267 -1.0621 -0.3779  2.9970
 7928SOL     OW35242   0.931   3.431   4.901 -0.3081 -0.0164  0.0965
 7928SOL    HW135243   0.853   3.479   4.872  0.3186  1.0643  0.2284
 7928SOL    HW235244   0.966   3.449   4.814 -1.0649 -0.5867 -0.3336
 7929SOL     OW35245   2.808   0.294   4.298  0.6950  0.6110 -0.6167
 7929SOL    HW135246   2.783   0.363   4.359 -0.4931  1.5830 -2.1937
 7929SOL    HW235247   2.727   0.244   4.302  1.6383 -0.8802 -0.0295
 7930SOL     OW35248   3.595   2.195   7.080 -0.4309 -0.3274 -0.1585
 7930SOL    HW135249   3.551   2.116   7.112 -0.1503 -0.7082 -0.7182
 7930SOL    HW235250   3.646   2.221   7.156 -0.2965  2.6346 -1.2862
 7931SOL     OW35251   1.499   2.033   7.436  0.3594  0.4592  0.0565
 7931SOL    HW135252   1.447   1.966   7.479 -0.8308  1.0483 -0.4560
 7931SOL    HW235253   1.436   2.105   7.439 -1.4598 -1.1570  0.1511
 7932SOL     OW35254   3.187   1.864   2.876 -0.4169  0.0575  0.0701
 7932SOL    HW135255   3.253   1.902   2.818  1.8508 -2.0402  1.3114
 7932SOL    HW235256   3.220   1.781   2.909  0.1040  0.1804 -0.1509
 7933SOL     OW35257   0.548   0.855   5.604 -0.0097 -0.6049  0.3227
 7933SOL    HW135258   0.531   0.866   5.697 -1.2511 -1.8677  0.2500
 7933SOL    HW235259   0.570   0.945   5.579  1.6645 -1.4899 -1.4409
 7934SOL     OW35260   3.441   3.298   6.112  0.5314 -0.1488  0.6360
 7934SOL    HW135261   3.533   3.291   6.137  0.8481  0.8053 -0.2720
 7934SOL    HW235262   3.405   3.216   6.145 -0.3089 -0.2718 -0.5525
 7935SOL     OW35263   3.375   0.289   4.499  0.0837  0.1191 -0.0330
 7935SOL    HW135264   3.281   0.310   4.494 -0.0314 -0.3298  0.2242
 7935SOL    HW235265   3.401   0.364   4.445 -0.8000  0.6427  0.2627
 7936SOL     OW35266   4.552   2.874  13.857 -0.0243  0.4811  0.3840
 7936SOL    HW135267   4.587   2.869  13.946 -2.0531 -0.5379  1.1242
 7936SOL    HW235268   4.536   2.968  13.844  2.6676  0.9997  0.8394
 7937SOL     OW35269   4.453   0.522   9.081  0.7713 -0.2799 -0.3855
 7937SOL    HW135270   4.450   0.562   8.994 -1.1772 -0.2999 -0.3236
 7937SOL    HW235271   4.511   0.445   9.083 -0.1034 -0.9622 -1.0019
 7938SOL     OW35272   3.227   0.980   0.529  0.1984 -0.8482  0.1338
 7938SOL    HW135273   3.137   0.963   0.501  0.6087  1.0499 -2.4152
 7938SOL    HW235274   3.262   0.984   0.439  1.5217  2.1290  0.8052
 7939SOL     OW35275   4.712   1.485   9.293  0.0967 -0.0369  0.6489
 7939SOL    HW135276   0.040   1.466   9.373  0.2467 -0.9813  0.3345
 7939SOL    HW235277   4.685   1.570   9.329 -0.8677  0.3629 -1.0208
 7940SOL     OW35278   3.797   0.564   5.895 -0.6605  0.7323  0.0862
 7940SOL    HW135279   3.747   0.491   5.861 -3.0713  2.1448  0.6024
 7940SOL    HW235280   3.775   0.557   5.988  1.8002 -0.8411  0.5399
 7941SOL     OW35281   0.302   1.065   6.013 -0.2336  0.0468 -0.1322
 7941SOL    HW135282   0.268   1.151   5.989 -1.1169 -0.1724  0.3234
 7941SOL    HW235283   0.366   1.077   6.083 -0.8444  0.2878  0.3789
 7942SOL     OW35284   1.647   1.625  13.543 -0.1751 -0.8952 -0.5327
 7942SOL    HW135285   1.726   1.581  13.571  1.4051  1.5166 -1.1856
 7942SOL    HW235286   1.595   1.549  13.569 -0.0084 -0.6255  0.5561
 7943SOL     OW35287   3.560   1.756  14.885  0.1674  0.4631  0.4307
 7943SOL    HW135288   3.486   1.799  14.928  1.8836  2.7319  1.1418
 7943SOL    HW235289   3.615   1.732  14.960  0.4938 -1.7096 -0.5085
 7944SOL     OW35290   4.475   4.572   5.301 -0.4570 -0.4874  0.4598
 7944SOL    HW135291   4.545   4.511   5.279  0.0831  0.8344 -1.5075
 7944SOL    HW235292   4.400   4.526   5.262 -0.6046  0.3689 -0.2940
 7945SOL     OW35293   1.717   1.351   6.181 -0.2699  0.7491  0.0230
 7945SOL    HW135294   1.685   1.393   6.260  0.1376 -1.4789  1.3964
 7945SOL    HW235295   1.700   1.419   6.117 -2.0339  0.8160  0.5687
 7946SOL     OW35296   4.026   4.190   9.189 -0.3970 -1.0578  0.3912
 7946SOL    HW135297   3.932   4.201   9.205 -0.4494 -1.2969  0.2520
 7946SOL    HW235298   4.010   4.163   9.098  1.3199  0.1016 -0.2601
 7947SOL     OW35299   2.001   4.211   2.843 -0.5067 -0.1114 -0.1893
 7947SOL    HW135300   1.950   4.193   2.923  0.8505 -1.6587  0.3351
 7947SOL    HW235301   1.989   4.130   2.794  0.1532  1.6979 -3.2913
 7948SOL     OW35302   4.085   4.228   5.259  0.4179  0.0175 -0.5742
 7948SOL    HW135303   4.120   4.208   5.346  2.9414  0.6367 -1.4474
 7948SOL    HW235304   4.167   4.240   5.212  0.3058  1.6076 -0.3747
 7949SOL     OW35305   2.995   0.369   9.317  0.1044 -0.1913 -0.3552
 7949SOL    HW135306   3.040   0.285   9.320 -0.3152 -0.4403 -1.1390
 7949SOL    HW235307   2.926   0.355   9.383  0.4006 -0.3136 -0.0720
 7950SOL     OW35308   1.970   3.089   8.155 -0.2459  0.7574  0.1614
 7950SOL    HW135309   1.957   3.107   8.249  0.2578 -3.1557  0.9687
 7950SOL    HW235310   2.014   3.005   8.162 -0.2642  0.7391  0.0509
 7951SOL     OW35311   3.547   3.331   5.374 -0.1202  0.0624 -0.1732
 7951SOL    HW135312   3.516   3.420   5.393  0.7473  0.2594  0.3402
 7951SOL    HW235313   3.497   3.274   5.431  0.2036  0.3709  0.4177
 7952SOL     OW35314   1.395   0.346  11.889 -0.2080 -0.1814  0.5182
 7952SOL    HW135315   1.313   0.355  11.841  0.0223  1.6315  0.4594
 7952SOL    HW235316   1.377   0.281  11.957  1.3373 -0.7791  0.3713
 7953SOL     OW35317   0.483   4.408   4.628  0.2972 -0.1462  0.4792
 7953SOL    HW135318   0.425   4.339   4.659 -0.4604  0.5619  0.6476
 7953SOL    HW235319   0.446   4.485   4.672 -0.1841 -2.2196  3.6452
 7954SOL     OW35320   3.028   1.276   7.883  0.4656 -0.7833  0.1287
 7954SOL    HW135321   2.961   1.253   7.947  1.8051 -1.5094  1.2502
 7954SOL    HW235322   2.985   1.263   7.798  0.8298  0.5269 -0.2581
 7955SOL     OW35323   1.857   3.219   5.079  0.4768  0.4090 -0.4530
 7955SOL    HW135324   1.869   3.216   5.174 -2.7035 -0.1172 -0.0399
 7955SOL    HW235325   1.820   3.133   5.058 -1.7983  0.7654  2.0612
 7956SOL     OW35326   3.381   3.277  11.876  0.2446  0.0373 -0.3016
 7956SOL    HW135327   3.433   3.249  11.952  0.7829  1.7874 -0.0230
 7956SOL    HW235328   3.316   3.207  11.873  0.7163 -0.3355 -1.6183
 7957SOL     OW35329   3.690   3.097  15.683 -0.4343 -0.0839  0.0001
 7957SOL    HW135330   3.615   3.156  15.691 -0.4416 -0.2799  1.3893
 7957SOL    HW235331   3.735   3.129  15.761  2.1230 -1.8180 -0.7603
 7958SOL     OW35332   0.252   2.811   2.328 -0.6529 -0.3238  0.2954
 7958SOL    HW135333   0.258   2.851   2.241  1.8399 -2.2407 -0.4235
 7958SOL    HW235334   0.225   2.722   2.309 -0.7849 -0.6876  2.1915
 7959SOL     OW35335   3.119   0.711  17.158  0.4109 -0.6974  0.1510
 7959SOL    HW135336   3.127   0.699  17.252 -0.2316  0.3269  0.3399
 7959SOL    HW235337   3.048   0.652  17.135 -0.4188  0.3544  0.0290
 7960SOL     OW35338   4.498   3.618   0.238 -0.2624  0.7366  0.3844
 7960SOL    HW135339   4.567   3.619   0.304  2.6704  0.4990 -2.6933
 7960SOL    HW235340   4.547   3.676   0.180 -0.0223 -0.9218 -1.0738
 7961SOL     OW35341   3.536   1.962   7.877  0.2119 -0.2611 -0.2730
 7961SOL    HW135342   3.460   1.907   7.895 -0.4164  0.3536 -1.0691
 7961SOL    HW235343   3.550   2.011   7.959 -1.6804  0.3784 -0.3524
 7962SOL     OW35344   0.002   0.175   8.991 -0.2590 -0.2658  0.8576
 7962SOL    HW135345   4.670   0.232   8.934 -2.2449 -1.7927  1.1386
 7962SOL    HW235346   4.705   0.228   9.069  0.9514  0.5639  0.5513
 7963SOL     OW35347   4.636   4.141  15.809  0.7190 -0.4371 -0.3584
 7963SOL    HW135348   4.554   4.124  15.855 -0.1693  3.4817 -0.4744
 7963SOL    HW235349   4.634   4.068  15.747 -2.4927 -2.3814  2.0330
 7964SOL     OW35350   3.630   3.439   3.621  0.3453 -0.0134 -0.1471
 7964SOL    HW135351   3.629   3.515   3.563 -1.7708 -0.3079 -0.5078
 7964SOL    HW235352   3.629   3.465   3.713 -0.8614 -1.4105  0.2281
 7965SOL     OW35353   1.354   0.708   5.222  0.2364 -0.7412 -0.0358
 7965SOL    HW135354   1.338   0.778   5.285  2.2279  1.2466 -1.7289
 7965SOL    HW235355   1.284   0.723   5.159 -0.0154  1.2174  0.7209
 7966SOL     OW35356   1.916   4.595  14.238  0.1491 -0.4003  0.0523
 7966SOL    HW135357   2.009   4.613  14.251 -0.3421  0.3913  2.4403
 7966SOL    HW235358   1.922   4.526  14.172 -2.9426 -0.4959 -0.1277
 7967SOL     OW35359   2.994   0.262  14.124  0.4310  0.1053 -0.0054
 7967SOL    HW135360   2.910   0.221  14.144  0.7157 -0.4510  0.0558
 7967SOL    HW235361   2.987   0.355  14.148 -4.0074 -0.6535  1.7303
 7968SOL     OW35362   1.905   4.519   5.637 -0.0772  0.0662  0.1268
 7968SOL    HW135363   1.863   4.526   5.552 -1.5263 -1.0627  0.7397
 7968SOL    HW235364   1.836   4.557   5.691  0.2696  0.3197  0.3932
 7969SOL     OW35365   3.274   3.236  14.655  0.1132 -0.0223  0.3235
 7969SOL    HW135366   3.275   3.145  14.685 -0.5834 -0.0874  0.1643
 7969SOL    HW235367   3.367   3.255  14.642 -0.1773  0.6621 -0.7015
 7970SOL     OW35368   3.729   0.546   9.957 -0.3243 -0.2312  0.0016
 7970SOL    HW135369   3.689   0.606  10.020  0.9712  0.8960 -0.2370
 7970SOL    HW235370   3.661   0.492   9.918  3.0844 -2.6715 -2.5493
 7971SOL     OW35371   4.301   3.595  11.945  0.1123  0.1795 -0.2467
 7971SOL    HW135372   4.285   3.688  11.955  0.0021  0.1589 -0.2368
 7971SOL    HW235373   4.382   3.596  11.893 -0.2878 -0.5060 -0.8731
 7972SOL     OW35374   0.365   0.272   8.409 -0.1673  0.2721  0.2637
 7972SOL    HW135375   0.397   0.186   8.382  1.2391  0.8487  0.1064
 7972SOL    HW235376   0.300   0.233   8.468 -0.4013 -1.1270 -0.9189
 7973SOL     OW35377   2.088   1.564   0.801  0.2601  0.4884 -0.5263
 7973SOL    HW135378   2.123   1.643   0.760  0.6942 -0.3903 -1.8516
 7973SOL    HW235379   2.163   1.506   0.801 -1.5120 -1.7975 -0.0820
 7974SOL     OW35380   2.605   3.616   3.485 -0.5069 -0.4633 -0.1953
 7974SOL    HW135381   2.599   3.629   3.580  0.2578  1.5904 -0.4400
 7974SOL    HW235382   2.631   3.699   3.446 -0.7064  0.4036  1.5310
 7975SOL     OW35383   2.672   3.385   6.213  0.1306 -0.5860  0.0194
 7975SOL    HW135384   2.727   3.312   6.184 -1.4676 -2.6580  2.2584
 7975SOL    HW235385   2.664   3.435   6.132  3.0810  0.5278  0.4075
 7976SOL     OW35386   2.563   4.246   9.408 -0.2958  0.1250 -0.2277
 7976SOL    HW135387   2.517   4.327   9.383  0.0062  0.2677 -0.3141
 7976SOL    HW235388   2.491   4.184   9.399 -1.3784  1.1756  1.0311
 7977SOL     OW35389   0.717   0.589  10.491 -0.1346  0.0963 -0.4361
 7977SOL    HW135390   0.771   0.555  10.562 -0.0340  1.2430  0.0345
 7977SOL    HW235391   0.628   0.582  10.524  0.5117 -2.1137  0.8424
 7978SOL     OW35392   1.286   0.320   6.957  1.1832  0.2190 -0.5498
 7978SOL    HW135393   1.360   0.367   6.920  2.7028  0.3697  2.6915
 7978SOL    HW235394   1.270   0.380   7.030 -1.5506 -0.0298 -0.9254
 7979SOL     OW35395   0.513   1.973   8.997 -0.7135 -0.6494 -0.7983
 7979SOL    HW135396   0.510   2.055   8.947 -1.1816 -0.0268  0.2602
 7979SOL    HW235397   0.604   1.944   8.992  0.1417  1.8384  0.4243
 7980SOL     OW35398   1.390   4.355   8.302 -0.1535 -0.2297 -0.6860
 7980SOL    HW135399   1.408   4.343   8.209  1.4969  3.0609 -0.7897
 7980SOL    HW235400   1.430   4.440   8.320  1.5548 -1.8525  3.1239
 7981SOL     OW35401   4.318   4.617  14.243 -0.0481 -0.1208  0.2340
 7981SOL    HW135402   4.288   4.666  14.320 -0.6320 -0.9773  0.5450
 7981SOL    HW235403   4.315   4.681  14.172  1.1665  1.1583  1.3145
 7982SOL     OW35404   4.490   4.244  11.657  0.3238 -0.4244  0.5288
 7982SOL    HW135405   4.510   4.312  11.593 -2.4778 -0.7284 -0.6425
 7982SOL    HW235406   4.537   4.174  11.612  1.8964 -0.0345  1.5365
 7983SOL     OW35407   0.825   4.626   4.651  0.1896 -0.0188 -0.1525
 7983SOL    HW135408   0.814   4.704   4.598 -1.2570 -0.8437 -1.0528
 7983SOL    HW235409   0.823   4.665   4.738 -1.0402  2.1136 -1.1617
 7984SOL     OW35410   0.908   3.845   4.215 -0.8528  0.0573  0.1115
 7984SOL    HW135411   0.874   3.767   4.171 -0.0666 -0.4844  0.4482
 7984SOL    HW235412   0.829   3.898   4.208  0.3724  1.7652 -0.8831
 7985SOL     OW35413   1.346   1.298   3.200 -0.1672  0.3307 -0.3023
 7985SOL    HW135414   1.303   1.374   3.159  0.0218  0.9400  0.6253
 7985SOL    HW235415   1.375   1.246   3.125  0.2246  0.0736  0.0298
 7986SOL     OW35416   2.494   1.635   9.247 -0.2050  0.7792 -0.4903
 7986SOL    HW135417   2.549   1.602   9.176  0.7976  1.1407  0.1136
 7986SOL    HW235418   2.414   1.662   9.203 -0.7888  2.6442  1.6980
 7987SOL     OW35419   1.931   1.245  13.419 -0.5447  0.2885  0.5576
 7987SOL    HW135420   1.840   1.221  13.437 -0.2319  0.1597  1.9672
 7987SOL    HW235421   1.938   1.251  13.324 -2.0249 -0.7257  0.3840
 7988SOL     OW35422   0.299   0.783  17.188  0.3449  0.3280 -0.0930
 7988SOL    HW135423   0.270   0.704  17.143  0.7397  0.4799 -0.6179
 7988SOL    HW235424   0.218   0.805  17.233 -0.1097  1.8359 -1.6631
 7989SOL     OW35425   3.717   4.715   6.474  0.2779 -0.5228 -0.1779
 7989SOL    HW135426   3.703   4.620   6.472 -3.3251  0.0258 -0.2614
 7989SOL    HW235427   3.776   0.006   6.548  0.8162 -2.1105 -0.3619
 7990SOL     OW35428   0.568   4.081  17.202  0.4614 -0.1551 -0.2492
 7990SOL    HW135429   0.654   4.062  17.241  0.5918 -0.4040 -0.6648
 7990SOL    HW235430   0.560   4.171  17.234  0.8873 -0.5096  0.8897
 7991SOL     OW35431   1.837   0.902   7.955  0.2955 -0.4913 -0.1836
 7991SOL    HW135432   1.773   0.929   7.890  1.8808 -1.7849 -2.2745
 7991SOL    HW235433   1.788   0.852   8.020 -0.1867  0.2386  0.0148
 7992SOL     OW35434   3.621   1.445   7.890  0.0310  0.1145  0.0165
 7992SOL    HW135435   3.683   1.480   7.827  0.3863  2.3701  1.6111
 7992SOL    HW235436   3.565   1.392   7.834 -0.2454  2.0279 -1.5087
 7993SOL     OW35437   2.338   3.976   4.131  1.2153  0.1041  0.2001
 7993SOL    HW135438   2.361   4.061   4.169  0.2483 -0.1320  1.3210
 7993SOL    HW235439   2.404   3.913   4.159  1.7673  0.1215 -1.1110
 7994SOL     OW35440   2.941   4.320  17.093  0.1737  0.5996  0.1902
 7994SOL    HW135441   2.961   4.334  17.000  2.4136  0.1533  0.5878
 7994SOL    HW235442   2.995   4.243  17.112 -1.2232 -0.1016  1.2824
 7995SOL     OW35443   0.487   3.344   3.692  0.2276  0.5094  0.1273
 7995SOL    HW135444   0.576   3.327   3.660 -0.1963 -0.7820 -0.3501
 7995SOL    HW235445   0.505   3.381   3.778  0.9631  0.2531  0.0792
 7996SOL     OW35446   3.935   4.293   7.108 -0.0114 -0.8153  0.1649
 7996SOL    HW135447   3.853   4.340   7.120  1.0918  1.3145 -0.6022
 7996SOL    HW235448   3.916   4.200   7.112 -1.0175 -0.6484 -0.8677
 7997SOL     OW35449   3.915   1.734   4.136  0.1714 -0.6587 -0.0003
 7997SOL    HW135450   3.853   1.802   4.164  0.2580 -0.1650 -1.0377
 7997SOL    HW235451   3.879   1.706   4.052 -1.8222  0.1653  0.5737
 7998SOL     OW35452   1.084   4.138   9.013 -0.8024 -0.1839 -0.1403
 7998SOL    HW135453   1.086   4.042   9.014  1.0488 -0.1457  0.3723
 7998SOL    HW235454   1.044   4.164   9.095  0.3748 -0.2240  0.4464
 7999SOL     OW35455   3.031   2.668   6.809 -0.3929 -0.5554  0.2069
 7999SOL    HW135456   3.057   2.693   6.720  1.3553  1.7579  1.3642
 7999SOL    HW235457   3.090   2.592   6.818 -1.1276 -1.2286 -0.7252
 8000SOL     OW35458   2.491   1.166  15.321 -0.0198 -0.1387 -0.2894
 8000SOL    HW135459   2.438   1.204  15.252  1.0961  0.0047 -1.0666
 8000SOL    HW235460   2.429   1.106  15.362  1.4190 -0.2848  1.7050
 8001SOL     OW35461   4.025   4.498   4.049  0.2054 -0.0878 -0.1162
 8001SOL    HW135462   4.064   4.464   4.130  1.4322  0.7670 -0.3439
 8001SOL    HW235463   4.065   4.440   3.985 -0.0366  1.9369 -2.1033
 8002SOL     OW35464   3.022   3.035  12.252  0.2913 -0.1369  0.2862
 8002SOL    HW135465   3.010   3.052  12.345  1.0976  1.5939  0.0747
 8002SOL    HW235466   3.103   2.983  12.252 -0.4995 -1.3842 -0.3342
 8003SOL     OW35467   1.997   0.985   5.784 -0.2250 -0.0170 -0.0504
 8003SOL    HW135468   1.932   0.975   5.715  0.1008 -0.6474 -0.2676
 8003SOL    HW235469   1.979   0.907   5.837 -0.3860  1.4840  2.1297
 8004SOL     OW35470   2.261   0.300   6.159  0.7831  0.6548  0.5013
 8004SOL    HW135471   2.352   0.270   6.154  1.2090  2.1703 -0.7906
 8004SOL    HW235472   2.236   0.335   6.073  1.7443  1.7378  0.6549
 8005SOL     OW35473   1.162   0.457  16.686  0.5664 -0.6614 -0.6650
 8005SOL    HW135474   1.247   0.491  16.712 -0.7057  0.4051  2.0858
 8005SOL    HW235475   1.115   0.466  16.768  0.1519 -1.1047 -0.8540
 8006SOL     OW35476   1.295   0.114  15.344 -0.1337  0.0207 -0.5029
 8006SOL    HW135477   1.380   0.153  15.361  0.8403 -2.0029 -0.6820
 8006SOL    HW235478   1.286   0.120  15.249 -1.1707  0.0440 -0.4034
 8007SOL     OW35479   3.793   0.437   2.251 -0.8242  0.2984 -0.5078
 8007SOL    HW135480   3.860   0.417   2.316 -0.4650 -0.2926 -1.0549
 8007SOL    HW235481   3.834   0.503   2.195  0.2186  1.5565  1.7368
 8008SOL     OW35482   3.279   4.182   3.343  0.0317 -0.5783 -0.4518
 8008SOL    HW135483   3.224   4.176   3.265 -0.2699 -1.1478 -0.1980
 8008SOL    HW235484   3.366   4.171   3.305 -0.7902 -0.6018 -2.2889
 8009SOL     OW35485   0.026   2.650   9.129 -0.3130  0.0437  0.8889
 8009SOL    HW135486   0.046   2.739   9.158  3.5894 -0.5987  0.1360
 8009SOL    HW235487   4.676   2.636   9.193 -0.8057  0.6178  0.4808
 8010SOL     OW35488   3.137   4.140   3.118  0.2279 -0.5393 -0.0612
 8010SOL    HW135489   3.071   4.074   3.140  0.2911 -0.0086  1.7029
 8010SOL    HW235490   3.104   4.193   3.046  0.0772  0.3573  0.6806
 8011SOL     OW35491   0.709   1.340   8.009 -0.3717  0.4932  0.0644
 8011SOL    HW135492   0.775   1.322   8.076 -1.8890 -0.3815  1.3160
 8011SOL    HW235493   0.635   1.374   8.060  0.3433  2.6541 -0.3362
 8012SOL     OW35494   0.252   1.718   3.793 -0.4805 -0.2101  0.0546
 8012SOL    HW135495   0.260   1.713   3.698 -1.0607  1.2179 -0.0706
 8012SOL    HW235496   0.162   1.749   3.805 -0.2165  1.6062 -2.7600
 8013SOL     OW35497   4.325   1.897   3.070  0.5584  0.0211 -0.0527
 8013SOL    HW135498   4.321   1.987   3.036  0.3486 -0.1019 -0.3507
 8013SOL    HW235499   4.231   1.877   3.071  0.2466  1.3609 -1.7000
 8014SOL     OW35500   4.408   3.950   8.676  0.2785 -0.2554  0.2709
 8014SOL    HW135501   4.436   3.971   8.766  2.5492 -0.2768 -0.4394
 8014SOL    HW235502   4.370   4.035   8.653 -0.2986 -0.4053  0.6616
 8015SOL     OW35503   4.713   3.010   1.040  0.6274 -0.3452 -0.1976
 8015SOL    HW135504   0.006   3.099   1.005  0.9167 -0.5685 -0.6499
 8015SOL    HW235505   4.623   3.021   1.073  1.6544  0.8366  2.2469
 8016SOL     OW35506   0.626   2.512   5.891 -0.1178 -0.5672  0.2861
 8016SOL    HW135507   0.566   2.447   5.927 -1.3558  0.2738 -0.2602
 8016SOL    HW235508   0.680   2.449   5.843  0.8765  0.4603  0.0429
 8017SOL     OW35509   1.369   2.375   1.339 -0.4957 -0.1093  0.0253
 8017SOL    HW135510   1.359   2.314   1.412 -1.8390  0.0118 -0.0537
 8017SOL    HW235511   1.283   2.408   1.314 -2.0231 -3.6275  0.6379
 8018SOL     OW35512   0.391   1.533   7.916  0.0177  0.3414  0.3394
 8018SOL    HW135513   0.442   1.558   7.839  1.3327 -1.1922  0.7043
 8018SOL    HW235514   0.389   1.440   7.893  0.2830  0.0630  1.4739
 8019SOL     OW35515   2.660   2.054   5.566  0.2743 -0.5155  0.3259
 8019SOL    HW135516   2.673   2.134   5.616  0.4923  0.7242 -1.7330
 8019SOL    HW235517   2.612   2.090   5.492 -0.4802  0.3630  1.2501
 8020SOL     OW35518   3.655   1.871   4.639 -0.0955 -0.8185  0.1388
 8020SOL    HW135519   3.746   1.885   4.663  0.1926  0.5252 -1.7312
 8020SOL    HW235520   3.619   1.851   4.726  0.6399 -1.5467  0.2710
 8021SOL     OW35521   4.036   4.451   3.067 -0.6054  0.0003  0.4048
 8021SOL    HW135522   4.088   4.486   2.994 -0.8038  0.9498  0.7182
 8021SOL    HW235523   4.030   4.359   3.043 -0.4828 -0.3943  1.8802
 8022SOL     OW35524   3.817   0.927   3.275 -0.1315  0.0372  0.2896
 8022SOL    HW135525   3.740   0.894   3.228  0.8423 -2.0872  0.1651
 8022SOL    HW235526   3.872   0.966   3.208  0.1034 -0.8346 -0.0323
 8023SOL     OW35527   0.179   4.563   8.549 -0.1820 -0.0932 -0.4958
 8023SOL    HW135528   0.200   4.568   8.456 -1.3376 -0.9246 -0.7855
 8023SOL    HW235529   0.267   4.581   8.585 -0.1344  2.1168 -1.7039
 8024SOL     OW35530   3.738   3.682   4.904 -0.1194 -0.0634 -0.1133
 8024SOL    HW135531   3.771   3.766   4.935 -1.0188  0.9683 -1.9255
 8024SOL    HW235532   3.648   3.686   4.938  0.2058 -0.5226  0.8039
 8025SOL     OW35533   3.584   2.899   6.370 -0.2206 -0.3707 -0.5264
 8025SOL    HW135534   3.630   2.979   6.343 -1.8881  1.5683  2.4304
 8025SOL    HW235535   3.559   2.922   6.460 -1.2244  1.6558 -1.3237
 8026SOL     OW35536   2.812   4.367   0.378  0.1636  0.2661 -0.1943
 8026SOL    HW135537   2.746   4.435   0.390 -0.7365 -0.7258  0.4837
 8026SOL    HW235538   2.896   4.408   0.399 -0.8330  1.7583  0.8068
 8027SOL     OW35539   4.705   1.924   5.784 -0.3673  0.0569  0.1647
 8027SOL    HW135540   0.075   1.952   5.768 -0.8609  1.6346  0.2074
 8027SOL    HW235541   4.697   1.950   5.875  2.1055 -1.2149  0.7499
 8028SOL     OW35542   2.886   1.818   2.823  0.2231  0.1048 -0.1036
 8028SOL    HW135543   2.968   1.864   2.806  0.6808 -0.5773  0.2684
 8028SOL    HW235544   2.903   1.732   2.785  2.6986 -0.2155  1.6984
 8029SOL     OW35545   2.521   3.286   0.219 -0.0213  0.5757 -0.1973
 8029SOL    HW135546   2.607   3.320   0.196 -1.1597  1.5349 -3.0083
 8029SOL    HW235547   2.538   3.218   0.285  0.6764  0.0736 -0.8956
 8030SOL     OW35548   2.308   0.353   5.129  0.0797  0.9477  0.2442
 8030SOL    HW135549   2.272   0.372   5.216  1.3340 -0.2131  1.0200
 8030SOL    HW235550   2.230   0.327   5.081  0.3579  0.6224 -0.0336
 8031SOL     OW35551   3.232   4.284   3.671 -0.0302 -0.3698  0.9518
 8031SOL    HW135552   3.307   4.341   3.693 -0.6759  0.2688  1.5103
 8031SOL    HW235553   3.206   4.248   3.756 -1.4708 -1.7265 -0.0892
 8032SOL     OW35554   2.511   4.508   3.280  0.5891  0.1060  0.5179
 8032SOL    HW135555   2.568   4.465   3.345 -1.4215 -0.4309  1.9201
 8032SOL    HW235556   2.450   4.547   3.343 -1.2445 -1.3871 -0.3584
 8033SOL     OW35557   2.959   1.829   4.097  0.9390  0.1050 -0.7297
 8033SOL    HW135558   3.010   1.884   4.038 -0.7342  0.9204 -1.4463
 8033SOL    HW235559   2.874   1.871   4.111 -0.0359 -2.3062  0.5811
 8034SOL     OW35560   4.328   2.941  16.276 -0.1734  0.3574  0.0224
 8034SOL    HW135561   4.297   2.851  16.265  1.9698 -0.5441  1.3769
 8034SOL    HW235562   4.423   2.932  16.285 -0.0034  0.1138 -1.9287
 8035SOL     OW35563   4.069   0.313   7.964 -0.0554  0.1057 -0.4091
 8035SOL    HW135564   4.110   0.357   7.889 -1.9726  2.3904 -0.1391
 8035SOL    HW235565   4.119   0.344   8.040  0.8587 -2.3434 -0.0071
 8036SOL     OW35566   3.637   1.772  13.557  0.0241 -0.2834 -0.6031
 8036SOL    HW135567   3.584   1.786  13.635 -1.7579 -1.9626 -1.5142
 8036SOL    HW235568   3.571   1.780  13.488 -0.3724 -3.2802 -0.5730
 8037SOL     OW35569   0.094   1.634   2.592  1.1540  0.2118 -0.6650
 8037SOL    HW135570   0.098   1.573   2.518 -0.1643 -3.1721  2.0958
 8037SOL    HW235571   0.126   1.720   2.562 -1.2348  1.5596  0.6713
 8038SOL     OW35572   0.801   2.241   4.484  0.0816 -0.2774  0.2326
 8038SOL    HW135573   0.735   2.226   4.552 -0.9432  0.4306 -0.5958
 8038SOL    HW235574   0.811   2.147   4.469 -1.5455 -0.1236 -1.8264
 8039SOL     OW35575   0.109   4.222   0.106 -0.4660  0.3043  0.3477
 8039SOL    HW135576   0.126   4.249   0.015  0.2511  0.6367  0.5800
 8039SOL    HW235577   0.105   4.309   0.146 -0.0025  0.5805 -0.1991
 8040SOL     OW35578   4.501   3.245   0.671 -0.5832 -0.3746  1.0878
 8040SOL    HW135579   4.555   3.295   0.610 -0.7746  1.4991  2.4716
 8040SOL    HW235580   4.456   3.184   0.613 -0.4036  0.6025 -0.0774
 8041SOL     OW35581   0.511   0.728   3.108  0.2549  0.1089 -0.1868
 8041SOL    HW135582   0.521   0.822   3.091  0.9198 -0.3276 -2.1397
 8041SOL    HW235583   0.567   0.698   3.180  0.5795  1.7320  0.2520
 8042SOL     OW35584   1.161   1.414   9.222  0.2258 -0.3076  0.1489
 8042SOL    HW135585   1.112   1.393   9.142 -0.8215 -0.5272  0.8464
 8042SOL    HW235586   1.091   1.451   9.275 -0.5660 -1.0655 -0.3538
 8043SOL     OW35587   2.957   1.085   1.690 -0.0360  0.0663 -0.0494
 8043SOL    HW135588   2.944   1.036   1.608  0.6147  1.4238 -0.9670
 8043SOL    HW235589   3.009   1.160   1.660 -1.4005  0.4371 -1.4869
 8044SOL     OW35590   3.533   0.104   4.629 -0.4706 -0.2658  0.1435
 8044SOL    HW135591   3.618   0.103   4.585 -0.5122  0.5675  0.0421
 8044SOL    HW235592   3.482   0.165   4.575 -1.0068 -1.2149 -0.4177
 8045SOL     OW35593   0.429   3.591   2.759  0.3698  0.1570 -0.2153
 8045SOL    HW135594   0.340   3.586   2.725 -0.4342  0.4714  1.8959
 8045SOL    HW235595   0.475   3.528   2.703  0.3388  0.5010 -0.6347
 8046SOL     OW35596   1.268   2.960   5.734 -0.6481  0.3017  0.5649
 8046SOL    HW135597   1.202   3.028   5.719  0.2898  1.2343  0.6917
 8046SOL    HW235598   1.344   3.013   5.755  0.6588 -1.2163 -0.3764
 8047SOL     OW35599   2.720   1.040   2.480 -0.2618  0.0468  0.5086
 8047SOL    HW135600   2.766   1.087   2.411 -0.5911  1.2443  1.0969
 8047SOL    HW235601   2.630   1.072   2.468 -0.1340  0.4933  0.7100
 8048SOL     OW35602   0.269   2.355  12.803  0.2663  0.5644  0.5091
 8048SOL    HW135603   0.293   2.408  12.879  2.0252  0.5491 -0.0326
 8048SOL    HW235604   0.339   2.289  12.809 -0.7027 -0.0401  4.8657
 8049SOL     OW35605   0.959   2.528   5.324 -0.5166  0.0891  0.4178
 8049SOL    HW135606   1.049   2.497   5.320 -1.2408 -1.8689 -0.6974
 8049SOL    HW235607   0.982   2.613   5.286  0.0586  0.1578  0.9071
 8050SOL     OW35608   1.657   0.234   0.740  0.0234  0.3457 -0.1188
 8050SOL    HW135609   1.709   0.261   0.664  0.2170 -0.8473 -0.3983
 8050SOL    HW235610   1.591   0.191   0.687 -1.0543 -1.0572  2.4145
 8051SOL     OW35611   1.556   0.612   8.772 -0.1837 -0.5682  0.3866
 8051SOL    HW135612   1.600   0.594   8.855  0.5884 -0.0432  0.0892
 8051SOL    HW235613   1.624   0.611   8.705 -1.1837 -1.2560 -0.6312
 8052SOL     OW35614   1.215   2.408   7.725 -0.1862 -0.0241 -0.3640
 8052SOL    HW135615   1.137   2.372   7.683  0.0158 -1.3611  0.3910
 8052SOL    HW235616   1.165   2.459   7.788 -1.6285 -0.3700 -1.2290
 8053SOL     OW35617   0.105   1.367  13.216 -0.1426  0.0620  0.3397
 8053SOL    HW135618   0.019   1.405  13.229 -0.9041 -1.2260 -0.9142
 8053SOL    HW235619   0.087   1.277  13.188  0.9304  0.2177 -0.8915
 8054SOL     OW35620   3.853   1.993   3.893  0.2503  0.2419  0.5752
 8054SOL    HW135621   3.838   1.899   3.901 -1.4218  0.4618  0.0557
 8054SOL    HW235622   3.767   2.032   3.910 -0.3874 -1.3403  1.0153
 8055SOL     OW35623   4.468   0.242   7.633  0.2219  0.0393  0.4227
 8055SOL    HW135624   4.545   0.253   7.577 -0.7853  2.3073 -0.5486
 8055SOL    HW235625   4.501   0.194   7.708  0.9484  2.4108  1.5918
 8056SOL     OW35626   2.001   3.836  10.952  0.8197  0.2200 -0.0381
 8056SOL    HW135627   2.068   3.895  10.987  1.8302  0.5236 -2.4870
 8056SOL    HW235628   2.027   3.766  11.013  0.6261  2.6525  2.8406
 8057SOL     OW35629   2.931   3.103   8.124  0.0972  0.2872  0.1109
 8057SOL    HW135630   2.837   3.100   8.142  0.1166 -0.3433  0.0886
 8057SOL    HW235631   2.944   3.167   8.054  2.4429  0.5403  0.7494
 8058SOL     OW35632   3.013   1.799   7.001 -0.1663  0.0794  0.3088
 8058SOL    HW135633   2.929   1.787   6.956 -1.1287  1.1256  1.8494
 8058SOL    HW235634   2.983   1.780   7.090  2.9848  0.2476  1.3819
 8059SOL     OW35635   3.706   3.911   2.982  0.2620 -0.4009  0.1392
 8059SOL    HW135636   3.748   3.925   2.897  0.3037 -0.2456  0.1857
 8059SOL    HW235637   3.650   3.840   2.948 -0.2582 -0.1732  0.5231
 8060SOL     OW35638   0.016   1.291  16.247 -0.4300  0.6596  0.4121
 8060SOL    HW135639   0.080   1.297  16.318 -1.4324 -0.5806  1.4276
 8060SOL    HW235640   4.706   1.202  16.262  1.3404  0.4439  2.7215
 8061SOL     OW35641   1.604   2.036  14.211  0.1826  0.1678  0.0866
 8061SOL    HW135642   1.512   2.012  14.222  0.4398 -0.8418  0.0230
 8061SOL    HW235643   1.653   1.956  14.224  0.5618  0.4607  0.4468
 8062SOL     OW35644   3.985   2.556   5.865  0.5838 -0.7505 -0.5287
 8062SOL    HW135645   3.987   2.462   5.881  2.0765 -1.1989 -3.3616
 8062SOL    HW235646   3.893   2.580   5.872  0.6765 -0.1915 -1.2605
 8063SOL     OW35647   1.087   1.966   1.970  0.2601  0.3502  0.3397
 8063SOL    HW135648   1.061   1.898   1.908  0.2732  0.1360  0.5643
 8063SOL    HW235649   1.081   1.911   2.049 -0.2117  1.3502  0.9974
 8064SOL     OW35650   1.558   0.373   2.843  0.5689  0.1946 -0.7433
 8064SOL    HW135651   1.626   0.340   2.785  1.9364 -0.0700  1.0093
 8064SOL    HW235652   1.619   0.422   2.899 -1.4952  0.7946  1.0087
 8065SOL     OW35653   4.116   2.486   3.036  0.1565  0.0514 -0.0654
 8065SOL    HW135654   4.092   2.578   3.043 -0.3479 -0.0956  0.1380
 8065SOL    HW235655   4.087   2.455   3.122 -2.9937 -1.7176 -1.7799
 8066SOL     OW35656   4.243   1.516   3.825 -0.1348 -0.0011  0.5370
 8066SOL    HW135657   4.268   1.540   3.736  0.0079 -1.3352  0.2110
 8066SOL    HW235658   4.276   1.591   3.874 -0.6039  1.6739 -1.6805
 8067SOL     OW35659   3.624   3.670   8.296 -0.7236  0.2190  0.6265
 8067SOL    HW135660   3.554   3.677   8.230  1.3683  1.4159 -1.4623
 8067SOL    HW235661   3.617   3.577   8.315 -1.1281  0.1025 -0.1017
 8068SOL     OW35662   4.255   4.236  16.079  0.0432  0.2294 -0.0250
 8068SOL    HW135663   4.188   4.302  16.067 -1.3936 -1.6273 -2.3374
 8068SOL    HW235664   4.227   4.187  16.156 -0.2314 -0.0193 -0.2827
 8069SOL     OW35665   0.942   3.617   7.729  0.5078  0.2228 -0.4575
 8069SOL    HW135666   0.961   3.674   7.803  3.6942 -0.1232 -0.9898
 8069SOL    HW235667   0.887   3.549   7.768  0.7477 -0.0579 -0.5969
 8070SOL     OW35668   4.337   3.004   7.412 -0.3475 -0.2949  0.0755
 8070SOL    HW135669   4.397   2.992   7.486 -1.1465  3.2189  1.2948
 8070SOL    HW235670   4.265   3.057   7.447  0.2067  0.9545 -0.7192
 8071SOL     OW35671   3.130   3.074   3.082  0.2555 -0.1875  0.3964
 8071SOL    HW135672   3.172   2.989   3.074  0.0928 -0.4203  1.9569
 8071SOL    HW235673   3.090   3.068   3.169 -0.1286  2.6090  0.4313
 8072SOL     OW35674   3.867   2.873  13.315 -0.2511 -0.1101 -0.5653
 8072SOL    HW135675   3.859   2.962  13.281  2.1029  0.9876  1.8047
 8072SOL    HW235676   3.870   2.824  13.232  1.9933  3.0839 -2.3570
 8073SOL     OW35677   3.044   3.023   7.018 -0.0131  0.3726  0.1519
 8073SOL    HW135678   3.042   2.936   7.058 -0.4075  0.5845  0.5975
 8073SOL    HW235679   2.980   3.063   7.076  0.9953  1.2892  0.6431
 8074SOL     OW35680   4.599   4.441   9.354 -0.6523  0.3173  0.0074
 8074SOL    HW135681   4.511   4.472   9.338 -0.6393  0.5350  0.3675
 8074SOL    HW235682   4.640   4.519   9.392  1.0490 -0.7681  0.4157
 8075SOL     OW35683   0.133   3.536   2.355  0.4183  0.5520 -0.2923
 8075SOL    HW135684   0.085   3.453   2.356 -0.4462  1.0695  1.4028
 8075SOL    HW235685   0.062   3.601   2.355  1.0183  1.2186  1.6642
 8076SOL     OW35686   3.985   1.489   5.954 -0.2675  0.8385 -0.1632
 8076SOL    HW135687   4.014   1.400   5.971  1.0077  1.3541  0.3755
 8076SOL    HW235688   3.892   1.482   5.977 -0.9183  1.5452 -2.6058
 8077SOL     OW35689   4.350   1.037  10.307  0.3231  0.1946  0.7123
 8077SOL    HW135690   4.316   1.119  10.344  1.8220  1.6777 -1.2285
 8077SOL    HW235691   4.292   1.035  10.230 -1.0399 -0.2478  1.7426
 8078SOL     OW35692   3.087   4.313  16.077 -0.2902 -0.3685 -0.5256
 8078SOL    HW135693   3.180   4.289  16.078  0.2820  1.8400 -0.9870
 8078SOL    HW235694   3.075   4.369  16.000  1.2010 -0.3555 -0.7629
 8079SOL     OW35695   1.427   2.043   4.835 -0.5176  0.4566  0.3023
 8079SOL    HW135696   1.482   2.110   4.875 -0.3602  0.6168 -0.1802
 8079SOL    HW235697   1.483   2.033   4.757  0.1636 -1.8656  1.0811
 8080SOL     OW35698   1.688   1.574  13.264 -0.3575 -0.8468 -0.2694
 8080SOL    HW135699   1.698   1.664  13.295 -0.5215 -1.0697  0.4243
 8080SOL    HW235700   1.647   1.532  13.339 -0.5981 -0.4818 -0.1961
 8081SOL     OW35701   2.929   0.510   1.976  0.0152 -0.0065 -0.2470
 8081SOL    HW135702   3.012   0.463   1.981  1.1422  2.0643  0.9124
 8081SOL    HW235703   2.958   0.596   2.008 -1.4533  0.9086 -1.3675
 8082SOL     OW35704   2.686   0.713   8.794  0.0217  0.4287 -0.1393
 8082SOL    HW135705   2.634   0.672   8.864  1.6454  1.2831  1.5571
 8082SOL    HW235706   2.676   0.654   8.720  0.4285  1.1764 -0.7853
 8083SOL     OW35707   1.638   1.130   7.509  0.4669 -0.1457  0.6931
 8083SOL    HW135708   1.602   1.069   7.573  1.4374 -1.0487  0.3803
 8083SOL    HW235709   1.560   1.182   7.491  0.0009 -0.6891  1.1781
 8084SOL     OW35710   1.742   3.935   1.054 -0.4385 -0.0191  0.0212
 8084SOL    HW135711   1.709   3.966   1.138  1.8383  1.0888  0.5194
 8084SOL    HW235712   1.671   3.890   1.008 -2.3071 -0.0497  2.9504
 8085SOL     OW35713   0.340   4.372  12.992  0.5845  0.0347  0.3549
 8085SOL    HW135714   0.351   4.455  12.946 -1.4389  0.8129  1.2752
 8085SOL    HW235715   0.420   4.380  13.045  0.0432  2.0483  0.8897
 8086SOL     OW35716   2.166   2.217  13.269 -0.2631 -0.6194 -0.0712
 8086SOL    HW135717   2.105   2.239  13.198 -0.9808  0.8057  1.0027
 8086SOL    HW235718   2.200   2.304  13.291 -2.2377  0.5134 -1.4254
 8087SOL     OW35719   0.044   4.617   6.398  1.3766 -0.0186  0.4556
 8087SOL    HW135720   0.032   4.541   6.341 -0.1943  0.8962 -0.4306
 8087SOL    HW235721   4.705   4.592   6.468 -1.0851 -1.2782 -2.0533
 8088SOL     OW35722   0.253   3.613   0.519  0.2126  0.2224 -0.3048
 8088SOL    HW135723   0.180   3.602   0.581  2.8850  1.0673  3.0073
 8088SOL    HW235724   0.327   3.602   0.578  1.8804  2.7494 -1.9346
 8089SOL     OW35725   0.207   0.828   2.949  0.8387  0.1336 -0.2974
 8089SOL    HW135726   0.197   0.814   2.855  1.5342  2.1545 -0.6777
 8089SOL    HW235727   0.137   0.771   2.979  1.0393  1.4229  2.5661
 8090SOL     OW35728   0.529   2.332   4.125  0.3684  0.0455  0.0137
 8090SOL    HW135729   0.547   2.283   4.044  2.1124 -0.3726  0.6641
 8090SOL    HW235730   0.458   2.391   4.101 -0.8242 -1.1277  0.6430
 8091SOL     OW35731   0.169   1.276   5.407 -0.2656 -0.1235 -0.6459
 8091SOL    HW135732   0.182   1.292   5.501  0.4712 -0.1052 -0.7521
 8091SOL    HW235733   0.156   1.181   5.398 -1.3079  0.1593 -2.0092
 8092SOL     OW35734   1.222   1.054   6.010  0.3303  0.0808  0.3050
 8092SOL    HW135735   1.193   1.069   5.920  1.2099  0.6748  0.1260
 8092SOL    HW235736   1.141   1.032   6.056 -0.1131  0.8604 -0.1089
 8093SOL     OW35737   0.961   0.141   9.377  0.0591 -0.0879  0.1235
 8093SOL    HW135738   0.871   0.109   9.390  0.5891 -1.5723  0.1994
 8093SOL    HW235739   0.966   0.187   9.461 -1.6454  1.2300 -0.5035
 8094SOL     OW35740   1.324   3.964  17.133 -0.6183 -0.3209 -0.2594
 8094SOL    HW135741   1.311   4.017  17.211 -2.0350 -1.0657  0.0030
 8094SOL    HW235742   1.320   3.877  17.171  2.9402  0.0547  0.9765
 8095SOL     OW35743   1.103   3.834   5.558  0.5275  0.0659 -0.2752
 8095SOL    HW135744   1.192   3.843   5.524  0.2713  2.7275 -0.2705
 8095SOL    HW235745   1.106   3.742   5.585  3.0546 -0.3667 -2.0675
 8096SOL     OW35746   3.119   1.412   5.845 -0.2126 -0.1118  0.4744
 8096SOL    HW135747   3.029   1.441   5.828  0.1736  0.0211 -1.3193
 8096SOL    HW235748   3.163   1.495   5.826  1.8582 -0.9828  1.4781
 8097SOL     OW35749   4.413   4.471   7.416 -0.0178 -0.6235 -0.1301
 8097SOL    HW135750   4.487   4.437   7.366  1.3006  3.0207 -0.6454
 8097SOL    HW235751   4.461   4.531   7.473  0.9262 -1.9574  0.4700
 8098SOL     OW35752   0.981   4.571  10.496  0.0802  0.3056  0.5357
 8098SOL    HW135753   0.893   4.603  10.516  0.3468  1.5720 -0.3497
 8098SOL    HW235754   1.006   4.546  10.585  2.2278  0.0427 -0.1343
 8099SOL     OW35755   1.720   3.992  11.201  0.4940  0.4580 -0.1910
 8099SOL    HW135756   1.735   3.941  11.281  1.3906 -2.0781 -1.9600
 8099SOL    HW235757   1.659   4.056  11.236 -0.2549 -0.4147  0.1000
 8100SOL     OW35758   3.705   3.797   9.154  0.0537  0.6229  0.4744
 8100SOL    HW135759   3.642   3.855   9.196 -0.7278 -0.9376  1.4199
 8100SOL    HW235760   3.712   3.838   9.068  0.3174  2.5945  1.4314
 8101SOL     OW35761   1.214   0.403   8.900  0.3163  0.4308  0.1892
 8101SOL    HW135762   1.173   0.435   8.819 -1.1160 -0.6983  0.4774
 8101SOL    HW235763   1.171   0.454   8.969  1.7381  0.3334  1.1373
 8102SOL     OW35764   4.605   2.423   1.987  0.0285  0.0266  0.0750
 8102SOL    HW135765   4.623   2.423   1.893  1.2737  1.6568  0.3087
 8102SOL    HW235766   4.524   2.475   1.989 -0.0262 -0.0764  0.5575
 8103SOL     OW35767   1.654   0.207   4.639  0.3847  0.5163  0.5682
 8103SOL    HW135768   1.733   0.152   4.631 -1.0909 -1.2499 -1.6044
 8103SOL    HW235769   1.597   0.160   4.699 -0.8357 -0.1701 -1.1388
 8104SOL     OW35770   1.003   0.926   5.201 -0.8322  0.2424  0.0052
 8104SOL    HW135771   1.053   0.973   5.268 -0.0855 -1.2864  0.5220
 8104SOL    HW235772   1.048   0.953   5.121 -0.6883  0.0949  0.0367
 8105SOL     OW35773   3.754   2.472   2.917 -0.1142 -0.3329 -0.0393
 8105SOL    HW135774   3.751   2.514   2.831  0.2603 -1.0197 -0.3898
 8105SOL    HW235775   3.809   2.395   2.901 -0.9182 -0.1887 -3.5460
 8106SOL     OW35776   0.930   2.040   9.447  0.4640 -0.0419  0.1093
 8106SOL    HW135777   0.897   2.083   9.526 -0.3382 -1.3272  0.4724
 8106SOL    HW235778   0.946   2.116   9.391 -0.7193 -0.1616 -0.3679
 8107SOL     OW35779   2.539   4.555   0.765 -0.0834 -0.0986  0.6695
 8107SOL    HW135780   2.481   4.481   0.785  2.7686 -2.3213  0.6902
 8107SOL    HW235781   2.593   4.554   0.843 -0.2216  0.6155  0.7706
 8108SOL     OW35782   0.881   0.199  11.854  0.4512  0.2701 -0.3455
 8108SOL    HW135783   0.880   0.113  11.896 -0.3684 -0.1319 -1.1754
 8108SOL    HW235784   0.815   0.247  11.903  0.8572  0.1397  0.3261
 8109SOL     OW35785   1.205   2.921   2.862  0.0692 -0.0673 -0.0294
 8109SOL    HW135786   1.136   2.940   2.798 -1.3289 -1.0329  1.1941
 8109SOL    HW235787   1.161   2.932   2.946 -1.9316  2.7599 -1.4681
 8110SOL     OW35788   0.561   2.733   8.313  0.1016  0.1576 -0.0056
 8110SOL    HW135789   0.498   2.679   8.264 -0.8468  1.9910 -0.8073
 8110SOL    HW235790   0.513   2.754   8.393  1.9223 -1.6648  1.5823
 8111SOL     OW35791   0.315   2.882   4.444 -0.0161  0.1602 -0.1443
 8111SOL    HW135792   0.227   2.910   4.419  0.1836  0.4198 -0.5498
 8111SOL    HW235793   0.289   2.830   4.520  1.0872  0.6324  0.5564
 8112SOL     OW35794   3.164   3.815  15.274  0.4996 -0.2983 -0.0487
 8112SOL    HW135795   3.241   3.773  15.238  0.8011  0.5577 -0.4109
 8112SOL    HW235796   3.127   3.865  15.201 -0.5639  0.7358  1.1779
 8113SOL     OW35797   3.554   4.715  13.850 -0.2714 -0.4409  0.0182
 8113SOL    HW135798   3.592   4.635  13.887 -0.1049 -0.4783 -0.2390
 8113SOL    HW235799   3.621   0.039  13.798  1.5546 -0.6740  2.1436
 8114SOL     OW35800   3.652   2.707   0.142  0.4297 -0.0723  0.1125
 8114SOL    HW135801   3.679   2.771   0.077  1.7290  2.6259  3.2780
 8114SOL    HW235802   3.735   2.671   0.174  1.1035  2.2057  0.9624
 8115SOL     OW35803   2.291   1.944   0.155  0.6027  0.3722 -0.0879
 8115SOL    HW135804   2.331   2.025   0.189  3.5856 -1.1640  0.0772
 8115SOL    HW235805   2.327   1.955   0.067  3.0438 -1.2102  0.7171
 8116SOL     OW35806   0.094   4.583  10.543 -1.0118  0.4630 -0.0609
 8116SOL    HW135807   0.189   4.598  10.539 -0.5349 -2.6338 -0.8669
 8116SOL    HW235808   0.076   4.639  10.618 -1.7802 -0.3187  0.3272
 8117SOL     OW35809   2.580   3.612   2.555  0.4696 -0.2762  0.2485
 8117SOL    HW135810   2.673   3.633   2.554 -0.0776  2.1447  0.0410
 8117SOL    HW235811   2.563   3.600   2.649  1.8459  3.4439  0.9619
 8118SOL     OW35812   1.874   2.685   1.383  0.2999 -0.2899 -0.9245
 8118SOL    HW135813   1.830   2.608   1.346 -1.1433  0.1357 -0.1106
 8118SOL    HW235814   1.917   2.718   1.305 -0.0290  0.5952 -0.7300
 8119SOL     OW35815   4.164   1.300   2.706  0.4143  0.0931  0.5587
 8119SOL    HW135816   4.216   1.297   2.625  1.1848  0.6211  1.0294
 8119SOL    HW235817   4.193   1.388   2.731 -0.5289  0.2418  1.0969
 8120SOL     OW35818   4.290   4.203  12.531 -0.0771 -0.4811 -0.3702
 8120SOL    HW135819   4.220   4.154  12.487 -0.8483  0.8683 -0.6510
 8120SOL    HW235820   4.253   4.290  12.523  0.8265  0.2484  3.3385
 8121SOL     OW35821   1.441   4.409   7.320 -0.6029  0.0910 -0.0505
 8121SOL    HW135822   1.353   4.374   7.337 -0.4073 -1.2683 -1.8931
 8121SOL    HW235823   1.425   4.504   7.317  1.3189  0.3781 -1.0960
 8122SOL     OW35824   3.009   4.215   8.483  0.4145 -0.1755 -0.1070
 8122SOL    HW135825   3.094   4.223   8.527 -0.9644  3.4152  1.8709
 8122SOL    HW235826   3.018   4.125   8.452  0.7011  0.4039 -1.6638
 8123SOL     OW35827   3.074   1.197  13.588 -0.5951  0.7905 -0.4914
 8123SOL    HW135828   3.033   1.147  13.659  0.8496  0.5503  0.1778
 8123SOL    HW235829   3.098   1.275  13.638 -2.1418  1.9844 -1.6342
 8124SOL     OW35830   0.083   2.340   8.644  0.0319 -0.0848  0.6659
 8124SOL    HW135831   0.055   2.314   8.556 -0.3570  0.4376  0.6325
 8124SOL    HW235832   0.008   2.382   8.686  0.5708  2.7424 -1.1880
 8125SOL     OW35833   1.424   0.993   9.558 -0.4932  0.0167  0.2334
 8125SOL    HW135834   1.494   0.971   9.619  0.0225  0.3652 -0.2363
 8125SOL    HW235835   1.475   1.025   9.484 -0.1475  0.0545  0.4875
 8126SOL     OW35836   3.124   0.345   4.399 -0.0006  0.3102 -1.2258
 8126SOL    HW135837   3.031   0.329   4.384 -0.3314 -1.3981  2.4671
 8126SOL    HW235838   3.121   0.434   4.434  0.1038 -0.1123 -0.1382
 8127SOL     OW35839   1.259   2.210   1.894 -0.2216  0.0379 -0.5603
 8127SOL    HW135840   1.203   2.136   1.917  3.3242 -1.1235  4.3518
 8127SOL    HW235841   1.212   2.280   1.939 -0.6616 -0.6568  0.0720
 8128SOL     OW35842   4.211   3.209   4.123 -0.6828 -0.2301 -0.2962
 8128SOL    HW135843   4.301   3.176   4.114 -1.3705 -2.3821  0.9322
 8128SOL    HW235844   4.221   3.262   4.203  2.0857  1.2590 -1.6194
 8129SOL     OW35845   3.852   3.293   4.602 -0.2563  0.1801 -0.2264
 8129SOL    HW135846   3.904   3.245   4.538 -1.1059 -0.2156 -0.6206
 8129SOL    HW235847   3.919   3.344   4.647 -1.6874  1.7156  0.1778
 8130SOL     OW35848   0.801   4.482   1.366  0.7413  0.4311  0.0493
 8130SOL    HW135849   0.816   4.488   1.460 -0.8495 -1.7893  0.4435
 8130SOL    HW235850   0.894   4.489   1.344  0.2567  2.0539 -1.5549
 8131SOL     OW35851   2.142   3.104  13.851 -0.4129  0.3222 -1.1012
 8131SOL    HW135852   2.132   3.156  13.930 -0.0937 -1.0740 -0.1497
 8131SOL    HW235853   2.176   3.170  13.790  0.8293  0.6283 -0.0729
 8132SOL     OW35854   3.567   4.046  15.859 -0.0482 -0.6315  0.3503
 8132SOL    HW135855   3.579   3.968  15.913 -0.6731 -0.3183  0.9401
 8132SOL    HW235856   3.624   4.109  15.903  2.1553 -1.0407 -1.9642
 8133SOL     OW35857   1.713   1.154   6.809 -0.5379 -0.3858 -0.7884
 8133SOL    HW135858   1.630   1.185   6.846  0.3693  1.8201 -0.6111
 8133SOL    HW235859   1.695   1.102   6.730 -0.0438 -0.5444 -0.7965
 8134SOL     OW35860   2.996   2.356   1.829  0.6419  0.3907  0.0088
 8134SOL    HW135861   3.066   2.302   1.792 -0.3450 -0.6894 -0.2695
 8134SOL    HW235862   3.053   2.431   1.846  1.2624 -0.4284  1.5845
 8135SOL     OW35863   0.767   4.011   3.972  0.0046 -0.0328 -0.3011
 8135SOL    HW135864   0.682   3.973   3.995 -0.2578  0.7678  0.0954
 8135SOL    HW235865   0.748   4.103   3.991  1.1522  0.4788 -1.6567
 8136SOL     OW35866   4.465   4.161   2.621  0.4001 -0.9301  0.1786
 8136SOL    HW135867   4.395   4.194   2.564  1.7615  0.0789 -0.8921
 8136SOL    HW235868   4.544   4.163   2.567  0.5385  0.2827  0.4309
 8137SOL     OW35869   4.303   4.664   4.181  0.0208  0.1643 -0.0345
 8137SOL    HW135870   4.294   4.574   4.215  0.3085 -0.9939 -3.0156
 8137SOL    HW235871   4.308   4.699   4.270  1.1035 -1.3208  0.4933
 8138SOL     OW35872   0.251   0.866  14.275 -0.1378 -0.7898 -0.0078
 8138SOL    HW135873   0.211   0.791  14.230  1.0146 -1.4753  0.1140
 8138SOL    HW235874   0.331   0.818  14.297 -0.5276 -2.1136 -1.4539
 8139SOL     OW35875   0.567   1.669  15.097  0.1258  0.0790 -0.1125
 8139SOL    HW135876   0.616   1.750  15.087 -0.7858  0.7759  1.0938
 8139SOL    HW235877   0.505   1.708  15.159 -0.8579  0.3737 -1.2871
 8140SOL     OW35878   2.097   0.448   0.720 -0.3935 -0.1660 -0.2513
 8140SOL    HW135879   2.145   0.399   0.652  0.3935 -0.8987  0.8327
 8140SOL    HW235880   2.143   0.414   0.797 -1.8275 -1.7893 -0.1111
 8141SOL     OW35881   1.718   0.991   8.947 -0.4380  0.3834 -0.7821
 8141SOL    HW135882   1.752   0.998   9.037 -0.7618  0.1280 -0.6398
 8141SOL    HW235883   1.795   1.010   8.894  0.8577  0.7599  1.2061
 8142SOL     OW35884   1.158   3.161   6.747  0.4086  0.2175 -0.1965
 8142SOL    HW135885   1.102   3.083   6.747  1.5450 -0.5994  0.6283
 8142SOL    HW235886   1.233   3.116   6.707  2.2938  2.2462  1.0871
 8143SOL     OW35887   0.968   2.998   7.970 -0.0009  0.8318  0.0617
 8143SOL    HW135888   1.044   3.055   7.983 -1.0638  2.3240 -0.2318
 8143SOL    HW235889   0.961   2.970   8.061  3.0203 -2.0524 -0.5757
 8144SOL     OW35890   3.519   3.650  10.726  0.1004  0.0802  0.6674
 8144SOL    HW135891   3.511   3.713  10.798 -2.0603 -0.2669  0.7280
 8144SOL    HW235892   3.609   3.623  10.744  1.2090  4.2330  1.4580
 8145SOL     OW35893   1.840   1.573   4.584 -0.1329  0.5001  0.6431
 8145SOL    HW135894   1.873   1.549   4.497  0.3258  0.9845  0.6850
 8145SOL    HW235895   1.747   1.580   4.562 -0.2520  3.2251  2.0928
 8146SOL     OW35896   1.557   4.680   7.473 -0.0279  0.8707  0.0924
 8146SOL    HW135897   1.592   4.592   7.461 -1.1453  0.5573 -0.7757
 8146SOL    HW235898   1.625   0.010   7.429 -0.1164  2.1440  1.3703
 8147SOL     OW35899   2.156   2.305   2.030  0.2258 -0.0837 -0.0770
 8147SOL    HW135900   2.239   2.285   2.073  1.6516  1.0357 -2.3266
 8147SOL    HW235901   2.094   2.250   2.078 -0.2132  0.6235  0.1574
 8148SOL     OW35902   0.914   0.510   2.323  0.5273  0.2951  0.2921
 8148SOL    HW135903   0.897   0.474   2.410  0.3786 -1.8392 -0.6123
 8148SOL    HW235904   0.875   0.446   2.263 -0.5702  0.8073  0.4634
 8149SOL     OW35905   3.289   3.086   4.400 -0.0038 -0.5840 -0.2877
 8149SOL    HW135906   3.301   3.173   4.439 -1.5166 -0.8828  0.8389
 8149SOL    HW235907   3.195   3.069   4.393  0.3839 -3.1952  0.6154
 8150SOL     OW35908   3.844   0.544  15.547 -0.2665  0.4245 -0.0205
 8150SOL    HW135909   3.814   0.480  15.611 -0.3512  1.2948  0.8248
 8150SOL    HW235910   3.880   0.604  15.613  1.3413 -1.0903  0.4755
 8151SOL     OW35911   0.164   0.991   5.332 -0.2123 -0.3408  0.4593
 8151SOL    HW135912   0.164   0.934   5.255 -1.0146 -1.3925  1.2419
 8151SOL    HW235913   0.257   0.983   5.350 -0.6281 -0.3876  2.5106
 8152SOL     OW35914   2.403   0.780   2.995 -0.1659  0.0837 -0.4979
 8152SOL    HW135915   2.452   0.711   2.952 -1.8696 -0.5678 -1.3557
 8152SOL    HW235916   2.400   0.853   2.933  0.5471  2.2171  1.9294
 8153SOL     OW35917   3.054   0.513   9.090 -0.0380  0.2701  0.5608
 8153SOL    HW135918   3.038   0.465   9.171 -0.5567 -0.8348 -0.2027
 8153SOL    HW235919   3.055   0.447   9.020 -0.5934  1.2897 -0.4004
 8154SOL     OW35920   1.283   2.888   6.907 -0.5582 -0.3248 -0.1856
 8154SOL    HW135921   1.208   2.946   6.906 -0.7609 -0.5520  2.3546
 8154SOL    HW235922   1.351   2.952   6.888  0.2703 -1.3644 -0.7677
 8155SOL     OW35923   1.063   3.682   6.566  0.2817  0.6221 -0.4207
 8155SOL    HW135924   0.990   3.660   6.623  1.8135 -0.5988  1.0456
 8155SOL    HW235925   1.115   3.608   6.596  0.1963  0.4886 -0.5984
 8156SOL     OW35926   2.350   4.452   9.329 -0.3213  0.5291 -0.5154
 8156SOL    HW135927   2.360   4.487   9.418 -0.9522 -0.5107 -0.0409
 8156SOL    HW235928   2.256   4.438   9.324  0.0939 -1.7065 -2.1520
 8157SOL     OW35929   0.013   0.863   6.653  0.4138 -0.2618 -0.1196
 8157SOL    HW135930   4.641   0.838   6.647 -0.3710  1.7375  3.3450
 8157SOL    HW235931   0.056   0.780   6.670 -1.0883 -1.0781 -0.2974
 8158SOL     OW35932   2.777   4.522  16.813 -0.8476  0.1915  0.1761
 8158SOL    HW135933   2.805   4.592  16.872 -0.8436  0.6950 -0.4134
 8158SOL    HW235934   2.786   4.443  16.866 -0.1826 -0.4802 -0.9303
 8159SOL     OW35935   0.153   3.577   9.230 -0.4178 -0.3073 -0.2707
 8159SOL    HW135936   0.097   3.646   9.266  0.3476  0.9020 -1.3805
 8159SOL    HW235937   0.241   3.598   9.264  0.3290 -2.7585 -0.6985
 8160SOL     OW35938   1.405   0.863   5.863 -0.1879 -0.5551 -0.0446
 8160SOL    HW135939   1.351   0.919   5.919 -0.3931 -0.1193 -0.6659
 8160SOL    HW235940   1.492   0.884   5.895 -0.8023  2.9965 -0.6903
 8161SOL     OW35941   1.074   1.439  13.917 -0.3725 -0.2268  0.2607
 8161SOL    HW135942   1.053   1.531  13.933 -2.5380 -0.7819  0.6894
 8161SOL    HW235943   1.040   1.422  13.829  0.6604 -2.0338  0.2161
 8162SOL     OW35944   0.422   2.951   7.066 -0.5772  0.0389 -0.1619
 8162SOL    HW135945   0.359   2.897   7.115 -0.7818  0.6506  0.2363
 8162SOL    HW235946   0.482   2.974   7.136 -0.7690  1.3589 -0.4356
 8163SOL     OW35947   2.633   3.890   3.436  0.3529  0.4945  0.3352
 8163SOL    HW135948   2.635   3.984   3.417  3.0523 -0.0129 -1.8900
 8163SOL    HW235949   2.653   3.897   3.529 -2.2901 -2.4775  1.1021
 8164SOL     OW35950   2.580   2.429   6.543  0.4913  0.2561  0.4901
 8164SOL    HW135951   2.611   2.410   6.454  0.2345  1.0286  0.2343
 8164SOL    HW235952   2.505   2.484   6.522  0.8562  0.0701 -1.2936
 8165SOL     OW35953   4.578   3.588  13.684  0.1861  0.3650  0.2743
 8165SOL    HW135954   4.582   3.555  13.595 -1.9166  2.9364 -0.7959
 8165SOL    HW235955   4.507   3.652  13.676  0.1008 -0.0462 -2.1048
 8166SOL     OW35956   0.238   1.673  14.929  0.2784  0.3172  0.1294
 8166SOL    HW135957   0.183   1.609  14.974 -0.0862  0.9524  0.5971
 8166SOL    HW235958   0.240   1.640  14.840  0.3729  1.5224 -0.3182
 8167SOL     OW35959   3.465   3.656  15.274 -0.4635 -0.3830 -0.6248
 8167SOL    HW135960   3.447   3.702  15.192  0.0038  1.3422  0.2461
 8167SOL    HW235961   3.548   3.694  15.303 -0.5064  1.3226 -2.7314
 8168SOL     OW35962   4.472   1.125   4.363  0.1109  0.1653  0.2611
 8168SOL    HW135963   4.412   1.114   4.289 -0.3616  1.0927  0.5078
 8168SOL    HW235964   4.441   1.212   4.386  0.8775  0.1801  1.2336
 8169SOL     OW35965   4.609   1.731   5.251 -0.2316  0.5433  0.1542
 8169SOL    HW135966   4.614   1.644   5.290 -1.7125  0.6734  0.6086
 8169SOL    HW235967   4.554   1.710   5.176  1.0373 -1.4476 -0.2174
 8170SOL     OW35968   0.778   1.859  12.804  0.5967  0.2253  0.9861
 8170SOL    HW135969   0.783   1.783  12.746 -1.9032  0.8715 -0.0520
 8170SOL    HW235970   0.788   1.930  12.741 -0.5477  0.7969  1.4593
 8171SOL     OW35971   0.097   2.824   5.452 -0.7494  0.2517 -0.0025
 8171SOL    HW135972   0.103   2.889   5.522 -1.1236  0.0076  0.2535
 8171SOL    HW235973   0.179   2.835   5.403 -1.2220  2.8188 -0.2344
 8172SOL     OW35974   3.584   2.502   4.998  0.6691  0.0262 -0.5791
 8172SOL    HW135975   3.557   2.589   4.968 -1.4658  0.6470  3.0416
 8172SOL    HW235976   3.503   2.451   4.990 -0.4219  1.5687  0.5669
 8173SOL     OW35977   1.381   0.655  11.778  0.2632  0.4629  0.9044
 8173SOL    HW135978   1.444   0.725  11.792  0.5194  0.0255  1.8986
 8173SOL    HW235979   1.428   0.573  11.793 -1.2375 -0.5421  0.2086
 8174SOL     OW35980   3.446   3.392  13.701 -0.1005  0.1746 -0.4947
 8174SOL    HW135981   3.508   3.420  13.768 -0.0701  0.2519 -0.5554
 8174SOL    HW235982   3.404   3.315  13.738  1.9161  0.3438  2.2119
 8175SOL     OW35983   4.251   0.749   0.554 -0.2044 -0.2757 -0.2795
 8175SOL    HW135984   4.164   0.711   0.542  0.2317 -0.6953 -2.0844
 8175SOL    HW235985   4.308   0.673   0.542  0.7970  0.6446 -1.3288
 8176SOL     OW35986   2.354   0.859   8.259 -0.7028 -0.0781 -0.8939
 8176SOL    HW135987   2.381   0.890   8.173  1.3339  0.3782 -0.1111
 8176SOL    HW235988   2.406   0.924   8.306 -0.7488 -1.0942  0.5620
 8177SOL     OW35989   1.950   4.054   8.224  0.3648  0.2164 -0.1541
 8177SOL    HW135990   2.037   4.033   8.256  0.2042  1.2094  0.9243
 8177SOL    HW235991   1.934   3.972   8.177 -0.7915  0.0827  0.4828
 8178SOL     OW35992   1.604   3.299  11.216  0.1685 -0.0147  0.4439
 8178SOL    HW135993   1.610   3.350  11.135  0.1380 -2.0023 -0.7887
 8178SOL    HW235994   1.671   3.234  11.197 -0.8822 -0.9298 -0.1508
 8179SOL     OW35995   0.353   2.902  11.329  0.1722 -0.1828  0.2792
 8179SOL    HW135996   0.259   2.923  11.329  0.6050  1.6579 -0.5084
 8179SOL    HW235997   0.379   2.932  11.416  2.2173 -0.4128 -0.2645
 8180SOL     OW35998   3.009   3.935  12.634  0.3418  0.2011 -0.2936
 8180SOL    HW135999   2.985   3.944  12.542 -0.3368 -0.7964 -0.2093
 8180SOL    HW236000   3.078   3.868  12.635 -0.3941 -0.5782 -1.6104
 8181SOL     OW36001   0.923   3.256  17.283 -0.2024  0.0430 -0.4507
 8181SOL    HW136002   0.876   3.231  17.362 -1.6579  1.9809 -0.7315
 8181SOL    HW236003   0.999   3.197  17.291 -1.9955 -2.2567 -0.3566
 8182SOL     OW36004   0.157   3.648  14.227  0.6310  0.1069  0.3277
 8182SOL    HW136005   0.071   3.689  14.237  0.9574  0.9664 -0.4182
 8182SOL    HW236006   0.220   3.719  14.224  0.4915  0.1953 -0.5176
 8183SOL     OW36007   1.866   1.770   2.489 -0.1703  0.1146 -0.6608
 8183SOL    HW136008   1.961   1.763   2.493 -0.0044  1.6050 -1.9188
 8183SOL    HW236009   1.834   1.688   2.451 -1.0519  0.7782 -1.3668
 8184SOL     OW36010   3.798   1.400   4.078  0.1576  0.7155  0.2061
 8184SOL    HW136011   3.750   1.317   4.073  0.3235  0.6607 -0.4546
 8184SOL    HW236012   3.737   1.451   4.131 -0.6626  0.5817 -0.6262
 8185SOL     OW36013   4.299   4.152   5.108 -0.5215  0.0001  0.1660
 8185SOL    HW136014   4.322   4.210   5.036 -1.9013 -1.2660 -1.2957
 8185SOL    HW236015   4.274   4.072   5.061  1.4023 -0.4519 -0.0909
 8186SOL     OW36016   3.334   2.749   8.248 -0.1100 -0.4444  0.5020
 8186SOL    HW136017   3.408   2.797   8.285  0.4301 -0.9181  0.0448
 8186SOL    HW236018   3.283   2.824   8.216 -0.4774 -0.0438  1.9970
 8187SOL     OW36019   1.482   3.798   3.267 -0.1379  0.1788  0.2285
 8187SOL    HW136020   1.548   3.729   3.260  0.9282  1.1587  0.5078
 8187SOL    HW236021   1.479   3.828   3.176  2.6382  0.2720  0.1554
 8188SOL     OW36022   4.488   0.018   3.581  0.2171 -0.1627  0.4221
 8188SOL    HW136023   4.552   4.669   3.597  0.4274  0.1504  0.9372
 8188SOL    HW236024   4.535   0.096   3.609 -0.9516  0.9566 -0.6931
 8189SOL     OW36025   1.856   2.171   6.510  0.3388  0.0019 -0.0089
 8189SOL    HW136026   1.913   2.125   6.572  1.7320 -0.5254 -1.6741
 8189SOL    HW236027   1.808   2.239   6.558  0.9798  0.0798  0.5237
 8190SOL     OW36028   0.476   2.226   7.316 -0.1679 -0.0006  0.4650
 8190SOL    HW136029   0.395   2.201   7.272 -0.1167 -0.1831  0.4728
 8190SOL    HW236030   0.498   2.306   7.268 -1.9660  0.8986  1.1757
 8191SOL     OW36031   0.391   2.213   3.023 -0.1049 -0.4571  0.1446
 8191SOL    HW136032   0.367   2.207   3.115  0.8079  0.3072  0.4237
 8191SOL    HW236033   0.398   2.308   3.013 -1.6657 -0.3656 -0.1586
 8192SOL     OW36034   3.305   2.092   4.343  0.1380 -0.3769  0.2684
 8192SOL    HW136035   3.332   2.019   4.398  0.1734  0.8207  1.8185
 8192SOL    HW236036   3.247   2.142   4.400  2.0483  1.6311  0.4627
 8193SOL     OW36037   0.568   2.288  10.919 -0.7222  0.6316  0.5793
 8193SOL    HW136038   0.491   2.255  10.871  1.3317 -1.3009 -1.3688
 8193SOL    HW236039   0.578   2.215  10.980 -1.8333  0.1653  0.2078
 8194SOL     OW36040   1.724   2.328   6.655  0.3980 -0.3133  0.3588
 8194SOL    HW136041   1.636   2.360   6.676  0.3363 -0.0008 -0.3715
 8194SOL    HW236042   1.779   2.393   6.699 -1.8620  2.0703 -0.3634
 8195SOL     OW36043   3.796   2.360   5.414  0.6075 -0.4725  0.2336
 8195SOL    HW136044   3.731   2.425   5.387  0.1492 -1.1564 -0.2989
 8195SOL    HW236045   3.742   2.304   5.469 -1.1207  0.5037 -0.4537
 8196SOL     OW36046   4.391   3.353  16.972 -0.0896 -0.5396  0.6008
 8196SOL    HW136047   4.355   3.353  17.061  0.4375  0.6235  0.8224
 8196SOL    HW236048   4.332   3.297  16.922  1.4423 -1.1612 -0.4977
 8197SOL     OW36049   1.007   0.546   4.118  0.2367  0.4522 -0.2027
 8197SOL    HW136050   0.928   0.546   4.171 -0.6549  0.5474 -1.5337
 8197SOL    HW236051   1.073   0.548   4.188 -0.9219 -1.0256  0.9381
 8198SOL     OW36052   1.437   3.404   1.455 -0.4597 -0.1307  0.0393
 8198SOL    HW136053   1.460   3.466   1.386 -2.1363  1.5744  1.0142
 8198SOL    HW236054   1.467   3.457   1.529  0.0894  0.7615 -0.8311
 8199SOL     OW36055   4.043   1.203   3.105 -0.1425 -0.6141  0.0470
 8199SOL    HW136056   4.128   1.242   3.124  0.0440 -0.3714 -1.2552
 8199SOL    HW236057   4.062   1.111   3.120 -1.7700 -0.8809  0.4379
 8200SOL     OW36058   0.082   1.726   8.639  0.4047  0.0082  0.1794
 8200SOL    HW136059   4.720   1.766   8.611 -0.2769 -1.2679  0.3145
 8200SOL    HW236060   0.128   1.743   8.557 -0.4976  0.6370 -0.1960
 8201SOL     OW36061   0.810   2.371   3.399  0.1896 -0.3822  0.1984
 8201SOL    HW136062   0.846   2.383   3.311 -0.9416 -1.2233 -0.3792
 8201SOL    HW236063   0.880   2.355   3.462 -1.5566 -2.2345  1.6695
 8202SOL     OW36064   1.340   2.160  17.203  0.5558  0.9084 -0.1620
 8202SOL    HW136065   1.425   2.203  17.210  0.3660  1.2957 -0.2621
 8202SOL    HW236066   1.362   2.075  17.163 -1.0478 -0.2626  1.4537
 8203SOL     OW36067   2.405   1.523   8.316  0.1862 -0.1162 -0.3560
 8203SOL    HW136068   2.376   1.491   8.231  1.3518 -2.1450  0.0044
 8203SOL    HW236069   2.468   1.455   8.339  0.9789  0.6264 -0.3202
 8204SOL     OW36070   1.895   3.518  11.620  0.1136  0.4414 -0.7234
 8204SOL    HW136071   1.870   3.465  11.695 -0.6674 -0.5402 -1.6736
 8204SOL    HW236072   1.989   3.507  11.632  0.0788  0.5106 -0.4116
 8205SOL     OW36073   2.896   1.053   7.040  0.3146 -0.2948 -0.5602
 8205SOL    HW136074   2.944   1.081   6.963 -0.5885  1.8746 -0.3285
 8205SOL    HW236075   2.831   1.124   7.048 -0.3952 -0.8673 -1.2442
 8206SOL     OW36076   3.538   4.155   7.400  0.2355  0.2868 -0.6298
 8206SOL    HW136077   3.577   4.088   7.455 -0.4488  0.6144  0.2565
 8206SOL    HW236078   3.599   4.228   7.410 -3.0301  2.7963  1.0935
 8207SOL     OW36079   3.356   0.093   8.052  0.0421 -0.1734  0.1868
 8207SOL    HW136080   3.400   0.022   8.004 -1.1639 -1.8742  1.5657
 8207SOL    HW236081   3.296   0.045   8.109  0.4244 -0.5744  0.2576
 8208SOL     OW36082   4.048   3.225   7.175  0.0219 -0.6726  0.4231
 8208SOL    HW136083   3.993   3.278   7.118 -0.5331 -2.3465 -0.6039
 8208SOL    HW236084   4.104   3.182   7.110  1.4758 -0.3136  1.4431
 8209SOL     OW36085   3.983   4.361   6.829  0.4050  0.6756  0.1475
 8209SOL    HW136086   3.897   4.361   6.788  1.5827  1.7790 -2.3323
 8209SOL    HW236087   3.955   4.335   6.916  0.8878 -2.0125 -0.4903
 8210SOL     OW36088   3.016   2.282  17.554 -0.0329  0.0454  0.1891
 8210SOL    HW136089   3.020   2.297  17.649  1.3264 -1.0105  0.2917
 8210SOL    HW236090   2.946   2.221  17.534  1.1212 -0.4072 -2.4754
 8211SOL     OW36091   3.166   4.082  14.208 -0.5679  0.0490 -0.1434
 8211SOL    HW136092   3.104   4.153  14.190  0.1226  1.0516  1.4485
 8211SOL    HW236093   3.240   4.126  14.166 -0.4249 -0.2114 -0.1579
 8212SOL     OW36094   0.796   1.068   5.240  0.1391 -0.7063  0.0791
 8212SOL    HW136095   0.770   1.045   5.151 -0.5893  1.8461 -0.3593
 8212SOL    HW236096   0.870   1.008   5.249 -0.4562 -1.4499 -0.0529
 8213SOL     OW36097   2.626   4.075  11.579 -0.3223  0.5609 -0.0462
 8213SOL    HW136098   2.646   4.004  11.641  1.2456 -0.4980 -1.7657
 8213SOL    HW236099   2.675   4.041  11.504  1.8990 -1.2181  2.2048
 8214SOL     OW36100   0.401   2.495   4.412  0.1741  0.1493 -0.6443
 8214SOL    HW136101   0.346   2.417   4.408  0.3783 -0.0116 -0.3433
 8214SOL    HW236102   0.388   2.526   4.323 -0.9783  1.4650 -0.0237
 8215SOL     OW36103   1.105   4.620   4.651  0.4925  0.1913 -0.0481
 8215SOL    HW136104   1.122   4.613   4.745  0.9382  0.2866 -0.1237
 8215SOL    HW236105   1.016   4.586   4.641  0.1519  1.0008  0.2587
 8216SOL     OW36106   4.530   3.690   4.521 -0.1925  0.8501  0.5807
 8216SOL    HW136107   4.470   3.678   4.448 -2.8917  0.1186  2.9351
 8216SOL    HW236108   4.611   3.706   4.472  0.6675  0.2436  1.7841
 8217SOL     OW36109   0.865   3.494   2.624 -1.0117  0.2982  1.0529
 8217SOL    HW136110   0.888   3.401   2.621  0.1147  0.6938 -2.6017
 8217SOL    HW236111   0.769   3.488   2.621 -1.1101  1.0488  3.0025
 8218SOL     OW36112   1.183   1.078   0.428  0.5533  0.7580 -0.0819
 8218SOL    HW136113   1.204   1.026   0.350 -1.1762  2.4097 -1.6546
 8218SOL    HW236114   1.088   1.070   0.430  0.3432  3.4839  0.1698
 8219SOL     OW36115   3.163   2.597   7.384 -0.0197  0.8361 -0.2954
 8219SOL    HW136116   3.246   2.644   7.389  0.4085 -0.0489  0.8545
 8219SOL    HW236117   3.194   2.507   7.391 -0.4627  0.8036  1.2699
 8220SOL     OW36118   3.230   0.118   4.792  0.7159 -0.0663  0.3042
 8220SOL    HW136119   3.310   0.122   4.739  0.7994 -2.6414  0.2142
 8220SOL    HW236120   3.265   0.126   4.881 -0.7260  0.8327  0.7891
 8221SOL     OW36121   1.921   1.234   9.131  0.3497 -0.3694 -0.0697
 8221SOL    HW136122   1.843   1.290   9.126  0.6642  0.3339  2.9211
 8221SOL    HW236123   1.970   1.271   9.057  0.8765  0.4923  0.7045
 8222SOL     OW36124   4.231   0.232   3.548  0.1202 -0.4088  0.2307
 8222SOL    HW136125   4.169   0.215   3.477 -0.5911 -0.5804  0.8907
 8222SOL    HW236126   4.282   0.302   3.509 -1.3700 -0.0707 -1.1064
 8223SOL     OW36127   3.849   0.238  11.740  0.1841  0.0807 -0.1277
 8223SOL    HW136128   3.893   0.323  11.731  0.7977 -0.0686  1.4399
 8223SOL    HW236129   3.920   0.175  11.731  2.1040  2.6038 -2.5107
 8224SOL     OW36130   1.234   1.082  10.792  0.6148 -0.1190 -0.2699
 8224SOL    HW136131   1.217   1.004  10.844 -3.0801  0.1119 -1.1073
 8224SOL    HW236132   1.322   1.095  10.826 -0.2252  4.0521  0.3316
 8225SOL     OW36133   3.550   3.702  11.223  0.5512  0.1817 -0.4721
 8225SOL    HW136134   3.610   3.775  11.206  2.3027 -1.6329 -1.9355
 8225SOL    HW236135   3.599   3.626  11.253 -0.8881 -0.0217  1.3840
 8226SOL     OW36136   1.991   0.478   1.281 -0.0825 -0.4855  0.1782
 8226SOL    HW136137   1.942   0.434   1.212  0.8129 -1.2194  0.0165
 8226SOL    HW236138   1.929   0.525   1.337 -0.6428 -0.4976 -0.4221
 8227SOL     OW36139   1.931   4.467   8.943  0.6505 -0.3838  0.7442
 8227SOL    HW136140   1.982   4.448   9.022 -0.0384  0.1090  1.3145
 8227SOL    HW236141   1.847   4.492   8.983 -0.0804  0.7035 -1.4962
 8228SOL     OW36142   0.550   4.379  16.445 -0.1830  0.3245 -0.0399
 8228SOL    HW136143   0.573   4.345  16.358  1.3921  0.8582  0.1631
 8228SOL    HW236144   0.635   4.396  16.485  1.7445 -3.0453 -2.7201
 8229SOL     OW36145   0.529   0.732   6.781 -0.4529  0.1448  0.1749
 8229SOL    HW136146   0.447   0.684   6.792 -0.3630  0.3404  1.7388
 8229SOL    HW236147   0.549   0.745   6.874 -0.0180 -0.5263  0.1707
 8230SOL     OW36148   3.367   3.801  10.953 -0.5335 -0.3036  0.2496
 8230SOL    HW136149   3.337   3.716  10.985  0.4443 -0.4552  0.7414
 8230SOL    HW236150   3.284   3.844  10.931 -1.2569 -1.3195  0.9936
 8231SOL     OW36151   2.753   1.759   0.946  0.1112  0.1704  0.0470
 8231SOL    HW136152   2.747   1.709   0.865 -1.9277 -0.4960  0.6100
 8231SOL    HW236153   2.681   1.718   0.995 -0.5232  2.5080  1.0788
 8232SOL     OW36154   1.913   2.430   5.908  0.2098 -0.3414  0.3494
 8232SOL    HW136155   1.829   2.433   5.953 -0.3624  0.9652 -0.7937
 8232SOL    HW236156   1.946   2.346   5.939  2.6882  1.6222  3.0088
 8233SOL     OW36157   3.702   1.481  13.465  0.4628 -0.5086  0.1908
 8233SOL    HW136158   3.657   1.544  13.410 -0.4085  0.0854  1.6009
 8233SOL    HW236159   3.630   1.430  13.502 -1.4578  0.3149 -2.3533
 8234SOL     OW36160   0.809   3.596   3.736  0.1007  0.3164  0.9716
 8234SOL    HW136161   0.755   3.675   3.738 -2.9740 -1.6892 -1.2437
 8234SOL    HW236162   0.848   3.603   3.649 -0.0445 -0.2912  0.8573
 8235SOL     OW36163   2.851   0.598  13.248 -0.0624 -0.6331 -0.6652
 8235SOL    HW136164   2.921   0.553  13.200 -1.4350 -0.8979 -2.4567
 8235SOL    HW236165   2.825   0.660  13.179  0.0672  2.0940  1.7180
 8236SOL     OW36166   0.381   0.099   9.432  0.1765 -0.3457 -1.2487
 8236SOL    HW136167   0.338   0.090   9.518  1.0278 -0.8765 -0.8778
 8236SOL    HW236168   0.462   0.146   9.454 -0.5948 -0.9036  2.7588
 8237SOL     OW36169   3.169   0.677   7.520  0.2283 -0.1422 -0.6233
 8237SOL    HW136170   3.204   0.651   7.606 -0.6408  3.3919  0.8088
 8237SOL    HW236171   3.226   0.629   7.459 -1.1370 -1.6519 -0.6868
 8238SOL     OW36172   3.582   2.388   4.541  0.3954 -0.2467  0.6547
 8238SOL    HW136173   3.640   2.404   4.615  0.7111 -0.7422  0.5169
 8238SOL    HW236174   3.571   2.293   4.546  0.2796 -0.3417 -1.3392
 8239SOL     OW36175   3.049   2.039  13.310  0.2632  0.3333 -0.1678
 8239SOL    HW136176   3.070   2.051  13.217 -0.2859  0.5715 -0.2624
 8239SOL    HW236177   3.123   1.987  13.340 -1.0812 -1.1950  0.4840
 8240SOL     OW36178   0.161   2.462   7.124 -0.5122  0.2329 -0.5623
 8240SOL    HW136179   0.108   2.532   7.087  0.1885  0.2259 -1.5789
 8240SOL    HW236180   0.170   2.409   7.045  0.3606 -2.9365  1.6327
 8241SOL     OW36181   0.130   3.497  11.017 -0.1806 -0.1708 -0.3301
 8241SOL    HW136182   0.078   3.441  10.959  0.8410  0.0464 -1.4424
 8241SOL    HW236183   0.192   3.542  10.960 -0.0595 -1.0899 -0.9063
 8242SOL     OW36184   3.161   0.390   3.431 -0.6759 -0.3585  0.0640
 8242SOL    HW136185   3.078   0.343   3.436 -0.7069 -0.1381  1.6438
 8242SOL    HW236186   3.219   0.318   3.456  0.1313  0.0801 -0.5152
 8243SOL     OW36187   3.155   3.758   6.471  0.2084 -0.0453  0.1139
 8243SOL    HW136188   3.100   3.680   6.461  0.6322 -0.4043  0.5296
 8243SOL    HW236189   3.167   3.789   6.381 -2.2607 -1.9855 -0.8678
 8244SOL     OW36190   1.172   1.887   8.467  0.1383  0.7338 -0.2434
 8244SOL    HW136191   1.265   1.887   8.491 -0.1868  0.3021  1.0165
 8244SOL    HW236192   1.128   1.853   8.545  1.6582 -2.9116 -0.9256
 8245SOL     OW36193   4.465   1.847   1.713  0.7526 -0.1254 -0.1615
 8245SOL    HW136194   4.543   1.875   1.761  0.5857 -0.5378  0.3376
 8245SOL    HW236195   4.477   1.753   1.701 -1.6347 -0.4373 -0.1832
 8246SOL     OW36196   3.633   2.976   4.999 -0.5742  1.0235 -0.0241
 8246SOL    HW136197   3.673   2.994   4.915 -1.3941  0.1470 -0.6028
 8246SOL    HW236198   3.620   3.062   5.040  0.2423  0.6318  1.0449
 8247SOL     OW36199   4.006   0.575  11.403  0.3239 -0.3121  0.2056
 8247SOL    HW136200   4.012   0.595  11.310 -0.2708  2.0867  0.6741
 8247SOL    HW236201   3.937   0.636  11.432 -0.8644 -1.4296 -0.2420
 8248SOL     OW36202   2.770   1.770  14.971 -0.0359 -0.1521 -0.7492
 8248SOL    HW136203   2.727   1.846  14.931  0.0666 -0.0837 -0.7288
 8248SOL    HW236204   2.780   1.808  15.058  0.6191  0.0650 -0.9184
 8249SOL     OW36205   2.365   2.192   5.233 -0.2637 -0.5114 -0.0851
 8249SOL    HW136206   2.385   2.275   5.190 -0.9095 -1.9885 -3.2241
 8249SOL    HW236207   2.379   2.215   5.325 -1.4709  0.9013 -0.2602
 8250SOL     OW36208   4.062   0.286  16.376  0.3721 -0.0803  0.3006
 8250SOL    HW136209   4.013   0.323  16.302 -1.4965 -1.6526  0.7419
 8250SOL    HW236210   4.154   0.293  16.351  0.7701  0.8601  2.0433
 8251SOL     OW36211   0.828   0.746   3.094  0.4899 -0.1159 -0.2411
 8251SOL    HW136212   0.913   0.716   3.127 -0.8998 -0.3194  3.1309
 8251SOL    HW236213   0.812   0.820   3.153  0.3091 -0.1751 -0.2156
 8252SOL     OW36214   2.001   3.540   4.377  0.4165 -0.6915  0.1996
 8252SOL    HW136215   2.079   3.515   4.426  1.2512  1.6178  0.0669
 8252SOL    HW236216   2.036   3.613   4.325 -1.5845  1.0970  1.3748
 8253SOL     OW36217   0.706   1.267   3.411  0.0746  0.7513  0.1127
 8253SOL    HW136218   0.639   1.294   3.347  0.6116  1.1311 -0.2872
 8253SOL    HW236219   0.789   1.267   3.363  0.7700  0.3257  1.3187
 8254SOL     OW36220   2.627   3.300  13.836 -0.1018 -0.3213 -0.0809
 8254SOL    HW136221   2.563   3.355  13.881 -0.4147 -1.7046  1.1737
 8254SOL    HW236222   2.703   3.331  13.886 -0.1056  0.4874 -0.5686
 8255SOL     OW36223   4.436   1.651  11.289 -0.6864 -0.0853  0.7972
 8255SOL    HW136224   4.415   1.650  11.196  0.9403 -2.0840  0.4602
 8255SOL    HW236225   4.436   1.745  11.308 -0.4088  0.0857 -0.0388
 8256SOL     OW36226   0.458   1.604   5.097 -0.2140  0.0513 -0.0669
 8256SOL    HW136227   0.490   1.528   5.047  0.1633  0.8372 -1.0117
 8256SOL    HW236228   0.461   1.562   5.183 -0.3521 -0.0920 -0.1303
 8257SOL     OW36229   4.423   2.852   4.025  0.2306  0.4910 -0.4673
 8257SOL    HW136230   4.339   2.862   4.070  1.0845 -0.9482  1.4543
 8257SOL    HW236231   4.400   2.784   3.963  1.4001 -0.6433  0.3576
 8258SOL     OW36232   4.275   4.525   6.254  0.3425 -0.8637 -0.0793
 8258SOL    HW136233   4.350   4.516   6.313 -1.1334 -1.7384  1.6781
 8258SOL    HW236234   4.219   4.454   6.284 -1.0125 -0.6501 -2.1445
 8259SOL     OW36235   1.079   2.401   1.999 -0.5896  0.4444  0.1719
 8259SOL    HW136236   1.012   2.375   2.062  0.1155 -1.2993  0.2120
 8259SOL    HW236237   1.069   2.496   1.995 -1.7133  0.3102 -0.5009
 8260SOL     OW36238   0.786   1.514   7.546 -0.3880 -0.1183 -0.0834
 8260SOL    HW136239   0.868   1.483   7.585 -0.3785  1.5241  1.2219
 8260SOL    HW236240   0.718   1.479   7.604  0.3345  1.1579  1.5461
 8261SOL     OW36241   3.065   0.088   0.529 -0.1471 -0.5527 -0.2884
 8261SOL    HW136242   3.121   0.116   0.602  1.2546 -0.5917 -1.3427
 8261SOL    HW236243   3.115   0.016   0.490  1.3323  0.2878  0.0496
 8262SOL     OW36244   0.738   4.666  10.625  0.4007  0.0362 -0.2675
 8262SOL    HW136245   0.696   4.682  10.540  0.3360 -1.4946 -0.5307
 8262SOL    HW236246   0.682   0.001  10.681 -1.1744  0.6610 -2.4581
 8263SOL     OW36247   2.694   3.304   7.022 -0.2507 -0.2983 -0.2341
 8263SOL    HW136248   2.768   3.345   6.977 -0.0993  1.6146  1.7493
 8263SOL    HW236249   2.710   3.341   7.109 -2.0984  0.7105 -0.3151
 8264SOL     OW36250   2.222   1.556   5.090  0.5181  0.4515 -0.0196
 8264SOL    HW136251   2.295   1.606   5.127  1.1176 -1.5855  1.5626
 8264SOL    HW236252   2.216   1.595   5.003 -2.8081 -0.2516 -0.0992
 8265SOL     OW36253   0.783   3.106   3.075 -0.0335  0.3171 -0.2257
 8265SOL    HW136254   0.759   3.188   3.032 -0.6368 -0.9549 -2.3031
 8265SOL    HW236255   0.775   3.128   3.168  1.4312  0.7701 -0.1988
 8266SOL     OW36256   0.785   1.241   4.028  0.2661 -0.1154  0.1841
 8266SOL    HW136257   0.865   1.190   4.037  0.9005  0.8029 -0.2690
 8266SOL    HW236258   0.726   1.184   4.077 -1.2402  0.2092 -1.2276
 8267SOL     OW36259   1.996   0.395   1.813 -0.0367  0.1681 -0.2423
 8267SOL    HW136260   1.957   0.379   1.727  2.4892  1.0527 -1.5306
 8267SOL    HW236261   1.914   0.401   1.863  0.0593  1.0008 -0.1860
 8268SOL     OW36262   2.186   0.255   6.688 -0.1870  0.6699  0.1257
 8268SOL    HW136263   2.198   0.335   6.635  0.2912  1.2552  1.1219
 8268SOL    HW236264   2.119   0.292   6.745 -1.0254 -0.3761 -0.1829
 8269SOL     OW36265   2.150   3.110   5.365 -0.2099 -0.4884 -0.4760
 8269SOL    HW136266   2.203   3.081   5.439 -0.3926  0.9508  0.2218
 8269SOL    HW236267   2.208   3.086   5.293 -0.4138 -1.9945 -0.1383
 8270SOL     OW36268   2.810   4.577   6.445 -0.3161 -0.2506  0.0045
 8270SOL    HW136269   2.749   4.604   6.376  0.8358  1.0066 -0.4992
 8270SOL    HW236270   2.796   4.649   6.507 -0.1770 -2.1487  2.2694
 8271SOL     OW36271   0.385   2.966   2.729  0.3366 -0.4117 -0.2131
 8271SOL    HW136272   0.464   2.975   2.675 -0.2616  2.1076 -0.6776
 8271SOL    HW236273   0.370   2.873   2.715 -0.0991 -0.2307 -0.9415
 8272SOL     OW36274   3.326   1.006  15.022 -0.4193  0.7169  0.4895
 8272SOL    HW136275   3.371   0.923  15.038  1.0524  1.3699 -0.2313
 8272SOL    HW236276   3.400   1.063  15.047 -0.1291  1.0058 -1.0190
 8273SOL     OW36277   3.947   3.724  16.055  0.5062  0.0630  0.2525
 8273SOL    HW136278   3.895   3.780  15.997  0.4470 -0.0177  0.2275
 8273SOL    HW236279   3.957   3.650  15.995  0.7683  0.5869 -0.3431
 8274SOL     OW36280   4.503   1.942   1.064  0.0605 -0.2147  0.0606
 8274SOL    HW136281   4.532   1.952   1.154 -1.6453  0.7552  0.5070
 8274SOL    HW236282   4.547   1.861   1.040  0.2494  0.1027 -0.6595
 8275SOL     OW36283   1.951   0.825   8.603  0.0216 -0.0467  0.4647
 8275SOL    HW136284   1.946   0.906   8.652 -2.4162 -0.4660  0.9084
 8275SOL    HW236285   2.037   0.822   8.560  0.8524 -1.5158  2.2075
 8276SOL     OW36286   2.093   4.033  10.145 -0.1679  0.4648 -0.3450
 8276SOL    HW136287   2.091   4.128  10.157 -0.0059  0.2884  1.0911
 8276SOL    HW236288   2.165   4.003  10.201  0.0059  0.2142 -0.7035
 8277SOL     OW36289   1.406   1.690   8.013  0.4257 -0.6028 -0.2109
 8277SOL    HW136290   1.389   1.611   7.962  1.2157 -0.4745 -0.6790
 8277SOL    HW236291   1.324   1.737   8.025  1.2507  0.2626  2.1587
 8278SOL     OW36292   1.944   4.320   2.403 -0.1571 -0.0052 -0.0368
 8278SOL    HW136293   2.012   4.386   2.389 -1.2501  0.6702 -2.0647
 8278SOL    HW236294   1.892   4.327   2.324 -2.2071  0.0715  1.3307
 8279SOL     OW36295   1.669   4.307   6.946 -0.2916 -0.3616 -0.4461
 8279SOL    HW136296   1.628   4.390   6.967  0.1150 -0.3984  0.4830
 8279SOL    HW236297   1.649   4.260   7.027  1.0342 -0.1063  0.0241
 8280SOL     OW36298   4.449   1.442   9.280 -0.0643 -0.5644 -0.5837
 8280SOL    HW136299   4.513   1.464   9.213  1.1644 -5.4745 -1.0198
 8280SOL    HW236300   4.510   1.411   9.346 -2.8995  1.1920  2.8502
 8281SOL     OW36301   3.459   4.357  15.782  0.2158 -0.0861 -0.3434
 8281SOL    HW136302   3.424   4.333  15.868 -0.2334  1.3123 -0.1389
 8281SOL    HW236303   3.398   4.321  15.717 -0.0413  1.1784 -0.7961
 8282SOL     OW36304   3.238   4.268   6.380  0.1250 -0.4937  0.5231
 8282SOL    HW136305   3.322   4.286   6.420 -0.7556 -0.4910  2.3740
 8282SOL    HW236306   3.176   4.258   6.452 -1.3620 -1.2250 -0.8286
 8283SOL     OW36307   1.401   0.040   7.872  0.8965  0.0566 -0.5454
 8283SOL    HW136308   1.387   4.666   7.863 -0.5986  0.3315 -1.0880
 8283SOL    HW236309   1.496   0.033   7.884  0.6397 -2.5629 -0.0170
 8284SOL     OW36310   4.591   3.418   7.485 -0.2594 -0.0067 -0.1626
 8284SOL    HW136311   4.588   3.325   7.507  0.3698 -0.1474 -0.6842
 8284SOL    HW236312   4.680   3.444   7.509 -0.0038 -0.7775 -0.2831
 8285SOL     OW36313   0.694   1.947   5.617  0.3233 -0.0357  0.0764
 8285SOL    HW136314   0.706   2.024   5.561  0.2762  1.2477  1.8453
 8285SOL    HW236315   0.757   1.952   5.689 -2.2567 -1.0689  2.4173
 8286SOL     OW36316   4.244   1.988   1.786  0.2292 -0.0549  0.2420
 8286SOL    HW136317   4.285   2.038   1.857 -0.7408  0.1576  0.6528
 8286SOL    HW236318   4.312   1.921   1.775  1.6419  1.2184  1.1778
 8287SOL     OW36319   1.466   0.440   5.275  0.2532  0.2994 -0.1366
 8287SOL    HW136320   1.420   0.509   5.228  1.2607 -0.0913 -1.7093
 8287SOL    HW236321   1.392   0.384   5.297 -0.3493  0.8071 -0.8706
 8288SOL     OW36322   4.525   4.015   3.826  0.5221  0.1113  0.6208
 8288SOL    HW136323   4.473   3.998   3.747  0.6449  1.9313  0.1405
 8288SOL    HW236324   4.612   3.987   3.796  1.3537  2.1924  1.1282
 8289SOL     OW36325   1.163   0.753   7.972  0.1533 -0.5185  0.0830
 8289SOL    HW136326   1.073   0.768   7.999  0.3307 -0.4762  0.6562
 8289SOL    HW236327   1.181   0.843   7.944  0.5360 -0.6469 -0.0882
 8290SOL     OW36328   2.463   4.381  12.301  0.0812  0.2104 -0.3117
 8290SOL    HW136329   2.457   4.429  12.218  2.2500  1.5722  0.3073
 8290SOL    HW236330   2.541   4.330  12.278  0.0061  0.0139 -0.1204
 8291SOL     OW36331   2.632   2.079   0.148  0.1627  0.1390  0.0761
 8291SOL    HW136332   2.565   2.143   0.171 -0.3346  0.2227 -1.5841
 8291SOL    HW236333   2.704   2.108   0.204  0.0879  1.0750 -0.3023
 8292SOL     OW36334   4.641   2.351   4.397  0.1431  0.0289  0.4331
 8292SOL    HW136335   4.586   2.414   4.351  0.3793  0.2162  0.4079
 8292SOL    HW236336   4.579   2.297   4.446  0.1327  0.8728  1.3373
 8293SOL     OW36337   3.999   0.583   7.723  0.3338  0.3215 -0.0639
 8293SOL    HW136338   3.971   0.644   7.654 -0.7587  0.2573  0.3205
 8293SOL    HW236339   4.045   0.514   7.676 -0.3531 -1.0879  1.3442
 8294SOL     OW36340   0.981   4.167   3.232 -0.2182 -0.1505  0.3225
 8294SOL    HW136341   0.963   4.196   3.321  0.5001  1.2606  0.0197
 8294SOL    HW236342   1.008   4.248   3.188  0.3176 -2.1384 -3.0319
 8295SOL     OW36343   0.494   0.092  11.051 -0.0749  0.0513  0.5470
 8295SOL    HW136344   0.423   0.153  11.032 -0.7372 -0.5453  1.0977
 8295SOL    HW236345   0.486   0.060  11.141 -1.6905 -1.3643 -0.0958
 8296SOL     OW36346   3.219   0.145   6.351  0.3648 -0.2745  0.4689
 8296SOL    HW136347   3.254   0.060   6.379  0.3050 -0.9643 -1.5752
 8296SOL    HW236348   3.202   0.191   6.434  0.2897  1.3930 -0.4726
 8297SOL     OW36349   0.302   0.538   3.132 -0.2049 -0.2455 -0.2869
 8297SOL    HW136350   0.296   0.543   3.228 -0.9230  2.7145 -0.4881
 8297SOL    HW236351   0.352   0.619   3.124  0.0056 -0.2717  0.6965
 8298SOL     OW36352   2.145   2.213   7.576  0.0821 -0.0248  0.4834
 8298SOL    HW136353   2.064   2.263   7.577 -0.6789 -1.2639 -0.4066
 8298SOL    HW236354   2.119   2.121   7.578 -0.4390  0.1450  1.5421
 8299SOL     OW36355   4.181   0.798   4.623 -0.8159  0.1747 -0.3778
 8299SOL    HW136356   4.257   0.771   4.573 -1.2627  1.1676 -1.5986
 8299SOL    HW236357   4.136   0.847   4.554 -0.8697 -2.8966 -2.4982
 8300SOL     OW36358   2.275   3.962  16.358  0.0851  0.0870  0.1424
 8300SOL    HW136359   2.308   3.889  16.305  0.5048 -0.7131  1.4914
 8300SOL    HW236360   2.318   3.947  16.442 -1.3008 -1.8765  0.5305
 8301SOL     OW36361   0.388   0.375   0.932 -0.2847  0.0538  0.1556
 8301SOL    HW136362   0.369   0.306   0.869 -0.5298 -0.8230  1.1965
 8301SOL    HW236363   0.309   0.372   0.986 -0.6115 -1.9011 -0.4343
 8302SOL     OW36364   0.207   3.070   4.160 -0.2057  0.1903 -0.2358
 8302SOL    HW136365   0.133   3.063   4.221  0.1674 -0.5423  0.1357
 8302SOL    HW236366   0.212   3.161   4.134  1.2764 -0.1881 -1.2399
 8303SOL     OW36367   4.372   3.911  15.848 -0.2439  0.0310 -0.1545
 8303SOL    HW136368   4.437   3.932  15.915 -0.2371  1.3129 -0.5520
 8303SOL    HW236369   4.287   3.907  15.893 -0.6608  0.3998 -0.9020
 8304SOL     OW36370   2.361   2.754   3.099  0.6007 -0.2388  0.1446
 8304SOL    HW136371   2.427   2.708   3.151  1.0506  0.3230  0.0765
 8304SOL    HW236372   2.416   2.827   3.071 -1.0004  1.0200  0.2593
 8305SOL     OW36373   0.084   3.836   8.318 -0.2385  0.1051  0.2714
 8305SOL    HW136374   0.006   3.813   8.368 -1.1063 -0.6699 -1.4188
 8305SOL    HW236375   0.151   3.785   8.362  0.4762  2.1328  1.5485
 8306SOL     OW36376   2.186   1.706   7.222  0.2971 -0.6738  0.4120
 8306SOL    HW136377   2.209   1.712   7.130  1.2379 -1.2515  0.6101
 8306SOL    HW236378   2.204   1.793   7.258  0.7906  0.8915 -3.6264
 8307SOL     OW36379   3.865   2.108   7.980  0.1407 -0.0795 -0.0660
 8307SOL    HW136380   3.915   2.180   8.017 -0.8869 -0.0439  1.2191
 8307SOL    HW236381   3.801   2.094   8.049  0.8823 -1.8463  0.2772
 8308SOL     OW36382   2.995   2.354   6.330 -0.4091 -0.1385 -0.1172
 8308SOL    HW136383   2.988   2.407   6.409 -4.5998  1.4364 -1.5340
 8308SOL    HW236384   3.078   2.390   6.300 -0.9090 -1.0958 -2.6214
 8309SOL     OW36385   1.700   0.257  14.583 -0.2865 -0.6571  0.2935
 8309SOL    HW136386   1.639   0.247  14.510 -0.1748 -0.8240  0.2201
 8309SOL    HW236387   1.735   0.346  14.578  0.0087 -0.7783  0.1765
 8310SOL     OW36388   2.659   3.251   5.836  0.0755 -0.5064  0.5841
 8310SOL    HW136389   2.632   3.272   5.747  2.1323  0.7980  0.2626
 8310SOL    HW236390   2.694   3.331   5.874  0.1736 -0.3151  0.0931
 8311SOL     OW36391   3.880   2.701  13.067 -0.2651 -0.2430  0.0571
 8311SOL    HW136392   3.934   2.725  12.992 -1.5004  1.9479 -0.1242
 8311SOL    HW236393   3.910   2.611  13.077 -1.5660 -0.6100  0.7198
 8312SOL     OW36394   2.073   0.442   6.341 -0.4388 -0.3958 -0.0495
 8312SOL    HW136395   2.158   0.472   6.372 -0.3116 -0.5723 -0.2237
 8312SOL    HW236396   2.113   0.401   6.264  0.4549 -0.7597  0.6100
 8313SOL     OW36397   2.788   3.503   2.325 -0.1198  0.0916 -0.2010
 8313SOL    HW136398   2.728   3.430   2.317  0.9316 -0.7937  0.0330
 8313SOL    HW236399   2.787   3.535   2.235  0.7488 -0.9178 -0.5531
 8314SOL     OW36400   1.717   0.626   1.923 -0.6929 -0.3485  0.1170
 8314SOL    HW136401   1.642   0.571   1.900  1.8283 -3.3607 -0.9285
 8314SOL    HW236402   1.683   0.709   1.890  0.6311  0.6266  1.1803
 8315SOL     OW36403   0.576   1.880  13.452 -0.2597 -0.6159  0.5195
 8315SOL    HW136404   0.487   1.917  13.446  0.4129  0.9127 -0.0515
 8315SOL    HW236405   0.580   1.892  13.547 -2.6522  0.8995  0.4414
 8316SOL     OW36406   1.847   2.764   3.704 -0.1805 -0.5862 -0.0651
 8316SOL    HW136407   1.935   2.759   3.668 -0.4761  0.6516 -0.9503
 8316SOL    HW236408   1.849   2.693   3.769  0.3833 -1.2774 -0.8510
 8317SOL     OW36409   0.356   3.604   6.886  0.4735 -0.3010 -0.2699
 8317SOL    HW136410   0.275   3.561   6.914  1.4106 -0.5714  2.0087
 8317SOL    HW236411   0.379   3.553   6.809  0.8636 -0.4803 -0.0319
 8318SOL     OW36412   1.615   3.735   7.315  0.0127  0.1455  0.0851
 8318SOL    HW136413   1.544   3.672   7.329  1.6806 -1.7057  0.2075
 8318SOL    HW236414   1.686   3.679   7.285 -0.3069 -1.1445  1.7440
 8319SOL     OW36415   2.916   0.981  10.193  0.3822  0.2463 -0.2527
 8319SOL    HW136416   2.987   0.928  10.230 -0.4854  0.7568  2.1586
 8319SOL    HW236417   2.939   1.068  10.227  1.4898 -0.8284  1.7444
 8320SOL     OW36418   4.386   1.404  15.772 -0.0254 -0.0092  0.7560
 8320SOL    HW136419   4.458   1.350  15.740 -0.1999  0.8981 -1.2177
 8320SOL    HW236420   4.327   1.336  15.803  1.3268 -0.2768  2.7062
 8321SOL     OW36421   0.145   4.484   5.575 -0.0859 -0.0945  0.0021
 8321SOL    HW136422   0.196   4.454   5.650 -2.5824 -0.8591  1.3919
 8321SOL    HW236423   0.066   4.510   5.622 -1.6924 -1.8740 -1.6950
 8322SOL     OW36424   1.047   2.894   8.857  0.3782 -0.7829 -0.0973
 8322SOL    HW136425   1.052   2.854   8.944 -0.4511 -1.0308 -0.1607
 8322SOL    HW236426   0.953   2.909   8.848  0.1932 -1.3410  0.9096
 8323SOL     OW36427   3.591   0.043   5.149 -0.9192 -0.1263  0.3175
 8323SOL    HW136428   3.528   0.106   5.184  1.4086  2.2774  0.2136
 8323SOL    HW236429   3.539   0.004   5.078 -0.5932  0.1534 -0.0716
 8324SOL     OW36430   4.158   3.565   5.137  0.3595  0.7424 -0.1002
 8324SOL    HW136431   4.174   3.479   5.099  1.6192  0.8957  0.0964
 8324SOL    HW236432   4.069   3.564   5.175 -0.2778 -0.1480 -1.6048
 8325SOL     OW36433   4.216   2.687  17.122 -0.3050 -0.1565 -0.2894
 8325SOL    HW136434   4.262   2.729  17.049 -0.1218  1.7827  0.9554
 8325SOL    HW236435   4.292   2.650  17.167 -0.4866 -0.7015 -0.4204
 8326SOL     OW36436   3.339   3.103   5.194 -0.1232 -0.0950 -0.5774
 8326SOL    HW136437   3.293   3.034   5.242 -0.1522 -0.9242 -1.8073
 8326SOL    HW236438   3.289   3.104   5.113  1.5760 -0.6184 -1.6239
 8327SOL     OW36439   0.231   3.241   8.837 -0.4003 -0.4638  1.0946
 8327SOL    HW136440   0.266   3.330   8.849 -1.2910  0.1304 -0.7224
 8327SOL    HW236441   0.294   3.198   8.895  0.0405 -1.3659 -0.0518
 8328SOL     OW36442   3.597   1.143   0.257 -0.3916  0.2176  0.0488
 8328SOL    HW136443   3.571   1.235   0.252  0.5527  0.5904  1.5876
 8328SOL    HW236444   3.656   1.147   0.333 -1.7378  0.4294  1.0911
 8329SOL     OW36445   0.824   0.242   3.250 -0.0930 -0.9102 -0.0805
 8329SOL    HW136446   0.877   0.218   3.174 -0.7163  0.2262 -0.8618
 8329SOL    HW236447   0.749   0.285   3.210 -0.0443 -0.2898  0.4978
 8330SOL     OW36448   4.332   0.918  11.256 -1.1685  0.3519 -0.3247
 8330SOL    HW136449   4.262   0.982  11.268 -1.4955  0.0655 -0.7315
 8330SOL    HW236450   4.290   0.853  11.201 -2.7081  0.8739  0.2227
 8331SOL     OW36451   4.033   2.846  13.520 -0.3587  0.5674  0.1047
 8331SOL    HW136452   3.969   2.779  13.544 -0.2865  0.6730  0.6027
 8331SOL    HW236453   3.979   2.894  13.458  0.3715 -1.2998 -1.9692
 8332SOL     OW36454   0.714   3.652  11.276  0.0204  0.2492 -0.1605
 8332SOL    HW136455   0.642   3.701  11.234 -2.6264 -2.1665  1.5654
 8332SOL    HW236456   0.754   3.727  11.321  0.1267 -1.2326  2.1849
 8333SOL     OW36457   1.245   0.377   9.351 -0.0731  0.4792  0.3288
 8333SOL    HW136458   1.309   0.406   9.416  0.6468  1.4276 -0.7788
 8333SOL    HW236459   1.162   0.382   9.398  0.0657 -2.8847  0.9699
 8334SOL     OW36460   3.164   3.769   7.642 -0.0218  0.0988  0.5232
 8334SOL    HW136461   3.111   3.690   7.642  1.1366 -0.6718 -3.5047
 8334SOL    HW236462   3.093   3.834   7.641  2.3678  2.6713 -1.7989
 8335SOL     OW36463   0.679   2.176   7.684  0.0143 -0.3421  0.1333
 8335SOL    HW136464   0.723   2.237   7.743  0.5500 -0.4996 -0.1055
 8335SOL    HW236465   0.633   2.234   7.624 -1.0058 -0.7667  0.4961
 8336SOL     OW36466   0.445   0.476   3.977 -0.5842 -0.0185  0.0190
 8336SOL    HW136467   0.498   0.404   3.944  0.7124  0.2342  1.5509
 8336SOL    HW236468   0.496   0.548   3.941 -0.4114 -1.8386 -3.3111
 8337SOL     OW36469   2.881   1.857  14.474 -0.1641  0.2163 -0.2751
 8337SOL    HW136470   2.824   1.786  14.504 -1.0213  0.6276 -0.9036
 8337SOL    HW236471   2.874   1.843  14.380 -1.2933  0.2360 -0.1941
 8338SOL     OW36472   0.352   2.518   5.363  0.3930  0.5015 -0.1523
 8338SOL    HW136473   0.278   2.551   5.312 -0.5133 -1.5198 -0.1441
 8338SOL    HW236474   0.314   2.453   5.422 -0.1908  1.2219  0.2749
 8339SOL     OW36475   4.543   3.615   6.038  0.2826 -0.5818  0.2181
 8339SOL    HW136476   4.473   3.650   6.094 -1.0803  0.4156 -2.1064
 8339SOL    HW236477   4.575   3.547   6.096 -2.5975 -0.9163  1.4345
 8340SOL     OW36478   0.326   2.245  15.916  0.1684  0.0074 -0.0003
 8340SOL    HW136479   0.319   2.227  16.010  0.3463  0.7603  0.1615
 8340SOL    HW236480   0.244   2.204  15.888 -0.1644  0.0572  0.8959
 8341SOL     OW36481   0.590   3.137   5.721  0.3113  0.3937  0.6800
 8341SOL    HW136482   0.567   3.090   5.641  2.9177 -2.0136  1.3421
 8341SOL    HW236483   0.643   3.204   5.677 -1.2261  1.1294 -0.0682
 8342SOL     OW36484   3.242   1.840   6.090 -0.3815  0.1031  0.2462
 8342SOL    HW136485   3.194   1.852   6.008  1.5274 -0.0117 -0.8957
 8342SOL    HW236486   3.319   1.892   6.064  0.2480 -1.3831 -0.8633
 8343SOL     OW36487   2.293   2.162   2.415  0.3176  0.0367  0.4757
 8343SOL    HW136488   2.359   2.216   2.458 -1.0594  0.0369  2.6116
 8343SOL    HW236489   2.222   2.226   2.412 -0.9747 -1.4126 -0.1041
 8344SOL     OW36490   0.105   2.692   3.282  0.3350  0.2537  0.0383
 8344SOL    HW136491   0.144   2.779   3.269 -0.0406  0.7755  2.2428
 8344SOL    HW236492   0.106   2.687   3.378 -1.6892  0.1085  0.0664
 8345SOL     OW36493   0.479   1.454   4.171 -0.1339  0.3300  0.0922
 8345SOL    HW136494   0.494   1.502   4.090  1.8927  0.5763  0.6121
 8345SOL    HW236495   0.384   1.448   4.181 -0.0572  1.6772  1.6199
 8346SOL     OW36496   3.781   3.692  10.798 -0.4305  0.4470  0.1262
 8346SOL    HW136497   3.817   3.670  10.712  0.3817 -2.2550  1.1467
 8346SOL    HW236498   3.823   3.777  10.812 -0.8513  0.6158  0.3378
 8347SOL     OW36499   4.567   3.419   4.170 -1.0661 -0.1468 -0.0612
 8347SOL    HW136500   4.603   3.479   4.104  0.5508 -0.3540  0.6222
 8347SOL    HW236501   4.495   3.471   4.204  0.1196  1.0410  0.6766
 8348SOL     OW36502   0.623   4.500   7.917 -0.2239  0.1248 -0.3407
 8348SOL    HW136503   0.565   4.497   7.841  2.2117  1.8223 -2.2608
 8348SOL    HW236504   0.686   4.430   7.903 -0.7677 -0.4757  0.1689
 8349SOL     OW36505   1.946   4.588   7.459  0.4722  1.1007 -0.5983
 8349SOL    HW136506   1.927   4.655   7.525  0.0074 -0.2436  0.6605
 8349SOL    HW236507   1.861   4.568   7.419 -0.9322  0.4185  2.7194
 8350SOL     OW36508   1.367   0.412   0.596 -0.4770  0.5561  0.9896
 8350SOL    HW136509   1.296   0.465   0.631 -2.3547 -2.4612  1.7264
 8350SOL    HW236510   1.444   0.453   0.636  0.4924  1.6092 -1.9425
 8351SOL     OW36511   1.456   2.697   3.162  0.4076 -0.5334  0.1108
 8351SOL    HW136512   1.360   2.700   3.159  0.4157  0.4960  0.7109
 8351SOL    HW236513   1.478   2.613   3.202  0.0341 -0.8958 -0.4557
 8352SOL     OW36514   2.344   0.146   1.969  0.4729  0.8642 -0.4847
 8352SOL    HW136515   2.310   0.183   2.050  0.0132  1.3747 -0.9149
 8352SOL    HW236516   2.312   0.056   1.983 -0.9521  1.5091  0.4505
 8353SOL     OW36517   0.462   0.125   4.641  0.2664 -0.3484 -0.6192
 8353SOL    HW136518   0.496   0.036   4.649  1.0594  0.3437  3.8587
 8353SOL    HW236519   0.535   0.176   4.678 -0.9187 -0.4070  1.7421
 8354SOL     OW36520   0.881   4.002   8.796 -0.0159  0.3235  0.1079
 8354SOL    HW136521   0.922   4.074   8.844 -1.6986  1.1477  0.3191
 8354SOL    HW236522   0.848   3.945   8.865  2.4437  1.3675  2.1443
 8355SOL     OW36523   2.968   1.597   2.672 -0.3721  0.0499  0.2513
 8355SOL    HW136524   2.887   1.592   2.621  0.5246 -1.8872 -0.9942
 8355SOL    HW236525   3.025   1.546   2.614  0.6273  2.2370 -0.6628
 8356SOL     OW36526   0.780   0.327   2.539  0.2034 -0.1578 -0.2262
 8356SOL    HW136527   0.691   0.298   2.518  0.3239 -0.8157  0.1614
 8356SOL    HW236528   0.762   0.340   2.632 -0.6146  1.9179 -0.6800
 8357SOL     OW36529   1.030   3.307   3.245  0.6785 -0.0993 -0.9436
 8357SOL    HW136530   0.950   3.350   3.215  0.0053 -1.1213 -0.6393
 8357SOL    HW236531   0.995   3.269   3.326  0.0066  0.1568 -1.1146
 8358SOL     OW36532   4.556   1.377  17.439 -0.0732  0.0443  0.7521
 8358SOL    HW136533   4.589   1.447  17.383 -0.3237  0.2867  0.9106
 8358SOL    HW236534   4.624   1.312  17.425 -0.9255 -0.8186  0.5614
 8359SOL     OW36535   1.366   3.729   3.805  0.0350 -0.5970  0.5862
 8359SOL    HW136536   1.458   3.716   3.829  0.3904  0.4684 -0.1767
 8359SOL    HW236537   1.336   3.642   3.778 -1.2374 -0.4813  1.6432
 8360SOL     OW36538   2.959   0.812   2.883 -0.0166 -0.3246 -0.4881
 8360SOL    HW136539   2.998   0.745   2.826  1.3887  0.6474 -0.6607
 8360SOL    HW236540   2.948   0.884   2.821 -1.2870 -1.6152 -1.7400
 8361SOL     OW36541   0.974   2.795   9.098  0.1094 -0.5345  0.3359
 8361SOL    HW136542   1.057   2.753   9.123  1.0872  1.2424  0.0210
 8361SOL    HW236543   0.987   2.888   9.114 -1.2186 -0.1977 -0.6144
 8362SOL     OW36544   1.484   3.884  11.699 -0.1682  0.1568  0.3566
 8362SOL    HW136545   1.561   3.830  11.684  0.3979  1.5734 -1.7653
 8362SOL    HW236546   1.473   3.931  11.617 -1.0116 -2.7895 -1.1923
 8363SOL     OW36547   2.821   0.681   6.650  0.2665  0.2812  0.2932
 8363SOL    HW136548   2.736   0.657   6.614  1.7223 -0.7255 -2.5053
 8363SOL    HW236549   2.848   0.751   6.591  0.0440 -1.0629 -1.4047
 8364SOL     OW36550   1.408   1.317   7.526 -0.0224 -0.7843  0.3205
 8364SOL    HW136551   1.418   1.326   7.621  1.3759  0.3383  0.0660
 8364SOL    HW236552   1.344   1.247   7.515  0.6779 -1.1397 -1.4690
 8365SOL     OW36553   3.325   4.233  14.036  0.0507  0.1252  0.0643
 8365SOL    HW136554   3.379   4.242  13.957 -0.8135 -3.2207 -0.9223
 8365SOL    HW236555   3.397   4.205  14.093 -2.1278 -1.0192  2.2273
 8366SOL     OW36556   2.057   4.605   0.606 -0.2672 -0.2231  0.2445
 8366SOL    HW136557   2.018   4.691   0.590 -0.5778  0.0868  2.5779
 8366SOL    HW236558   2.152   4.619   0.607 -0.2750 -0.2052  0.7506
 8367SOL     OW36559   4.074   3.232   7.659 -0.3107 -0.9205 -0.3250
 8367SOL    HW136560   4.003   3.257   7.718 -0.0775 -0.2078 -0.3443
 8367SOL    HW236561   4.103   3.150   7.699  1.1848  0.1719  0.8820
 8368SOL     OW36562   2.295   0.921   4.625 -0.6838 -0.7441 -0.3121
 8368SOL    HW136563   2.237   0.946   4.696 -1.1742  1.5251 -1.5086
 8368SOL    HW236564   2.267   0.831   4.609 -3.8000  0.5596 -2.2491
 8369SOL     OW36565   2.261   1.492   3.638 -0.1915 -0.7428  0.2239
 8369SOL    HW136566   2.310   1.571   3.615 -1.8855  0.5057  0.8565
 8369SOL    HW236567   2.194   1.484   3.570 -0.6384  2.1628  0.2999
 8370SOL     OW36568   4.578   3.756   9.412  0.2643 -0.1584  0.1918
 8370SOL    HW136569   4.487   3.776   9.390  1.4264  3.1413 -1.5042
 8370SOL    HW236570   4.620   3.838   9.437  0.4465 -0.0134 -0.5757
 8371SOL     OW36571   1.551   1.027   1.611 -0.0263 -0.2827  0.2562
 8371SOL    HW136572   1.466   1.026   1.566 -0.7188  0.3836  1.5846
 8371SOL    HW236573   1.524   1.079   1.686  0.3922  0.6895 -0.2673
 8372SOL     OW36574   1.712   4.320   2.252 -0.3519  0.1724  0.1060
 8372SOL    HW136575   1.696   4.377   2.327 -2.4080  0.3450 -0.4615
 8372SOL    HW236576   1.735   4.384   2.184  1.5658  2.0588  2.5419
 8373SOL     OW36577   4.379   4.280   4.874  0.5422 -0.2910 -0.3815
 8373SOL    HW136578   4.425   4.364   4.874 -0.7499  0.4081 -1.3287
 8373SOL    HW236579   4.337   4.285   4.788 -0.5103  0.3609  0.1578
 8374SOL     OW36580   1.773   4.119   6.193  0.1060  0.1591 -0.1112
 8374SOL    HW136581   1.855   4.166   6.210  0.0073  1.4086 -3.0757
 8374SOL    HW236582   1.715   4.186   6.157  1.1423  0.6472 -0.8726
 8375SOL     OW36583   4.171   1.084  14.063  0.0552  0.0945  0.4709
 8375SOL    HW136584   4.117   1.158  14.037 -1.0030 -0.6593  0.5079
 8375SOL    HW236585   4.103   1.017  14.074  0.1251 -0.2787 -1.2446
 8376SOL     OW36586   1.901   3.234   5.354  0.1887 -0.4548 -0.3053
 8376SOL    HW136587   1.991   3.205   5.369  0.6579 -0.3444 -2.9364
 8376SOL    HW236588   1.891   3.308   5.413  0.2154 -0.2292 -0.5859
 8377SOL     OW36589   2.144   1.230   8.639  0.4301  0.2279  0.1996
 8377SOL    HW136590   2.102   1.171   8.577  0.8562  0.9899 -0.8102
 8377SOL    HW236591   2.151   1.176   8.718 -0.3584 -1.1003 -0.6356
 8378SOL     OW36592   3.216   2.413   5.988 -0.8710 -0.5015  0.0910
 8378SOL    HW136593   3.246   2.427   6.078  1.7218  4.0505 -1.4907
 8378SOL    HW236594   3.291   2.431   5.931  0.0092 -1.6400  0.8913
 8379SOL     OW36595   1.281   0.783   3.029  0.5106  0.2837  0.4549
 8379SOL    HW136596   1.315   0.706   2.982 -0.2240  0.3770 -0.2392
 8379SOL    HW236597   1.362   0.820   3.064  0.0643  0.0683  1.6879
 8380SOL     OW36598   1.914   3.289   6.486 -0.6248  0.1128 -0.5704
 8380SOL    HW136599   1.894   3.232   6.412 -2.2054  0.8055 -0.6556
 8380SOL    HW236600   2.010   3.288   6.479 -0.5874 -1.6177  0.1608
 8381SOL     OW36601   3.518   0.054   4.033  0.2814  0.6493  0.2792
 8381SOL    HW136602   3.561   0.012   3.958 -0.3377 -1.0022  0.8482
 8381SOL    HW236603   3.600   0.066   4.081  0.6134 -0.0819 -0.0973
 8382SOL     OW36604   4.465   2.725   8.773  0.3305  0.0388 -0.6471
 8382SOL    HW136605   4.426   2.771   8.699  0.1151 -1.6035 -1.5427
 8382SOL    HW236606   4.557   2.749   8.773 -0.0456  1.4718 -0.2525
 8383SOL     OW36607   3.645   0.197  11.518 -0.2178  0.3972 -0.2408
 8383SOL    HW136608   3.615   0.107  11.530 -0.5655  0.6822  1.0466
 8383SOL    HW236609   3.701   0.207  11.595  0.5191  0.2029 -0.7552
 8384SOL     OW36610   2.739   3.398   2.839  0.5136 -0.2327 -0.2449
 8384SOL    HW136611   2.747   3.355   2.754  1.6600  0.6352 -0.5745
 8384SOL    HW236612   2.658   3.449   2.842  1.2365  0.7488  2.6712
 8385SOL     OW36613   1.169   0.387  11.485 -0.4736  0.2997 -0.1145
 8385SOL    HW136614   1.203   0.364  11.572 -1.3426 -0.4214  0.0357
 8385SOL    HW236615   1.221   0.328  11.430 -0.2703 -1.3626  1.8256
 8386SOL     OW36616   2.384   4.218   8.363  0.1460 -0.2515  0.6846
 8386SOL    HW136617   2.359   4.309   8.381  0.0936 -0.4308  1.5563
 8386SOL    HW236618   2.472   4.222   8.327 -1.2755  1.3321 -2.6026
 8387SOL     OW36619   2.673   3.043   3.228  0.3053  0.3166  0.2388
 8387SOL    HW136620   2.613   3.094   3.282 -0.5710 -0.5497  0.0735
 8387SOL    HW236621   2.682   2.963   3.280  0.4047 -0.5740 -1.1510
 8388SOL     OW36622   0.736   0.225   6.867  0.5230 -0.8568 -0.3470
 8388SOL    HW136623   0.666   0.247   6.927 -0.0742 -0.1711 -1.2939
 8388SOL    HW236624   0.698   0.250   6.783  1.7466  1.4821 -0.2098
 8389SOL     OW36625   3.715   1.303   1.772 -0.5992  1.1086  0.9071
 8389SOL    HW136626   3.693   1.221   1.817 -0.6302  1.2744  1.1928
 8389SOL    HW236627   3.734   1.278   1.681 -0.2877  0.7137  1.0810
 8390SOL     OW36628   0.687   0.810   0.511  0.2462  0.4579 -0.4084
 8390SOL    HW136629   0.633   0.888   0.525 -0.8482  0.0657 -2.3089
 8390SOL    HW236630   0.678   0.822   0.416 -1.5404 -0.8461 -0.4202
 8391SOL     OW36631   2.541   0.213   7.299 -0.2408 -0.0419 -0.1431
 8391SOL    HW136632   2.626   0.200   7.258  0.6123  0.0945  1.5940
 8391SOL    HW236633   2.498   0.139   7.256 -0.4353 -0.5845  0.9832
 8392SOL     OW36634   0.463   3.599   7.157 -0.3031 -0.6274  0.6106
 8392SOL    HW136635   0.444   3.583   7.064  0.3341 -1.7902  0.6799
 8392SOL    HW236636   0.467   3.506   7.181 -1.6186 -0.4228  1.5929
 8393SOL     OW36637   0.987   4.044   2.718  0.3087 -0.0752  0.2872
 8393SOL    HW136638   0.985   4.043   2.622  2.6976 -1.0072  0.2536
 8393SOL    HW236639   0.942   4.124   2.746 -0.8103  0.3717 -2.7372
 8394SOL     OW36640   2.495   1.724  13.190  0.0919  0.2078 -0.1457
 8394SOL    HW136641   2.584   1.755  13.173  0.0354  0.2671 -0.3372
 8394SOL    HW236642   2.510   1.632  13.213 -0.2905  0.6968  2.0423
 8395SOL     OW36643   0.107   1.898   7.973  0.0782  0.4755 -0.0650
 8395SOL    HW136644   0.154   1.831   8.023  2.6352  0.6145 -2.3178
 8395SOL    HW236645   0.115   1.860   7.885  1.9964  0.5627  0.0819
 8396SOL     OW36646   3.858   2.855   8.763  0.7678  0.0431 -0.5798
 8396SOL    HW136647   3.867   2.928   8.824 -3.1602  0.6714 -0.7637
 8396SOL    HW236648   3.837   2.896   8.678 -2.2291 -0.2702 -0.0015
 8397SOL     OW36649   4.639   0.988   8.318  0.1340  0.2849  0.5774
 8397SOL    HW136650   4.635   1.044   8.240  1.5928  0.9508  0.9913
 8397SOL    HW236651   4.700   1.043   8.366  0.6702 -0.3375  0.6182
 8398SOL     OW36652   1.318   2.370   3.081 -0.0118  0.2168 -0.3076
 8398SOL    HW136653   1.306   2.443   3.020  1.3766  0.3710 -0.4035
 8398SOL    HW236654   1.267   2.407   3.153  2.2008  1.1952  0.7500
 8399SOL     OW36655   4.056   1.189  16.164  0.0263  0.3062  0.0427
 8399SOL    HW136656   3.999   1.241  16.221  0.4519  0.7488  0.0590
 8399SOL    HW236657   4.089   1.118  16.220 -1.3787 -1.1425 -0.9619
 8400SOL     OW36658   3.383   0.526   8.949 -0.2098  0.2438 -0.4550
 8400SOL    HW136659   3.318   0.511   8.880  0.0123  0.7149 -0.7650
 8400SOL    HW236660   3.434   0.445   8.951  2.0043  1.6271 -0.5479
 8401SOL     OW36661   1.136   2.861   2.577  0.2197  1.1587  0.0086
 8401SOL    HW136662   1.100   2.923   2.514 -1.5416  0.5726  0.4150
 8401SOL    HW236663   1.223   2.899   2.592  1.1094 -0.7413 -0.3397
 8402SOL     OW36664   4.588   2.410   8.831 -0.2465 -0.3103 -0.5332
 8402SOL    HW136665   4.514   2.378   8.881  0.1128 -0.2582  0.0270
 8402SOL    HW236666   4.545   2.448   8.754  1.3622 -0.1892 -1.3850
 8403SOL     OW36667   1.121   3.624   5.001  0.0841  0.1575 -0.6326
 8403SOL    HW136668   1.056   3.567   4.960 -0.0050 -1.5129  1.8291
 8403SOL    HW236669   1.131   3.685   4.927 -1.6034 -0.3989 -1.3266
 8404SOL     OW36670   3.609   3.498  17.352 -0.4680 -0.0623  0.5721
 8404SOL    HW136671   3.702   3.486  17.374 -0.0450 -1.0717 -1.7243
 8404SOL    HW236672   3.578   3.475  17.440 -2.4232  0.5438  0.0412
 8405SOL     OW36673   2.277   1.261   7.839  0.5877 -0.5766  0.1801
 8405SOL    HW136674   2.334   1.324   7.884 -0.8361  0.5948  0.3345
 8405SOL    HW236675   2.300   1.178   7.881  0.5515  0.0745  1.5145
 8406SOL     OW36676   2.635   1.434   4.579 -0.2887 -0.2734  0.1498
 8406SOL    HW136677   2.599   1.352   4.546 -1.3746  0.9144 -1.6100
 8406SOL    HW236678   2.624   1.408   4.670 -1.5750  1.1325  0.3933
 8407SOL     OW36679   0.792   0.568   4.649 -0.0610  0.3701 -0.4855
 8407SOL    HW136680   0.731   0.503   4.615  1.0793  0.4196 -2.6104
 8407SOL    HW236681   0.771   0.635   4.585 -0.2325  0.1908 -0.6128
 8408SOL     OW36682   0.684   0.055   6.003 -0.1435 -0.4388 -0.2070
 8408SOL    HW136683   0.668   0.115   5.930  1.6766 -1.7646 -1.6895
 8408SOL    HW236684   0.779   0.050   6.002 -0.1713 -1.7047  2.5321
 8409SOL     OW36685   0.157   1.022  10.462 -0.4731 -0.5001  0.3303
 8409SOL    HW136686   0.131   1.007  10.371  1.6660  0.0382 -0.3514
 8409SOL    HW236687   0.247   1.053  10.459 -0.9039  0.3098 -3.5055
 8410SOL     OW36688   1.302   1.513   3.524 -0.3552 -0.4868  0.2509
 8410SOL    HW136689   1.243   1.438   3.519 -0.4481 -0.2453 -2.6347
 8410SOL    HW236690   1.281   1.546   3.611 -0.5652  0.6509 -0.2270
 8411SOL     OW36691   2.812   0.489   3.102 -0.1551 -0.6423  0.0246
 8411SOL    HW136692   2.894   0.534   3.122 -0.5208  0.8836 -1.8691
 8411SOL    HW236693   2.846   0.402   3.085 -1.9411 -1.2948 -0.2289
 8412SOL     OW36694   0.595   1.614   8.248 -0.6695 -0.0353 -0.0064
 8412SOL    HW136695   0.617   1.697   8.205  0.3598 -0.5768 -0.5316
 8412SOL    HW236696   0.562   1.647   8.331 -2.4915  1.4070 -1.3002
 8413SOL     OW36697   4.043   3.935   8.681  0.3602 -0.2605  0.5441
 8413SOL    HW136698   4.102   3.937   8.756 -0.3161 -1.9484  1.1270
 8413SOL    HW236699   4.017   4.027   8.692 -1.7816 -0.4449 -2.8550
 8414SOL     OW36700   1.198   3.555   5.663  0.0045 -0.2346 -0.2414
 8414SOL    HW136701   1.214   3.508   5.581 -0.3185  1.0327 -1.0249
 8414SOL    HW236702   1.283   3.588   5.692 -0.0931 -0.0253 -0.1990
 8415SOL     OW36703   3.801   4.042  12.577  0.2780  0.1568 -0.2304
 8415SOL    HW136704   3.825   4.085  12.659  0.6614  0.7429 -0.6425
 8415SOL    HW236705   3.804   4.118  12.519  0.2622  2.4635  2.7753
 8416SOL     OW36706   2.418   1.985   3.992  0.5980  0.3663 -0.1804
 8416SOL    HW136707   2.416   1.925   3.918 -1.2327  0.4995 -0.2295
 8416SOL    HW236708   2.345   2.038   3.962  0.2675 -0.6460 -1.1780
 8417SOL     OW36709   1.181   4.183   7.965 -0.0035  0.2811 -0.2657
 8417SOL    HW136710   1.156   4.173   8.057  0.1154  0.2479 -0.2377
 8417SOL    HW236711   1.184   4.088   7.953  1.2944 -0.0176  2.3732
 8418SOL     OW36712   2.264   2.953  10.652 -0.2627  0.2303 -0.1193
 8418SOL    HW136713   2.207   2.915  10.586  1.3301 -0.9571 -0.8187
 8418SOL    HW236714   2.298   2.869  10.685 -1.3525 -0.4041 -0.6142
 8419SOL     OW36715   0.885   0.088   7.336 -0.0109  0.5723 -0.6306
 8419SOL    HW136716   0.874   4.719   7.369  1.3078 -0.1100 -2.0323
 8419SOL    HW236717   0.957   0.081   7.273  1.9021  0.1513  1.5936
 8420SOL     OW36718   3.851   3.677  16.647 -0.5196 -0.0242 -0.0752
 8420SOL    HW136719   3.847   3.733  16.724  0.1362 -1.1729  0.7919
 8420SOL    HW236720   3.794   3.604  16.669  0.0883 -1.4686 -3.3491
 8421SOL     OW36721   2.484   2.268   2.557 -0.1843 -0.3054 -0.0495
 8421SOL    HW136722   2.459   2.361   2.554 -1.5050 -0.7402 -2.7303
 8421SOL    HW236723   2.523   2.281   2.643 -1.4855  0.5177  0.4196
 8422SOL     OW36724   3.218   2.399  13.141  0.3395  0.3468 -0.4031
 8422SOL    HW136725   3.139   2.349  13.159  0.8952 -0.4263 -0.0743
 8422SOL    HW236726   3.189   2.480  13.184 -0.7530 -0.7545  0.9449
 8423SOL     OW36727   0.657   3.398  10.350  0.1684  0.1176  0.0487
 8423SOL    HW136728   0.688   3.311  10.324  0.5884  0.3264 -0.1382
 8423SOL    HW236729   0.670   3.396  10.444 -1.2211 -2.4601  0.2068
 8424SOL     OW36730   0.693   4.705   3.059  0.2361  0.5292 -0.3561
 8424SOL    HW136731   0.684   4.668   2.971  0.1302 -1.4020  0.4754
 8424SOL    HW236732   0.623   0.050   3.057  0.0122  0.1947 -3.3700
 8425SOL     OW36733   1.637   3.348   7.607  0.0861  0.3949  0.1632
 8425SOL    HW136734   1.730   3.330   7.617  0.1243 -0.0648 -1.0065
 8425SOL    HW236735   1.604   3.275   7.660  0.6061  0.6179  0.7918
 8426SOL     OW36736   0.570   1.952   1.716  0.1344 -0.4413  0.0220
 8426SOL    HW136737   0.580   1.925   1.808  1.0950 -1.0131 -0.2455
 8426SOL    HW236738   0.545   1.872   1.671 -0.5397  0.2610 -0.8436
 8427SOL     OW36739   3.645   1.041   2.999 -0.6311 -0.2814  0.2316
 8427SOL    HW136740   3.659   0.953   2.964 -0.7113 -0.4941  0.7381
 8427SOL    HW236741   3.551   1.049   2.985 -0.3227  0.8425 -1.1981
 8428SOL     OW36742   1.653   3.576   3.815 -0.0974  0.2308  0.0143
 8428SOL    HW136743   1.674   3.486   3.842 -0.9203 -0.5555 -1.9022
 8428SOL    HW236744   1.712   3.562   3.741 -2.7328 -0.0894 -2.0402
 8429SOL     OW36745   4.628   2.246  10.570 -0.2932 -0.3130  0.3024
 8429SOL    HW136746   4.621   2.334  10.533 -1.2947 -0.6811 -0.3814
 8429SOL    HW236747   4.693   2.255  10.639 -0.0085 -2.5094  0.3157
 8430SOL     OW36748   4.310   3.164   5.300  0.7021 -0.1551 -0.0416
 8430SOL    HW136749   4.377   3.232   5.311 -0.9372  0.8934  3.3592
 8430SOL    HW236750   4.345   3.099   5.360 -0.5634 -1.6621 -0.9560
 8431SOL     OW36751   3.671   4.634  11.638  0.0837  0.3151 -0.7167
 8431SOL    HW136752   3.765   4.619  11.646  0.4188  1.3162 -2.8738
 8431SOL    HW236753   3.638   4.554  11.595 -1.7510  0.3889  0.5399
 8432SOL     OW36754   4.090   1.383  14.385 -0.1972 -0.4145 -0.1648
 8432SOL    HW136755   4.066   1.458  14.332 -2.3147 -1.0171 -0.0910
 8432SOL    HW236756   4.184   1.381  14.369 -0.8466 -1.8243 -3.7071
 8433SOL     OW36757   2.673   4.559   6.189  0.0037  0.0248 -1.0699
 8433SOL    HW136758   2.743   4.550   6.124  0.0323 -0.0365 -1.0310
 8433SOL    HW236759   2.659   4.469   6.220  2.6735  0.1595  0.5200
 8434SOL     OW36760   0.342   1.165   8.494 -0.0732 -0.4992 -0.6866
 8434SOL    HW136761   0.371   1.152   8.584 -0.7805  1.7934 -0.1236
 8434SOL    HW236762   0.375   1.254   8.482  0.1576 -0.1986  2.1397
 8435SOL     OW36763   3.605   3.406   2.158 -0.3749  0.3360  0.0662
 8435SOL    HW136764   3.651   3.372   2.081 -2.3252 -2.4093  0.1061
 8435SOL    HW236765   3.677   3.426   2.218  2.1088  1.1432 -3.1844
 8436SOL     OW36766   2.425   4.082  15.314 -0.1479 -0.2431  0.4795
 8436SOL    HW136767   2.378   4.023  15.256 -1.5307  0.8260  0.4774
 8436SOL    HW236768   2.387   4.061  15.400 -1.4072  0.1231  0.0243
 8437SOL     OW36769   2.637   2.595   2.260  0.1596  0.2494  0.3915
 8437SOL    HW136770   2.629   2.508   2.220 -1.7249  1.1390 -1.1353
 8437SOL    HW236771   2.622   2.656   2.189 -0.6350  0.4835  0.7600
 8438SOL     OW36772   0.463   1.567   5.614 -0.0871 -0.2138  0.5424
 8438SOL    HW136773   0.499   1.553   5.702 -1.5755  1.9399  1.5107
 8438SOL    HW236774   0.474   1.662   5.607 -0.5676 -0.1266  1.0232
 8439SOL     OW36775   0.219   0.144   2.314  0.4486  0.3397  0.0210
 8439SOL    HW136776   0.176   0.107   2.237  0.6627 -4.1458  2.0411
 8439SOL    HW236777   0.305   0.101   2.314  0.0010 -0.5542  0.5596
 8440SOL     OW36778   4.207   3.938   3.068  0.2988 -0.0946  0.1854
 8440SOL    HW136779   4.289   3.966   3.108  0.1965  3.1664 -1.8772
 8440SOL    HW236780   4.192   3.853   3.110  0.0498  0.1424  0.5796
 8441SOL     OW36781   4.517   3.627  17.012  0.2894 -0.2230  0.1024
 8441SOL    HW136782   4.498   3.533  17.002  0.7519 -0.2669 -0.4324
 8441SOL    HW236783   4.427   3.660  17.006  0.4812 -0.1503 -2.5264
 8442SOL     OW36784   1.820   3.296   2.936  0.5638 -0.0518 -0.6523
 8442SOL    HW136785   1.754   3.233   2.906  0.4839  0.7821 -2.2403
 8442SOL    HW236786   1.825   3.282   3.031  2.2988  0.6777 -0.6397
 8443SOL     OW36787   1.108   1.967   8.164  0.8288  0.5034 -0.3493
 8443SOL    HW136788   1.189   2.003   8.200 -0.8895 -0.1773  4.2816
 8443SOL    HW236789   1.055   2.047   8.158  0.9695  0.8147  2.5007
 8444SOL     OW36790   4.105   1.424   5.366 -0.0913 -0.2185  0.0856
 8444SOL    HW136791   4.103   1.445   5.273  1.5307 -0.9972 -0.1342
 8444SOL    HW236792   4.195   1.422   5.400 -1.1052  3.9475  3.0285
 8445SOL     OW36793   2.292   1.076   2.475 -0.1715  0.4760 -0.4970
 8445SOL    HW136794   2.240   1.079   2.395 -1.1610  0.0296  0.1267
 8445SOL    HW236795   2.351   1.147   2.451 -0.8818  1.6266  1.1662
 8446SOL     OW36796   4.616   4.692   3.307  0.3983  0.5498  0.0074
 8446SOL    HW136797   4.668   4.667   3.383  1.3187 -0.7825 -1.0769
 8446SOL    HW236798   4.638   0.065   3.306  3.1589 -0.1224  1.5555
 8447SOL     OW36799   0.845   2.155   5.569 -0.4735 -0.0232 -0.0430
 8447SOL    HW136800   0.821   2.222   5.505 -2.4991  0.6595  1.4272
 8447SOL    HW236801   0.777   2.175   5.634  0.1553  0.9398  0.3033
 8448SOL     OW36802   0.778   0.344  14.429  0.0435  0.3535 -0.3889
 8448SOL    HW136803   0.730   0.425  14.441  0.4599  0.4769  0.4809
 8448SOL    HW236804   0.774   0.353  14.333  1.7758  0.1944 -0.4822
 8449SOL     OW36805   4.569   2.467   6.220 -0.3921 -0.2675  0.4221
 8449SOL    HW136806   4.636   2.455   6.153  0.3611  3.2894  0.5338
 8449SOL    HW236807   4.599   2.402   6.284  0.9818 -0.0422 -0.0048
 8450SOL     OW36808   3.147   0.200   5.191 -0.3614  0.0480  0.2113
 8450SOL    HW136809   3.070   0.163   5.236 -0.1289  1.8140  2.0753
 8450SOL    HW236810   3.111   0.268   5.133  0.8484  0.6113  0.1252
 8451SOL     OW36811   3.598   3.791  10.496  0.1023  0.1139 -0.0040
 8451SOL    HW136812   3.580   3.885  10.509 -0.8626 -0.1742  0.7747
 8451SOL    HW236813   3.556   3.752  10.573 -0.7044  1.5506  0.2871
 8452SOL     OW36814   2.293   0.566  17.211 -0.2736  0.9436  0.6974
 8452SOL    HW136815   2.345   0.487  17.225 -0.4714  0.9658  1.5613
 8452SOL    HW236816   2.207   0.526  17.224 -1.0728  2.4817  0.1859
 8453SOL     OW36817   3.860   0.590   6.614  0.6233  0.1290  0.4450
 8453SOL    HW136818   3.779   0.632   6.644  0.1195  0.1572 -0.9225
 8453SOL    HW236819   3.901   0.648   6.549 -1.2895  0.9468 -0.0406
 8454SOL     OW36820   4.558   3.029   6.151  0.0221  0.6934 -0.6439
 8454SOL    HW136821   4.555   2.939   6.183  1.2935  0.6555 -0.6248
 8454SOL    HW236822   4.479   3.032   6.097 -2.7949 -1.0758  3.3831
 8455SOL     OW36823   2.176   0.669   3.132  0.3948 -0.0446  0.5470
 8455SOL    HW136824   2.268   0.672   3.108  1.2832 -4.6936  3.2482
 8455SOL    HW236825   2.177   0.735   3.200  1.3161 -1.1836  1.6227
 8456SOL     OW36826   3.610   0.398   3.827 -0.1953  0.4441 -0.2611
 8456SOL    HW136827   3.558   0.456   3.883  1.6596  1.7933  0.0515
 8456SOL    HW236828   3.678   0.451   3.787  2.1223 -1.1695  1.5285
 8457SOL     OW36829   0.196   3.280   6.736 -0.2798 -0.2582  0.4572
 8457SOL    HW136830   0.271   3.231   6.704 -1.3307 -0.4700 -1.6491
 8457SOL    HW236831   0.131   3.211   6.727 -2.6129  2.0816 -0.6295
 8458SOL     OW36832   2.985   3.810  12.007 -0.2505  0.4836 -0.1196
 8458SOL    HW136833   2.971   3.722  11.973 -1.9394  1.0602 -0.9340
 8458SOL    HW236834   3.026   3.862  11.938  2.1311 -0.9417  0.2413
 8459SOL     OW36835   0.835   1.625   5.848 -0.6273  0.1456 -0.8491
 8459SOL    HW136836   0.832   1.719   5.861 -1.6496  0.1446 -1.1374
 8459SOL    HW236837   0.873   1.600   5.932 -0.8627  1.3780 -0.3899
 8460SOL     OW36838   1.927   2.487   2.175 -0.8464  0.1506  0.2504
 8460SOL    HW136839   1.908   2.431   2.099 -0.4205  0.4548 -0.0811
 8460SOL    HW236840   1.847   2.482   2.227 -0.4206 -1.8486  0.7244
 8461SOL     OW36841   4.258   2.962   4.936 -0.1872 -0.7926  0.7988
 8461SOL    HW136842   4.184   2.959   4.876  0.3130  0.6774  0.1199
 8461SOL    HW236843   4.215   2.955   5.022 -1.7793  2.8144  0.3239
 8462SOL     OW36844   1.777   0.026   2.442 -0.4414  0.2500 -0.2099
 8462SOL    HW136845   1.842   0.020   2.513 -1.2252  0.8744  0.5659
 8462SOL    HW236846   1.700   0.056   2.490  0.5483 -0.1790  1.6888
 8463SOL     OW36847   1.969   3.277   4.295  0.1028  0.0855 -0.1932
 8463SOL    HW136848   1.967   3.370   4.315 -0.5918  0.2920 -1.2320
 8463SOL    HW236849   1.902   3.266   4.228  2.4221 -1.5851 -2.2806
 8464SOL     OW36850   1.165   0.733   8.672 -0.4574  0.3130  0.1688
 8464SOL    HW136851   1.105   0.658   8.669  1.6313 -1.4007  1.6386
 8464SOL    HW236852   1.106   0.807   8.686 -0.0834  0.9853 -1.7618
 8465SOL     OW36853   0.057   3.721   4.357  0.0543  0.3418 -0.3810
 8465SOL    HW136854   0.062   3.816   4.357 -0.5994  0.3775  0.0434
 8465SOL    HW236855   0.051   3.696   4.265 -1.2197 -1.5133  0.1921
 8466SOL     OW36856   4.514   1.656  16.271  0.0869 -0.3519 -0.4121
 8466SOL    HW136857   4.531   1.587  16.206  1.1089  1.9310 -2.5374
 8466SOL    HW236858   4.556   1.730  16.229 -1.9493  1.1414  0.1875
 8467SOL     OW36859   3.714   0.469   3.072  0.4098  0.2056 -0.1355
 8467SOL    HW136860   3.621   0.459   3.092  0.2360 -0.4585 -1.3133
 8467SOL    HW236861   3.717   0.456   2.977  1.6535 -0.8915  0.0495
 8468SOL     OW36862   3.256   3.464  14.377  0.0129  0.7922 -0.0098
 8468SOL    HW136863   3.257   3.537  14.438 -2.4067 -0.0907  1.1100
 8468SOL    HW236864   3.220   3.396  14.434  2.2376 -0.3237  0.0581
 8469SOL     OW36865   2.505   1.693  14.562  0.0850  0.2332 -0.3873
 8469SOL    HW136866   2.447   1.714  14.636 -1.7238 -0.0224 -1.7235
 8469SOL    HW236867   2.591   1.721  14.594 -0.2340 -1.0437  1.6014
 8470SOL     OW36868   2.448   4.453   1.183 -0.5299  0.1092 -0.4855
 8470SOL    HW136869   2.401   4.484   1.261 -0.0721 -0.1479 -0.1054
 8470SOL    HW236870   2.383   4.406   1.131 -0.9742  0.9765 -0.7176
 8471SOL     OW36871   3.488   2.692   6.672 -0.3021  0.2691  0.1604
 8471SOL    HW136872   3.483   2.769   6.616  0.3866 -0.8069 -1.3870
 8471SOL    HW236873   3.573   2.712   6.711 -2.1250  5.4020  1.4206
 8472SOL     OW36874   3.164   1.404   9.370  0.2149  1.1146  0.9119
 8472SOL    HW136875   3.204   1.370   9.450 -1.6643  0.2005  1.4671
 8472SOL    HW236876   3.141   1.493   9.398 -0.4464  1.2850 -0.1730
 8473SOL     OW36877   0.129   1.091   9.263 -0.0176 -0.0455 -0.2781
 8473SOL    HW136878   0.045   1.108   9.220 -0.4386  1.3059  1.0871
 8473SOL    HW236879   0.168   1.178   9.267  0.0513 -0.2180  2.5767
 8474SOL     OW36880   0.288   2.888   3.187  0.5475  0.3712 -0.3040
 8474SOL    HW136881   0.358   2.901   3.123  0.5707  1.4346 -0.0553
 8474SOL    HW236882   0.329   2.818   3.238 -0.9295 -1.5269 -1.7343
 8475SOL     OW36883   4.593   1.225   1.564 -0.5117  0.9407  0.0123
 8475SOL    HW136884   4.581   1.141   1.608  1.4403  0.2957 -0.7148
 8475SOL    HW236885   4.610   1.290   1.633 -2.5262  0.8216  0.6371
 8476SOL     OW36886   4.063   3.923  15.292  0.4501  0.0275 -0.0276
 8476SOL    HW136887   4.121   3.855  15.255  0.4020 -1.4382  2.5400
 8476SOL    HW236888   4.050   3.900  15.384  1.2718 -1.6214 -0.3163
 8477SOL     OW36889   3.832   3.100  13.174 -0.1642  0.8110  0.0995
 8477SOL    HW136890   3.826   3.078  13.081 -0.0632 -1.9496  0.7421
 8477SOL    HW236891   3.812   3.193  13.176 -1.8220  0.4755 -0.8840
 8478SOL     OW36892   3.752   0.310  10.656  0.3703 -0.3456  0.6050
 8478SOL    HW136893   3.798   0.257  10.722 -1.0332  1.5748  3.0957
 8478SOL    HW236894   3.697   0.363  10.713  1.7953  0.6281  1.0802
 8479SOL     OW36895   0.070   2.708  15.599  0.2438  0.0497  0.1064
 8479SOL    HW136896   0.021   2.717  15.681 -0.2224  1.3533 -0.3274
 8479SOL    HW236897   0.095   2.617  15.615 -1.2823 -0.2569  0.7888
 8480SOL     OW36898   2.985   2.161  16.022  0.0678 -0.2579  0.6263
 8480SOL    HW136899   2.909   2.218  16.020 -0.1214 -0.5020  0.8276
 8480SOL    HW236900   3.053   2.227  16.036 -0.6314  0.4255  0.7375
 8481SOL     OW36901   0.172   0.913  16.936  0.5419 -0.0501  0.0930
 8481SOL    HW136902   0.264   0.923  16.959  0.1570  2.6963  0.3713
 8481SOL    HW236903   0.169   0.818  16.947 -0.2174 -0.1258 -0.7252
 8482SOL     OW36904   3.002   3.281  10.825 -0.7547 -0.2002 -0.3714
 8482SOL    HW136905   3.072   3.272  10.890 -1.3575 -0.7774  0.2078
 8482SOL    HW236906   2.988   3.188  10.808  1.7780 -0.6138 -0.2283
 8483SOL     OW36907   2.054   0.863   6.489  0.2912 -0.4830 -0.0539
 8483SOL    HW136908   2.015   0.831   6.407 -0.0464 -0.5732  0.1431
 8483SOL    HW236909   1.986   0.831   6.548 -1.4124 -0.5231 -2.0304
 8484SOL     OW36910   4.499   0.060   4.050 -0.1854  0.0718  0.1602
 8484SOL    HW136911   4.449   0.140   4.034 -0.1108  0.5930  2.4624
 8484SOL    HW236912   4.432   0.006   4.091 -0.3347  1.2841  1.5290
 8485SOL     OW36913   1.251   3.845   4.021 -0.0671 -0.4993  0.4447
 8485SOL    HW136914   1.226   3.763   4.064  1.7472 -0.1622  2.1174
 8485SOL    HW236915   1.311   3.810   3.955 -0.2280  0.2644 -0.1031
 8486SOL     OW36916   0.039   0.209   3.400 -0.7847  0.0354 -0.5856
 8486SOL    HW136917   0.047   0.229   3.493 -0.9328 -1.7150 -0.2126
 8486SOL    HW236918   0.024   0.296   3.363 -0.2465  0.3827  0.0044
 8487SOL     OW36919   2.955   4.621   4.891 -0.2004  0.0679  0.3553
 8487SOL    HW136920   3.020   4.619   4.961  1.4326  0.8720 -1.1375
 8487SOL    HW236921   2.871   4.621   4.939 -0.1898  0.0321  0.3738
 8488SOL     OW36922   0.833   0.757   8.586 -0.2792  0.4762  0.8149
 8488SOL    HW136923   0.739   0.773   8.587 -0.4148 -0.2275 -1.9541
 8488SOL    HW236924   0.836   0.709   8.504 -2.1155 -1.0372  1.6557
 8489SOL     OW36925   0.893   3.806   1.755  0.2249 -0.3975 -0.1713
 8489SOL    HW136926   0.912   3.744   1.684 -0.4962  0.0682 -0.7713
 8489SOL    HW236927   0.861   3.744   1.820 -0.8860  2.0191  1.5726
 8490SOL     OW36928   4.015   2.631   7.683 -0.5276  0.1940  0.5016
 8490SOL    HW136929   3.973   2.550   7.714 -2.1824  0.1715 -1.8462
 8490SOL    HW236930   4.106   2.602   7.680 -0.6262 -0.0875  0.2304
 8491SOL     OW36931   3.775   4.574   5.080  0.0507  0.4548 -0.4449
 8491SOL    HW136932   3.784   4.621   4.998  1.0202 -2.8593 -2.2487
 8491SOL    HW236933   3.709   4.631   5.120  1.4883  0.9609  1.2132
 8492SOL     OW36934   2.846   4.370   3.429 -0.2256 -0.0652 -0.4815
 8492SOL    HW136935   2.818   4.446   3.481 -0.4336 -0.0835 -0.5689
 8492SOL    HW236936   2.922   4.409   3.386  0.7729 -1.1991  0.2635
 8493SOL     OW36937   3.284   2.969  17.024 -0.5951 -0.2578  0.2047
 8493SOL    HW136938   3.348   3.029  17.063 -1.3705  1.7342 -1.6118
 8493SOL    HW236939   3.338   2.899  16.988  0.6381  0.5270  0.4966
 8494SOL     OW36940   2.774   3.112  17.584 -0.6127 -0.3268  0.1240
 8494SOL    HW136941   2.782   3.206  17.599 -1.2918 -0.4047  0.9255
 8494SOL    HW236942   2.830   3.103  17.507  0.3768 -0.0721  0.8153
 8495SOL     OW36943   1.353   4.093   6.714 -0.1719 -0.1837 -0.8395
 8495SOL    HW136944   1.364   4.176   6.667 -0.3195  0.5263  0.3668
 8495SOL    HW236945   1.444   4.065   6.714  0.6044  2.3576  2.9796
 8496SOL     OW36946   0.850   1.307   5.123 -0.4807 -0.0406 -0.3873
 8496SOL    HW136947   0.923   1.265   5.078  0.8991  2.0345 -0.0906
 8496SOL    HW236948   0.830   1.238   5.187 -1.7000 -0.7962 -1.5854
 8497SOL     OW36949   2.926   0.029  13.557  0.0251  0.2129  0.1451
 8497SOL    HW136950   2.876   4.680  13.515 -0.4030  0.4536  0.2602
 8497SOL    HW236951   2.889   0.111  13.522 -1.6199 -0.9239 -0.7699
 8498SOL     OW36952   3.797   0.851   7.140 -0.2881  0.3154 -0.0909
 8498SOL    HW136953   3.862   0.875   7.074  1.8943  0.9195  2.2364
 8498SOL    HW236954   3.825   0.760   7.149  0.2021  0.3134 -1.7015
 8499SOL     OW36955   4.395   1.411   4.098  0.0570 -0.0725 -0.3934
 8499SOL    HW136956   4.332   1.483   4.097 -0.8466 -0.8902 -1.8827
 8499SOL    HW236957   4.378   1.371   4.013  0.2697 -0.2740 -0.3418
 8500SOL     OW36958   0.607   2.738   4.307  0.2772  0.0425 -0.6455
 8500SOL    HW136959   0.616   2.645   4.326 -2.7663  0.3831  2.3991
 8500SOL    HW236960   0.632   2.740   4.214 -0.2729 -1.5585 -0.8215
 8501SOL     OW36961   1.254   0.246  13.689  0.0496 -0.0083  0.3451
 8501SOL    HW136962   1.207   0.209  13.615  1.0843  1.1598 -0.8948
 8501SOL    HW236963   1.227   0.193  13.764  0.3908  1.9055  1.8100
 8502SOL     OW36964   1.041   3.709   8.599 -0.0539  0.6138 -0.5580
 8502SOL    HW136965   0.992   3.791   8.588 -0.2145  0.3872 -1.4696
 8502SOL    HW236966   0.978   3.668   8.658  0.6127 -0.7014 -0.7659
 8503SOL     OW36967   2.305   3.561   0.144  0.3908  0.2630 -0.3082
 8503SOL    HW136968   2.319   3.515   0.061  0.4889 -0.9383  0.3700
 8503SOL    HW236969   2.326   3.648   0.109 -2.0355  1.0379  0.1650
 8504SOL     OW36970   4.543   4.288  11.055  0.2809  0.2603  0.5412
 8504SOL    HW136971   4.457   4.251  11.035  0.9104 -1.0224  0.1865
 8504SOL    HW236972   4.597   4.227  11.005  1.3203  1.3563  0.3561
 8505SOL     OW36973   0.479   2.552   2.066 -0.2987 -0.0661 -0.3323
 8505SOL    HW136974   0.551   2.501   2.104  0.9494  2.9615  1.3101
 8505SOL    HW236975   0.447   2.480   2.012  0.1070  1.3028 -2.3593
 8506SOL     OW36976   2.518   2.420  16.825  0.1287 -0.2855  0.3522
 8506SOL    HW136977   2.607   2.430  16.790 -0.4553  1.9642 -0.4866
 8506SOL    HW236978   2.474   2.382  16.748 -0.2605  3.6706 -1.3643
 8507SOL     OW36979   3.566   2.354  12.148  0.3804  0.1651  0.1426
 8507SOL    HW136980   3.560   2.417  12.075 -1.1084 -1.9856 -1.6111
 8507SOL    HW236981   3.623   2.294  12.099 -0.3173 -0.4200  0.0448
 8508SOL     OW36982   4.680   1.607  12.918  0.2847  0.8473 -0.1752
 8508SOL    HW136983   4.638   1.632  12.836  0.4619 -0.7908 -0.7761
 8508SOL    HW236984   4.712   1.521  12.889 -0.2639  0.5169  0.1987
 8509SOL     OW36985   4.625   2.215  17.395  0.3274  0.3641  0.3282
 8509SOL    HW136986   4.564   2.264  17.452  0.5429  2.4958 -1.2729
 8509SOL    HW236987   4.691   2.190  17.459  1.7971  2.2916 -0.4309
 8510SOL     OW36988   0.927   0.543   9.795  0.6080 -0.1343 -0.2476
 8510SOL    HW136989   1.020   0.530   9.775  0.7776  0.6713  0.0296
 8510SOL    HW236990   0.916   0.473   9.859 -0.7320  1.0582  0.8238
 8511SOL     OW36991   1.529   0.781  15.569 -0.0171 -0.2922 -0.2435
 8511SOL    HW136992   1.611   0.789  15.520  3.0211 -1.2427  4.5686
 8511SOL    HW236993   1.551   0.804  15.660 -1.1159  0.8032 -0.2553
 8512SOL     OW36994   1.031   4.576   3.762 -0.3267 -0.1684 -0.2457
 8512SOL    HW136995   1.079   4.530   3.830 -0.0288 -1.3288 -1.2314
 8512SOL    HW236996   1.104   4.634   3.740 -1.3754  1.4357  0.5145
 8513SOL     OW36997   0.983   2.925  15.845 -0.4705  0.7213  0.4904
 8513SOL    HW136998   1.057   2.938  15.785  1.0623  1.2582  2.5304
 8513SOL    HW236999   1.007   2.988  15.912  3.9070 -0.8579  0.4667
 8514SOL     OW37000   1.188   0.478   5.941 -0.4594  0.0781  0.4953
 8514SOL    HW137001   1.164   0.543   5.875  2.1948  1.2838  0.6836
 8514SOL    HW237002   1.104   0.467   5.986 -0.8424  0.8367 -0.0391
 8515SOL     OW37003   0.838   3.555   6.926 -0.1909 -0.1647  0.0272
 8515SOL    HW137004   0.815   3.613   6.999  0.4516  1.2580 -0.8813
 8515SOL    HW237005   0.825   3.463   6.948  0.2602  0.1244  1.5078
 8516SOL     OW37006   4.637   2.152   2.154 -0.2891  0.0310  0.5122
 8516SOL    HW137007   4.692   2.094   2.207 -3.3465 -1.4822  2.0834
 8516SOL    HW237008   4.699   2.169   2.084  0.5207 -2.7620  0.5519
 8517SOL     OW37009   1.476   2.931   2.835 -0.7225 -0.4633 -0.5279
 8517SOL    HW137010   1.388   2.954   2.864 -1.5148 -2.5896 -1.2619
 8517SOL    HW237011   1.459   2.930   2.741 -0.3501 -2.1291 -0.5835
 8518SOL     OW37012   4.153   2.360   2.561 -0.4467  0.5018  0.5277
 8518SOL    HW137013   4.102   2.442   2.560  0.2609  0.9523  1.4452
 8518SOL    HW237014   4.209   2.379   2.485 -1.4546  1.4882  0.0293
 8519SOL     OW37015   0.166   3.357   2.869 -0.2404 -0.4164  0.5069
 8519SOL    HW137016   0.131   3.409   2.797  1.2482  1.3420  1.0811
 8519SOL    HW237017   0.177   3.273   2.825  2.3791 -0.1850  0.6900
 8520SOL     OW37018   0.796   3.070   7.778 -0.3064  0.0149 -0.7280
 8520SOL    HW137019   0.743   3.020   7.840 -0.3446  0.7359 -0.1697
 8520SOL    HW237020   0.887   3.062   7.808 -1.1433 -1.4021  1.4553
 8521SOL     OW37021   0.675   1.747   6.213  0.4587 -0.2335  0.7087
 8521SOL    HW137022   0.698   1.709   6.298 -1.4834 -2.1097  0.3746
 8521SOL    HW237023   0.736   1.704   6.153  0.1988 -0.1296  0.3744
 8522SOL     OW37024   1.814   1.293   4.877  0.0220  0.4973 -0.4066
 8522SOL    HW137025   1.779   1.204   4.878 -1.1524  0.9876  1.8463
 8522SOL    HW237026   1.748   1.335   4.820 -0.6790 -0.0013  0.0466
 8523SOL     OW37027   1.007   0.078  15.381  0.3935  0.2976  0.2110
 8523SOL    HW137028   1.101   0.100  15.382  0.7601 -1.2757  0.1727
 8523SOL    HW237029   0.978   0.163  15.346 -0.0992 -0.3001 -0.8143
 8524SOL     OW37030   0.105   3.246  16.188 -0.6982  0.8021  0.1648
 8524SOL    HW137031   0.194   3.213  16.171 -1.0145 -1.1917  2.2993
 8524SOL    HW237032   0.068   3.272  16.104  2.0261  0.8604 -1.0270
 8525SOL     OW37033   1.978   2.376   3.064  0.3058  0.0288 -0.5724
 8525SOL    HW137034   2.008   2.467   3.071  2.4545 -0.5821 -2.0190
 8525SOL    HW237035   1.883   2.389   3.069  0.0752 -1.2659 -1.4418
 8526SOL     OW37036   0.525   1.589   7.700 -0.0453  0.6816  0.1361
 8526SOL    HW137037   0.489   1.536   7.629 -1.4426  0.9399  0.6567
 8526SOL    HW237038   0.533   1.669   7.648  2.1167 -0.5872 -1.4563
 8527SOL     OW37039   2.320   0.564   8.480  0.0808 -0.6098 -0.1282
 8527SOL    HW137040   2.377   0.591   8.408 -1.5009  2.1187 -0.3699
 8527SOL    HW237041   2.271   0.640   8.511  2.6938  1.5860 -1.3857
 8528SOL     OW37042   1.401   2.889  13.586 -0.0854  0.3760  0.2515
 8528SOL    HW137043   1.493   2.865  13.595 -0.5926 -0.8357  2.1674
 8528SOL    HW237044   1.421   2.977  13.553 -0.0924  0.8517  1.5344
 8529SOL     OW37045   1.463   1.888   1.867 -0.1340 -0.5230 -0.1597
 8529SOL    HW137046   1.481   1.982   1.866 -0.4420 -0.4575  0.4682
 8529SOL    HW237047   1.463   1.883   1.771  0.3459  0.4260 -0.2063
 8530SOL     OW37048   4.575   2.282   6.440  0.9360  0.2897  0.6163
 8530SOL    HW137049   4.669   2.267   6.449  0.6935 -1.5890 -0.0526
 8530SOL    HW237050   4.542   2.219   6.504  1.3809 -0.7318 -0.1577
 8531SOL     OW37051   3.550   2.681   2.807 -0.1085  0.8593 -0.7460
 8531SOL    HW137052   3.481   2.640   2.859  0.3166  0.0053 -0.8596
 8531SOL    HW237053   3.621   2.685   2.871  0.5170  0.4334 -1.4090
 8532SOL     OW37054   1.163   2.698   2.302  0.0479 -0.0497 -0.3133
 8532SOL    HW137055   1.213   2.773   2.271 -0.4931 -0.5849 -2.4716
 8532SOL    HW237056   1.143   2.726   2.392  2.1579 -0.7603  0.3727
 8533SOL     OW37057   3.728   2.719  10.751  0.5028  0.0050 -0.2411
 8533SOL    HW137058   3.743   2.809  10.723  1.1350  0.6775  2.2432
 8533SOL    HW237059   3.640   2.704  10.715 -0.2981 -0.0662  1.7394
 8534SOL     OW37060   4.467   0.079   8.257 -0.3487  0.8749 -0.6399
 8534SOL    HW137061   4.510   4.716   8.235  0.9064  1.4929 -0.5118
 8534SOL    HW237062   4.399   0.058   8.320 -0.4058  0.5277 -0.8177
 8535SOL     OW37063   0.201   4.497   2.071  0.3737  0.1124  0.0014
 8535SOL    HW137064   0.203   4.536   2.158  1.5595 -3.4583  1.5800
 8535SOL    HW237065   0.133   4.550   2.030  1.0026 -1.1231 -2.6614
 8536SOL     OW37066   0.745   0.732   3.977 -0.7266  0.2553  0.0394
 8536SOL    HW137067   0.744   0.825   3.958  0.4769  0.1210 -0.7093
 8536SOL    HW237068   0.839   0.718   3.960 -0.8684  1.7299 -1.8659
 8537SOL     OW37069   0.830   1.535   9.119 -0.0886 -0.2773 -0.7672
 8537SOL    HW137070   0.855   1.453   9.077 -2.1945 -0.8861 -0.8048
 8537SOL    HW237071   0.761   1.512   9.180 -0.6767  1.2178 -0.8674
 8538SOL     OW37072   1.336   3.516   8.123 -0.5396  0.3809 -0.5083
 8538SOL    HW137073   1.429   3.496   8.111 -0.4637  0.4308 -0.0303
 8538SOL    HW237074   1.304   3.516   8.033  1.9911  0.4600 -1.4064
 8539SOL     OW37075   2.748   3.877   8.454  0.8106 -0.3205 -0.2550
 8539SOL    HW137076   2.789   3.930   8.523 -2.4960  1.3230  0.4517
 8539SOL    HW237077   2.662   3.916   8.465  1.1565  0.7777 -1.4680
 8540SOL     OW37078   2.209   1.453   5.707  0.5320  0.7033 -0.6660
 8540SOL    HW137079   2.221   1.386   5.774 -0.5983  1.2393  0.0679
 8540SOL    HW237080   2.277   1.422   5.647  0.4793  0.7636 -0.7582
 8541SOL     OW37081   2.311   0.434   2.702  0.1038 -0.1631  0.0134
 8541SOL    HW137082   2.237   0.481   2.741  0.6599 -0.2009  1.1086
 8541SOL    HW237083   2.370   0.501   2.667  2.4245 -0.9505  2.4013
 8542SOL     OW37084   3.177   1.144   5.796 -0.2142  0.0152  0.5668
 8542SOL    HW137085   3.270   1.151   5.817 -0.0874  0.5341 -0.1548
 8542SOL    HW237086   3.149   1.236   5.805  0.0094  0.0599  0.7926
 8543SOL     OW37087   1.823   4.165   3.032 -0.1181  0.2989 -0.2152
 8543SOL    HW137088   1.794   4.218   3.107 -0.7687  0.0257 -0.2736
 8543SOL    HW237089   1.748   4.146   2.976 -0.7857 -0.2140  0.8357
 8544SOL     OW37090   0.002   3.958   7.660 -0.2848  0.4207  0.2582
 8544SOL    HW137091   4.668   3.880   7.677  2.0419 -1.3757 -0.4878
 8544SOL    HW237092   0.091   3.923   7.664 -0.9297 -1.0933  1.7014
 8545SOL     OW37093   1.680   2.812   6.780 -0.1097 -0.4247 -0.4335
 8545SOL    HW137094   1.645   2.746   6.841 -1.8466  0.2617 -0.6801
 8545SOL    HW237095   1.636   2.888   6.818  0.3409 -0.0544 -0.6593
 8546SOL     OW37096   0.427   3.471   6.633  0.2421  0.1073  0.1291
 8546SOL    HW137097   0.362   3.414   6.593 -0.4775  0.4034  0.8619
 8546SOL    HW237098   0.507   3.420   6.643  0.6938  0.9957  1.1383
 8547SOL     OW37099   1.194   3.255   4.361  0.2366 -0.1953 -0.4433
 8547SOL    HW137100   1.136   3.245   4.286  2.1639 -1.3139 -1.8067
 8547SOL    HW237101   1.204   3.167   4.398 -1.4193  0.4796  1.6151
 8548SOL     OW37102   3.386   0.494  17.254 -0.4997  0.1802  0.0155
 8548SOL    HW137103   3.379   0.574  17.307 -0.2852 -0.9409  1.7320
 8548SOL    HW237104   3.431   0.537  17.181 -1.0770 -1.8492 -1.5258
 8549SOL     OW37105   2.016   0.433   7.533 -0.4206  0.3981  0.1128
 8549SOL    HW137106   1.967   0.419   7.452  0.5764  1.1406 -0.6234
 8549SOL    HW237107   2.070   0.355   7.523  0.2076  0.4573  2.8593
 8550SOL     OW37108   3.651   1.989   7.466 -0.5999 -0.1473  0.1719
 8550SOL    HW137109   3.679   2.021   7.552 -2.8135  0.4267  0.6628
 8550SOL    HW237110   3.713   1.926   7.428  0.7897  1.5731 -0.3754
 8551SOL     OW37111   3.589   2.959   2.772  0.2754 -0.6972  0.0373
 8551SOL    HW137112   3.556   2.869   2.772  0.8555 -0.9112 -1.7001
 8551SOL    HW237113   3.506   3.001   2.750 -1.2450 -2.8818  1.6814
 8552SOL     OW37114   4.557   3.442  14.460 -0.0468 -0.5414  0.2452
 8552SOL    HW137115   4.624   3.393  14.413  0.5651  1.5778 -1.1251
 8552SOL    HW237116   4.526   3.373  14.517 -2.9163 -0.6511 -1.4723
 8553SOL     OW37117   4.182   1.224  15.938 -0.1996 -0.4014  0.6251
 8553SOL    HW137118   4.222   1.138  15.931 -0.4450 -0.5074  0.5176
 8553SOL    HW237119   4.154   1.211  16.028 -0.9007 -0.3802  0.4135
 8554SOL     OW37120   4.572   1.912   2.760 -0.0180 -0.2630 -0.8108
 8554SOL    HW137121   4.620   1.845   2.809 -2.5273 -1.6073 -0.1432
 8554SOL    HW237122   4.587   1.987   2.816  1.5133 -1.2961  0.1553
 8555SOL     OW37123   3.420   1.761   3.425 -0.2993 -0.0742  0.0345
 8555SOL    HW137124   3.419   1.827   3.355  1.2717  0.2986  0.3450
 8555SOL    HW237125   3.326   1.746   3.434 -0.4162 -0.4442 -1.6917
 8556SOL     OW37126   0.911   1.559   8.109  0.6798 -0.0478  0.4651
 8556SOL    HW137127   0.942   1.624   8.172 -0.4553  0.3480  0.6322
 8556SOL    HW237128   0.973   1.489   8.129 -0.5590 -1.0535  0.7665
 8557SOL     OW37129   3.088   0.290   8.939  0.2625 -0.1363 -0.2030
 8557SOL    HW137130   3.003   0.254   8.914 -0.0461  0.1553  0.4117
 8557SOL    HW237131   3.143   0.212   8.945 -0.3714 -0.5382  0.2979
 8558SOL     OW37132   0.412   4.093   3.348 -0.5415 -0.0117 -0.2302
 8558SOL    HW137133   0.369   4.027   3.402 -1.8921  1.3432  0.3282
 8558SOL    HW237134   0.504   4.067   3.339 -0.8897 -1.9016  1.8676
 8559SOL     OW37135   4.131   1.332  13.810 -0.0832 -0.2425  0.1101
 8559SOL    HW137136   4.080   1.251  13.798 -0.8189  0.0871  1.0175
 8559SOL    HW237137   4.213   1.300  13.772 -0.5273 -0.2871 -0.8144
 8560SOL     OW37138   1.416   2.329   6.137 -0.9003  0.5331  0.4339
 8560SOL    HW137139   1.347   2.351   6.075 -0.1875 -1.3924 -1.0526
 8560SOL    HW237140   1.462   2.413   6.137 -1.4058  0.7934 -2.7235
 8561SOL     OW37141   3.087   1.492   2.937  0.3443  0.0912  0.0846
 8561SOL    HW137142   3.043   1.536   2.865  0.6455  0.9590  0.4170
 8561SOL    HW237143   3.172   1.536   2.928  0.3640  0.2867  1.1689
 8562SOL     OW37144   4.635   0.556   5.376 -0.0362  0.1828 -0.0101
 8562SOL    HW137145   4.652   0.611   5.453  1.2700 -1.1426  0.6549
 8562SOL    HW237146   4.705   0.570   5.314  0.1628  0.5286  0.2949
 8563SOL     OW37147   0.477   2.169   2.290 -0.3176 -0.4459  0.4978
 8563SOL    HW137148   0.391   2.201   2.316  0.0994  0.6418  0.5213
 8563SOL    HW237149   0.497   2.103   2.356 -0.8283  0.0178  1.1035
 8564SOL     OW37150   4.462   1.427  15.382 -0.2332 -0.1108  0.0330
 8564SOL    HW137151   4.466   1.387  15.469 -2.7060 -2.6613 -1.0420
 8564SOL    HW237152   4.453   1.519  15.409 -0.6237 -0.2293  0.3100
 8565SOL     OW37153   1.717   3.093   2.276 -0.0620  0.8573 -0.2700
 8565SOL    HW137154   1.768   3.105   2.195  1.3753 -1.7024  0.2564
 8565SOL    HW237155   1.626   3.105   2.251 -0.6935 -2.4081  0.4622
 8566SOL     OW37156   3.125   4.086  16.841  0.0459  0.0024 -0.1389
 8566SOL    HW137157   3.093   4.030  16.912  1.4761 -1.8632 -0.9879
 8566SOL    HW237158   3.156   4.019  16.781  0.1117  0.0809 -0.1926
 8567SOL     OW37159   3.933   3.894   7.575 -0.0342 -0.1150  1.1072
 8567SOL    HW137160   4.002   3.936   7.523  0.4408 -1.7336  0.4367
 8567SOL    HW237161   3.990   3.827   7.611  2.1667  0.8285 -0.6199
 8568SOL     OW37162   1.502   3.649   8.406  0.4899 -0.3977  0.2160
 8568SOL    HW137163   1.410   3.651   8.433  0.5756  1.9718  0.3561
 8568SOL    HW237164   1.527   3.738   8.432  1.4483 -0.0051 -2.1199
 8569SOL     OW37165   3.113   1.627  12.561  0.4552  0.5690 -0.5195
 8569SOL    HW137166   3.100   1.696  12.626 -3.5612 -0.2369 -0.4944
 8569SOL    HW237167   3.079   1.653  12.476 -1.0227  0.9121  0.1680
 8570SOL     OW37168   3.573   0.508   1.304 -0.0996  0.4437 -0.0797
 8570SOL    HW137169   3.544   0.455   1.378 -1.5971  1.6424  0.2058
 8570SOL    HW237170   3.635   0.449   1.261  0.3308 -0.8456  2.3239
 8571SOL     OW37171   4.471   0.289   8.898  0.4167 -0.2438  0.2459
 8571SOL    HW137172   4.484   0.221   8.833  1.2823 -0.2227  0.4038
 8571SOL    HW237173   4.394   0.332   8.861 -1.4837 -2.8130  1.2186
 8572SOL     OW37174   3.662   1.598   2.822 -0.4526 -0.5315 -0.1344
 8572SOL    HW137175   3.624   1.566   2.904 -2.3990  1.6255 -0.1736
 8572SOL    HW237176   3.678   1.687   2.853 -2.8121 -0.1523  0.0177
 8573SOL     OW37177   1.741   4.438   6.714 -0.1134  0.3726  0.5993
 8573SOL    HW137178   1.736   4.380   6.790 -1.1211 -0.1888  0.0962
 8573SOL    HW237179   1.829   4.412   6.686  0.6809  0.4377  3.0109
 8574SOL     OW37180   4.154   3.130  13.138 -0.9528  0.3300  0.0189
 8574SOL    HW137181   4.100   3.209  13.130 -0.2128  1.0998  2.3004
 8574SOL    HW237182   4.088   3.062  13.147  0.1553 -0.3933  2.7491
 8575SOL     OW37183   2.088   1.523   7.592 -0.1657  0.8367  0.1906
 8575SOL    HW137184   2.166   1.543   7.643 -0.8196  1.9505  0.7715
 8575SOL    HW237185   2.054   1.446   7.637 -1.0940  0.7536 -0.6254
 8576SOL     OW37186   3.343   2.258   0.089 -0.1843  0.2111  0.6552
 8576SOL    HW137187   3.273   2.231   0.149  0.0150  1.2344  1.3399
 8576SOL    HW237188   3.345   2.354   0.090 -0.0532  0.2224 -0.8410
 8577SOL     OW37189   2.316   4.619   5.086 -0.3235 -0.3487  0.6468
 8577SOL    HW137190   2.320   4.678   5.011  2.2910 -1.1147  0.1844
 8577SOL    HW237191   2.319   4.532   5.047 -0.5107  0.5608 -1.3908
 8578SOL     OW37192   2.237   0.313   7.034  0.3438  0.0896  0.2619
 8578SOL    HW137193   2.198   0.338   6.950  0.6143 -1.4271 -0.3241
 8578SOL    HW237194   2.288   0.392   7.051  1.8443 -0.2557 -2.5965
 8579SOL     OW37195   1.644   4.503   0.730  0.4033  0.2808  0.5369
 8579SOL    HW137196   1.712   4.440   0.709  0.4750  0.0252  1.5340
 8579SOL    HW237197   1.561   4.468   0.697  1.0237 -0.1988 -0.5247
 8580SOL     OW37198   1.458   4.564   6.371  0.1953 -0.3454  0.1919
 8580SOL    HW137199   1.486   4.605   6.290  0.9587 -1.2731 -0.0167
 8580SOL    HW237200   1.384   4.510   6.344  0.4191  0.2193 -1.5284
 8581SOL     OW37201   2.313   0.650  11.116  0.0271  0.1761  0.3800
 8581SOL    HW137202   2.397   0.603  11.118 -0.8087 -1.3185 -0.3456
 8581SOL    HW237203   2.256   0.574  11.124  0.8933 -0.6872 -1.7197
 8582SOL     OW37204   4.311   1.168   8.150  0.3275 -0.3105  0.0770
 8582SOL    HW137205   4.377   1.163   8.081  1.3440 -0.4023  1.0678
 8582SOL    HW237206   4.363   1.159   8.230  0.0394 -3.1432 -0.0258
 8583SOL     OW37207   3.234   3.895   5.832 -0.2357 -0.6544 -0.0595
 8583SOL    HW137208   3.170   3.951   5.876  0.1633  0.2045 -0.5650
 8583SOL    HW237209   3.174   3.827   5.802 -0.2170 -0.4819 -0.4850
 8584SOL     OW37210   0.467   3.146   0.915 -0.0272 -0.0274  0.1898
 8584SOL    HW137211   0.501   3.162   0.827 -0.1292  0.8040  0.3058
 8584SOL    HW237212   0.543   3.164   0.970 -0.1113 -0.4676  0.4489
 8585SOL     OW37213   2.364   2.225   3.074  0.4502 -0.2317 -0.2000
 8585SOL    HW137214   2.298   2.274   3.026 -0.7438 -2.3545 -0.6667
 8585SOL    HW237215   2.329   2.137   3.064  0.2358  0.0983 -2.2095
 8586SOL     OW37216   1.467   1.721   0.832 -0.9159 -0.1467 -0.5230
 8586SOL    HW137217   1.436   1.697   0.745 -0.4484 -0.3564 -0.6270
 8586SOL    HW237218   1.472   1.816   0.816  0.7830 -0.4335 -1.7141
 8587SOL     OW37219   1.055   2.121  14.746  0.0923  0.4338 -0.0196
 8587SOL    HW137220   1.111   2.165  14.810 -1.2083  1.9420  0.0713
 8587SOL    HW237221   0.972   2.106  14.793  0.5373 -1.5508  0.1567
 8588SOL     OW37222   3.587   1.072   7.856  0.2674 -0.1038 -0.2950
 8588SOL    HW137223   3.567   0.979   7.868  2.1253 -0.4004  0.4892
 8588SOL    HW237224   3.662   1.081   7.914  0.2493 -0.2822 -0.2445
 8589SOL     OW37225   1.888   1.664   5.180 -0.2732  0.7127 -0.2556
 8589SOL    HW137226   1.830   1.650   5.105 -1.0430 -0.2173  0.5058
 8589SOL    HW237227   1.830   1.700   5.247 -0.3341 -1.5993  0.9543
 8590SOL     OW37228   1.753   1.280   4.535  0.5961  0.0432  0.1336
 8590SOL    HW137229   1.668   1.323   4.528  2.4822  3.3073 -2.7837
 8590SOL    HW237230   1.803   1.348   4.489 -2.2517  2.2494  0.2700
 8591SOL     OW37231   0.837   4.305  13.120  0.0178 -0.2010  0.0094
 8591SOL    HW137232   0.853   4.279  13.211  0.1369  1.5380  0.4875
 8591SOL    HW237233   0.815   4.224  13.074  0.4830 -0.4295  0.1843
 8592SOL     OW37234   0.262   2.804   1.501  0.0732  0.2374 -0.1409
 8592SOL    HW137235   0.344   2.793   1.549 -0.2381 -1.9530 -0.1301
 8592SOL    HW237236   0.274   2.737   1.434  1.7898  0.8836 -0.4763
 8593SOL     OW37237   3.985   3.079  16.555 -0.3970  0.1642  1.2248
 8593SOL    HW137238   3.941   3.090  16.471 -0.8822  0.8193  1.5586
 8593SOL    HW237239   4.046   3.152  16.548 -0.4483 -0.0569 -1.2666
 8594SOL     OW37240   3.612   1.137   6.952 -0.0653 -0.5420 -0.2487
 8594SOL    HW137241   3.623   1.043   6.968  0.4067 -0.4866 -0.2584
 8594SOL    HW237242   3.581   1.147   6.861  0.3124 -0.4896 -0.3716
 8595SOL     OW37243   1.042   3.250  15.094  0.3641 -0.1373 -0.2714
 8595SOL    HW137244   1.045   3.333  15.046 -0.8780  1.1231  1.8445
 8595SOL    HW237245   0.973   3.200  15.052 -0.2630  0.2517  0.2987
 8596SOL     OW37246   0.537   2.753   5.423 -0.6443 -0.6053  0.0231
 8596SOL    HW137247   0.485   2.674   5.410  0.8725 -1.7447  0.9047
 8596SOL    HW237248   0.484   2.796   5.491  0.7971 -0.1119  0.8482
 8597SOL     OW37249   4.560   3.845   8.468  0.2483  0.3562 -0.0332
 8597SOL    HW137250   4.535   3.902   8.540 -0.7106  1.8755 -1.5619
 8597SOL    HW237251   4.529   3.763   8.505  0.8119 -0.2033 -0.7922
 8598SOL     OW37252   0.977   3.770   7.942  0.2580 -0.5242  0.3359
 8598SOL    HW137253   0.921   3.840   7.911  2.0444  1.0593  0.7019
 8598SOL    HW237254   0.961   3.761   8.036 -0.6426  0.1245  0.2401
 8599SOL     OW37255   0.696   4.226   7.121 -0.2358  0.5354  0.1518
 8599SOL    HW137256   0.643   4.227   7.201  2.2048  1.7345  1.7615
 8599SOL    HW237257   0.739   4.311   7.115  3.2137 -1.2369  0.2529
 8600SOL     OW37258   2.373   3.273   6.234 -0.1410  0.0472 -0.4773
 8600SOL    HW137259   2.445   3.335   6.249  1.6936 -2.3133  0.4345
 8600SOL    HW237260   2.415   3.218   6.169  0.5667  1.3974 -1.1669
 8601SOL     OW37261   1.504   3.789   2.685 -0.1004  0.4274  0.1456
 8601SOL    HW137262   1.472   3.699   2.682  0.1965  0.3091  0.5387
 8601SOL    HW237263   1.418   3.830   2.673 -0.1873 -0.0670 -0.8850
 8602SOL     OW37264   4.313   2.476  14.095  0.1440  0.2717 -0.3166
 8602SOL    HW137265   4.383   2.413  14.114  1.6411  1.6777 -1.1283
 8602SOL    HW237266   4.298   2.449  14.005  2.0672  0.2853 -0.6488
 8603SOL     OW37267   0.616   1.398  10.274  0.9046 -0.3654  0.0060
 8603SOL    HW137268   0.573   1.415  10.357  0.2764 -0.5738 -0.2749
 8603SOL    HW237269   0.610   1.302  10.271  0.8873 -0.4185  1.7825
 8604SOL     OW37270   2.899   0.197   7.524  0.0742  0.2541 -0.0716
 8604SOL    HW137271   2.877   0.289   7.540 -0.1087  0.2146 -0.0926
 8604SOL    HW237272   2.976   0.211   7.469 -0.1006  2.8529  0.3577
 8605SOL     OW37273   0.749   0.347   8.921 -0.2345 -0.2497 -0.8649
 8605SOL    HW137274   0.778   0.414   8.983  1.4582  0.0825 -2.0240
 8605SOL    HW237275   0.706   0.402   8.856 -0.1464  0.6707 -0.1404
 8606SOL     OW37276   1.101   1.589   2.802  0.5438  0.2685  0.2487
 8606SOL    HW137277   1.119   1.683   2.815  2.2657 -0.2099  1.2663
 8606SOL    HW237278   1.067   1.586   2.713 -1.0412  1.4678  0.8136
 8607SOL     OW37279   1.063   3.326   2.012 -0.1912  0.5401 -0.0121
 8607SOL    HW137280   1.079   3.417   1.987 -0.2432  0.7287  0.6444
 8607SOL    HW237281   0.985   3.323   1.957  1.1912  0.5167 -1.9909
 8608SOL     OW37282   4.011   1.588  14.225 -0.6273 -0.1771  0.2502
 8608SOL    HW137283   4.085   1.648  14.226 -1.2315  0.6063 -2.1901
 8608SOL    HW237284   3.992   1.593  14.131 -3.3116  2.6909  0.9549
 8609SOL     OW37285   1.373   4.209   6.357 -0.1395 -0.4204  0.0037
 8609SOL    HW137286   1.291   4.253   6.334 -0.0094 -1.2082 -1.9814
 8609SOL    HW237287   1.436   4.280   6.347 -0.1292 -0.3359  0.6755
 8610SOL     OW37288   4.110   2.070   3.988  0.1784 -0.0141  0.3940
 8610SOL    HW137289   4.028   2.039   3.949  0.6807  0.0416 -0.6916
 8610SOL    HW237290   4.073   2.154   4.016  1.8230  0.9901 -0.4538
 8611SOL     OW37291   2.969   0.215   3.445  0.1022  0.3151  0.3731
 8611SOL    HW137292   2.986   0.189   3.354 -1.7721 -0.3837  0.2231
 8611SOL    HW237293   2.877   0.192   3.455  0.3306 -0.6813  0.2099
 8612SOL     OW37294   1.965   1.650   6.349  0.6841 -0.3742  0.7060
 8612SOL    HW137295   1.916   1.590   6.406 -2.0325  0.2640 -0.9090
 8612SOL    HW237296   1.997   1.583   6.288  0.0820  0.1254 -0.1550
 8613SOL     OW37297   3.181   1.033   3.953  0.6991 -0.4160  0.2441
 8613SOL    HW137298   3.087   1.032   3.971  1.0044  1.4898  1.9205
 8613SOL    HW237299   3.193   0.951   3.904  2.2938 -0.6968  1.0889
 8614SOL     OW37300   1.684   0.994   5.996 -0.1179  0.2118 -0.2139
 8614SOL    HW137301   1.757   0.957   5.947  1.2267  4.2012 -1.1987
 8614SOL    HW237302   1.689   0.930   6.068 -2.8950  0.2316  0.0101
 8615SOL     OW37303   1.903   1.443   5.411 -0.6408  0.1870 -0.1300
 8615SOL    HW137304   1.907   1.442   5.506 -1.1976 -2.0673 -0.1408
 8615SOL    HW237305   1.808   1.443   5.398 -0.9861  2.9004  2.4581
 8616SOL     OW37306   3.661   1.044   4.664  0.0218 -0.0422 -0.4104
 8616SOL    HW137307   3.634   0.952   4.657 -2.5265  0.6094  1.0246
 8616SOL    HW237308   3.670   1.065   4.571  4.9618  0.1437  0.0709
 8617SOL     OW37309   4.122   2.343   4.779 -0.3005  0.0052  0.2165
 8617SOL    HW137310   4.045   2.380   4.735  0.2944 -1.1653 -1.8243
 8617SOL    HW237311   4.172   2.418   4.810  2.2243 -2.0177  1.0157
 8618SOL     OW37312   3.406   3.294   7.891 -0.1551  0.1389  0.2043
 8618SOL    HW137313   3.321   3.258   7.867  1.3277 -2.7713 -0.6758
 8618SOL    HW237314   3.439   3.231   7.955  0.2218 -0.3506 -0.4793
 8619SOL     OW37315   1.556   3.914   8.485  0.3456  0.2956  0.4500
 8619SOL    HW137316   1.631   3.969   8.462 -0.2060  1.4215  1.2960
 8619SOL    HW237317   1.485   3.963   8.445  0.0605  1.0390  1.8355
 8620SOL     OW37318   0.662   0.645   3.322  0.3061  0.1378 -0.1924
 8620SOL    HW137319   0.692   0.589   3.392  3.4692  1.3851 -0.5319
 8620SOL    HW237320   0.690   0.728   3.360  2.3815  0.0643 -1.5682
 8621SOL     OW37321   3.442   2.669   3.288  0.3009 -0.2007 -0.6958
 8621SOL    HW137322   3.476   2.580   3.276 -1.3353 -0.6801 -1.7821
 8621SOL    HW237323   3.376   2.656   3.356  0.8099 -0.2969 -0.2193
 8622SOL     OW37324   4.593   4.639  15.631 -0.3274 -0.3886  0.2252
 8622SOL    HW137325   4.594   4.584  15.710  0.8471  0.2683  0.6584
 8622SOL    HW237326   4.578   4.573  15.563  0.4415  0.8594 -1.1460
 8623SOL     OW37327   0.335   4.594   1.497 -0.3344  0.3081 -0.1598
 8623SOL    HW137328   0.378   4.531   1.555 -1.2236  0.0516  0.2241
 8623SOL    HW237329   0.389   4.585   1.419 -2.5453 -1.6995 -1.4178
 8624SOL     OW37330   4.502   2.677  14.163 -0.2800 -0.0715  0.0774
 8624SOL    HW137331   4.423   2.632  14.134 -1.1264  0.9547  0.7924
 8624SOL    HW237332   4.491   2.770  14.143 -3.3483  0.4064  3.9574
 8625SOL     OW37333   2.619   4.196  13.509  0.5643  0.1103 -0.1144
 8625SOL    HW137334   2.605   4.277  13.461 -0.4833 -0.4951 -0.8429
 8625SOL    HW237335   2.709   4.207  13.538  0.0177 -1.2937  2.1603
 8626SOL     OW37336   4.561   1.341   7.133 -0.4137  0.8485 -0.0770
 8626SOL    HW137337   4.558   1.437   7.136  1.9470  0.8681  1.0287
 8626SOL    HW237338   4.603   1.315   7.051 -1.9422 -1.1071 -0.2447
 8627SOL     OW37339   2.175   1.328   5.304  0.4771 -0.0307  0.2524
 8627SOL    HW137340   2.241   1.268   5.269 -0.3798 -1.3305  0.8784
 8627SOL    HW237341   2.212   1.347   5.390  1.0925 -0.8430  0.1700
 8628SOL     OW37342   1.566   2.204  13.669  0.1286 -0.0367  0.3945
 8628SOL    HW137343   1.543   2.239  13.583 -0.3240 -1.8116 -0.2102
 8628SOL    HW237344   1.479   2.179  13.699 -0.5657 -0.8507 -2.2673
 8629SOL     OW37345   0.755   3.869   3.729 -0.0027  0.0639 -0.3369
 8629SOL    HW137346   0.843   3.887   3.695  0.0934 -1.3432 -0.8088
 8629SOL    HW237347   0.778   3.912   3.811 -2.6469  0.6274  0.1147
 8630SOL     OW37348   4.318   1.098   5.569  0.2429 -0.2114  0.1324
 8630SOL    HW137349   4.322   1.015   5.521 -0.9986 -0.4797  0.4873
 8630SOL    HW237350   4.225   1.115   5.553  0.2906 -0.3937 -0.3331
 8631SOL     OW37351   2.397   2.036  10.695  0.1127  0.6068  0.0138
 8631SOL    HW137352   2.467   1.984  10.657 -0.1338 -0.7351  1.4195
 8631SOL    HW237353   2.429   2.053  10.783  1.5774 -1.3281 -0.1447
 8632SOL     OW37354   1.482   3.861   7.623 -0.4375  0.6502  0.4437
 8632SOL    HW137355   1.500   3.775   7.661 -0.5035  0.2455 -0.4225
 8632SOL    HW237356   1.392   3.858   7.591  0.5370 -2.6737 -2.0145
 8633SOL     OW37357   4.454   2.230   6.920  0.6393 -0.3183 -0.0898
 8633SOL    HW137358   4.424   2.313   6.882 -1.1338 -0.9014  0.0487
 8633SOL    HW237359   4.522   2.262   6.980  0.4982  0.5504 -0.3840
 8634SOL     OW37360   0.076   3.068   5.009 -0.3388 -0.4656  0.1819
 8634SOL    HW137361   0.157   3.048   4.961 -0.0798 -0.7953  0.7617
 8634SOL    HW237362   0.040   3.120   4.937  0.7583 -2.6661 -1.9740
 8635SOL     OW37363   3.056   0.593   8.246 -0.6261 -0.7532  0.2524
 8635SOL    HW137364   3.105   0.554   8.175  0.2109  0.8330 -0.0471
 8635SOL    HW237365   3.027   0.677   8.209  0.7918 -0.0244  0.7821
 8636SOL     OW37366   2.713   2.469  12.828 -0.1885 -0.4580 -0.3469
 8636SOL    HW137367   2.743   2.545  12.879  0.0080  0.7718 -2.3093
 8636SOL    HW237368   2.663   2.426  12.897  0.4208  1.0643  1.0609
 8637SOL     OW37369   3.542   2.898   5.361  0.2414 -0.2086  0.5068
 8637SOL    HW137370   3.490   2.825   5.394 -2.3661  2.5630  2.4889
 8637SOL    HW237371   3.519   2.894   5.268  1.1377  0.3638  0.2517
 8638SOL     OW37372   4.641   3.379  13.186 -0.0702 -1.1426 -0.0229
 8638SOL    HW137373   4.629   3.349  13.096 -0.6937 -0.8257 -0.0525
 8638SOL    HW237374   4.568   3.338  13.234 -0.8584 -0.3095 -0.4959
 8639SOL     OW37375   2.450   4.256   7.246  0.0209  0.3141  0.3406
 8639SOL    HW137376   2.362   4.290   7.233  0.4579  1.1491 -0.3960
 8639SOL    HW237377   2.429   4.164   7.264 -1.2711  0.2400 -1.6452
 8640SOL     OW37378   3.662   1.473   7.120  0.0976 -0.0510  0.2972
 8640SOL    HW137379   3.728   1.443   7.058 -0.1060 -0.6929  0.3819
 8640SOL    HW237380   3.669   1.399   7.182  0.0189 -1.5328 -1.4735
 8641SOL     OW37381   2.623   3.017   8.125 -0.8150  0.5374  1.0111
 8641SOL    HW137382   2.681   2.960   8.176  1.0055 -1.1763 -3.0297
 8641SOL    HW237383   2.574   3.059   8.196 -1.5262  0.9398  0.2779
 8642SOL     OW37384   3.218   4.270   5.141  0.1181  0.2695 -0.1416
 8642SOL    HW137385   3.220   4.211   5.066 -0.4687 -1.3989  1.1514
 8642SOL    HW237386   3.159   4.339   5.111 -0.7338 -0.2917  0.2535
 8643SOL     OW37387   3.186   1.937   7.332 -0.4733 -0.4245 -0.1193
 8643SOL    HW137388   3.114   1.877   7.315  1.1923 -1.9963 -1.6874
 8643SOL    HW237389   3.218   1.910   7.418  0.3705 -3.2765 -1.3307
 8644SOL     OW37390   2.417   1.261  14.162  0.3582  0.1498 -0.3735
 8644SOL    HW137391   2.506   1.242  14.192  0.6190 -0.3671 -1.4634
 8644SOL    HW237392   2.432   1.353  14.138 -1.1402  0.4706 -0.0795
 8645SOL     OW37393   0.588   3.094   6.435 -0.5170 -0.7363 -0.3731
 8645SOL    HW137394   0.617   3.088   6.345 -0.9765 -3.4258 -0.3468
 8645SOL    HW237395   0.671   3.075   6.479  0.5974  0.4955 -1.9311
 8646SOL     OW37396   4.684   0.553   8.350 -0.4674 -0.0285  0.3169
 8646SOL    HW137397   4.682   0.627   8.289 -1.3606 -1.0162 -0.8381
 8646SOL    HW237398   4.646   0.480   8.302  2.3004  0.1562 -2.2068
 8647SOL     OW37399   4.414   0.921  16.226 -0.0247 -0.3815 -0.3668
 8647SOL    HW137400   4.408   0.826  16.233 -1.2516 -0.2331  0.4862
 8647SOL    HW237401   4.503   0.947  16.248  0.6030 -0.2275 -3.0826
 8648SOL     OW37402   2.889   4.462   8.487  0.4594  0.5525 -0.1282
 8648SOL    HW137403   2.920   4.374   8.463 -0.1469  0.9822 -2.4719
 8648SOL    HW237404   2.860   4.437   8.574 -0.5279 -1.4186 -1.0248
 8649SOL     OW37405   2.498   2.811   0.287 -0.2733 -0.0213  0.3903
 8649SOL    HW137406   2.438   2.841   0.354 -1.1675  0.8455 -0.7926
 8649SOL    HW237407   2.570   2.872   0.302 -2.2107  2.4652 -0.4850
 8650SOL     OW37408   0.301   2.076   7.180 -0.2944  0.0594 -0.2432
 8650SOL    HW137409   0.231   2.068   7.115  0.4118 -3.9025 -0.5158
 8650SOL    HW237410   0.294   1.992   7.224 -0.6798  0.7340  0.9953
 8651SOL     OW37411   1.044   2.372   0.041  0.1461 -0.2790 -0.2134
 8651SOL    HW137412   1.008   2.410  17.643 -0.5068  1.3326  0.8437
 8651SOL    HW237413   1.010   2.433   0.106 -0.0871 -0.0192 -0.5772
 8652SOL     OW37414   1.225   0.314   4.430  0.8818 -0.0239  0.1121
 8652SOL    HW137415   1.173   0.278   4.503  1.8564 -1.7030 -0.0149
 8652SOL    HW237416   1.299   0.254   4.427  1.1849  0.3886 -0.4504
 8653SOL     OW37417   2.413   1.039   3.886  0.5245 -0.4542  0.3540
 8653SOL    HW137418   2.352   1.102   3.847  0.9548 -0.1088  0.2388
 8653SOL    HW237419   2.477   1.019   3.817  0.9717 -0.9013  0.8932
 8654SOL     OW37420   2.840   2.472   5.547  0.5654 -0.1561 -0.1728
 8654SOL    HW137421   2.809   2.408   5.612 -2.5187 -0.0917 -1.5984
 8654SOL    HW237422   2.832   2.555   5.595 -0.0162 -1.7914  2.5586
 8655SOL     OW37423   3.371   3.186   1.770  0.3868  0.0263  0.0085
 8655SOL    HW137424   3.416   3.107   1.740  1.7791  0.2998  1.3217
 8655SOL    HW237425   3.428   3.247   1.723 -1.7257 -0.2040 -2.8418
 8656SOL     OW37426   0.743   3.251   9.478 -0.3782 -0.5274  0.0687
 8656SOL    HW137427   0.823   3.226   9.524 -0.0541  1.1635  0.4179
 8656SOL    HW237428   0.765   3.340   9.449  1.5873 -0.6495  1.1786
 8657SOL     OW37429   2.343   2.510   4.232  0.6280 -0.1754 -0.6203
 8657SOL    HW137430   2.337   2.419   4.263 -0.3238 -0.2443 -0.9963
 8657SOL    HW237431   2.395   2.548   4.302  1.8931 -0.4452 -1.4195
 8658SOL     OW37432   1.367   3.585   7.310 -0.1107  0.5643  0.2874
 8658SOL    HW137433   1.366   3.499   7.352  2.6399  0.2433 -0.2940
 8658SOL    HW237434   1.372   3.581   7.214  2.0222 -1.9881  0.5113
 8659SOL     OW37435   4.327   3.642   8.256  0.3219 -0.1916 -0.0401
 8659SOL    HW137436   4.315   3.667   8.347  3.1131 -0.3073  0.3613
 8659SOL    HW237437   4.302   3.550   8.255 -2.1959  0.4621  2.5669
 8660SOL     OW37438   3.934   4.185   4.617 -0.2905  0.5024  0.0939
 8660SOL    HW137439   3.970   4.143   4.696 -0.5053  0.5307  0.2088
 8660SOL    HW237440   3.932   4.277   4.644 -1.6560  0.6640 -0.5625
 8661SOL     OW37441   4.287   3.639  14.531  0.1142 -0.7882 -0.0499
 8661SOL    HW137442   4.311   3.572  14.596  1.7776 -0.8667 -0.7647
 8661SOL    HW237443   4.218   3.587  14.490 -1.3826  2.0238 -1.0966
 8662SOL     OW37444   3.155   4.711  11.756 -0.0168  0.0235  0.5358
 8662SOL    HW137445   3.088   4.690  11.691  1.4372  1.9319 -1.5757
 8662SOL    HW237446   3.206   4.630  11.758 -1.0585 -0.6874 -2.3636
 8663SOL     OW37447   1.373   0.634  15.864 -0.4437  0.0099 -0.4058
 8663SOL    HW137448   1.430   0.565  15.832 -0.9436 -1.2525  1.4394
 8663SOL    HW237449   1.307   0.637  15.796 -0.6141 -0.9594 -0.2819
 8664SOL     OW37450   0.535   3.721   3.187  0.3343 -0.4057  0.0477
 8664SOL    HW137451   0.573   3.805   3.213  1.2374 -0.6340 -0.5444
 8664SOL    HW237452   0.588   3.673   3.124 -0.7454  2.5858 -3.1486
 8665SOL     OW37453   1.841   1.358   7.211 -0.6192  0.1175 -0.5273
 8665SOL    HW137454   1.855   1.450   7.236  2.0726  0.1178 -2.0473
 8665SOL    HW237455   1.863   1.359   7.118 -0.0920  1.1922 -0.3876
 8666SOL     OW37456   1.058   2.110   8.516  0.6706 -0.3550 -0.0940
 8666SOL    HW137457   1.122   2.047   8.482  2.6782  1.8097 -0.3676
 8666SOL    HW237458   1.091   2.194   8.485 -2.0962  1.2199  1.2625
 8667SOL     OW37459   4.376   1.111   3.621 -0.2443  0.5215 -0.5377
 8667SOL    HW137460   4.304   1.057   3.588 -2.5033  2.4850  1.2061
 8667SOL    HW237461   4.403   1.154   3.539 -0.2603  0.2974 -0.6608
 8668SOL     OW37462   1.302   2.035  11.581  0.2365 -0.5083  0.7129
 8668SOL    HW137463   1.208   2.049  11.592 -0.0891 -0.4435 -2.1747
 8668SOL    HW237464   1.313   1.974  11.653 -1.6614 -0.6348  0.8948
 8669SOL     OW37465   2.246   3.906   2.523  0.0693 -0.5308  0.2640
 8669SOL    HW137466   2.182   3.975   2.503 -0.5997 -0.6120  2.1435
 8669SOL    HW237467   2.255   3.862   2.438  0.0204  1.4642 -0.7925
 8670SOL     OW37468   3.615   4.544   1.227 -0.1141  0.0812  0.9771
 8670SOL    HW137469   3.652   4.484   1.292 -0.1594  1.0813  1.9190
 8670SOL    HW237470   3.634   4.501   1.144  1.5764  2.0857  0.3240
 8671SOL     OW37471   0.305   3.515   4.089  0.0535 -0.4050 -0.6241
 8671SOL    HW137472   0.274   3.605   4.080  0.0979 -0.3403 -0.0985
 8671SOL    HW237473   0.221   3.471   4.079 -0.2408 -0.9114  4.4535
 8672SOL     OW37474   0.803   4.260   5.574 -0.2881 -0.2639  0.4117
 8672SOL    HW137475   0.736   4.199   5.606  0.7285 -1.4854  0.2172
 8672SOL    HW237476   0.872   4.195   5.563 -0.0472  0.1905 -0.7433
 8673SOL     OW37477   0.435   1.419   7.025 -0.1262 -0.6103  0.3781
 8673SOL    HW137478   0.521   1.440   6.987  0.5631  0.0419  2.3088
 8673SOL    HW237479   0.461   1.338   7.069 -2.5292  0.0122  2.9280
 8674SOL     OW37480   0.051   4.314   4.724 -0.1684  0.2271 -0.9229
 8674SOL    HW137481   4.683   4.326   4.688 -0.3711 -1.7386 -1.0938
 8674SOL    HW237482   0.089   4.402   4.721  3.0687 -1.1779 -0.9993
 8675SOL     OW37483   1.643   3.837   5.715  0.2938  0.3773  0.3366
 8675SOL    HW137484   1.635   3.912   5.773  1.0087  0.2032  0.6583
 8675SOL    HW237485   1.632   3.868   5.625 -1.0709 -0.6420  0.1409
 8676SOL     OW37486   0.944   0.081   2.396  0.4122  0.1013  0.5040
 8676SOL    HW137487   1.001   0.045   2.328 -1.6130 -1.5970 -0.2565
 8676SOL    HW237488   0.916   0.157   2.345 -0.0420  0.8822  1.9134
 8677SOL     OW37489   1.912   2.781   2.156  0.2657  0.1485  0.0585
 8677SOL    HW137490   1.863   2.800   2.075  0.8687  1.3175 -0.0313
 8677SOL    HW237491   1.942   2.694   2.131  0.5190 -0.2860  1.9380
 8678SOL     OW37492   2.442   1.277  11.644 -0.0332  0.7360  0.2971
 8678SOL    HW137493   2.382   1.345  11.675 -2.0309 -1.0889  0.3821
 8678SOL    HW237494   2.440   1.297  11.551  0.8809 -0.6216 -0.0161
 8679SOL     OW37495   2.444   1.728  15.819 -0.1734  0.2140  0.2199
 8679SOL    HW137496   2.532   1.737  15.856 -0.4425  1.8829  0.4358
 8679SOL    HW237497   2.392   1.709  15.897 -1.0115  3.2221  0.3992
 8680SOL     OW37498   1.586   4.377   3.505  0.0293  0.8519 -0.3056
 8680SOL    HW137499   1.607   4.342   3.591 -0.0310  1.1633 -0.1666
 8680SOL    HW237500   1.501   4.419   3.518 -0.5458 -0.7128  0.9524
 8681SOL     OW37501   2.762   1.538  12.369  0.3858 -0.2647  0.4988
 8681SOL    HW137502   2.804   1.467  12.416  2.9628  0.5319 -0.6257
 8681SOL    HW237503   2.831   1.603  12.356  0.5497 -0.8155 -1.4359
 8682SOL     OW37504   1.503   3.614   6.131 -0.1835 -0.1651 -0.1923
 8682SOL    HW137505   1.414   3.632   6.160  0.1324  1.9841 -0.5550
 8682SOL    HW237506   1.500   3.524   6.101 -0.3772  0.0426 -0.7990
 8683SOL     OW37507   0.341   4.017   3.062 -0.0919 -0.2472  0.1200
 8683SOL    HW137508   0.418   4.000   3.116  1.7020  0.7031 -2.1071
 8683SOL    HW237509   0.380   4.091   3.015  0.4605 -0.2978  0.5014
 8684SOL     OW37510   1.986   2.858   1.183 -0.2219  0.1891 -0.0282
 8684SOL    HW137511   1.954   2.894   1.100 -0.0043  0.0341 -0.1780
 8684SOL    HW237512   2.067   2.822   1.147  0.9249  3.6009 -0.8253
 8685SOL     OW37513   1.690   1.063   8.310 -0.5213 -0.2234  0.2914
 8685SOL    HW137514   1.745   0.989   8.285 -0.0277  0.4153 -0.5220
 8685SOL    HW237515   1.702   1.066   8.405 -0.3934  1.4498  0.2287
 8686SOL     OW37516   4.296   1.810   6.067 -0.4105  0.3868  0.3721
 8686SOL    HW137517   4.343   1.749   6.010  1.2665  1.2707  0.8008
 8686SOL    HW237518   4.204   1.804   6.044  0.1911 -2.2029 -1.3987
 8687SOL     OW37519   3.191   3.015  15.079  0.0598  0.1147 -0.3164
 8687SOL    HW137520   3.166   3.025  14.987 -3.3779 -0.3089  0.5617
 8687SOL    HW237521   3.120   3.066  15.117 -1.9414 -0.1221 -3.6423
 8688SOL     OW37522   0.686   1.221  12.050  0.0006 -0.0235 -0.6553
 8688SOL    HW137523   0.744   1.242  11.977 -0.2063  0.4185 -0.6914
 8688SOL    HW237524   0.657   1.307  12.080  1.8657  0.8263 -1.2885
 8689SOL     OW37525   2.812   2.168   1.535 -0.1863  0.0436  0.2164
 8689SOL    HW137526   2.748   2.154   1.465 -0.9923  0.2536  0.9054
 8689SOL    HW237527   2.881   2.207   1.482  1.2134 -1.2688  1.0845
 8690SOL     OW37528   2.330   1.691  12.932 -0.2193  0.5488  0.0483
 8690SOL    HW137529   2.260   1.744  12.969 -1.0588 -0.4497 -0.1094
 8690SOL    HW237530   2.392   1.696  13.005  0.1870 -1.7115 -0.1263
 8691SOL     OW37531   0.786   0.160  14.911  0.0156  0.2592  0.2993
 8691SOL    HW137532   0.803   0.068  14.927  1.4306  0.5286  0.3599
 8691SOL    HW237533   0.799   0.161  14.816 -0.7503  0.3199  0.1936
 8692SOL     OW37534   3.311   3.905   2.437 -0.7081  0.1078 -0.1372
 8692SOL    HW137535   3.365   3.849   2.381 -0.3056 -0.9230  1.2948
 8692SOL    HW237536   3.232   3.852   2.447 -0.7733 -0.2342 -2.5277
 8693SOL     OW37537   2.647   0.364   0.997 -0.2366 -0.5061 -0.4433
 8693SOL    HW137538   2.696   0.373   1.078 -1.4021 -2.4620  0.4946
 8693SOL    HW237539   2.596   0.445   0.996 -1.9309 -1.5796 -2.8167
 8694SOL     OW37540   2.810   3.364  17.657  0.4537  0.0393  0.2395
 8694SOL    HW137541   2.842   3.392   0.060  1.3762  0.1643 -0.1457
 8694SOL    HW237542   2.715   3.372  17.663  0.2034 -2.6686 -0.2444
 8695SOL     OW37543   4.421   1.753  15.923 -0.0855  0.6158  0.6842
 8695SOL    HW137544   4.361   1.687  15.958 -0.6243  0.1997 -1.0361
 8695SOL    HW237545   4.385   1.832  15.964 -0.3996  1.1618 -0.6487
 8696SOL     OW37546   1.324   0.296   8.574  0.2298  0.7915 -0.6099
 8696SOL    HW137547   1.313   0.391   8.573 -0.0408  0.7631 -0.1131
 8696SOL    HW237548   1.400   0.291   8.516 -0.7138  0.5102 -1.8273
 8697SOL     OW37549   3.993   1.593   3.506  0.0368  0.0430 -0.1572
 8697SOL    HW137550   3.999   1.500   3.528  0.6411 -0.0554 -0.7251
 8697SOL    HW237551   4.080   1.608   3.468 -1.4867  1.0003 -3.2773
 8698SOL     OW37552   1.313   0.866   6.232  0.4819  0.1341 -0.3661
 8698SOL    HW137553   1.269   0.791   6.193 -0.5209  1.0581 -1.0276
 8698SOL    HW237554   1.292   0.939   6.174  0.2986 -0.2054 -0.7263
 8699SOL     OW37555   3.140   0.386   5.657 -0.2948  0.1997  0.3916
 8699SOL    HW137556   3.175   0.455   5.600 -1.8712 -0.7848 -1.7573
 8699SOL    HW237557   3.070   0.343   5.607  0.2903 -1.6327  1.1578
 8700SOL     OW37558   0.765   2.336   5.369  0.2639 -0.8136  0.4009
 8700SOL    HW137559   0.712   2.379   5.302  1.8704 -1.5425 -1.3354
 8700SOL    HW237560   0.847   2.383   5.357 -0.3608  0.1731  0.0411
 8701SOL     OW37561   2.051   1.658   8.764 -0.2620  0.1983  0.2315
 8701SOL    HW137562   2.141   1.690   8.769 -0.9060  1.5953  2.6831
 8701SOL    HW237563   1.999   1.738   8.755 -1.3228 -0.4552  0.5184
 8702SOL     OW37564   2.401   2.325   3.348 -0.2525 -0.1330 -0.4598
 8702SOL    HW137565   2.308   2.303   3.342 -0.8299  2.1466  0.1707
 8702SOL    HW237566   2.439   2.273   3.277 -0.3904 -0.6313 -0.1707
 8703SOL     OW37567   4.594   1.035  10.173 -0.2286  0.1930  0.5850
 8703SOL    HW137568   4.596   1.130  10.164 -0.8172  0.0892 -0.5958
 8703SOL    HW237569   4.508   1.023  10.212  0.0884  1.8524  1.8364
 8704SOL     OW37570   4.333   3.138   2.538  0.3516 -0.0635 -0.0314
 8704SOL    HW137571   4.239   3.151   2.549  0.7510  2.4586  0.4039
 8704SOL    HW237572   4.329   3.067   2.474  2.4762 -0.5622  0.3504
 8705SOL     OW37573   1.112   3.309   2.290 -0.2392 -0.6419 -0.2159
 8705SOL    HW137574   1.038   3.310   2.350  0.5149 -0.3161  0.7120
 8705SOL    HW237575   1.081   3.306   2.199 -0.9957 -2.5116  0.1073
 8706SOL     OW37576   3.550   3.222   6.727 -0.4068  0.6485  0.6503
 8706SOL    HW137577   3.618   3.266   6.778  0.5953 -0.1349  0.0108
 8706SOL    HW237578   3.506   3.177   6.800  1.4607 -1.9881  0.1628
 8707SOL     OW37579   0.697   3.359   6.713 -0.1719 -0.4606  0.2850
 8707SOL    HW137580   0.713   3.264   6.709 -0.1638 -0.4751  0.6568
 8707SOL    HW237581   0.709   3.370   6.807 -0.0871  1.6537  0.0352
 8708SOL     OW37582   1.816   4.352  10.733 -0.5091 -0.2090 -0.3320
 8708SOL    HW137583   1.822   4.356  10.828  0.4279  1.0858 -0.4472
 8708SOL    HW237584   1.817   4.258  10.717 -3.3234 -0.6140  1.8644
 8709SOL     OW37585   2.310   1.150   1.397 -0.1845  0.1123 -0.2966
 8709SOL    HW137586   2.319   1.138   1.492 -1.8192  2.5056  0.1726
 8709SOL    HW237587   2.370   1.083   1.365 -1.9166 -0.6178 -2.0010
 8710SOL     OW37588   1.929   0.772   0.815 -0.2054  0.5063  0.2615
 8710SOL    HW137589   1.960   0.833   0.748  3.2507 -1.0480  0.4427
 8710SOL    HW237590   1.986   0.784   0.890 -0.0876  0.5214  0.1700
 8711SOL     OW37591   0.790   1.044   3.144 -0.1094 -0.6755 -0.2358
 8711SOL    HW137592   0.880   1.073   3.164 -0.1056 -0.1747 -1.0017
 8711SOL    HW237593   0.780   1.081   3.056  0.5246 -0.7150 -0.3276
 8712SOL     OW37594   4.165   0.826   8.644  0.5189 -0.3641 -0.3628
 8712SOL    HW137595   4.192   0.767   8.574  0.2018  1.2828 -1.8591
 8712SOL    HW237596   4.238   0.863   8.693  0.6095  0.0624 -0.8258
 8713SOL     OW37597   2.939   0.785   8.540 -0.4320 -0.0244  0.7171
 8713SOL    HW137598   2.943   0.689   8.541 -0.0936 -0.0065  1.2540
 8713SOL    HW237599   3.010   0.816   8.596 -0.1553 -1.2150  1.0406
 8714SOL     OW37600   2.175   0.881   0.863  0.2103 -0.3595  0.4863
 8714SOL    HW137601   2.247   0.944   0.863 -1.6564  1.7724  0.8782
 8714SOL    HW237602   2.113   0.940   0.906  0.8033 -1.2875  2.6381
 8715SOL     OW37603   2.935   0.835   2.134  0.0946 -0.3028 -0.0128
 8715SOL    HW137604   2.936   0.849   2.039 -1.6099  1.3055  0.1938
 8715SOL    HW237605   2.993   0.907   2.159  1.4229 -1.6833  0.8119
 8716SOL     OW37606   3.680   3.747   2.552 -0.1773  0.0282  0.2855
 8716SOL    HW137607   3.635   3.663   2.543 -0.1926  0.1047 -0.3894
 8716SOL    HW237608   3.664   3.794   2.470  0.3136  0.4488  0.4317
 8717SOL     OW37609   3.541   4.247  12.715 -0.0812  0.3813  0.0523
 8717SOL    HW137610   3.546   4.281  12.626  1.6721  1.5974  0.6190
 8717SOL    HW237611   3.608   4.295  12.765  0.4523 -0.3609  0.0543
 8718SOL     OW37612   4.213   1.042   7.877 -0.1553 -0.0607 -0.0323
 8718SOL    HW137613   4.236   1.025   7.969  0.7384 -2.4252 -0.6888
 8718SOL    HW237614   4.193   0.955   7.842 -1.3197 -0.1023  0.7515
 8719SOL     OW37615   1.002   4.410   4.855 -0.0741 -0.0243 -0.7370
 8719SOL    HW137616   1.013   4.467   4.931  0.4383 -0.3504 -0.5711
 8719SOL    HW237617   0.907   4.420   4.849  0.0348  0.4899 -1.6680
 8720SOL     OW37618   2.552   1.379   0.639 -0.2904  0.4984 -0.1748
 8720SOL    HW137619   2.504   1.383   0.556  0.4196 -1.1637 -0.6796
 8720SOL    HW237620   2.569   1.285   0.643 -0.1526  0.5610  0.6098
 8721SOL     OW37621   2.699   1.477   3.795 -0.0255 -0.5045  0.1351
 8721SOL    HW137622   2.646   1.398   3.791 -0.9812  0.0527  1.7936
 8721SOL    HW237623   2.629   1.533   3.828  1.5696  0.1739  2.3507
 8722SOL     OW37624   0.566   3.640  11.655  0.8529  0.7212 -0.2138
 8722SOL    HW137625   0.488   3.653  11.710  1.7572 -0.9983  1.4828
 8722SOL    HW237626   0.547   3.709  11.592  0.1495  0.9765  0.2748
 8723SOL     OW37627   4.203   1.644   4.457 -0.5972 -0.7582 -0.2349
 8723SOL    HW137628   4.111   1.622   4.442 -0.6618  0.2682 -1.2927
 8723SOL    HW237629   4.217   1.610   4.546 -0.3933 -0.5897 -0.2020
 8724SOL     OW37630   1.723   0.771   2.820 -0.6986  0.2047  0.2382
 8724SOL    HW137631   1.686   0.705   2.761  1.5637 -0.2989 -0.6333
 8724SOL    HW237632   1.725   0.729   2.906  0.0194 -1.8607 -0.7828
 8725SOL     OW37633   2.054   3.322   6.208  0.3733 -0.5618  0.8392
 8725SOL    HW137634   2.140   3.344   6.171 -0.3264 -1.0498 -1.0819
 8725SOL    HW237635   2.085   3.252   6.266  1.4001 -1.6076 -0.9631
 8726SOL     OW37636   1.537   1.478   5.990  0.2500  0.6748  0.3157
 8726SOL    HW137637   1.532   1.559   6.041 -0.9024  0.4581  0.5459
 8726SOL    HW237638   1.455   1.435   6.013  0.4593  0.5008  0.7189
 8727SOL     OW37639   1.545   1.885   3.163  0.1221 -0.0469  0.3070
 8727SOL    HW137640   1.549   1.959   3.103 -2.0197  0.6147  1.0077
 8727SOL    HW237641   1.451   1.883   3.181  0.5404  1.3197  2.6629
 8728SOL     OW37642   2.430   4.404   7.498 -0.5098 -0.0919 -0.7774
 8728SOL    HW137643   2.351   4.452   7.473 -0.0767  0.5282 -0.9411
 8728SOL    HW237644   2.443   4.350   7.421  1.1046 -1.2844  0.3504
 8729SOL     OW37645   0.638   2.794  14.420  0.2003  0.9442 -0.0322
 8729SOL    HW137646   0.591   2.836  14.348  0.5703  1.8785  0.2700
 8729SOL    HW237647   0.580   2.720  14.438 -2.4672  2.8774 -0.6823
 8730SOL     OW37648   3.032   2.726  10.562  0.3772 -0.0921  0.4277
 8730SOL    HW137649   3.094   2.756  10.495  0.2518 -1.2983 -0.2288
 8730SOL    HW237650   2.972   2.677  10.506 -2.0779 -0.7888  3.6654
 8731SOL     OW37651   1.847   1.745   8.296 -0.2049  0.4572  0.2567
 8731SOL    HW137652   1.771   1.796   8.266  0.2802  1.9116  1.4885
 8731SOL    HW237653   1.843   1.672   8.235 -1.6332  0.5124  0.2783
 8732SOL     OW37654   0.831   0.568   4.314  0.2586  0.2237 -0.0187
 8732SOL    HW137655   0.767   0.621   4.361 -1.4891 -1.1368 -0.8443
 8732SOL    HW237656   0.792   0.480   4.318 -2.2011  1.2706 -1.1021
 8733SOL     OW37657   3.402   1.963  14.616 -0.6029 -0.0529 -0.0367
 8733SOL    HW137658   3.332   2.000  14.562  0.5966  0.0886 -1.4709
 8733SOL    HW237659   3.415   1.870  14.601  1.3191  0.4864 -1.5655
 8734SOL     OW37660   4.219   1.049   5.174  0.2189 -0.0627 -1.2321
 8734SOL    HW137661   4.164   1.054   5.252  1.6614  0.0750 -0.2254
 8734SOL    HW237662   4.267   0.969   5.196  0.8682  1.0672  1.4725
 8735SOL     OW37663   3.213   0.408   3.146  0.1314  0.3915 -0.0147
 8735SOL    HW137664   3.308   0.421   3.157 -0.0530  1.2271  0.6056
 8735SOL    HW237665   3.196   0.349   3.220 -1.8274 -0.3416 -1.0660
 8736SOL     OW37666   2.786   2.143   2.863 -0.2061 -0.1746  0.2195
 8736SOL    HW137667   2.801   2.134   2.769  0.1925  1.5090  0.1221
 8736SOL    HW237668   2.876   2.154   2.894 -0.1380  0.4709 -0.2001
 8737SOL     OW37669   2.786   4.516   2.963  0.3471  0.5167  0.1235
 8737SOL    HW137670   2.780   4.492   2.870 -0.5452  1.6650 -0.1079
 8737SOL    HW237671   2.882   4.518   2.965  0.2979 -1.5958  3.8285
 8738SOL     OW37672   0.465   0.835   4.550 -0.4469 -0.4723 -0.0103
 8738SOL    HW137673   0.491   0.857   4.639 -0.1123 -0.0382 -0.2176
 8738SOL    HW237674   0.416   0.908   4.512 -0.3995 -0.3942  0.0803
 8739SOL     OW37675   1.683   1.523   8.774  0.1768 -0.0694  0.4272
 8739SOL    HW137676   1.741   1.455   8.807 -1.4705 -2.2731 -1.2186
 8739SOL    HW237677   1.716   1.517   8.685 -0.8872 -1.1415  0.1016
 8740SOL     OW37678   2.195   4.304   7.281 -0.0235 -0.3891  0.0656
 8740SOL    HW137679   2.148   4.354   7.214 -0.0490 -0.3107  0.1414
 8740SOL    HW237680   2.155   4.325   7.365  0.7867 -0.2155  0.4109
 8741SOL     OW37681   2.374   0.210   8.876 -0.1888 -1.4323 -0.2407
 8741SOL    HW137682   2.328   0.223   8.794  2.7217 -1.1125 -1.8236
 8741SOL    HW237683   2.444   0.149   8.851 -0.5547 -1.8359 -0.2815
 8742SOL     OW37684   1.890   1.231  16.260  0.5990 -0.1481 -0.1663
 8742SOL    HW137685   1.946   1.294  16.216  0.8167  1.4469  2.3804
 8742SOL    HW237686   1.809   1.217  16.212  1.2877  0.9896 -1.6348
 8743SOL     OW37687   0.727   2.393   8.325  0.4987 -0.5222  0.4839
 8743SOL    HW137688   0.740   2.488   8.322 -0.3334 -0.4894 -1.7150
 8743SOL    HW237689   0.658   2.379   8.260  0.8130 -0.5985  0.1635
 8744SOL     OW37690   0.915   0.250   0.457  0.5409  0.4518  0.4230
 8744SOL    HW137691   0.938   0.187   0.525  1.9242 -1.8282 -2.1544
 8744SOL    HW237692   0.929   0.203   0.374  0.8371  0.5898  0.3947
 8745SOL     OW37693   4.614   0.358   1.197 -0.3763 -0.3643 -0.6851
 8745SOL    HW137694   4.525   0.391   1.210  0.6238  1.6119  1.2322
 8745SOL    HW237695   4.602   0.267   1.224 -0.6242 -0.1388 -0.0503
 8746SOL     OW37696   2.945   0.118   4.716  0.1120  0.7249 -0.4212
 8746SOL    HW137697   2.927   0.038   4.766 -1.6713  1.0021 -0.6504
 8746SOL    HW237698   3.039   0.127   4.734 -0.0061  1.2050 -0.0514
 8747SOL     OW37699   2.547   4.506   9.147 -0.0949 -0.5385  0.1344
 8747SOL    HW137700   2.470   4.486   9.201  0.4040  0.0034  1.0406
 8747SOL    HW237701   2.548   4.601   9.149 -3.1273 -0.4662 -1.7924
 8748SOL     OW37702   1.509   2.330   8.517 -0.4769 -0.4544  0.1685
 8748SOL    HW137703   1.535   2.256   8.462 -0.7481  0.5961 -1.3746
 8748SOL    HW237704   1.586   2.387   8.510 -0.6735  0.0786  2.2913
 8749SOL     OW37705   2.948   1.928   0.847  0.4052  0.6613  0.7176
 8749SOL    HW137706   3.015   1.862   0.834  0.4221  1.0875 -1.2822
 8749SOL    HW237707   2.901   1.880   0.916 -2.8874  2.2109 -0.4221
 8750SOL     OW37708   3.615   2.807   8.540  0.4988  0.6934 -0.2245
 8750SOL    HW137709   3.695   2.858   8.553  0.6892  0.7184 -1.4794
 8750SOL    HW237710   3.590   2.845   8.456 -0.2380  1.1177  0.1898
 8751SOL     OW37711   3.084   1.805  13.778  0.5095  1.0602 -0.2694
 8751SOL    HW137712   3.094   1.722  13.824 -0.2356  0.7228 -0.7154
 8751SOL    HW237713   3.032   1.858  13.838 -0.8869 -2.0226  1.2482
 8752SOL     OW37714   0.650   0.441  14.198 -0.3389  0.2105 -0.0520
 8752SOL    HW137715   0.702   0.474  14.125 -0.2641 -2.4619 -1.2032
 8752SOL    HW237716   0.563   0.456  14.160 -0.4441  0.5120  0.3049
 8753SOL     OW37717   0.025   0.311   9.888  0.5079 -0.2254  0.2138
 8753SOL    HW137718   0.084   0.288   9.960 -0.0012 -1.2036  0.3199
 8753SOL    HW237719   0.086   0.323   9.815 -0.8993  1.8888 -0.6261
 8754SOL     OW37720   2.288   2.171  14.639  0.2148 -0.4263  0.6466
 8754SOL    HW137721   2.259   2.087  14.603 -1.1356 -0.1037  0.9868
 8754SOL    HW237722   2.211   2.185  14.694  0.2113 -1.8061  0.9945
 8755SOL     OW37723   3.537   1.920   5.779  0.1911 -0.4107  0.3415
 8755SOL    HW137724   3.462   1.977   5.794 -0.0040 -0.4289 -0.5316
 8755SOL    HW237725   3.503   1.845   5.828 -0.3837 -0.4001 -0.0318
 8756SOL     OW37726   3.907   4.216  10.794 -0.2628 -0.1426  0.0253
 8756SOL    HW137727   3.832   4.234  10.850 -0.7196  0.9227 -0.9196
 8756SOL    HW237728   3.967   4.280  10.833 -0.5499  0.5350 -0.6432
 8757SOL     OW37729   0.203   3.039   9.954  0.1032  0.2396 -0.3460
 8757SOL    HW137730   0.249   3.037  10.038  0.5017  0.0673 -0.5670
 8757SOL    HW237731   0.259   3.099   9.904 -0.0275  1.2070  0.6845
 8758SOL     OW37732   2.759   0.829  16.463 -0.1306  0.2473  0.5659
 8758SOL    HW137733   2.741   0.874  16.546 -0.0830  3.1837 -0.9990
 8758SOL    HW237734   2.682   0.778  16.441 -0.1522  0.2193  0.7044
 8759SOL     OW37735   1.458   3.191   4.186 -0.1151 -0.0145 -0.5275
 8759SOL    HW137736   1.485   3.254   4.253 -0.9803  0.4605 -0.6336
 8759SOL    HW237737   1.536   3.142   4.160 -0.5361  1.1917 -4.0547
 8760SOL     OW37738   1.807   3.991   4.759  0.7139 -0.4676 -0.0150
 8760SOL    HW137739   1.803   3.999   4.664  0.2592  0.4436  0.0804
 8760SOL    HW237740   1.781   4.079   4.787 -0.1407 -0.0523 -2.1425
 8761SOL     OW37741   1.226   3.877   4.379  0.0381 -0.1296 -0.1126
 8761SOL    HW137742   1.251   3.964   4.347  1.6716  0.0180  1.5543
 8761SOL    HW237743   1.307   3.829   4.364  1.5910  2.0834  1.0848
 8762SOL     OW37744   0.609   4.149   3.618 -0.0163 -0.2382 -0.0681
 8762SOL    HW137745   0.684   4.158   3.560  0.9277  0.7765  1.2964
 8762SOL    HW237746   0.565   4.234   3.621 -1.5244 -0.9944 -0.9782
 8763SOL     OW37747   2.877   3.602  15.248 -0.2063  0.2141 -0.1676
 8763SOL    HW137748   2.959   3.563  15.278 -0.7502 -2.1471 -1.7117
 8763SOL    HW237749   2.896   3.614  15.155 -0.6789  0.6094 -0.2103
 8764SOL     OW37750   1.669   3.921  16.714 -0.4789 -0.4359 -0.2439
 8764SOL    HW137751   1.607   3.954  16.778  2.4236  2.1286  1.2413
 8764SOL    HW237752   1.731   3.993  16.729 -0.7215 -0.7270  2.0514
 8765SOL     OW37753   1.799   3.259   8.028  0.2611 -0.1180  0.3144
 8765SOL    HW137754   1.855   3.199   8.076  1.0841  0.6411  0.3131
 8765SOL    HW237755   1.866   3.325   8.008  1.6203 -1.1235  1.5719
 8766SOL     OW37756   0.453   2.098   5.011  0.9912  0.5957 -0.0738
 8766SOL    HW137757   0.433   2.070   4.922 -0.2757  0.9586  0.0936
 8766SOL    HW237758   0.384   2.164   5.019  1.3375  0.9576 -0.0557
 8767SOL     OW37759   2.603   0.173  14.196  0.2770 -0.3889  0.3528
 8767SOL    HW137760   2.529   0.203  14.250 -0.4760  1.1981 -1.5542
 8767SOL    HW237761   2.668   0.185  14.266 -0.7142 -0.1467  1.2303
 8768SOL     OW37762   2.070   0.833   7.275 -0.1572  0.0082  0.0382
 8768SOL    HW137763   2.024   0.840   7.358  0.1644  2.8449 -0.0467
 8768SOL    HW237764   2.091   0.739   7.280  1.5314  0.3438 -0.6855
 8769SOL     OW37765   4.597   4.078  15.075 -0.2001 -0.4055 -0.3590
 8769SOL    HW137766   4.510   4.099  15.107 -0.2711 -0.3619 -0.5804
 8769SOL    HW237767   4.652   4.152  15.103  1.3105 -1.5484 -0.3165
 8770SOL     OW37768   1.764   3.183  12.694  0.4268  0.0284  0.3408
 8770SOL    HW137769   1.713   3.104  12.675 -0.6532  0.8107 -0.0159
 8770SOL    HW237770   1.757   3.176  12.789  0.0731 -1.3540  0.2134
 8771SOL     OW37771   4.481   2.110   4.513  0.3892 -0.1230 -0.0150
 8771SOL    HW137772   4.476   2.024   4.471 -2.7387 -0.5633  1.2970
 8771SOL    HW237773   4.404   2.098   4.567  0.3745 -1.2663 -0.3014
 8772SOL     OW37774   4.220   1.898   6.929 -0.2765 -0.0579 -0.4453
 8772SOL    HW137775   4.296   1.876   6.874  1.0474  0.0867  1.3436
 8772SOL    HW237776   4.191   1.814   6.964  0.3835 -0.6703 -1.3622
 8773SOL     OW37777   0.145   1.463   6.637 -0.5484 -0.2732 -0.3123
 8773SOL    HW137778   0.117   1.417   6.558 -2.0530 -3.3965  2.0058
 8773SOL    HW237779   0.207   1.400   6.674  0.1054  1.4958  1.5830
 8774SOL     OW37780   1.225   2.970   8.538  0.3944  0.1741  0.5377
 8774SOL    HW137781   1.262   2.882   8.541 -0.9477 -0.3521  1.6686
 8774SOL    HW237782   1.132   2.950   8.529 -0.0206  2.3248  0.1738
 8775SOL     OW37783   0.241   2.870   0.305 -0.6192 -0.3867 -0.8258
 8775SOL    HW137784   0.212   2.825   0.225 -1.6393 -2.0590  0.4721
 8775SOL    HW237785   0.206   2.820   0.379 -1.7549  0.4345 -0.8091
 8776SOL     OW37786   1.184   1.997   5.014 -0.8508 -0.3013 -0.8905
 8776SOL    HW137787   1.123   2.053   4.965  0.7014 -0.1594 -2.6508
 8776SOL    HW237788   1.264   2.017   4.965  0.4796  1.0912  1.8473
 8777SOL     OW37789   1.916   1.898   7.051  0.2302  0.0711 -0.4098
 8777SOL    HW137790   1.821   1.890   7.060  0.6259 -3.4638  0.2966
 8777SOL    HW237791   1.947   1.915   7.141  1.5606  0.4957 -0.9483
 8778SOL     OW37792   4.052   0.879   4.392  0.3007  0.1017 -0.1033
 8778SOL    HW137793   3.962   0.850   4.375  0.6060 -1.7169  1.3693
 8778SOL    HW237794   4.052   0.956   4.335  1.4049 -0.0726 -0.3449
 8779SOL     OW37795   4.331   1.353   4.663  0.9049  0.3407 -0.7796
 8779SOL    HW137796   4.256   1.411   4.657  0.0258 -0.6584  0.5077
 8779SOL    HW237797   4.396   1.401   4.611  0.5766 -0.0516 -1.5527
 8780SOL     OW37798   1.730   3.386  15.614 -0.0341  0.1005 -0.4719
 8780SOL    HW137799   1.794   3.439  15.567  0.8773 -0.2776  0.3521
 8780SOL    HW237800   1.784   3.355  15.687  0.9421 -1.9381 -2.0630
 8781SOL     OW37801   2.237   2.534   3.855 -0.0802 -0.2648  0.5842
 8781SOL    HW137802   2.210   2.528   3.764 -1.0604 -1.1801  0.9319
 8781SOL    HW237803   2.164   2.581   3.895  0.5704 -0.7582  2.3541
 8782SOL     OW37804   3.609   1.507  11.238  0.6613  0.3718 -0.0728
 8782SOL    HW137805   3.639   1.592  11.205  0.3466 -0.0155 -1.3282
 8782SOL    HW237806   3.651   1.454  11.170 -0.5706 -2.4055  1.3439
 8783SOL     OW37807   3.245   1.336   8.491  0.5171 -0.4273  0.1369
 8783SOL    HW137808   3.245   1.316   8.397  0.3451  2.6580 -0.5082
 8783SOL    HW237809   3.340   1.339   8.502  0.3123  1.3294  1.3834
 8784SOL     OW37810   4.507   2.618   7.782  0.1465  0.1609 -0.6007
 8784SOL    HW137811   4.555   2.669   7.848 -0.6105  0.0072  0.0693
 8784SOL    HW237812   4.562   2.539   7.790  0.2146  0.4087  1.5818
 8785SOL     OW37813   4.235   3.201   0.852 -0.3996  0.2900  0.1630
 8785SOL    HW137814   4.197   3.198   0.940 -1.0731 -1.3539 -0.1677
 8785SOL    HW237815   4.159   3.171   0.801 -0.2204  0.7458 -0.3737
 8786SOL     OW37816   0.782   1.225   0.338 -0.4833 -0.2340  0.5790
 8786SOL    HW137817   0.798   1.161   0.408  2.8721  1.4608  1.3776
 8786SOL    HW237818   0.781   1.159   0.269 -2.3839  0.8044 -0.3966
 8787SOL     OW37819   3.922   4.152  12.814 -0.0991  0.4012 -0.1819
 8787SOL    HW137820   3.879   4.232  12.787  1.0722  1.1900  0.2968
 8787SOL    HW237821   4.014   4.165  12.791  0.0125  0.3846  0.2488
 8788SOL     OW37822   0.604   4.285   6.646 -0.5954 -0.1728  0.0796
 8788SOL    HW137823   0.597   4.342   6.723 -1.5698 -2.6744  1.8469
 8788SOL    HW237824   0.514   4.272   6.616 -0.2174 -1.0502 -0.6629
 8789SOL     OW37825   4.224   3.533   2.699  0.0968 -0.2710  0.1751
 8789SOL    HW137826   4.238   3.438   2.689 -1.1800 -0.5800  1.2320
 8789SOL    HW237827   4.249   3.564   2.612 -1.7025  0.6399 -0.0184
 8790SOL     OW37828   1.697   0.460   4.524 -0.2535 -0.1048 -0.0412
 8790SOL    HW137829   1.603   0.473   4.513 -0.3829 -1.9951 -1.0630
 8790SOL    HW237830   1.689   0.374   4.566  1.3413  0.7444  2.0236
 8791SOL     OW37831   2.398   3.419   0.739  0.2097 -0.5159 -0.0833
 8791SOL    HW137832   2.462   3.403   0.808  0.5460 -2.6320 -0.8829
 8791SOL    HW237833   2.456   3.392   0.668  0.4354 -2.0710  0.7025
 8792SOL     OW37834   1.785   1.785   6.196  0.3112 -0.0259  0.1417
 8792SOL    HW137835   1.812   1.869   6.233 -1.2329  1.0313 -1.1146
 8792SOL    HW237836   1.837   1.724   6.247 -0.9281 -1.6032 -0.4869
 8793SOL     OW37837   0.052   4.555   6.891  0.3448  0.1738 -1.0918
 8793SOL    HW137838   0.117   4.496   6.930  0.2354  0.7769  0.0079
 8793SOL    HW237839   0.104   4.622   6.847 -0.5202  2.1072  0.8146
 8794SOL     OW37840   1.915   2.316   6.241 -0.2810  0.1961 -0.2056
 8794SOL    HW137841   1.986   2.322   6.305  0.3661  0.4770 -0.9526
 8794SOL    HW237842   1.846   2.340   6.304 -1.2193 -0.3364 -1.0341
 8795SOL     OW37843   1.369   2.711   1.779  0.2182 -0.4451  0.2677
 8795SOL    HW137844   1.372   2.774   1.707  1.5723 -0.2547  0.4923
 8795SOL    HW237845   1.281   2.675   1.769 -0.9731  2.0254  1.7728
 8796SOL     OW37846   1.694   2.421   6.377 -0.0243  0.7029 -0.1252
 8796SOL    HW137847   1.691   2.474   6.457 -0.2535  3.3278 -1.8794
 8796SOL    HW237848   1.624   2.363   6.405 -0.0261 -0.2410 -2.0841
 8797SOL     OW37849   3.274   0.706   7.121 -0.4414  0.0460 -0.2246
 8797SOL    HW137850   3.268   0.621   7.078 -0.6092 -1.1034  2.0716
 8797SOL    HW237851   3.255   0.668   7.206 -1.2181  1.3028  0.1665
 8798SOL     OW37852   2.817   0.239   7.858  0.3182 -0.0764 -0.1371
 8798SOL    HW137853   2.879   0.176   7.820  1.2547  1.7541 -1.6187
 8798SOL    HW237854   2.822   0.211   7.949  1.8395  1.4247  0.2470
 8799SOL     OW37855   1.242   0.180   0.705 -0.1865  0.8168  0.0410
 8799SOL    HW137856   1.257   0.142   0.618  3.4088  0.2894  0.9219
 8799SOL    HW237857   1.295   0.259   0.705  1.6380 -0.4065 -1.3413
 8800SOL     OW37858   0.653   3.621   9.307  0.1531  0.2701  0.1138
 8800SOL    HW137859   0.714   3.563   9.351  0.4233  1.4037  1.2387
 8800SOL    HW237860   0.715   3.687   9.276 -1.0015  1.0295 -0.6033
 8801SOL     OW37861   4.133   1.518   4.680 -0.5366 -0.4145 -0.2759
 8801SOL    HW137862   4.059   1.458   4.691  0.4111 -1.6067 -0.3691
 8801SOL    HW237863   4.105   1.599   4.722 -0.8718 -1.6603  1.9151
 8802SOL     OW37864   0.265   1.512   4.788 -0.1868 -0.1288 -0.3396
 8802SOL    HW137865   0.231   1.505   4.877  1.0730 -1.2158  0.0401
 8802SOL    HW237866   0.349   1.467   4.787 -0.7192 -1.1462  0.8260
 8803SOL     OW37867   3.442   3.812   9.489  0.7321  0.1767 -0.7662
 8803SOL    HW137868   3.435   3.803   9.584 -0.1249  1.6778 -0.6837
 8803SOL    HW237869   3.350   3.798   9.465  0.8641  0.5906 -1.5094
 8804SOL     OW37870   3.883   2.387   7.024  0.0978 -0.0200  0.1465
 8804SOL    HW137871   3.935   2.430   7.092  1.0500  2.0352 -1.8770
 8804SOL    HW237872   3.945   2.395   6.952  0.7307  1.2142  0.8388
 8805SOL     OW37873   3.110   0.037   7.159  0.2556 -0.0674  0.6117
 8805SOL    HW137874   3.124   4.674   7.114 -1.2438 -0.2468  0.4665
 8805SOL    HW237875   3.085   0.009   7.247  0.2471  0.3404  0.7402
 8806SOL     OW37876   4.253   3.274   7.349 -0.1323  0.1157 -0.2955
 8806SOL    HW137877   4.180   3.232   7.302 -0.1415  0.3580 -0.4973
 8806SOL    HW237878   4.259   3.364   7.316 -1.2086 -0.2152 -1.4155
 8807SOL     OW37879   3.126   1.742  10.268 -0.0692  0.6008  0.1087
 8807SOL    HW137880   3.044   1.791  10.262 -0.9453 -0.8943 -0.2132
 8807SOL    HW237881   3.177   1.777  10.196 -0.0596 -0.7150 -0.5167
 8808SOL     OW37882   1.682   2.480   4.876 -0.3789 -0.2454  0.0901
 8808SOL    HW137883   1.660   2.388   4.893 -1.5282 -0.5355 -2.9621
 8808SOL    HW237884   1.661   2.522   4.960  0.2013 -0.2564  0.2428
 8809SOL     OW37885   4.094   3.402  13.134 -0.5569 -0.3041 -0.1193
 8809SOL    HW137886   4.181   3.441  13.125 -1.8331  2.7770  0.8764
 8809SOL    HW237887   4.047   3.479  13.165 -0.3430  0.3354 -1.3830
 8810SOL     OW37888   1.793   3.425   2.688  0.2761 -0.4650 -0.4036
 8810SOL    HW137889   1.875   3.445   2.642  1.1710 -0.2500  1.3007
 8810SOL    HW237890   1.824   3.395   2.773 -0.9124 -2.8387 -0.8117
 8811SOL     OW37891   2.157   1.117  14.422 -0.2905 -0.6048  0.0609
 8811SOL    HW137892   2.133   1.166  14.343 -2.4243 -0.5307  0.7776
 8811SOL    HW237893   2.236   1.166  14.446 -1.4260  1.2836 -0.0520
 8812SOL     OW37894   2.796   2.351  16.010 -0.2188 -0.4538  0.4657
 8812SOL    HW137895   2.824   2.442  16.004 -1.0870 -0.2704 -1.0341
 8812SOL    HW237896   2.701   2.362  16.001  0.2861  1.0205 -3.0778
 8813SOL     OW37897   1.420   0.615   7.552 -0.1288  0.3152  0.1876
 8813SOL    HW137898   1.402   0.546   7.489 -0.0138  0.3944  0.0684
 8813SOL    HW237899   1.484   0.574   7.610 -0.2336  0.4781  0.4173
 8814SOL     OW37900   3.896   4.189  13.503 -0.2299  0.2145  0.5362
 8814SOL    HW137901   3.966   4.253  13.490 -1.2245  1.1968  0.0009
 8814SOL    HW237902   3.847   4.188  13.421 -2.0810  1.2411  1.6306
 8815SOL     OW37903   3.613   4.251   3.572 -0.0558 -0.1832  0.3268
 8815SOL    HW137904   3.587   4.193   3.502  0.4831 -0.1755  0.1179
 8815SOL    HW237905   3.557   4.328   3.564 -0.0171 -0.1068  0.7398
 8816SOL     OW37906   3.078   1.537   7.508 -0.0830  0.1557  0.7093
 8816SOL    HW137907   3.014   1.469   7.530 -0.8845  1.0668  1.2182
 8816SOL    HW237908   3.139   1.495   7.448 -0.0501  1.6653 -0.2886
 8817SOL     OW37909   4.405   0.219  12.774 -0.0435  0.1806 -0.2294
 8817SOL    HW137910   4.449   0.301  12.753 -0.1769 -0.2933 -2.2926
 8817SOL    HW237911   4.480   0.162  12.762  0.5801  0.7744  0.8827
 8818SOL     OW37912   3.407   1.368  15.134  0.2560 -0.2675  0.0363
 8818SOL    HW137913   3.445   1.281  15.125 -0.6311 -0.7815  1.1346
 8818SOL    HW237914   3.331   1.370  15.076  0.9870 -0.8124 -0.9286
 8819SOL     OW37915   3.841   4.415  11.352  0.2914 -0.2540 -0.2196
 8819SOL    HW137916   3.756   4.433  11.393 -0.0985  0.7381 -1.4335
 8819SOL    HW237917   3.895   4.417  11.431 -1.4075  1.9100  0.8854
 8820SOL     OW37918   2.470   4.664   2.351 -0.0221 -0.0238  0.0066
 8820SOL    HW137919   2.478   4.570   2.366 -0.5492 -0.0118  0.3464
 8820SOL    HW237920   2.444   4.694   2.438 -1.9761 -2.9970  0.4592
 8821SOL     OW37921   3.881   0.644   2.101 -0.1162  0.3511 -0.5387
 8821SOL    HW137922   3.972   0.657   2.076  0.2771 -0.3037  0.5170
 8821SOL    HW237923   3.825   0.685   2.036 -0.7945 -2.6439 -1.8346
 8822SOL     OW37924   1.052   2.339  11.630 -0.1465 -0.3789  0.3600
 8822SOL    HW137925   1.113   2.316  11.701 -1.2557 -1.9066  0.8134
 8822SOL    HW237926   1.028   2.250  11.604  1.0257  0.0751 -2.2211
 8823SOL     OW37927   2.779   4.409   3.935  0.2658  0.6643 -0.3494
 8823SOL    HW137928   2.819   4.337   3.984 -3.3250 -1.5879 -0.7286
 8823SOL    HW237929   2.856   4.463   3.919  1.3348 -1.0975 -1.1505
 8824SOL     OW37930   0.836   3.084   4.341  0.1621 -0.1399  0.3515
 8824SOL    HW137931   0.908   3.108   4.283 -0.4767  0.0707 -0.3360
 8824SOL    HW237932   0.866   2.997   4.368  0.4969  0.6598  2.5373
 8825SOL     OW37933   3.891   1.633   5.280 -0.0159  0.1500  0.2954
 8825SOL    HW137934   3.850   1.648   5.365 -0.6610 -2.4891  0.4720
 8825SOL    HW237935   3.983   1.639   5.305 -0.4624  0.1556  1.9658
 8826SOL     OW37936   2.651   2.716  12.701  0.4598  0.6722 -0.4505
 8826SOL    HW137937   2.687   2.636  12.737 -0.2047  0.5765  0.0100
 8826SOL    HW237938   2.559   2.690  12.695 -0.1693  2.5841  1.1419
 8827SOL     OW37939   0.209   0.050   2.808  0.2869  0.0661  0.1884
 8827SOL    HW137940   0.180   0.126   2.859  1.9642 -0.6121  2.1561
 8827SOL    HW237941   0.192   0.077   2.718  2.4348 -0.3467 -0.3400
 8828SOL     OW37942   0.809   2.498  11.870  0.1664  0.0438  0.2201
 8828SOL    HW137943   0.853   2.414  11.857 -0.6779 -0.6302  1.6998
 8828SOL    HW237944   0.799   2.496  11.965  0.4384 -1.4489  0.2219
 8829SOL     OW37945   1.317   0.110   3.057 -0.3515  0.4082  0.1436
 8829SOL    HW137946   1.371   0.189   3.063 -0.7551  0.7358 -0.5242
 8829SOL    HW237947   1.350   0.063   3.134 -0.8138 -0.8454 -0.4249
 8830SOL     OW37948   0.488   2.605   9.316 -0.5392  0.3297 -0.2567
 8830SOL    HW137949   0.558   2.645   9.264 -1.3438 -0.0467 -1.6360
 8830SOL    HW237950   0.504   2.515   9.289  2.7998  0.7544  0.3820
 8831SOL     OW37951   2.408   3.740   8.526  0.2304  0.1738  0.2219
 8831SOL    HW137952   2.433   3.820   8.478  3.0927 -2.2723 -2.3784
 8831SOL    HW237953   2.315   3.761   8.535  0.2752 -0.9622  3.1401
 8832SOL     OW37954   2.914   0.259  16.931  0.7782  0.2134 -0.0386
 8832SOL    HW137955   2.942   0.310  16.855  0.4773  2.0094  1.0568
 8832SOL    HW237956   2.829   0.229  16.899  1.5133 -2.6858  0.7088
 8833SOL     OW37957   2.784   2.354   7.016  0.4980 -0.0331 -0.4432
 8833SOL    HW137958   2.878   2.333   7.018  0.8391  1.5288 -0.3489
 8833SOL    HW237959   2.791   2.448   7.001 -3.2172 -0.2126 -3.2100
 8834SOL     OW37960   4.139   4.195  15.551 -0.3394  0.2413 -0.0897
 8834SOL    HW137961   4.138   4.099  15.546 -0.8343  0.1690  1.3363
 8834SOL    HW237962   4.156   4.213  15.459 -0.3246  3.1028  0.4741
 8835SOL     OW37963   3.374   2.168  13.352  0.2397  0.2279  0.3608
 8835SOL    HW137964   3.325   2.126  13.422  0.5446 -1.0309 -0.1782
 8835SOL    HW237965   3.398   2.253  13.389  1.9047 -0.0322 -0.1344
 8836SOL     OW37966   0.655   1.473   6.914 -0.3442  0.0017  0.4737
 8836SOL    HW137967   0.704   1.397   6.882  1.4453  2.2886 -2.2154
 8836SOL    HW237968   0.713   1.545   6.889 -1.3046  0.6834  0.1940
 8837SOL     OW37969   1.428   2.595  12.709  0.1466  0.2558  0.3860
 8837SOL    HW137970   1.335   2.611  12.725  0.3117 -0.0690  1.6132
 8837SOL    HW237971   1.450   2.686  12.688  0.5377  0.2338  0.7078
 8838SOL     OW37972   3.976   1.592   9.415 -0.7377  0.5404  0.0328
 8838SOL    HW137973   4.068   1.589   9.390 -0.4218 -3.7057  1.7314
 8838SOL    HW237974   3.944   1.530   9.349 -1.0917  1.4178 -0.6276
 8839SOL     OW37975   3.464   1.528   4.033  0.5661  0.5176  0.3970
 8839SOL    HW137976   3.524   1.518   4.107  0.8002  0.3643  0.1886
 8839SOL    HW237977   3.529   1.540   3.963  0.8195 -2.0485  0.1888
 8840SOL     OW37978   1.162   1.476   4.180  0.5070 -0.2550  0.2203
 8840SOL    HW137979   1.115   1.394   4.191 -0.6575  0.7435  2.7081
 8840SOL    HW237980   1.094   1.530   4.220 -0.9610 -0.9116 -1.4031
 8841SOL     OW37981   3.521   0.003   8.892 -0.0949 -0.1166  0.8079
 8841SOL    HW137982   3.567   4.691   8.814  2.1758 -1.7190  2.8085
 8841SOL    HW237983   3.548   4.664   8.962 -1.7025  1.1430  2.4827
 8842SOL     OW37984   0.880   2.889  10.468 -0.4962 -0.2306 -0.2970
 8842SOL    HW137985   0.837   2.827  10.409  1.3088  0.8248 -2.7009
 8842SOL    HW237986   0.960   2.840  10.487 -0.9761 -2.0680 -3.0182
 8843SOL     OW37987   1.395   0.673   0.929  0.3395  1.1746 -0.7658
 8843SOL    HW137988   1.307   0.707   0.945  0.0476  0.5379 -1.0296
 8843SOL    HW237989   1.396   0.603   0.993 -2.0014  1.8493  0.0109
 8844SOL     OW37990   0.368   3.859   2.361 -0.5321 -0.8002  0.2890
 8844SOL    HW137991   0.318   3.879   2.440 -2.5318 -0.6897 -0.9911
 8844SOL    HW237992   0.443   3.919   2.359 -0.8354 -0.4069  0.6879
 8845SOL     OW37993   3.481   2.408  14.638 -0.1780 -0.4523 -0.2430
 8845SOL    HW137994   3.513   2.379  14.553 -2.3220 -2.1495 -0.4544
 8845SOL    HW237995   3.465   2.324  14.682  1.1176 -0.7751 -0.3960
 8846SOL     OW37996   0.557   2.267   9.535  0.7411  0.4047  0.0745
 8846SOL    HW137997   0.553   2.245   9.628 -0.9356 -2.3498 -0.6687
 8846SOL    HW237998   0.636   2.321   9.544  0.6467  0.2196  1.9730
 8847SOL     OW37999   1.995   2.954   8.731  0.2133  0.2963 -0.3215
 8847SOL    HW138000   1.912   2.999   8.748  0.1753  0.1831 -0.2050
 8847SOL    HW238001   2.004   2.922   8.821 -1.3344  3.1822  0.8724
 8848SOL     OW38002   3.395   4.153   4.482  0.0585 -0.4565 -0.2213
 8848SOL    HW138003   3.422   4.062   4.493  0.6150 -0.3615 -0.8015
 8848SOL    HW238004   3.468   4.183   4.428 -1.1481 -0.3497 -1.7617
 8849SOL     OW38005   0.070   0.949   1.389  0.2398  0.1071  0.0851
 8849SOL    HW138006   0.106   0.937   1.300 -1.0827 -0.4910 -0.3700
 8849SOL    HW238007   0.121   1.025   1.417 -0.3331  0.3240  0.5158
 8850SOL     OW38008   3.562   1.184   9.929 -0.4370  0.2771  0.5475
 8850SOL    HW138009   3.640   1.137   9.900 -1.9530 -1.0359 -1.3905
 8850SOL    HW238010   3.550   1.240   9.852  2.0784  0.2052  0.0995
 8851SOL     OW38011   0.528   3.356   7.901  0.9169  0.1166 -0.2238
 8851SOL    HW138012   0.480   3.342   7.982  0.1978  0.0306 -0.6632
 8851SOL    HW238013   0.484   3.294   7.842 -0.2175 -0.1226  0.8619
 8852SOL     OW38014   2.231   2.113  10.516 -0.4380 -0.6993 -0.6816
 8852SOL    HW138015   2.150   2.061  10.515 -0.1410 -1.1793  1.5275
 8852SOL    HW238016   2.289   2.070  10.579  1.3764  1.5963 -0.8025
 8853SOL     OW38017   1.091   4.029   3.896 -0.3641  0.4133 -0.0789
 8853SOL    HW138018   1.129   3.970   3.960 -0.4386  0.5080  0.0513
 8853SOL    HW238019   1.012   4.053   3.944  0.0543 -1.9619  1.7562
 8854SOL     OW38020   4.183   4.024   5.504  0.6023  0.3814  0.1182
 8854SOL    HW138021   4.263   3.993   5.461  0.9040  0.5642  0.5504
 8854SOL    HW238022   4.216   4.106   5.540 -0.0881  1.0415 -0.7546
 8855SOL     OW38023   3.965   0.887   6.810  0.2982  0.3105 -0.0586
 8855SOL    HW138024   3.889   0.912   6.759  1.4790 -2.1650 -3.0311
 8855SOL    HW238025   3.964   0.957   6.876  0.9625 -1.9653  2.3674
 8856SOL     OW38026   3.650   3.258   5.905 -0.1658 -0.4537 -0.0481
 8856SOL    HW138027   3.602   3.292   5.980 -1.0382  2.5313 -1.9342
 8856SOL    HW238028   3.709   3.193   5.943  0.3419 -0.5893 -1.0631
 8857SOL     OW38029   0.648   3.901   2.922  0.2652 -0.2879 -0.0675
 8857SOL    HW138030   0.719   3.859   2.873  2.8970  1.7227  2.0809
 8857SOL    HW238031   0.705   3.944   2.985  1.2387 -1.1784 -0.3231
 8858SOL     OW38032   0.599   1.828   1.957  0.4591  0.4314  0.1366
 8858SOL    HW138033   0.627   1.751   2.006 -1.2989  0.1036  0.6163
 8858SOL    HW238034   0.628   1.893   2.022 -1.6949  1.4750  0.0346
 8859SOL     OW38035   0.627   2.258  16.581  0.2121 -0.3126 -0.2846
 8859SOL    HW138036   0.576   2.339  16.570  1.8266  0.1911 -3.8904
 8859SOL    HW238037   0.703   2.290  16.630 -0.4660 -0.8950  1.1423
 8860SOL     OW38038   3.579   1.404   5.782  0.8378 -0.4833  0.3634
 8860SOL    HW138039   3.582   1.460   5.704  0.7617 -0.8535  0.0969
 8860SOL    HW238040   3.644   1.337   5.758 -0.3562 -1.5869  0.2301
 8861SOL     OW38041   3.038   1.887   4.727  0.2211  0.2953 -0.7034
 8861SOL    HW138042   3.133   1.887   4.717  0.3648 -0.8516  0.6665
 8861SOL    HW238043   3.029   1.814   4.788 -1.4140  0.6769 -0.4760
 8862SOL     OW38044   3.315   3.025   3.657  1.0832  0.1258  0.7202
 8862SOL    HW138045   3.302   3.110   3.699 -0.4150  1.5641 -2.6035
 8862SOL    HW238046   3.397   2.992   3.692  2.0699  0.4314 -1.3127
 8863SOL     OW38047   3.927   3.830  15.505  0.1707  0.3980 -0.4642
 8863SOL    HW138048   3.893   3.895  15.566 -1.7103  0.8022 -1.9485
 8863SOL    HW238049   3.956   3.756  15.559 -0.8117  0.9283  0.7836
 8864SOL     OW38050   2.965   0.150   2.429 -0.5514 -0.5972  0.4163
 8864SOL    HW138051   2.978   0.224   2.370  0.0267 -2.6939 -2.1024
 8864SOL    HW238052   2.898   0.102   2.380 -0.6086  0.0580 -0.1452
 8865SOL     OW38053   4.494   3.161   7.226  0.0814 -0.0837 -0.1849
 8865SOL    HW138054   4.440   3.226   7.270  0.2070  0.0934 -0.2932
 8865SOL    HW238055   4.449   3.089   7.269 -0.4084  0.8151  0.8022
 8866SOL     OW38056   4.353   2.997  15.831 -0.2072  0.0885 -0.2177
 8866SOL    HW138057   4.437   2.972  15.869  0.5256  1.2292 -1.1091
 8866SOL    HW238058   4.371   2.980  15.739 -1.8497 -1.9990 -0.1636
 8867SOL     OW38059   4.612   0.370   3.760  0.0906  0.4748 -0.8876
 8867SOL    HW138060   4.662   0.411   3.830  1.5416 -0.3486 -1.4406
 8867SOL    HW238061   4.538   0.326   3.803 -0.1694  0.7932 -1.0148
 8868SOL     OW38062   4.450   2.733   7.412  0.0112  0.3984  0.3666
 8868SOL    HW138063   4.508   2.679   7.359  0.2192 -2.0774  3.1007
 8868SOL    HW238064   4.481   2.823   7.396 -0.5620 -0.4157 -5.3708
 8869SOL     OW38065   3.412   1.314   4.899 -0.1826 -0.4514 -0.4308
 8869SOL    HW138066   3.413   1.220   4.878  0.0381 -0.8538  1.4325
 8869SOL    HW238067   3.505   1.329   4.913 -0.8520  1.5581  1.9311
 8870SOL     OW38068   0.182   2.105   4.861  0.1491  0.4025  0.3879
 8870SOL    HW138069   0.089   2.095   4.843  0.3143 -0.2332 -0.1147
 8870SOL    HW238070   0.176   2.146   4.947 -0.5189  1.3976 -0.1275
 8871SOL     OW38071   0.250   0.033   8.888 -0.7417  0.0278 -0.3458
 8871SOL    HW138072   0.199   0.089   8.946 -1.9567 -2.0122  0.5479
 8871SOL    HW238073   0.251   4.663   8.922  0.0304  0.8249  1.7122
 8872SOL     OW38074   3.760   1.467   6.077 -0.1644  0.2338 -0.0930
 8872SOL    HW138075   3.692   1.399   6.082 -1.0421  1.1421  0.2324
 8872SOL    HW238076   3.736   1.532   6.143 -1.3644 -0.3139  0.0158
 8873SOL     OW38077   3.693   3.845  13.131  0.0658 -0.0694 -0.3602
 8873SOL    HW138078   3.686   3.750  13.118  0.9558 -0.1628 -0.2215
 8873SOL    HW238079   3.724   3.855  13.222  2.5986 -2.2414 -0.9762
 8874SOL     OW38080   4.357   2.266   2.759  0.2288  0.0715 -0.2878
 8874SOL    HW138081   4.389   2.344   2.804  1.7982 -0.2730 -0.7978
 8874SOL    HW238082   4.294   2.306   2.699  0.6781 -0.8681 -1.3970
 8875SOL     OW38083   1.606   2.701   6.085  0.3420 -0.1412 -0.6868
 8875SOL    HW138084   1.676   2.754   6.046  1.6257 -0.2965  1.3779
 8875SOL    HW238085   1.531   2.760   6.079 -1.9941 -3.0776 -0.1875
 8876SOL     OW38086   1.636   4.095   2.865  0.1225 -0.3057  0.7221
 8876SOL    HW138087   1.678   4.114   2.781  2.7002 -0.0222  2.0932
 8876SOL    HW238088   1.546   4.116   2.840  0.0307 -0.9766  0.4666
 8877SOL     OW38089   3.585   3.218   5.096  0.1920 -0.2603 -0.1569
 8877SOL    HW138090   3.493   3.200   5.117  0.5372  0.8568  2.3351
 8877SOL    HW238091   3.614   3.237   5.185  1.3856  0.3550 -0.6838
 8878SOL     OW38092   0.984   0.917   8.742  0.1544 -0.4220  0.0595
 8878SOL    HW138093   0.910   0.874   8.700 -1.3889  2.4038 -0.1245
 8878SOL    HW238094   0.956   1.009   8.744  0.1324 -0.4717  1.6069
 8879SOL     OW38095   3.395   1.496  13.488  0.2742  0.3629 -0.2311
 8879SOL    HW138096   3.307   1.531  13.477 -0.1323 -0.7536 -0.4501
 8879SOL    HW238097   3.439   1.541  13.416 -0.6266  0.1399 -0.9135
 8880SOL     OW38098   1.410   1.949   3.481 -0.1502  0.0192  0.3257
 8880SOL    HW138099   1.369   1.867   3.455  0.1813 -0.0892  0.1440
 8880SOL    HW238100   1.374   1.995   3.405 -1.0487 -0.6765  0.3355
 8881SOL     OW38101   3.961   4.624  16.266  0.3380 -0.1742 -0.2451
 8881SOL    HW138102   3.916   4.702  16.234  0.4213 -0.3696 -0.8410
 8881SOL    HW238103   3.905   4.588  16.334 -0.1668  0.2731 -0.4272
 8882SOL     OW38104   1.690   3.735   4.776  0.4019 -0.0404 -0.1592
 8882SOL    HW138105   1.730   3.708   4.859 -1.1731 -0.7565  0.3725
 8882SOL    HW238106   1.746   3.812   4.775  0.8429 -0.3580 -0.0481
 8883SOL     OW38107   4.511   1.759   4.792  0.5444 -0.2188 -0.0044
 8883SOL    HW138108   4.520   1.688   4.729  2.3546 -0.3299  0.3996
 8883SOL    HW238109   4.585   1.817   4.775  1.5571 -1.8106 -1.0773
 8884SOL     OW38110   3.803   2.904   2.265 -0.3731 -0.2582  0.3763
 8884SOL    HW138111   3.819   2.982   2.213 -3.0427 -0.7919 -1.2487
 8884SOL    HW238112   3.709   2.907   2.284 -0.2560  0.9929  0.7640
 8885SOL     OW38113   4.225   4.107  14.458  0.0036 -0.2198  0.2650
 8885SOL    HW138114   4.165   4.181  14.458 -0.0364 -0.2441  1.0273
 8885SOL    HW238115   4.292   4.126  14.392  0.1194  2.7497  1.2540
 8886SOL     OW38116   2.333   2.002   4.973  0.3916 -0.6061 -0.2064
 8886SOL    HW138117   2.408   2.037   4.925  0.4821  0.3854  0.6509
 8886SOL    HW238118   2.352   2.010   5.067 -1.6050 -0.6385  0.1974
 8887SOL     OW38119   2.523   3.378  17.651  0.1827 -0.2029  0.3614
 8887SOL    HW138120   2.492   3.345   0.053  1.7904 -0.4517  0.8360
 8887SOL    HW238121   2.447   3.433  17.629  0.0213 -0.5092  0.1594
 8888SOL     OW38122   2.970   0.277   4.080  0.3449 -0.0962 -0.0175
 8888SOL    HW138123   2.997   0.188   4.060 -1.8186 -0.6508 -0.4124
 8888SOL    HW238124   2.906   0.268   4.151  0.4328 -1.8478 -0.1572
 8889SOL     OW38125   1.540   2.707   5.240  0.0385  0.0156 -0.4077
 8889SOL    HW138126   1.587   2.626   5.216 -0.1174  0.3481 -1.8485
 8889SOL    HW238127   1.606   2.750   5.294 -0.4262  0.4639 -0.2024
 8890SOL     OW38128   0.327   4.197   5.147 -0.1579 -0.3415 -0.0632
 8890SOL    HW138129   0.318   4.234   5.235 -0.7017  0.1921 -0.3360
 8890SOL    HW238130   0.251   4.141   5.160  0.7102 -1.2268  1.2237
 8891SOL     OW38131   1.687   3.623   1.828 -0.0745  0.6502 -0.0805
 8891SOL    HW138132   1.637   3.664   1.899 -0.2471 -0.5996  0.5143
 8891SOL    HW238133   1.775   3.634   1.863 -0.0979  1.3892 -0.2418
 8892SOL     OW38134   3.242   0.235  13.330 -0.2196  0.0384 -0.1473
 8892SOL    HW138135   3.288   0.162  13.372  0.1462  1.2186  1.5017
 8892SOL    HW238136   3.174   0.186  13.283  0.4282 -0.0339 -1.0182
 8893SOL     OW38137   0.186   3.848   5.486  0.2147 -0.2745 -0.4203
 8893SOL    HW138138   0.271   3.844   5.529 -0.3525  1.0906  0.8146
 8893SOL    HW238139   0.202   3.814   5.398  0.3246  0.4849 -0.6902
 8894SOL     OW38140   3.816   2.816   6.142 -0.6608 -0.4157 -0.0504
 8894SOL    HW138141   3.869   2.737   6.149  3.1597  2.3517  1.9255
 8894SOL    HW238142   3.732   2.800   6.185  0.3883  0.1065  2.1679
 8895SOL     OW38143   1.755   4.131  10.362 -0.3400  0.4779 -0.8500
 8895SOL    HW138144   1.718   4.216  10.385 -0.9127 -0.2930  1.1184
 8895SOL    HW238145   1.833   4.146  10.415  0.5682 -1.1548 -1.7127
 8896SOL     OW38146   4.046   3.175   8.076 -0.2556  0.4600 -0.1886
 8896SOL    HW138147   4.097   3.112   8.025 -2.4782  0.6994 -2.6964
 8896SOL    HW238148   3.959   3.136   8.065 -0.4695  2.0015 -4.0238
 8897SOL     OW38149   4.029   0.116  13.757 -0.1712  0.2985  0.3227
 8897SOL    HW138150   4.064   0.180  13.819 -1.2618 -0.3309  1.6003
 8897SOL    HW238151   4.092   0.044  13.755 -0.4018  0.0599  1.4068
 8898SOL     OW38152   0.759   1.879   2.345 -0.7925 -0.6619 -0.1049
 8898SOL    HW138153   0.813   1.915   2.415  1.6938 -0.4365 -2.1339
 8898SOL    HW238154   0.677   1.873   2.394 -2.3932 -3.1811 -3.0838
 8899SOL     OW38155   4.276   2.593   9.577 -0.3555 -0.1885 -0.0472
 8899SOL    HW138156   4.329   2.518   9.605 -0.1106  0.3386  0.9067
 8899SOL    HW238157   4.340   2.658   9.605 -1.2777  0.6357  0.1456
 8900SOL     OW38158   0.707   3.831   4.995 -0.5860 -0.4640 -0.2612
 8900SOL    HW138159   0.630   3.789   5.033 -1.6270  0.1450 -1.6748
 8900SOL    HW238160   0.660   3.893   4.938 -1.4845  0.1625  1.1747
 8901SOL     OW38161   4.694   2.409   5.317 -0.1675  0.0087  0.2014
 8901SOL    HW138162   4.718   2.388   5.407  1.7741  1.7237  0.0824
 8901SOL    HW238163   4.659   2.325   5.285 -1.6133  0.8983 -0.5817
 8902SOL     OW38164   1.363   1.566   9.129  0.1018  0.3967  0.8905
 8902SOL    HW138165   1.407   1.485   9.105  1.3756  1.8121 -1.5165
 8902SOL    HW238166   1.297   1.525   9.185 -1.2954  1.0326 -0.2571
 8903SOL     OW38167   1.316   3.425   5.037 -0.1947  0.1283  0.1506
 8903SOL    HW138168   1.242   3.470   4.997 -0.9872 -1.0444  0.3303
 8903SOL    HW238169   1.344   3.372   4.963 -0.8998  0.4410 -0.3288
 8904SOL     OW38170   0.190   2.307   1.580 -0.5274  0.3731 -0.6048
 8904SOL    HW138171   0.238   2.333   1.501 -2.2094  2.8528 -0.8008
 8904SOL    HW238172   0.269   2.270   1.621 -0.8821  0.2043 -0.0724
 8905SOL     OW38173   3.799   2.112   5.179 -0.1177  0.6446  0.0040
 8905SOL    HW138174   3.878   2.129   5.232 -0.3633  1.6275  0.0438
 8905SOL    HW238175   3.832   2.166   5.107 -0.0501  2.6387  1.5165
 8906SOL     OW38176   3.837   0.594  12.510  0.3051  0.0797  0.8297
 8906SOL    HW138177   3.933   0.599  12.520  0.1538 -0.3781  2.5782
 8906SOL    HW238178   3.797   0.643  12.582  1.1641  1.1867  0.5695
 8907SOL     OW38179   1.559   0.077  15.654  0.3752 -0.6369  0.2030
 8907SOL    HW138180   1.513   4.713  15.647  0.0720 -0.4108 -0.6079
 8907SOL    HW238181   1.597   0.066  15.740  1.1886  0.5644  0.0011
 8908SOL     OW38182   1.401   2.398   7.401  0.4105  0.3048  0.0473
 8908SOL    HW138183   1.446   2.348   7.469 -0.1446  1.6490  1.4105
 8908SOL    HW238184   1.310   2.372   7.412  0.9880 -1.6819  0.1164
 8909SOL     OW38185   3.257   3.202   8.749 -0.7111 -0.2637  0.0029
 8909SOL    HW138186   3.207   3.280   8.725  1.7634  1.4453  0.4045
 8909SOL    HW238187   3.207   3.167   8.822 -2.8526  1.1712 -0.7559
 8910SOL     OW38188   1.658   4.246   3.734 -0.4346  0.0045  0.3936
 8910SOL    HW138189   1.710   4.288   3.803  0.7247  1.1829 -1.2050
 8910SOL    HW238190   1.626   4.180   3.796  0.2926 -1.4288 -0.7763
 8911SOL     OW38191   3.492   3.229   4.635 -0.5583 -0.0865 -0.6140
 8911SOL    HW138192   3.570   3.174   4.642 -0.2571  0.4537  0.2268
 8911SOL    HW238193   3.500   3.280   4.716 -0.7579 -0.6455 -0.2435
 8912SOL     OW38194   1.898   2.783  17.500 -0.0567  0.4826  0.0768
 8912SOL    HW138195   1.973   2.725  17.492 -0.8004 -0.5502  0.6208
 8912SOL    HW238196   1.886   2.769  17.594  1.3942 -0.5684  0.0987
 8913SOL     OW38197   1.051   1.761  12.252  0.1428 -0.4570 -0.1322
 8913SOL    HW138198   0.993   1.697  12.210 -1.9422  0.7258  0.9149
 8913SOL    HW238199   1.101   1.800  12.180 -0.5641 -0.4105 -0.6000
 8914SOL     OW38200   2.920   1.583   9.157  0.0184  0.1268  0.4070
 8914SOL    HW138201   2.891   1.634   9.233  0.1954  1.1889 -0.2285
 8914SOL    HW238202   2.996   1.639   9.139  0.4351 -0.1428  1.2945
 8915SOL     OW38203   3.267   2.744   7.953  0.0620  0.3088  0.2434
 8915SOL    HW138204   3.223   2.684   8.014  3.5291 -0.6402  1.8322
 8915SOL    HW238205   3.275   2.704   7.867  1.4581  1.6114 -0.2296
 8916SOL     OW38206   3.023   2.893   2.423 -0.0942  0.7162  0.2104
 8916SOL    HW138207   2.998   2.934   2.340 -0.8824 -0.1866 -0.0032
 8916SOL    HW238208   2.977   2.810   2.433  1.9588 -0.3127  0.9954
 8917SOL     OW38209   2.633   4.322  10.301 -0.1491 -0.2091 -0.9413
 8917SOL    HW138210   2.684   4.341  10.380 -2.5397  0.2403  0.4916
 8917SOL    HW238211   2.551   4.345  10.343 -0.7978 -1.6015 -1.4592
 8918SOL     OW38212   1.970   0.331   6.832  0.0611 -0.2153  0.1510
 8918SOL    HW138213   1.957   0.377   6.915  0.2175  2.2315 -1.1649
 8918SOL    HW238214   1.915   0.388   6.777  0.9058  2.6553  2.2744
 8919SOL     OW38215   4.682   2.234   8.417 -0.9858 -0.3746 -0.1689
 8919SOL    HW138216   4.710   2.144   8.397 -0.3288 -0.7263  2.3075
 8919SOL    HW238217   4.588   2.222   8.416 -0.9848 -0.5228  1.0720
 8920SOL     OW38218   4.605   0.536  11.009  0.5519 -0.0151  0.7618
 8920SOL    HW138219   4.625   0.502  10.921 -0.5855 -1.3138  1.0148
 8920SOL    HW238220   4.670   0.489  11.062  0.9001 -0.0607  0.2911
 8921SOL     OW38221   1.715   1.598   2.903 -0.1792 -0.2346  0.3386
 8921SOL    HW138222   1.748   1.512   2.930 -0.5883  0.6708  3.7774
 8921SOL    HW238223   1.669   1.617   2.985  0.1908 -0.6174  0.6415
 8922SOL     OW38224   1.868   4.650   1.152 -0.3794  0.4312  0.1718
 8922SOL    HW138225   1.805   4.611   1.092  0.3756 -0.7523  0.1456
 8922SOL    HW238226   1.934   4.581   1.155  0.2299  0.9977 -0.1836
 8923SOL     OW38227   4.448   1.945  11.870 -0.0571 -0.3053 -0.1576
 8923SOL    HW138228   4.443   1.874  11.806 -0.4786 -1.5793  1.3075
 8923SOL    HW238229   4.532   1.982  11.842  1.6121 -3.5827  0.5298
 8924SOL     OW38230   4.657   4.518   5.763  0.0144  0.6564  0.4028
 8924SOL    HW138231   4.612   4.570   5.696 -1.0437 -0.9515 -0.1209
 8924SOL    HW238232   4.613   4.542   5.844 -0.9905 -0.1256  0.0851
 8925SOL     OW38233   1.845   3.944   3.319 -0.0873  0.2981 -0.0227
 8925SOL    HW138234   1.759   3.985   3.311  0.1735  0.7906 -0.3195
 8925SOL    HW238235   1.884   3.987   3.395 -0.7091 -0.6540  0.8321
 8926SOL     OW38236   0.153   0.480   5.660  0.3308 -1.1373 -0.2368
 8926SOL    HW138237   0.136   0.561   5.612  0.4042  0.1464  1.9052
 8926SOL    HW238238   0.065   0.443   5.658  0.1343 -0.6002 -1.4173
 8927SOL     OW38239   1.428   4.403   6.634  0.1607  0.1665  0.0860
 8927SOL    HW138240   1.430   4.457   6.555 -0.0725  0.0194 -0.0219
 8927SOL    HW238241   1.520   4.394   6.659 -0.5464 -1.1017  2.2892
 8928SOL     OW38242   0.907   1.595  13.383  0.4276 -0.0824 -0.3283
 8928SOL    HW138243   0.879   1.514  13.341  0.8524 -1.4151  1.9883
 8928SOL    HW238244   0.870   1.578  13.470 -1.4049 -1.4412 -1.3681
 8929SOL     OW38245   0.404   0.280  15.764 -0.0855  0.0458 -0.5347
 8929SOL    HW138246   0.475   0.223  15.733  1.1102  1.0167  0.4397
 8929SOL    HW238247   0.434   0.314  15.848 -0.1484 -0.1605 -0.4286
 8930SOL     OW38248   1.061   3.326   3.548  0.3298  0.5311 -0.2998
 8930SOL    HW138249   1.085   3.419   3.546  0.6695  0.4734  1.0818
 8930SOL    HW238250   0.988   3.330   3.609  0.4109 -0.2896 -0.1610
 8931SOL     OW38251   2.342   4.475   8.852 -0.4730 -0.3536  0.6089
 8931SOL    HW138252   2.292   4.553   8.877  0.0549  0.8173 -1.9842
 8931SOL    HW238253   2.428   4.477   8.895 -0.5112  1.2198  0.6145
 8932SOL     OW38254   4.166   0.974  16.345 -0.0710  0.0242 -0.4968
 8932SOL    HW138255   4.257   0.949  16.331  0.5353  1.4289  1.0168
 8932SOL    HW238256   4.181   1.019  16.428 -0.7629 -0.5276 -0.0795
 8933SOL     OW38257   0.250   2.244  11.032 -0.3783 -0.3850  0.1603
 8933SOL    HW138258   0.291   2.312  11.085  0.8281  0.0332 -1.2936
 8933SOL    HW238259   0.194   2.207  11.100  2.6283 -1.1354  2.2221
 8934SOL     OW38260   3.131   4.325   9.777 -0.6933  0.5139 -0.7750
 8934SOL    HW138261   3.147   4.414   9.747 -0.8944  0.7183 -0.2677
 8934SOL    HW238262   3.065   4.337   9.845  1.0005 -0.9098  1.1557
 8935SOL     OW38263   1.187   1.767  10.476  0.2736 -0.0921 -0.6710
 8935SOL    HW138264   1.103   1.769  10.522 -0.0889 -2.7779 -1.2469
 8935SOL    HW238265   1.245   1.789  10.550  0.2972  0.0342 -0.7265
 8936SOL     OW38266   4.226   4.411  15.029  0.5040  0.6737 -0.4779
 8936SOL    HW138267   4.200   4.350  15.099 -1.1909  3.3182  1.2128
 8936SOL    HW238268   4.161   4.481  15.035  0.6035  0.8733 -1.7449
 8937SOL     OW38269   0.245   2.760   7.208 -0.4529 -0.2679  0.2516
 8937SOL    HW138270   0.217   2.723   7.292 -1.0023 -0.1479  0.1239
 8937SOL    HW238271   0.194   2.713   7.142  0.0356 -0.0946 -0.2470
 8938SOL     OW38272   1.426   1.674   8.300 -0.0167 -0.2360 -0.1405
 8938SOL    HW138273   1.417   1.687   8.206 -1.3267  0.4737  0.0769
 8938SOL    HW238274   1.517   1.645   8.311  0.2205  0.5327 -0.0230
 8939SOL     OW38275   2.812   2.055  14.192 -0.5191  0.1223 -0.5835
 8939SOL    HW138276   2.793   2.149  14.196  2.4905  0.7896 -1.6397
 8939SOL    HW238277   2.901   2.059  14.229 -0.2949 -1.4009 -0.9528
 8940SOL     OW38278   2.728   4.115   6.183 -0.1243 -0.4139  0.4488
 8940SOL    HW138279   2.730   4.184   6.116 -0.4768 -2.3889 -1.5995
 8940SOL    HW238280   2.703   4.167   6.259 -0.4682  0.3821 -0.1975
 8941SOL     OW38281   0.791   2.448  12.142  0.5805 -0.2538  0.1535
 8941SOL    HW138282   0.879   2.485  12.138  0.4203  0.5904  4.2053
 8941SOL    HW238283   0.804   2.364  12.186 -0.5836 -0.0892  0.8194
 8942SOL     OW38284   0.754   1.428   3.002 -0.2789  0.1636 -0.2466
 8942SOL    HW138285   0.799   1.413   2.919  1.1348  1.2495  0.3362
 8942SOL    HW238286   0.811   1.491   3.046  0.6501 -2.0391  1.6626
 8943SOL     OW38287   2.106   4.571   0.255 -0.1860  0.1571 -0.6488
 8943SOL    HW138288   2.193   4.610   0.265 -0.4225  1.0776 -2.1424
 8943SOL    HW238289   2.092   4.575   0.160 -0.1810  1.8361 -0.5824
 8944SOL     OW38290   3.757   1.061   2.445  0.1622 -0.1753 -0.4301
 8944SOL    HW138291   3.675   1.074   2.492  0.9437  0.8911  0.6655
 8944SOL    HW238292   3.806   1.124   2.498  1.6243 -1.1855 -0.5718
 8945SOL     OW38293   2.474   4.056   8.058  0.0262  0.3544 -0.2111
 8945SOL    HW138294   2.389   4.018   8.037  1.4169 -1.6122 -2.2246
 8945SOL    HW238295   2.446   4.148   8.054 -1.1818 -0.0161 -0.3360
 8946SOL     OW38296   3.446   4.049   5.444 -0.5942 -0.5112  0.0830
 8946SOL    HW138297   3.535   4.084   5.442 -0.7974 -0.0621 -0.7768
 8946SOL    HW238298   3.422   4.094   5.525 -0.4157 -1.5277  0.6971
 8947SOL     OW38299   3.215   1.905   6.865  0.2323  0.0685 -0.3880
 8947SOL    HW138300   3.229   1.822   6.819 -0.6717  0.1624 -0.8258
 8947SOL    HW238301   3.153   1.877   6.932 -2.2945 -0.2648 -2.8746
 8948SOL     OW38302   3.718   0.924   7.621 -0.2585 -0.2018  0.2957
 8948SOL    HW138303   3.712   1.019   7.622 -0.0966 -0.2157  2.8049
 8948SOL    HW238304   3.693   0.891   7.535 -1.5979 -1.1384  1.0305
 8949SOL     OW38305   2.089   3.799  14.693 -0.2565  0.0356  0.0180
 8949SOL    HW138306   2.019   3.742  14.662  0.7151 -0.0896 -1.9528
 8949SOL    HW238307   2.129   3.835  14.613 -0.6605 -1.2553 -0.7514
 8950SOL     OW38308   3.878   2.544  13.910 -0.8802 -0.1444  0.2142
 8950SOL    HW138309   3.877   2.566  13.817 -0.9680 -1.4548 -0.0956
 8950SOL    HW238310   3.843   2.625  13.948  1.1147  0.7463  0.1346
 8951SOL     OW38311   1.662   3.854   5.420  0.1159  0.1778 -0.3860
 8951SOL    HW138312   1.729   3.894   5.366  0.5610  0.2529  0.2331
 8951SOL    HW238313   1.577   3.884   5.388 -0.4791  0.7443  1.7498
 8952SOL     OW38314   0.793   1.448  14.540 -0.2140  0.3505 -0.1729
 8952SOL    HW138315   0.810   1.367  14.494  2.3948 -0.6905  2.6254
 8952SOL    HW238316   0.739   1.501  14.481  0.0784 -0.3491 -1.0685
 8953SOL     OW38317   0.360   0.665   5.467 -0.4154  0.1545 -0.4023
 8953SOL    HW138318   0.364   0.734   5.402 -1.5862  1.4531  0.8947
 8953SOL    HW238319   0.399   0.714   5.539  0.3242 -1.9044  0.5867
 8954SOL     OW38320   0.121   3.833   1.322 -0.6739 -0.2857 -0.1148
 8954SOL    HW138321   0.069   3.889   1.379  0.1674 -1.5568  1.9057
 8954SOL    HW238322   0.104   3.751   1.369  1.6004 -0.8703 -0.3019
 8955SOL     OW38323   2.066   3.695  14.948  0.5565  0.0441 -0.2889
 8955SOL    HW138324   1.973   3.716  14.935 -0.0933 -0.9111  2.8480
 8955SOL    HW238325   2.087   3.749  14.872  1.8030  0.5138  0.4001
 8956SOL     OW38326   2.481   1.393  17.635  0.2137 -0.3480  0.4126
 8956SOL    HW138327   2.453   1.357  17.551 -0.6364  0.1208  0.4904
 8956SOL    HW238328   2.437   1.478  17.634  0.9350  0.0166 -1.1308
 8957SOL     OW38329   2.502   3.006   7.523 -0.0571 -0.8393 -0.0864
 8957SOL    HW138330   2.576   2.947   7.537  0.2601 -0.2164  0.8521
 8957SOL    HW238331   2.534   3.082   7.572  1.3537 -1.5715  0.1390
 8958SOL     OW38332   1.496   3.316   6.115 -0.6916 -0.2365 -0.1469
 8958SOL    HW138333   1.570   3.257   6.104 -0.6087 -0.2021  0.2366
 8958SOL    HW238334   1.482   3.300   6.208 -0.7399 -0.8300 -0.2572
 8959SOL     OW38335   2.666   3.494   8.339  0.2338 -0.2394  0.1779
 8959SOL    HW138336   2.707   3.503   8.253  1.8634  0.5531  1.0462
 8959SOL    HW238337   2.737   3.543   8.379 -1.2812  1.1193  1.2089
 8960SOL     OW38338   4.175   2.866   0.582 -0.3001 -0.2875  0.3217
 8960SOL    HW138339   4.150   2.943   0.633  0.4642  0.3180 -0.2326
 8960SOL    HW238340   4.193   2.890   0.491  0.9869  0.1893  0.7112
 8961SOL     OW38341   0.561   0.368   6.695  0.4670  0.6380 -0.2134
 8961SOL    HW138342   0.556   0.463   6.706  1.3144  0.9528 -2.4745
 8961SOL    HW238343   0.514   0.348   6.614 -0.4518 -0.7631  0.6710
 8962SOL     OW38344   0.755   2.309   5.774 -0.5431 -0.2970  0.5547
 8962SOL    HW138345   0.709   2.257   5.839 -1.1771 -0.0490  0.3031
 8962SOL    HW238346   0.843   2.308   5.812 -0.6103 -0.0345  0.7140
 8963SOL     OW38347   1.745   0.960   3.078 -0.2010  0.1848 -0.1703
 8963SOL    HW138348   1.764   0.982   2.987 -0.5746  1.8686  0.1674
 8963SOL    HW238349   1.720   1.046   3.111 -1.1399  0.3576 -1.2899
 8964SOL     OW38350   1.178   0.878   9.928 -0.1296  0.1838 -0.0370
 8964SOL    HW138351   1.116   0.856   9.859 -0.0162  0.9412 -0.3749
 8964SOL    HW238352   1.197   0.970   9.908  0.0210  0.6154  2.0965
 8965SOL     OW38353   0.149   0.489   4.661 -0.0008  0.5040 -0.1204
 8965SOL    HW138354   0.182   0.529   4.741 -1.3107  1.5913 -0.1157
 8965SOL    HW238355   0.218   0.497   4.596 -0.4739  0.2111 -0.6581
 8966SOL     OW38356   0.874   1.817   2.123 -0.4461  0.4242 -0.5465
 8966SOL    HW138357   0.841   1.838   2.210 -1.1671  2.6240 -1.3524
 8966SOL    HW238358   0.839   1.732   2.096 -0.3934  0.0211  0.6652
 8967SOL     OW38359   0.764   0.496   5.830  0.3385 -0.3100 -0.3709
 8967SOL    HW138360   0.721   0.435   5.770 -0.0289  0.2589 -0.6920
 8967SOL    HW238361   0.843   0.517   5.779  1.1031  0.6728  1.2056
 8968SOL     OW38362   1.932   2.344  11.527  0.4271  0.0917 -0.5847
 8968SOL    HW138363   1.938   2.249  11.511  1.2115  0.7168 -3.9256
 8968SOL    HW238364   1.993   2.363  11.598 -0.4826  0.6538  0.0479
 8969SOL     OW38365   4.673   1.259   6.647  1.0306  0.0987 -0.2741
 8969SOL    HW138366   4.688   1.340   6.694  0.2790 -0.4899  0.9878
 8969SOL    HW238367   0.034   1.212   6.667  0.5935 -1.1620 -1.4211
 8970SOL     OW38368   2.694   2.293  13.849 -0.4677  0.5512  0.4688
 8970SOL    HW138369   2.633   2.230  13.810  1.5302 -0.8496 -0.4380
 8970SOL    HW238370   2.679   2.281  13.942  0.4790 -1.2325  0.4079
 8971SOL     OW38371   3.741   4.399   7.503  0.1619  0.4831 -0.5416
 8971SOL    HW138372   3.777   4.400   7.592  2.1378 -0.3260 -1.3256
 8971SOL    HW238373   3.718   4.491   7.487 -1.1994  0.2251 -0.0908
 8972SOL     OW38374   0.964   2.450  14.001 -0.3045 -0.3567  0.1676
 8972SOL    HW138375   1.008   2.504  13.935  0.9504 -1.1358  0.3903
 8972SOL    HW238376   0.896   2.510  14.033 -1.1465 -1.6147  0.7085
 8973SOL     OW38377   2.350   3.544   7.909  0.4161  0.6552 -0.5738
 8973SOL    HW138378   2.390   3.582   7.830  0.6277 -0.3515 -0.9538
 8973SOL    HW238379   2.301   3.475   7.863 -0.7880  0.6996  0.6488
 8974SOL     OW38380   2.299   1.932   1.108 -0.0297  0.1628  0.3438
 8974SOL    HW138381   2.338   1.875   1.042  1.3656  1.4362  0.1006
 8974SOL    HW238382   2.289   2.016   1.065  1.3190  0.6607  1.0073
 8975SOL     OW38383   1.618   4.481   4.629 -0.0597  0.3225 -0.4166
 8975SOL    HW138384   1.571   4.562   4.649  1.7375  0.6792  2.3320
 8975SOL    HW238385   1.584   4.465   4.541 -1.8660  1.1548  0.1236
 8976SOL     OW38386   4.547   0.354  11.569  0.0408  0.4341 -0.2571
 8976SOL    HW138387   4.509   0.337  11.483 -0.3638  1.6860 -0.3258
 8976SOL    HW238388   4.642   0.360  11.561  0.1178 -0.4854 -0.1274
 8977SOL     OW38389   1.522   2.598   9.482  0.4178  0.3441  0.2643
 8977SOL    HW138390   1.555   2.622   9.569  2.6659  0.3379 -0.5737
 8977SOL    HW238391   1.500   2.507   9.503  1.1791 -0.4249 -2.3059
 8978SOL     OW38392   3.525   1.454   8.826  0.0244 -0.1837  0.1407
 8978SOL    HW138393   3.535   1.548   8.811 -0.3770 -0.3086 -0.8571
 8978SOL    HW238394   3.559   1.424   8.742  0.6009 -0.2689  0.4044
 8979SOL     OW38395   0.389   4.605   3.121 -0.2570  0.2568 -0.0430
 8979SOL    HW138396   0.468   4.580   3.168 -0.8574 -1.4210  0.1003
 8979SOL    HW238397   0.418   4.676   3.064 -2.5550  0.8366 -0.5103
 8980SOL     OW38398   3.477   2.191  13.855  0.3513  0.2430  0.4994
 8980SOL    HW138399   3.546   2.238  13.902 -1.7894  1.4208  2.4730
 8980SOL    HW238400   3.513   2.104  13.871 -1.4272 -0.6085 -0.1632
 8981SOL     OW38401   1.735   0.114   7.289 -0.3802 -0.5606  0.3198
 8981SOL    HW138402   1.829   0.094   7.288 -0.4073 -0.6554 -0.2902
 8981SOL    HW238403   1.740   0.193   7.342 -0.7972 -0.5723  0.3760
 8982SOL     OW38404   2.263   3.436  17.266 -0.3608 -0.2326  0.7172
 8982SOL    HW138405   2.224   3.356  17.230 -1.3948  0.2817  0.6923
 8982SOL    HW238406   2.192   3.473  17.319 -0.8471  1.2478 -0.9469
 8983SOL     OW38407   2.683   4.135   1.272  0.5019  0.5760 -0.1164
 8983SOL    HW138408   2.723   4.051   1.251 -1.6734 -0.8539  1.4153
 8983SOL    HW238409   2.666   4.116   1.364  2.2380  0.8035  0.2451
 8984SOL     OW38410   0.485   4.122  10.820 -0.1268  0.3554 -0.4510
 8984SOL    HW138411   0.518   4.179  10.750  0.0301 -0.5886 -1.1571
 8984SOL    HW238412   0.540   4.043  10.818  0.9297  1.1209 -2.4677
 8985SOL     OW38413   0.729   2.125   1.996  0.5537 -0.1561 -0.0457
 8985SOL    HW138414   0.757   2.150   1.908 -0.2084  1.1421  0.0751
 8985SOL    HW238415   0.802   2.074   2.031  1.5407 -0.4519 -2.5108
 8986SOL     OW38416   2.094   1.545  10.515 -0.3567  0.0606  0.4067
 8986SOL    HW138417   2.069   1.592  10.436  0.8290  1.9967  1.1912
 8986SOL    HW238418   2.171   1.595  10.543  0.6527 -0.4147 -1.5171
 8987SOL     OW38419   3.405   3.226  10.763 -0.0233 -0.1517  0.4637
 8987SOL    HW138420   3.359   3.208  10.845  0.9403 -1.8993  0.6203
 8987SOL    HW238421   3.378   3.318  10.755  0.6460 -0.2262 -2.6187
 8988SOL     OW38422   0.090   0.219   7.589 -0.4330  0.2037  0.2056
 8988SOL    HW138423   0.050   0.295   7.632  0.0729  0.4436  0.2494
 8988SOL    HW238424   0.151   0.270   7.535  1.2503  0.2775  2.1881
 8989SOL     OW38425   2.871   4.696   3.862  0.3069  0.2484  0.5430
 8989SOL    HW138426   2.922   4.615   3.871  1.7756  1.2865  1.5368
 8989SOL    HW238427   2.925   0.029   3.804  0.1827 -1.6852 -1.3389
 8990SOL     OW38428   3.127   2.722  13.011  0.0508  0.3009 -0.1950
 8990SOL    HW138429   3.147   2.801  12.962 -2.9190  1.7395  0.9309
 8990SOL    HW238430   3.146   2.749  13.101  2.1087 -1.2469 -0.1601
 8991SOL     OW38431   4.140   1.823   2.042  0.1952  0.0352 -0.3317
 8991SOL    HW138432   4.205   1.848   1.976 -2.3301  0.0870 -2.7935
 8991SOL    HW238433   4.097   1.743   2.013 -1.1018  0.1138  1.3835
 8992SOL     OW38434   2.292   4.163   4.570  0.4630 -0.3745 -0.0470
 8992SOL    HW138435   2.386   4.169   4.552  0.2470 -0.8608 -1.3248
 8992SOL    HW238436   2.264   4.255   4.564 -2.5316 -1.3109 -0.2633
 8993SOL     OW38437   2.765   1.550  17.646  0.0124 -0.1593 -0.1170
 8993SOL    HW138438   2.697   1.483  17.645  0.3105 -0.4770  2.2422
 8993SOL    HW238439   2.754   1.579  17.555 -0.3086  1.9906  0.6109
 8994SOL     OW38440   1.729   4.614   4.050 -0.1593  0.2378  0.3766
 8994SOL    HW138441   1.821   4.639   4.036 -0.4718 -1.0434 -4.0617
 8994SOL    HW238442   1.700   4.653   3.968 -2.1971 -2.9152 -0.3984
 8995SOL     OW38443   2.247   3.578   8.867 -0.1059  0.1679 -0.3088
 8995SOL    HW138444   2.321   3.634   8.891  0.3200 -0.9022  0.8779
 8995SOL    HW238445   2.192   3.583   8.946 -0.6371 -2.5203 -0.5259
 8996SOL     OW38446   0.464   1.360   6.526 -0.6848 -0.5598  0.6510
 8996SOL    HW138447   0.430   1.302   6.594  0.0151  0.0562  1.5382
 8996SOL    HW238448   0.451   1.441   6.576  0.7308 -0.0828  0.2686
 8997SOL     OW38449   2.255   3.183  10.127 -0.1479  0.3844 -0.8142
 8997SOL    HW138450   2.254   3.277  10.145 -0.3935  0.1111  0.6586
 8997SOL    HW238451   2.238   3.169  10.034 -0.8998 -2.4430 -0.2650
 8998SOL     OW38452   1.551   1.964   2.636  0.4614  0.2289 -0.2143
 8998SOL    HW138453   1.628   1.933   2.684 -0.1313 -1.1652 -0.1419
 8998SOL    HW238454   1.585   2.011   2.561  0.3768 -1.9311 -1.6141
 8999SOL     OW38455   2.133   3.333   8.838 -0.0857 -0.3287 -0.4449
 8999SOL    HW138456   2.052   3.369   8.875  0.5750  0.5112  0.2109
 8999SOL    HW238457   2.184   3.413   8.823  0.9785 -0.7724  0.8131
 9000SOL     OW38458   3.819   0.619   5.240 -0.4659  0.6819  0.6079
 9000SOL    HW138459   3.905   0.611   5.199 -2.1073  1.8971 -3.0331
 9000SOL    HW238460   3.827   0.545   5.301 -1.6391  0.0211 -0.0336
 9001SOL     OW38461   4.212   3.834   8.452 -0.1838 -0.0203 -0.0293
 9001SOL    HW138462   4.279   3.830   8.519  1.6376  1.1198 -1.7881
 9001SOL    HW238463   4.135   3.848   8.507  1.1763  2.1955  1.2854
 9002SOL     OW38464   2.999   4.076  10.002  0.2181  0.4561 -0.0874
 9002SOL    HW138465   3.054   4.049   9.929  0.3456 -0.6680  0.4121
 9002SOL    HW238466   2.923   4.022   9.982  1.1442 -1.4332  1.4217
 9003SOL     OW38467   2.755   3.956  11.365  0.6057  0.1019  0.7336
 9003SOL    HW138468   2.779   4.020  11.298  0.8505 -1.3047 -0.4940
 9003SOL    HW238469   2.829   3.895  11.368 -0.9983 -2.0157 -3.2868
 9004SOL     OW38470   3.462   0.608  16.382  0.4646 -0.3259  0.2354
 9004SOL    HW138471   3.385   0.613  16.326  1.6567 -0.5128 -1.4258
 9004SOL    HW238472   3.500   0.692  16.358  0.4449 -0.3424  0.1431
 9005SOL     OW38473   3.807   4.167   5.206 -0.1432  0.5015 -0.3088
 9005SOL    HW138474   3.818   4.210   5.122  2.9262 -0.9182 -0.6477
 9005SOL    HW238475   3.899   4.166   5.232 -0.1886 -1.5896 -0.2322
 9006SOL     OW38476   3.548   3.971   3.535 -0.1314 -0.0894  0.0007
 9006SOL    HW138477   3.566   3.974   3.441 -1.4018 -1.0672 -0.2828
 9006SOL    HW238478   3.618   3.911   3.560  0.2184 -0.9766 -3.0707
 9007SOL     OW38479   0.617   3.995   9.881  0.5794  0.1771 -0.0056
 9007SOL    HW138480   0.573   4.079   9.880  0.6694  0.2247  0.0224
 9007SOL    HW238481   0.705   4.028   9.899  0.5480 -0.1002  0.6677
 9008SOL     OW38482   3.295   4.679   3.594  0.1499  0.2936  0.5365
 9008SOL    HW138483   3.287   0.041   3.643  0.0352  0.8258 -0.3687
 9008SOL    HW238484   3.282   4.712   3.506  0.3581 -1.9628 -0.3397
 9009SOL     OW38485   3.026   1.600  16.046 -0.2636 -0.0211 -0.3488
 9009SOL    HW138486   3.010   1.543  16.121  0.6051  0.1687 -0.0134
 9009SOL    HW238487   3.057   1.532  15.986 -0.2632  1.0050 -1.5309
 9010SOL     OW38488   1.999   1.996   4.877  0.6088  0.6530 -0.4095
 9010SOL    HW138489   2.079   1.963   4.918 -0.2153  1.5224  1.8815
 9010SOL    HW238490   1.967   1.918   4.832 -0.7085 -0.6151  2.7098
 9011SOL     OW38491   0.482   2.198   5.737  0.7404  0.0114  1.0805
 9011SOL    HW138492   0.495   2.172   5.646 -3.0490 -0.2405  0.6399
 9011SOL    HW238493   0.527   2.282   5.727  1.7821 -0.7882 -1.0261
 9012SOL     OW38494   3.530   1.629   5.232 -0.1315  0.0065  0.1336
 9012SOL    HW138495   3.499   1.710   5.271 -0.8324 -0.8007  1.2666
 9012SOL    HW238496   3.530   1.648   5.138  0.2311 -1.6265 -0.2028
 9013SOL     OW38497   2.211   2.506   6.210 -0.3990 -0.3328  0.2019
 9013SOL    HW138498   2.137   2.465   6.255  0.9557 -1.4096  1.4311
 9013SOL    HW238499   2.256   2.428   6.177 -1.1234 -0.1913 -1.1281
 9014SOL     OW38500   1.198   1.712   6.114  0.5426 -0.0555  0.2240
 9014SOL    HW138501   1.259   1.726   6.186  2.5793  0.8294 -1.6846
 9014SOL    HW238502   1.260   1.707   6.041  0.8880 -1.1994  0.5951
 9015SOL     OW38503   0.715   3.613   4.811 -0.5747  0.3678 -0.1204
 9015SOL    HW138504   0.709   3.643   4.720  0.5419  0.3131 -0.2105
 9015SOL    HW238505   0.715   3.697   4.856  0.3024 -0.9321  2.2705
 9016SOL     OW38506   2.387   1.750   0.904  0.4438  0.0351 -0.1523
 9016SOL    HW138507   2.322   1.784   0.842  0.0846  0.2304  0.3325
 9016SOL    HW238508   2.458   1.713   0.852  1.1652  2.9275 -1.2086
 9017SOL     OW38509   2.994   4.528  13.020  0.9731  0.2087  0.2296
 9017SOL    HW138510   2.949   4.467  12.963  3.3582 -0.5279 -0.8516
 9017SOL    HW238511   3.063   4.465  13.043  0.8842 -0.0466 -0.2182
 9018SOL     OW38512   2.788   0.513  15.580  0.3462 -0.1150  0.3886
 9018SOL    HW138513   2.722   0.478  15.640  0.8134 -0.3514  0.7661
 9018SOL    HW238514   2.756   0.467  15.502  0.7812  1.7693 -0.9054
 9019SOL     OW38515   2.618   3.332   1.699  0.7805 -0.2156  0.2132
 9019SOL    HW138516   2.699   3.300   1.739  1.8974  1.9127 -0.3790
 9019SOL    HW238517   2.558   3.260   1.720 -1.5705  1.1927 -1.5973
 9020SOL     OW38518   0.098   3.621   0.759 -0.1438 -0.2681  0.2795
 9020SOL    HW138519   0.039   3.580   0.821 -0.4322  0.4943  0.5095
 9020SOL    HW238520   0.085   3.710   0.793 -0.7034 -0.7065  1.2058
 9021SOL     OW38521   0.671   1.092   6.440  0.2338 -0.0543 -0.7194
 9021SOL    HW138522   0.715   1.044   6.511 -1.3106 -1.0949 -0.4719
 9021SOL    HW238523   0.644   1.175   6.479  0.5311  0.4413 -1.5632
 9022SOL     OW38524   2.008   0.833   3.531 -0.7581 -0.2523 -0.0207
 9022SOL    HW138525   2.059   0.806   3.455 -1.2385  1.5224 -0.9874
 9022SOL    HW238526   2.004   0.752   3.582 -1.4358 -0.7684 -0.8798
 9023SOL     OW38527   4.701   2.407   7.872 -0.2662  0.0428  0.2891
 9023SOL    HW138528   4.706   2.348   7.948 -1.8961 -0.1522  0.2428
 9023SOL    HW238529   0.014   2.356   7.798 -0.7218  0.9101 -0.5051
 9024SOL     OW38530   2.270   1.008  15.403 -0.0622  0.2253 -0.2904
 9024SOL    HW138531   2.191   1.047  15.365 -0.1357  1.1210  0.7651
 9024SOL    HW238532   2.231   0.963  15.478 -0.8749 -0.3510 -1.0550
 9025SOL     OW38533   2.454   2.609   4.030  0.6608  0.7761  0.8559
 9025SOL    HW138534   2.417   2.554   4.098  0.8048 -2.3386 -1.6046
 9025SOL    HW238535   2.397   2.584   3.958  2.1221 -1.2670  0.4113
 9026SOL     OW38536   2.337   1.624   5.975  0.7676  0.4052  0.2817
 9026SOL    HW138537   2.243   1.629   5.961  0.5718 -0.5235  1.2845
 9026SOL    HW238538   2.344   1.544   6.026 -1.0660 -0.1700 -0.3784
 9027SOL     OW38539   0.211   1.069   6.340 -0.8328 -0.1056 -0.3537
 9027SOL    HW138540   0.162   1.140   6.299  0.8001  0.5447 -1.2094
 9027SOL    HW238541   0.184   1.084   6.430 -0.8169 -0.7440 -0.2409
 9028SOL     OW38542   4.365   3.853   2.199 -0.1403  0.0127  0.3700
 9028SOL    HW138543   4.390   3.848   2.107 -3.1076  0.3519 -0.4428
 9028SOL    HW238544   4.423   3.917   2.241  1.7463 -1.8413  0.6060
 9029SOL     OW38545   2.071   3.673   2.691 -0.2057  0.3720  0.0151
 9029SOL    HW138546   2.032   3.671   2.603  0.7213 -1.7285 -0.3449
 9029SOL    HW238547   2.108   3.585   2.695 -0.8762  0.0963  0.1917
 9030SOL     OW38548   4.645   0.866   4.523 -0.5708 -0.5638  0.2134
 9030SOL    HW138549   4.569   0.908   4.564 -0.4399 -0.3197  0.2042
 9030SOL    HW238550   4.672   0.796   4.583  1.5385  1.0602  1.1533
 9031SOL     OW38551   2.706   4.238   3.072  0.5265 -0.3668  0.1477
 9031SOL    HW138552   2.706   4.168   3.007 -0.6066 -0.7906  0.6060
 9031SOL    HW238553   2.738   4.320   3.033 -0.1508 -0.4653 -0.6199
 9032SOL     OW38554   0.085   4.400  10.732 -0.1478 -0.4265 -0.0369
 9032SOL    HW138555   0.073   4.411  10.638 -1.6089  1.3063  0.3485
 9032SOL    HW238556   0.045   4.314  10.722  0.7107 -0.9555  1.1788
 9033SOL     OW38557   4.274   1.404  16.439  0.1182  0.0458  0.2350
 9033SOL    HW138558   4.234   1.461  16.373 -0.5120 -1.2726 -0.5304
 9033SOL    HW238559   4.354   1.372  16.398 -1.6118 -1.8339 -1.6839
 9034SOL     OW38560   2.517   1.791   5.343 -0.7446 -0.4969  0.0701
 9034SOL    HW138561   2.442   1.821   5.394 -1.0133  0.6677 -0.9984
 9034SOL    HW238562   2.553   1.719   5.395 -0.3804 -1.7286 -1.8824
 9035SOL     OW38563   1.844   0.384   1.587 -0.4396 -0.1349  0.0994
 9035SOL    HW138564   1.815   0.453   1.526 -0.6019  0.5701  0.9716
 9035SOL    HW238565   1.764   0.383   1.639  0.0227  0.6797  0.8318
 9036SOL     OW38566   0.299   1.980   1.893  0.2595 -0.0108  0.6646
 9036SOL    HW138567   0.272   1.912   1.955  1.0021  1.0920  2.2054
 9036SOL    HW238568   0.351   2.041   1.946  0.3059 -0.6020  1.3007
 9037SOL     OW38569   1.281   0.470  13.893  0.1009 -0.2184 -0.9615
 9037SOL    HW138570   1.252   0.476  13.802 -1.7385 -0.9680 -0.4341
 9037SOL    HW238571   1.355   0.530  13.894  0.4909 -0.7200 -0.5101
 9038SOL     OW38572   1.109   0.376  11.816  0.4357  0.4656 -0.4532
 9038SOL    HW138573   1.102   0.467  11.843 -1.6645  0.3628 -0.6963
 9038SOL    HW238574   1.031   0.326  11.839 -0.1102  0.5614 -2.0767
 9039SOL     OW38575   0.589   0.638   9.584 -0.4970  0.4320  0.2699
 9039SOL    HW138576   0.535   0.564   9.608 -0.7182 -0.0407 -1.6391
 9039SOL    HW238577   0.629   0.667   9.666 -1.6628  0.2775  0.8750
 9040SOL     OW38578   1.434   1.645   3.930  0.4042 -0.0393 -0.1516
 9040SOL    HW138579   1.515   1.695   3.931 -1.8790  3.6922  1.3782
 9040SOL    HW238580   1.417   1.630   4.023  2.1266  0.2374  0.2039
 9041SOL     OW38581   3.965   4.515   5.274 -0.5842 -0.2821  0.0894
 9041SOL    HW138582   3.904   4.548   5.207 -0.8666 -0.4006  0.2872
 9041SOL    HW238583   3.937   4.423   5.276 -1.7618  0.0855  0.8917
 9042SOL     OW38584   1.381   1.845   5.126  0.6546 -0.4519 -0.1206
 9042SOL    HW138585   1.468   1.870   5.095  0.5864 -1.1728 -0.9006
 9042SOL    HW238586   1.339   1.927   5.100 -0.7166 -1.2586 -0.4336
 9043SOL     OW38587   3.856   4.155   1.564  0.1282  0.1892 -0.1011
 9043SOL    HW138588   3.761   4.163   1.577 -0.2500 -0.7198 -2.3540
 9043SOL    HW238589   3.867   4.186   1.474  1.4816  2.1815  0.7546
 9044SOL     OW38590   0.543   0.475  13.630  0.2739 -0.3283  0.5206
 9044SOL    HW138591   0.551   0.379  13.632  0.9023 -0.3138 -1.2190
 9044SOL    HW238592   0.637   0.493  13.641  0.1575  0.6834 -0.1410
 9045SOL     OW38593   3.276   4.139   7.531  0.4814 -0.3513 -0.5699
 9045SOL    HW138594   3.351   4.135   7.473  0.0578  0.1875 -1.1611
 9045SOL    HW238595   3.194   4.133   7.482  0.5340 -0.4725 -0.6396
 9046SOL     OW38596   3.836   3.881  15.850 -0.0441  0.0921 -0.3001
 9046SOL    HW138597   3.832   3.945  15.778  0.8512  1.5975  0.9744
 9046SOL    HW238598   3.776   3.818  15.811  1.8870 -1.7057 -0.3272
 9047SOL     OW38599   3.093   2.828   0.416  0.2604 -0.6434  0.2280
 9047SOL    HW138600   3.022   2.785   0.463 -0.8443 -0.3589 -1.2147
 9047SOL    HW238601   3.125   2.774   0.344 -0.6135 -0.7018 -0.1016
 9048SOL     OW38602   0.763   2.097   2.833  0.7817  0.0664  0.4905
 9048SOL    HW138603   0.668   2.088   2.822  0.6597 -0.2455  1.8356
 9048SOL    HW238604   0.794   2.006   2.826  0.4780  0.0134 -0.1995
 9049SOL     OW38605   1.962   2.571   5.633  0.2894  0.6233 -0.6992
 9049SOL    HW138606   1.890   2.520   5.595 -0.0314  0.4399  0.1611
 9049SOL    HW238607   1.933   2.569   5.724  0.1476 -0.5330 -0.7721
 9050SOL     OW38608   2.384   1.487  15.146 -0.1439 -0.5545  0.1696
 9050SOL    HW138609   2.354   1.398  15.126 -1.1887 -0.0811 -0.3840
 9050SOL    HW238610   2.420   1.468  15.233  1.3121  2.3820  0.2093
 9051SOL     OW38611   3.083   4.465   6.713 -0.0164 -0.7039  0.1855
 9051SOL    HW138612   3.058   4.374   6.728 -0.0980 -0.7654 -0.3482
 9051SOL    HW238613   3.077   4.472   6.618  0.2138  0.3045  0.2432
 9052SOL     OW38614   0.781   1.260   4.441  0.1794  0.5910  0.0592
 9052SOL    HW138615   0.863   1.292   4.402  1.6787 -2.4522  0.6598
 9052SOL    HW238616   0.717   1.255   4.370 -0.3812 -0.9374  0.6755
 9053SOL     OW38617   1.305   2.671   7.103 -0.4478  0.1183  0.0855
 9053SOL    HW138618   1.245   2.711   7.166 -0.4491  0.5871 -0.2125
 9053SOL    HW238619   1.313   2.735   7.033  0.4870 -1.0747 -0.8912
 9054SOL     OW38620   0.821   4.008   7.424 -0.4516 -0.0952 -0.3382
 9054SOL    HW138621   0.826   3.983   7.332  2.4416  0.9902 -0.4743
 9054SOL    HW238622   0.820   4.104   7.421 -1.7989 -0.0848  0.3179
 9055SOL     OW38623   1.521   1.691   6.158  0.1816 -0.4891  0.1499
 9055SOL    HW138624   1.488   1.771   6.199 -0.0928 -1.7329  2.3705
 9055SOL    HW238625   1.613   1.715   6.168  0.3472 -1.8089  1.7097
 9056SOL     OW38626   2.290   3.224  10.626 -0.2683  0.2244 -0.4785
 9056SOL    HW138627   2.365   3.257  10.576 -0.1899  2.4695  1.1373
 9056SOL    HW238628   2.320   3.135  10.646  0.3679  0.3269 -0.9421
 9057SOL     OW38629   1.799   2.266  13.815 -0.4208  0.6820 -0.3972
 9057SOL    HW138630   1.772   2.312  13.894 -1.3851  1.7587 -1.3373
 9057SOL    HW238631   1.713   2.260  13.772  0.0150 -0.9633 -1.0404
 9058SOL     OW38632   4.285   3.936   6.060 -0.1406 -0.0573  0.4216
 9058SOL    HW138633   4.291   3.858   6.115  1.2957 -0.5832 -0.4847
 9058SOL    HW238634   4.267   4.005   6.124 -1.1492 -0.4349  0.5358
 9059SOL     OW38635   3.110   4.530   4.208 -0.9391 -0.0113  0.7094
 9059SOL    HW138636   3.047   4.473   4.253 -1.3919  1.6657  2.2218
 9059SOL    HW238637   3.118   4.611   4.259 -0.6175 -1.6046  3.1958
 9060SOL     OW38638   3.382   0.758   7.966  0.6761 -0.1416  0.5368
 9060SOL    HW138639   3.313   0.823   7.952  2.2322  1.1745 -0.9611
 9060SOL    HW238640   3.452   0.782   7.906  0.0289 -1.5443 -0.7653
 9061SOL     OW38641   4.656   1.737   6.625 -0.0456  0.2966 -0.1012
 9061SOL    HW138642   4.642   1.651   6.666  1.3871 -0.0576 -0.3507
 9061SOL    HW238643   4.710   1.778   6.692  2.7497 -0.5970 -1.8089
 9062SOL     OW38644   1.175   0.404  10.175 -0.3384 -0.3568 -0.0069
 9062SOL    HW138645   1.111   0.446  10.233  0.5953  0.7105  0.2337
 9062SOL    HW238646   1.145   0.318  10.206  0.6121 -0.8218 -0.3992
 9063SOL     OW38647   4.208   2.623   8.340 -0.6726 -0.2759  0.2880
 9063SOL    HW138648   4.213   2.541   8.291 -0.3250  0.5482 -1.0430
 9063SOL    HW238649   4.200   2.585   8.428  0.6855 -0.7993  0.1853
 9064SOL     OW38650   4.662   2.758   8.267 -0.1318 -0.5452 -0.0685
 9064SOL    HW138651   4.663   2.667   8.297  0.8719 -0.9351 -1.2858
 9064SOL    HW238652   4.573   2.783   8.292  0.3175  0.5605  0.3952
 9065SOL     OW38653   0.541   0.415   5.646 -0.3934 -0.1708  0.0010
 9065SOL    HW138654   0.498   0.481   5.700  1.0890  1.3060 -0.6165
 9065SOL    HW238655   0.489   0.404   5.567 -1.0816  1.3953  0.2546
 9066SOL     OW38656   0.715   4.408   4.505 -0.0956  0.1896  0.4065
 9066SOL    HW138657   0.731   4.501   4.523 -2.3087  0.7176 -0.2567
 9066SOL    HW238658   0.631   4.402   4.552 -0.2750 -1.8956 -0.2094
 9067SOL     OW38659   2.481   4.068  17.223  0.4144 -0.1517 -0.1682
 9067SOL    HW138660   2.445   4.156  17.238 -0.3738 -0.4442 -0.3215
 9067SOL    HW238661   2.571   4.088  17.250  0.2123 -1.4692  1.4808
 9068SOL     OW38662   3.106   3.790   1.894 -0.2148  0.2601 -0.1021
 9068SOL    HW138663   3.036   3.795   1.828  0.3136 -1.2128 -0.7591
 9068SOL    HW238664   3.172   3.742   1.845 -2.3196 -0.3553 -2.3328
 9069SOL     OW38665   2.975   1.202   7.602 -0.1419 -0.4140 -0.5767
 9069SOL    HW138666   2.928   1.196   7.519  0.1634  0.1985 -0.7911
 9069SOL    HW238667   3.057   1.232   7.564 -0.8150  0.1799 -1.5641
 9070SOL     OW38668   1.084   3.269   1.693 -0.0712  0.3923 -0.0798
 9070SOL    HW138669   1.003   3.282   1.742 -0.8939 -1.8505 -0.8654
 9070SOL    HW238670   1.114   3.360   1.691 -1.3232  0.7728 -1.4500
 9071SOL     OW38671   1.255   0.649   5.689  0.0384 -0.2878  0.1838
 9071SOL    HW138672   1.284   0.698   5.766  0.7677 -1.8876  0.9515
 9071SOL    HW238673   1.335   0.600   5.668  1.0656  1.1409  0.8155
 9072SOL     OW38674   3.277   1.179   7.869  0.2090 -0.4185 -0.1668
 9072SOL    HW138675   3.200   1.233   7.888 -1.0220 -1.5025 -2.1044
 9072SOL    HW238676   3.234   1.094   7.877  1.4114 -0.9653  0.4827
 9073SOL     OW38677   2.850   0.004   4.452  0.0132 -0.3265 -1.0792
 9073SOL    HW138678   2.869   0.076   4.512 -0.6288 -0.3313 -0.8714
 9073SOL    HW238679   2.880   4.654   4.510  0.6962  0.3399 -0.6191
 9074SOL     OW38680   0.807   3.395   6.477 -0.0318  0.1895 -0.2213
 9074SOL    HW138681   0.887   3.360   6.517  0.7293  1.4853 -0.5799
 9074SOL    HW238682   0.749   3.417   6.550 -0.0654 -0.3102 -0.0984
 9075SOL     OW38683   0.237   2.366   9.218  0.2644  0.2115  0.9183
 9075SOL    HW138684   0.273   2.284   9.253 -1.1826 -0.9075 -0.2482
 9075SOL    HW238685   0.156   2.328   9.185 -0.5580  0.7962  2.2454
 9076SOL     OW38686   3.227   3.415   1.869 -0.0921  0.4772 -0.1824
 9076SOL    HW138687   3.256   3.455   1.786  1.4215 -0.5363 -0.1438
 9076SOL    HW238688   3.288   3.341   1.870 -1.5332 -0.6902  0.5492
 9077SOL     OW38689   3.995   2.104   7.184  0.2642 -0.2125  0.5062
 9077SOL    HW138690   3.949   2.179   7.220  0.2293  0.4989 -1.0145
 9077SOL    HW238691   3.969   2.122   7.094 -0.1367 -2.2649  0.2119
 9078SOL     OW38692   1.459   1.644  14.174 -0.9498  0.2373 -0.0902
 9078SOL    HW138693   1.473   1.551  14.159 -0.5724  0.4887 -1.3854
 9078SOL    HW238694   1.545   1.671  14.207 -1.5555  0.8650  0.9622
 9079SOL     OW38695   1.486   3.463   6.635  0.5865 -0.0899 -0.1468
 9079SOL    HW138696   1.521   3.395   6.694  2.0361  0.5503 -0.2674
 9079SOL    HW238697   1.566   3.505   6.603  0.4776  0.9861  0.9878
 9080SOL     OW38698   1.551   1.887  13.648 -0.0844  0.1604  0.2164
 9080SOL    HW138699   1.524   1.909  13.559  0.9893 -3.4185 -1.0137
 9080SOL    HW238700   1.597   1.805  13.629  0.9038 -0.0119  3.3042
 9081SOL     OW38701   2.038   2.968   4.966 -0.2523  0.0773 -0.3299
 9081SOL    HW138702   2.114   2.913   4.986 -1.3076 -1.0871  0.4864
 9081SOL    HW238703   2.084   3.039   4.922 -1.9215  1.6550  0.4591
 9082SOL     OW38704   1.076   3.496  10.823  0.1650  0.4120 -0.1245
 9082SOL    HW138705   1.101   3.494  10.916  3.0064 -1.9546 -0.9137
 9082SOL    HW238706   1.156   3.478  10.774  0.4205  2.1283 -0.3250
 9083SOL     OW38707   1.789   4.605  11.695  0.1510  0.1204  0.1625
 9083SOL    HW138708   1.882   4.620  11.711  1.0693 -2.4533 -2.7755
 9083SOL    HW238709   1.766   4.573  11.782 -1.5388 -0.3241 -0.4411
 9084SOL     OW38710   4.314   4.180   4.067 -0.4091  0.4312  0.2606
 9084SOL    HW138711   4.251   4.235   4.020 -0.5504  1.4024  1.5527
 9084SOL    HW238712   4.281   4.090   4.065 -2.1317  1.0258  1.5523
 9085SOL     OW38713   3.151   1.411  13.279 -0.1087  0.3817 -0.5618
 9085SOL    HW138714   3.066   1.396  13.320  0.2649  0.8510  0.3848
 9085SOL    HW238715   3.180   1.326  13.311 -0.5484  0.6425  0.5451
 9086SOL     OW38716   1.253   1.391  10.713 -0.5189  0.1220  0.1620
 9086SOL    HW138717   1.226   1.482  10.722  1.3978  0.6892  0.1956
 9086SOL    HW238718   1.169   1.354  10.740  0.1839 -0.6087  1.3311
 9087SOL     OW38719   3.067   4.549   7.982  0.5001 -0.1916 -0.1099
 9087SOL    HW138720   3.076   4.505   8.067  1.8226  0.2308 -0.0321
 9087SOL    HW238721   2.974   4.572   7.982  1.0889  2.2035  0.5120
 9088SOL     OW38722   2.788   3.871   4.143 -0.7911  0.1636  0.0849
 9088SOL    HW138723   2.854   3.901   4.205  1.6019  0.2323 -2.5186
 9088SOL    HW238724   2.826   3.887   4.057 -1.0099 -1.3981 -0.2945
 9089SOL     OW38725   0.719   4.077   6.833 -0.4646  0.5626  0.1367
 9089SOL    HW138726   0.652   4.011   6.817  0.8960 -0.4346 -1.4141
 9089SOL    HW238727   0.689   4.137   6.765 -3.6181  0.0330  1.0560
 9090SOL     OW38728   2.467   1.018   2.859  0.2730  0.0716  0.1228
 9090SOL    HW138729   2.493   1.108   2.842  0.1582  0.3634  1.5141
 9090SOL    HW238730   2.550   0.992   2.898  0.6872  1.4020  0.0968
 9091SOL     OW38731   3.692   2.051   9.481 -0.0338  0.1653  0.4386
 9091SOL    HW138732   3.747   2.000   9.540 -0.1395  0.1129  0.4917
 9091SOL    HW238733   3.720   2.142   9.491 -1.6595  0.3310  3.3775
 9092SOL     OW38734   1.148   4.064   8.202  0.4112  0.2621 -0.0612
 9092SOL    HW138735   1.204   3.986   8.197  2.2222  1.6606 -1.4675
 9092SOL    HW238736   1.111   4.047   8.289 -0.4100 -0.5324 -0.5647
 9093SOL     OW38737   0.043   0.480   6.057 -0.4206 -0.1173 -0.0562
 9093SOL    HW138738   0.063   0.442   6.142 -0.6839  1.2253  0.6066
 9093SOL    HW238739   0.124   0.528   6.038  0.0408 -0.6971  0.4384
 9094SOL     OW38740   0.935   3.755  17.049 -0.5654 -0.5506 -0.1535
 9094SOL    HW138741   0.925   3.713  16.963  0.9360  2.0429 -1.5883
 9094SOL    HW238742   0.876   3.692  17.091  0.2857  0.1111  1.9820
 9095SOL     OW38743   2.805   4.533   8.064 -0.4570  0.3816  0.0854
 9095SOL    HW138744   2.860   4.482   8.123 -0.8974  1.0753  1.0964
 9095SOL    HW238745   2.724   4.509   8.110  0.4290  0.0322  1.4702
 9096SOL     OW38746   0.881   4.455   1.626 -0.1670 -0.1063 -0.2003
 9096SOL    HW138747   0.800   4.469   1.675 -0.6311  2.4592 -1.6850
 9096SOL    HW238748   0.930   4.535   1.643 -0.8208  0.4821 -1.0897
 9097SOL     OW38749   2.820   3.827   2.210  0.5535 -0.2718 -0.1673
 9097SOL    HW138750   2.735   3.866   2.192  1.2945  0.8707 -1.1921
 9097SOL    HW238751   2.809   3.740   2.172  0.3837 -0.5202  0.4512
 9098SOL     OW38752   2.106   4.015   4.459 -0.7927  0.1664  0.6060
 9098SOL    HW138753   2.166   4.082   4.491  0.0637  0.4434 -1.6048
 9098SOL    HW238754   2.129   3.934   4.505  1.2125  1.3329  1.6563
 9099SOL     OW38755   1.007   1.252   9.019  0.1830 -0.3991 -0.3038
 9099SOL    HW138756   0.945   1.230   8.949 -0.5288 -2.1625  0.9007
 9099SOL    HW238757   1.090   1.250   8.969 -0.7371 -1.0900 -1.8164
 9100SOL     OW38758   2.167   1.010   6.127  0.0959  0.1580  0.1176
 9100SOL    HW138759   2.071   1.007   6.134  0.1729  1.0287  1.5598
 9100SOL    HW238760   2.184   0.919   6.104  1.9726  0.4828  0.2568
 9101SOL     OW38761   1.140   3.289   2.721 -0.4081  0.4353 -0.3173
 9101SOL    HW138762   1.062   3.266   2.671 -0.1977 -1.3210  0.1722
 9101SOL    HW238763   1.087   3.321   2.794  2.3924  3.6235  0.3577
 9102SOL     OW38764   4.640   2.312  11.314  0.6166 -0.3161  0.3535
 9102SOL    HW138765   4.672   2.375  11.249 -1.1225 -0.5478 -0.6993
 9102SOL    HW238766   4.706   2.243  11.306  1.4717  0.7122 -1.3018
 9103SOL     OW38767   2.838   3.846   7.322  0.6107 -0.5072 -0.6372
 9103SOL    HW138768   2.767   3.862   7.384  2.2815  0.9177  0.9263
 9103SOL    HW238769   2.793   3.860   7.239 -0.7745  0.1224  0.2194
 9104SOL     OW38770   4.419   3.890   9.677  0.1688 -0.5803 -0.2220
 9104SOL    HW138771   4.431   3.974   9.633  2.3288 -0.8189 -0.0961
 9104SOL    HW238772   4.325   3.886   9.658  0.0983 -1.1193  0.2370
 9105SOL     OW38773   1.808   1.906   3.080 -0.5519  0.6415 -0.4462
 9105SOL    HW138774   1.713   1.894   3.087 -0.3438 -0.1512  1.0658
 9105SOL    HW238775   1.832   1.841   3.014  3.3135  1.3385  0.3157
 9106SOL     OW38776   3.334   0.426  15.938  0.0893  0.3872 -0.5140
 9106SOL    HW138777   3.295   0.508  15.909 -0.7399  0.3735  0.5655
 9106SOL    HW238778   3.251   0.384  15.960  0.0025  1.8941  2.0826
 9107SOL     OW38779   2.619   3.574   9.284 -0.1776 -0.1000  0.3058
 9107SOL    HW138780   2.615   3.670   9.286 -1.2741 -0.1607  1.6146
 9107SOL    HW238781   2.524   3.568   9.272 -0.2695  0.3402  0.8001
 9108SOL     OW38782   4.149   0.639   2.084 -0.0279  0.2305 -0.0920
 9108SOL    HW138783   4.168   0.553   2.121  0.8684  0.3131 -0.3732
 9108SOL    HW238784   4.159   0.618   1.991 -1.0059  2.0175 -0.5996
 9109SOL     OW38785   2.865   1.263   3.389 -0.2740  0.0295 -0.5551
 9109SOL    HW138786   2.807   1.204   3.438 -2.2133  0.6088 -2.1619
 9109SOL    HW238787   2.896   1.321   3.459  1.7007  1.4454 -2.6267
 9110SOL     OW38788   4.540   3.434   8.828  0.0201 -0.0244 -0.5022
 9110SOL    HW138789   4.606   3.414   8.894  0.3737  1.8514 -0.2899
 9110SOL    HW238790   4.485   3.498   8.875  2.1998 -1.4711  3.9933
 9111SOL     OW38791   0.094   1.750   5.055 -0.6563  0.0717  0.6490
 9111SOL    HW138792   0.049   1.766   5.138 -1.0331  0.0548  0.4452
 9111SOL    HW238793   0.100   1.654   5.051 -2.7545  0.0754 -2.4658
 9112SOL     OW38794   0.624   3.535   8.239  0.4228 -0.1176 -0.5530
 9112SOL    HW138795   0.668   3.457   8.205 -0.9040 -1.4493  0.7958
 9112SOL    HW238796   0.702   3.577   8.276 -0.1742 -0.9902  1.7287
 9113SOL     OW38797   2.961   1.465  11.589 -0.3186 -0.3476 -0.0029
 9113SOL    HW138798   2.870   1.495  11.589  0.3167  1.6260  4.6035
 9113SOL    HW238799   2.957   1.371  11.575  1.2866 -0.2472 -1.0945
 9114SOL     OW38800   0.497   1.530  16.595  0.4655 -0.1597  0.5958
 9114SOL    HW138801   0.444   1.609  16.597 -0.3567 -0.6975  0.1844
 9114SOL    HW238802   0.537   1.554  16.512 -0.1071 -0.2955  0.2788
 9115SOL     OW38803   0.634   3.197  13.147 -0.3882  0.2498 -0.4268
 9115SOL    HW138804   0.721   3.170  13.116 -1.6236 -2.4031 -1.6434
 9115SOL    HW238805   0.628   3.182  13.241 -0.7699 -0.1420 -0.5138
 9116SOL     OW38806   1.147   3.548   1.686  0.0375  0.1327  0.1793
 9116SOL    HW138807   1.158   3.620   1.748  0.1029  0.9034 -0.7254
 9116SOL    HW238808   1.200   3.580   1.614  0.5886  2.4651  1.6375
 9117SOL     OW38809   4.260   3.968  17.121  0.1388  0.3055  0.0789
 9117SOL    HW138810   4.265   3.908  17.047 -2.2301  0.8760 -0.5512
 9117SOL    HW238811   4.164   3.967  17.125  0.1767 -3.2980 -0.1433
 9118SOL     OW38812   2.246   0.946   7.631 -0.4151 -0.4966 -0.4768
 9118SOL    HW138813   2.232   0.853   7.648  0.2010 -0.1858  1.8006
 9118SOL    HW238814   2.158   0.980   7.616  0.1760  0.1500 -2.4152
 9119SOL     OW38815   0.609   1.418   6.142  0.2339  0.3994 -0.3818
 9119SOL    HW138816   0.611   1.479   6.216 -4.2844 -0.6115  0.6286
 9119SOL    HW238817   0.533   1.364   6.165 -0.5733  1.7610  0.1452
 9120SOL     OW38818   0.913   0.354   9.176  0.4037 -0.1178 -0.8170
 9120SOL    HW138819   0.977   0.420   9.149 -0.2098  1.3020  1.1875
 9120SOL    HW238820   0.954   0.290   9.233  0.7651 -0.7530 -1.8006
 9121SOL     OW38821   2.375   1.597   6.875  0.3733  0.0842  0.2610
 9121SOL    HW138822   2.404   1.528   6.935 -0.6892  0.6667  1.4290
 9121SOL    HW238823   2.389   1.553   6.791 -2.1205 -1.6575  0.7752
 9122SOL     OW38824   1.947   3.806  10.107  0.7806 -0.3044  0.0968
 9122SOL    HW138825   1.924   3.780  10.197 -2.0393 -1.8917 -1.0637
 9122SOL    HW238826   1.999   3.886  10.115 -0.1629  0.4755 -1.6939
 9123SOL     OW38827   4.069   3.245   6.430 -0.0428 -0.2551 -0.3296
 9123SOL    HW138828   4.017   3.257   6.510 -0.6612  1.4776 -0.9754
 9123SOL    HW238829   4.002   3.256   6.362 -1.7495 -2.8188  0.9292
 9124SOL     OW38830   0.144   1.831   1.706 -0.3989  0.8473 -1.1218
 9124SOL    HW138831   0.212   1.876   1.755 -0.3568 -0.6813  0.2043
 9124SOL    HW238832   0.171   1.837   1.614 -0.7783 -2.8657 -1.4755
 9125SOL     OW38833   0.202   0.320  10.542 -0.0580 -0.6418 -0.1982
 9125SOL    HW138834   0.123   0.284  10.584 -1.4271  0.6391 -1.6743
 9125SOL    HW238835   0.263   0.308  10.615 -0.9162 -0.1637  0.6088
 9126SOL     OW38836   3.944   1.929   4.665 -0.0146  0.0299  0.4233
 9126SOL    HW138837   3.896   1.942   4.746 -2.1316 -0.2385 -0.7738
 9126SOL    HW238838   3.935   1.836   4.643 -0.0099  0.3016 -0.7552
 9127SOL     OW38839   2.094   2.314  13.702 -0.3658  0.7334 -0.2707
 9127SOL    HW138840   2.135   2.257  13.767  0.7152  0.3710 -1.2642
 9127SOL    HW238841   2.014   2.264  13.684  0.1426 -0.2208  0.1274
 9128SOL     OW38842   4.100   0.968   8.193  0.2775 -0.4796  0.0141
 9128SOL    HW138843   4.056   0.957   8.278  2.8599 -1.5209  1.2407
 9128SOL    HW238844   4.112   1.062   8.183 -0.8075 -0.4759 -1.1628
 9129SOL     OW38845   1.318   2.992   7.238  0.3375 -0.2889  0.4171
 9129SOL    HW138846   1.362   2.986   7.322  0.9882  1.1251  0.1669
 9129SOL    HW238847   1.266   2.912   7.246 -1.8479  1.0992 -0.0006
 9130SOL     OW38848   2.715   3.877   3.694  0.1696 -0.9395 -0.2440
 9130SOL    HW138849   2.671   3.793   3.707  0.9525 -1.6729 -2.3419
 9130SOL    HW238850   2.723   3.889   3.789  0.2481  1.5473 -0.5739
 9131SOL     OW38851   1.975   0.292   1.071  0.3664  0.3187  0.0164
 9131SOL    HW138852   1.980   0.245   0.987 -0.1968  2.1941 -1.0570
 9131SOL    HW238853   2.007   0.225   1.131  1.1769 -0.3696 -1.1915
 9132SOL     OW38854   2.641   0.805   1.401 -0.0656  0.2074  0.5709
 9132SOL    HW138855   2.641   0.711   1.421  1.5430  0.1863  0.4886
 9132SOL    HW238856   2.615   0.806   1.308  0.7070 -0.4058  0.3476
 9133SOL     OW38857   1.574   4.498   9.465  0.1423 -0.3286  0.2772
 9133SOL    HW138858   1.540   4.532   9.382  0.4750  0.2838  0.3956
 9133SOL    HW238859   1.505   4.532   9.522 -0.6987 -0.1522 -0.8374
 9134SOL     OW38860   0.349   4.706   3.884 -0.6838  0.4766 -0.0706
 9134SOL    HW138861   0.318   4.626   3.927  1.6771  0.1622  1.0821
 9134SOL    HW238862   0.305   0.060   3.926  2.1830  2.0763  0.1753
 9135SOL     OW38863   2.643   2.397   4.303 -0.3977  0.3889  0.9044
 9135SOL    HW138864   2.599   2.312   4.298  1.9441 -0.6766 -1.8006
 9135SOL    HW238865   2.671   2.402   4.212  1.0002  2.5752  1.4399
 9136SOL     OW38866   1.731   4.011  17.045  0.4162 -0.4140 -0.4082
 9136SOL    HW138867   1.660   3.972  16.994  0.5118 -1.0958 -0.0243
 9136SOL    HW238868   1.675   4.081  17.076 -0.8508 -0.4381 -2.6313
 9137SOL     OW38869   4.307   3.357   3.894  0.4692 -0.4028 -0.3481
 9137SOL    HW138870   4.311   3.279   3.951  3.0269  1.1474  1.5873
 9137SOL    HW238871   4.392   3.373   3.853  1.1601 -2.3376  0.3105
 9138SOL     OW38872   2.296   1.654  16.067  0.5073  0.2347  0.4983
 9138SOL    HW138873   2.248   1.737  16.070  1.3532  0.7222  0.5502
 9138SOL    HW238874   2.223   1.594  16.084  0.9726 -0.7559 -1.0699
 9139SOL     OW38875   4.205   2.876   4.188  0.4941  0.1475 -0.7725
 9139SOL    HW138876   4.133   2.826   4.150  0.8534 -2.0960  1.5472
 9139SOL    HW238877   4.248   2.809   4.241  1.5376  0.0489 -1.7329
 9140SOL     OW38878   0.680   0.559  12.888 -0.1903  0.3133 -0.1634
 9140SOL    HW138879   0.758   0.543  12.941  1.0456 -0.3979 -2.1942
 9140SOL    HW238880   0.624   0.594  12.957  3.1694  2.5083  1.3951
 9141SOL     OW38881   0.211   4.608   7.322  0.8613  0.5948  0.1633
 9141SOL    HW138882   0.298   4.581   7.292  0.8369 -0.0035  0.6252
 9141SOL    HW238883   0.161   4.531   7.297  0.4812  0.4478  1.3439
 9142SOL     OW38884   1.982   1.501   3.249 -0.6325 -0.0965  0.5092
 9142SOL    HW138885   1.905   1.557   3.251 -0.0369  0.7980 -1.2037
 9142SOL    HW238886   1.986   1.474   3.157  1.6624  0.6156  0.3988
 9143SOL     OW38887   4.033   0.125   4.425  0.4724 -0.2514  0.6258
 9143SOL    HW138888   4.089   0.097   4.498  1.5563  0.7226  0.1744
 9143SOL    HW238889   4.062   0.216   4.435 -1.1065  0.3957 -0.6752
 9144SOL     OW38890   3.614   0.748   3.788 -0.0225  0.5001  0.1878
 9144SOL    HW138891   3.694   0.696   3.800  0.0318  0.4098 -0.5463
 9144SOL    HW238892   3.595   0.753   3.694  1.0581 -0.4368 -0.0768
 9145SOL     OW38893   0.806   1.231   8.280 -0.0246 -0.0997 -0.2934
 9145SOL    HW138894   0.754   1.255   8.357 -0.5453  0.5217 -0.8390
 9145SOL    HW238895   0.776   1.141   8.266 -0.8376  0.0651  0.3931
 9146SOL     OW38896   0.666   0.508   6.993  0.2373  0.2283  0.1734
 9146SOL    HW138897   0.728   0.522   7.065  0.4695  1.5443 -0.2730
 9146SOL    HW238898   0.723   0.471   6.924 -0.7235 -0.9199 -0.0017
 9147SOL     OW38899   0.092   1.409   8.911  0.3095  0.2710 -0.1101
 9147SOL    HW138900   0.037   1.469   8.861 -2.4966 -0.2807  2.2935
 9147SOL    HW238901   0.114   1.478   8.974 -0.7297 -0.9834  1.6066
 9148SOL     OW38902   1.628   4.015   3.913 -0.1056  0.5660 -0.2841
 9148SOL    HW138903   1.668   4.045   3.994 -1.0262 -0.5426  0.5727
 9148SOL    HW238904   1.536   4.038   3.927 -0.1505 -0.9027  1.8114
 9149SOL     OW38905   3.010   2.995   3.849  0.7192 -0.1439  0.3677
 9149SOL    HW138906   3.014   3.081   3.891  0.6100  0.2371 -0.4002
 9149SOL    HW238907   3.076   2.951   3.902 -1.1533 -0.8706  2.0991
 9150SOL     OW38908   0.376   4.049   5.881 -0.7078  0.1255 -0.0750
 9150SOL    HW138909   0.290   4.034   5.844 -0.0087  2.6139 -2.6848
 9150SOL    HW238910   0.423   3.967   5.862  1.0810  0.3661  3.1682
 9151SOL     OW38911   0.279   0.140  15.548 -0.5053 -0.1762 -0.5435
 9151SOL    HW138912   0.320   0.182  15.623  0.0402  1.3032 -1.6590
 9151SOL    HW238913   0.211   0.087  15.589  0.3131  0.1314  1.2017
 9152SOL     OW38914   3.609   4.083  10.604  0.4770 -0.6286  0.0437
 9152SOL    HW138915   3.562   4.159  10.635 -0.3150 -0.5796 -1.3077
 9152SOL    HW238916   3.604   4.042  10.691  0.2553  0.9493  0.7742
 9153SOL     OW38917   0.575   3.624  14.097 -0.2293 -0.1073 -0.1167
 9153SOL    HW138918   0.567   3.678  14.175  0.0668 -3.5019  2.2546
 9153SOL    HW238919   0.666   3.647  14.079 -0.5822  0.8813 -0.6113
 9154SOL     OW38920   2.346   4.481   7.028  0.1145  0.3571 -0.3846
 9154SOL    HW138921   2.253   4.462   7.046  0.4362  0.5438  1.5238
 9154SOL    HW238922   2.356   4.482   6.933  2.1109  0.3976 -0.1707
 9155SOL     OW38923   0.463   0.705  14.301 -0.3133  0.1064  0.0374
 9155SOL    HW138924   0.467   0.677  14.393 -2.6508  1.6386  0.6053
 9155SOL    HW238925   0.447   0.622  14.257 -0.7030  0.7341 -0.9921
 9156SOL     OW38926   4.562   3.488  16.311 -0.0886  0.3418 -0.0046
 9156SOL    HW138927   4.493   3.550  16.286 -1.5476 -0.8312  1.1096
 9156SOL    HW238928   4.588   3.501  16.402 -1.8778  1.1593  0.3842
 9157SOL     OW38929   1.824   3.234  16.516 -0.4105 -0.0021  0.2015
 9157SOL    HW138930   1.786   3.170  16.456 -3.1597  1.7174  0.0695
 9157SOL    HW238931   1.914   3.203  16.527 -0.7776 -0.4449  1.9808
 9158SOL     OW38932   4.715   4.334  11.273  0.5118 -0.3605  0.0149
 9158SOL    HW138933   4.644   4.301  11.218  0.4984 -0.3967  0.0535
 9158SOL    HW238934   0.027   4.258  11.322 -0.7283 -0.9744 -0.1284
 9159SOL     OW38935   0.493   1.362  13.215  0.4237  0.0199  0.8060
 9159SOL    HW138936   0.426   1.380  13.149 -1.8265 -2.6580  2.3572
 9159SOL    HW238937   0.446   1.386  13.294  2.6034  1.1862  1.7273
 9160SOL     OW38938   3.753   0.345   6.528 -0.3327 -0.8585 -0.1628
 9160SOL    HW138939   3.693   0.353   6.602  0.6493  0.0092  0.5385
 9160SOL    HW238940   3.771   0.438   6.514  0.7248 -1.0741 -0.2545
 9161SOL     OW38941   0.217   1.350   3.562  0.2566  0.3900  0.0251
 9161SOL    HW138942   0.204   1.293   3.487  2.6871  1.4815 -1.2230
 9161SOL    HW238943   0.174   1.432   3.539 -0.9732 -0.0491  0.7358
 9162SOL     OW38944   2.490   2.224   6.694 -0.2767  0.0094  0.2340
 9162SOL    HW138945   2.506   2.314   6.667  0.4537  0.4288  2.0613
 9162SOL    HW238946   2.580   2.191   6.695  0.2982  1.5236 -1.5990
 9163SOL     OW38947   3.230   3.513  16.473 -0.5605  0.3928 -0.5426
 9163SOL    HW138948   3.169   3.585  16.492 -1.5548 -0.2030 -1.5204
 9163SOL    HW238949   3.314   3.557  16.486 -0.9867  0.4621  2.0931
 9164SOL     OW38950   2.776   0.521   1.481 -0.2822 -0.4670  0.5469
 9164SOL    HW138951   2.784   0.521   1.577  0.4361  1.6227  0.4743
 9164SOL    HW238952   2.834   0.594   1.461 -1.0118  0.6830  2.6172
 9165SOL     OW38953   2.403   2.264  15.610 -0.3535 -0.1720 -0.1993
 9165SOL    HW138954   2.344   2.339  15.603 -1.3046 -1.0360 -1.5731
 9165SOL    HW238955   2.394   2.250  15.704  2.3079 -0.0388  0.0490
 9166SOL     OW38956   3.613   2.269   3.038 -0.1002 -0.0765 -0.4469
 9166SOL    HW138957   3.676   2.198   3.037 -0.7216 -0.6489  1.9075
 9166SOL    HW238958   3.663   2.332   2.986  0.6234  0.3684  0.7959
 9167SOL     OW38959   2.640   2.036   1.037  0.0968  0.3265  0.5016
 9167SOL    HW138960   2.664   1.956   0.990 -2.2322 -0.3389  0.4707
 9167SOL    HW238961   2.565   2.060   0.983 -0.7887 -1.9458  0.6995
 9168SOL     OW38962   1.670   2.060   6.747  0.7724  0.4182  0.0619
 9168SOL    HW138963   1.764   2.041   6.740  0.9160  1.1879 -0.1621
 9168SOL    HW238964   1.673   2.149   6.713  0.7845  0.2388 -0.4038
 9169SOL     OW38965   2.149   3.812   2.966  0.0026 -0.1919  0.0321
 9169SOL    HW138966   2.067   3.782   3.005  0.0927 -1.3696 -0.6849
 9169SOL    HW238967   2.204   3.780   3.038  1.2299 -2.3399 -1.8372
 9170SOL     OW38968   2.905   4.579   6.021  0.2036 -0.4066  0.5176
 9170SOL    HW138969   2.987   4.579   5.972  0.3051 -1.5754  0.6758
 9170SOL    HW238970   2.932   4.628   6.099 -0.0620 -0.5496  0.6986
 9171SOL     OW38971   1.647   0.039  17.204  0.2266 -0.4926  0.5777
 9171SOL    HW138972   1.626   0.052  17.112  1.0303 -1.9043  0.1923
 9171SOL    HW238973   1.620   0.124  17.240  0.6931 -1.4149  3.1284
 9172SOL     OW38974   1.220   4.246   5.584  0.5270  0.6142 -0.3386
 9172SOL    HW138975   1.213   4.184   5.656  0.5432  0.7354 -0.2335
 9172SOL    HW238976   1.156   4.213   5.521 -0.2816 -2.8023  2.2574
 9173SOL     OW38977   0.987   2.682   1.068  0.3448 -0.0773  0.3279
 9173SOL    HW138978   0.904   2.699   1.112 -0.4584 -0.5475 -0.9897
 9173SOL    HW238979   1.014   2.773   1.057 -0.5141  0.2051  0.5333
 9174SOL     OW38980   0.739   1.695  16.112 -0.0379  0.1246 -0.3024
 9174SOL    HW138981   0.798   1.744  16.055  1.8458 -0.4027  1.1997
 9174SOL    HW238982   0.761   1.609  16.075 -0.7059  0.1365 -0.7164
 9175SOL     OW38983   4.159   2.178   6.930 -0.5810 -1.1860  0.0899
 9175SOL    HW138984   4.229   2.229   6.970 -0.8070 -0.8801  0.0977
 9175SOL    HW238985   4.194   2.090   6.936 -0.5805 -1.0962  1.3124
 9176SOL     OW38986   4.214   4.308   5.522  0.2614 -0.1656  0.6058
 9176SOL    HW138987   4.291   4.318   5.466  1.0709 -3.4880  1.1644
 9176SOL    HW238988   4.246   4.347   5.603  2.7487 -1.5004  0.2595
 9177SOL     OW38989   0.703   0.984   9.689  0.2564 -0.4144 -0.5922
 9177SOL    HW138990   0.724   0.995   9.596  1.0439 -0.2474 -0.3963
 9177SOL    HW238991   0.608   0.974   9.688 -0.0506  2.4754  0.1111
 9178SOL     OW38992   4.190   0.147   0.627 -0.0746 -1.1885  0.4384
 9178SOL    HW138993   4.125   0.197   0.676 -0.7398  0.9868 -2.6784
 9178SOL    HW238994   4.189   0.198   0.546  0.0199 -0.6830  0.7527
 9179SOL     OW38995   3.738   1.624   5.818  0.6565 -0.1772  0.2601
 9179SOL    HW138996   3.735   1.551   5.880 -1.7694 -1.9756 -1.9724
 9179SOL    HW238997   3.778   1.689   5.875 -0.8071  2.3109 -1.5109
 9180SOL     OW38998   0.429   4.297   5.784  0.0321  0.2162 -0.1722
 9180SOL    HW138999   0.440   4.222   5.843 -2.5903 -0.6173 -0.7600
 9180SOL    HW239000   0.339   4.321   5.804  0.8232  2.4807  0.8005
 9181SOL     OW39001   0.392   2.388   1.856  0.1652  0.0645 -0.1558
 9181SOL    HW139002   0.362   2.376   1.766 -2.9800 -0.4526  0.9695
 9181SOL    HW239003   0.392   2.305   1.904  0.2098 -0.6300 -1.3853
 9182SOL     OW39004   0.549   2.400   3.457 -0.3179 -0.3511  0.0844
 9182SOL    HW139005   0.573   2.476   3.510  0.7277 -0.1649 -0.6584
 9182SOL    HW239006   0.634   2.361   3.435 -0.3775  1.6410 -3.6212
 9183SOL     OW39007   3.914   3.469   2.550 -0.0214 -0.0681  0.3910
 9183SOL    HW139008   3.968   3.548   2.549 -0.6736  0.3756  0.6194
 9183SOL    HW239009   3.867   3.479   2.633  0.0287  1.0106  0.2931
 9184SOL     OW39010   3.095   3.885  11.045  0.6653  0.3618  0.4023
 9184SOL    HW139011   3.060   3.957  10.995  0.6350 -0.5650 -0.9052
 9184SOL    HW239012   3.031   3.814  11.047  2.5069 -1.2662  1.9829
 9185SOL     OW39013   1.393   0.518   7.886 -0.1226  0.2564 -0.6122
 9185SOL    HW139014   1.332   0.452   7.921  0.4981  0.3313  0.6185
 9185SOL    HW239015   1.405   0.571   7.965  1.0525 -0.7910 -0.0815
 9186SOL     OW39016   1.829   2.902   5.653 -0.7640 -0.1279  0.0747
 9186SOL    HW139017   1.829   2.995   5.675 -0.0584  0.3812 -1.9869
 9186SOL    HW239018   1.914   2.874   5.688 -0.1041  1.8411  0.0138
 9187SOL     OW39019   1.475   0.983  10.017 -0.0019  0.4348  0.0211
 9187SOL    HW139020   1.477   0.973   9.921 -1.2554  3.0558 -0.2822
 9187SOL    HW239021   1.387   1.017  10.033 -0.0808  0.0391  0.4224
 9188SOL     OW39022   0.385   0.490  14.140  0.1029 -0.0942  0.4678
 9188SOL    HW139023   0.353   0.533  14.061 -1.9358 -2.3192  0.0875
 9188SOL    HW239024   0.323   0.418  14.153 -1.2853  1.3538  1.9394
 9189SOL     OW39025   2.970   3.002  10.719  0.7104  0.0897  0.4674
 9189SOL    HW139026   3.025   2.969  10.648 -0.5859 -0.0745 -0.4818
 9189SOL    HW239027   2.885   2.974  10.683 -0.8885  0.9461  3.5764
 9190SOL     OW39028   4.332   1.018   2.387 -0.0211 -0.6979  0.0541
 9190SOL    HW139029   4.347   0.925   2.403 -0.3316 -0.3428  2.3554
 9190SOL    HW239030   4.243   1.018   2.422  0.4251 -0.2477  1.1633
 9191SOL     OW39031   3.015   3.944   4.275 -0.1293  0.6932 -0.1095
 9191SOL    HW139032   3.019   3.875   4.342 -2.0614  0.9352  0.2438
 9191SOL    HW239033   3.046   4.018   4.326  0.6639  0.9294 -0.9327
 9192SOL     OW39034   4.334   0.884   6.148 -0.5732  0.4080 -0.9577
 9192SOL    HW139035   4.311   0.859   6.059 -3.0676  0.9684 -0.4839
 9192SOL    HW239036   4.312   0.976   6.131  1.5806  1.1614  0.3356
 9193SOL     OW39037   1.497   2.775   9.927 -0.2469  0.4785  0.4229
 9193SOL    HW139038   1.536   2.726   9.854 -2.8759  0.8237 -1.2077
 9193SOL    HW239039   1.515   2.863   9.895 -2.7821  0.5656 -0.7464
 9194SOL     OW39040   4.414   2.638   5.861 -0.1635  0.1039 -0.0996
 9194SOL    HW139041   4.333   2.685   5.883 -1.1321 -0.7011 -1.9285
 9194SOL    HW239042   4.400   2.632   5.766 -2.8293 -0.6783  0.3368
 9195SOL     OW39043   3.077   1.232   2.075  0.8731  0.0973  0.6388
 9195SOL    HW139044   3.108   1.298   2.013  0.7530  0.0208  0.4986
 9195SOL    HW239045   2.991   1.206   2.042  1.2758 -1.5201  0.8373
 9196SOL     OW39046   2.322   1.756  14.769 -0.5928  0.0764  0.0327
 9196SOL    HW139047   2.322   1.755  14.865 -2.3843 -0.7199  0.0294
 9196SOL    HW239048   2.267   1.833  14.763 -2.2453 -1.1768 -0.7391
 9197SOL     OW39049   3.548   0.208  16.933  0.0208 -0.0755 -0.0727
 9197SOL    HW139050   3.534   0.200  17.028  0.5716 -0.7496 -0.0458
 9197SOL    HW239051   3.501   0.288  16.908  1.0857  0.3732 -0.6316
 9198SOL     OW39052   2.467   2.882   3.806  0.3441  0.3087  0.0363
 9198SOL    HW139053   2.556   2.901   3.834 -0.0237 -0.5801  1.8152
 9198SOL    HW239054   2.469   2.788   3.793 -1.4418  0.0173  1.6986
 9199SOL     OW39055   1.080   3.974   6.681  0.2942 -0.1909 -0.7327
 9199SOL    HW139056   1.046   3.953   6.768 -2.4485  0.2256 -1.7078
 9199SOL    HW239057   1.174   3.970   6.697  0.5288  1.8811 -1.5462
 9200SOL     OW39058   2.671   3.860   5.057 -1.0192  0.3647  0.5594
 9200SOL    HW139059   2.642   3.908   4.980 -1.1250 -2.4123 -1.1319
 9200SOL    HW239060   2.704   3.780   5.016  1.4052  1.9789 -0.6663
 9201SOL     OW39061   3.597   4.509  12.253  0.3563 -0.0863  0.0851
 9201SOL    HW139062   3.573   4.422  12.286  2.2083 -0.6903 -0.1763
 9201SOL    HW239063   3.665   4.532  12.316 -0.8551  1.2140  0.9170
 9202SOL     OW39064   4.548   1.708   2.479  0.1058 -0.4880 -0.4363
 9202SOL    HW139065   4.459   1.686   2.506  0.0695  0.3861  0.1709
 9202SOL    HW239066   4.595   1.700   2.562 -0.7413 -2.4257 -0.1584
 9203SOL     OW39067   3.093   2.886   6.365 -0.2170  0.0260  0.5240
 9203SOL    HW139068   3.023   2.939   6.403 -2.4552 -3.3174  1.1385
 9203SOL    HW239069   3.042   2.836   6.301  1.3172 -0.0487 -0.6397
 9204SOL     OW39070   2.036   0.402  12.904 -0.5023 -0.5045 -0.1359
 9204SOL    HW139071   2.044   0.418  12.998  1.7921 -0.4717 -0.3383
 9204SOL    HW239072   2.125   0.376  12.882 -1.4027 -2.2567 -1.7881
 9205SOL     OW39073   1.126   3.289   8.914  0.5210  0.3649  0.0090
 9205SOL    HW139074   1.043   3.311   8.957  0.5187  0.2858  0.0459
 9205SOL    HW239075   1.187   3.278   8.987 -0.7186  0.4056  1.0690
 9206SOL     OW39076   4.429   1.076   4.697  0.1994 -0.5371  0.0711
 9206SOL    HW139077   4.372   1.107   4.768 -0.2694  1.8194 -1.3259
 9206SOL    HW239078   4.418   1.148   4.635  0.2064 -0.5695  0.0317
 9207SOL     OW39079   3.432   3.867  11.635  0.0983  0.2769 -0.0070
 9207SOL    HW139080   3.392   3.838  11.717  0.3329 -1.4868 -0.5357
 9207SOL    HW239081   3.520   3.890  11.666 -0.6386  0.8155  1.7377
 9208SOL     OW39082   3.701   0.579  15.236  0.5597  0.4244 -1.4467
 9208SOL    HW139083   3.756   0.538  15.303  1.0668  0.7584 -1.6572
 9208SOL    HW239084   3.632   0.625  15.284 -0.7806 -1.4361 -1.5658
 9209SOL     OW39085   1.937   3.683   8.564  0.1689 -0.0605 -0.3664
 9209SOL    HW139086   1.889   3.705   8.485  0.2964 -0.0916 -0.4526
 9209SOL    HW239087   2.015   3.739   8.568 -0.4680  0.6901  1.7694
 9210SOL     OW39088   2.513   0.831   4.428  0.2099 -0.1879  1.0768
 9210SOL    HW139089   2.563   0.876   4.359 -2.2057 -0.4176 -0.8366
 9210SOL    HW239090   2.448   0.898   4.451 -1.1855 -0.9749 -0.6043
 9211SOL     OW39091   4.008   1.824   7.235  0.4395 -0.2460 -0.1896
 9211SOL    HW139092   3.932   1.784   7.192 -0.4088  2.3240 -1.0467
 9211SOL    HW239093   4.008   1.915   7.207  0.7663 -0.5830 -1.2803
 9212SOL     OW39094   1.767   1.799   9.339 -0.0402 -0.1884  0.5933
 9212SOL    HW139095   1.828   1.726   9.339 -0.6728 -0.7204  0.7002
 9212SOL    HW239096   1.693   1.755   9.297 -0.0702  1.0038 -0.6333
 9213SOL     OW39097   3.973   3.282   3.327  0.1926 -0.8354  0.3777
 9213SOL    HW139098   3.973   3.352   3.262 -0.7789 -2.5348 -1.4667
 9213SOL    HW239099   3.885   3.288   3.365 -0.1834  0.2450 -0.6756
 9214SOL     OW39100   0.144   2.542   9.412 -0.1933 -0.0785  0.1231
 9214SOL    HW139101   0.176   2.453   9.429  1.7591  0.6597  0.4007
 9214SOL    HW239102   0.176   2.549   9.322  1.9384  2.2478  1.0262
 9215SOL     OW39103   3.938   2.385  16.739 -0.1197  0.0676 -0.3650
 9215SOL    HW139104   3.873   2.454  16.726 -0.8719 -0.8060 -1.2389
 9215SOL    HW239105   3.919   2.359  16.829 -1.0150 -0.4370 -0.7023
 9216SOL     OW39106   1.737   3.028   3.416  0.2922 -0.0378  0.1845
 9216SOL    HW139107   1.822   3.054   3.451  0.5404 -0.6069 -0.0076
 9216SOL    HW239108   1.674   3.082   3.465 -0.5199 -0.6345 -0.2015
 9217SOL     OW39109   3.861   3.618   3.812 -0.0691  0.3728  0.3806
 9217SOL    HW139110   3.936   3.561   3.795 -1.4328 -1.6044  0.9546
 9217SOL    HW239111   3.875   3.682   3.743 -2.7906  0.8369  0.2375
 9218SOL     OW39112   4.692   3.330  10.113 -0.5108 -0.1362 -0.1211
 9218SOL    HW139113   0.004   3.418  10.133  0.0859 -0.4098  0.1241
 9218SOL    HW239114   4.597   3.335  10.116 -0.4327  1.3152  0.2588
 9219SOL     OW39115   1.264   1.209   4.752 -0.2579  0.0866 -0.1531
 9219SOL    HW139116   1.314   1.202   4.833 -0.9335 -1.4649  0.1307
 9219SOL    HW239117   1.188   1.258   4.783  0.6841  1.8363 -0.6449
 9220SOL     OW39118   2.655   2.398   4.909  0.3397  0.0377  0.0887
 9220SOL    HW139119   2.714   2.324   4.924  2.1348  1.3402 -0.5277
 9220SOL    HW239120   2.596   2.397   4.984  1.6474  1.8588  1.1421
 9221SOL     OW39121   1.692   3.798   9.740 -0.3295  0.0416 -0.2400
 9221SOL    HW139122   1.611   3.844   9.719  0.0896  0.5062 -0.8452
 9221SOL    HW239123   1.691   3.782   9.834 -0.1656  2.6087  0.1887
 9222SOL     OW39124   1.147   0.800  10.640 -0.1580 -0.1358  0.2366
 9222SOL    HW139125   1.207   0.872  10.616 -0.4266 -0.2242 -0.7126
 9222SOL    HW239126   1.070   0.815  10.585 -0.1865  0.3405  0.4108
 9223SOL     OW39127   3.099   2.332  13.697 -0.2914  0.6613  0.7575
 9223SOL    HW139128   3.018   2.284  13.715  0.7357 -1.7743 -1.1794
 9223SOL    HW239129   3.124   2.363  13.784 -1.4262  2.4035  0.4748
 9224SOL     OW39130   3.088   2.716   3.411  0.0835  0.1328  0.2771
 9224SOL    HW139131   3.085   2.783   3.480  0.5282  1.1853 -0.7149
 9224SOL    HW239132   3.158   2.661   3.446 -0.3763  0.7742  2.2269
 9225SOL     OW39133   2.440   1.523  16.553 -0.6189  0.1078  0.0461
 9225SOL    HW139134   2.519   1.522  16.499 -1.7187 -1.2358 -1.5397
 9225SOL    HW239135   2.404   1.437  16.533 -0.0199 -0.1362  0.0345
 9226SOL     OW39136   1.518   0.466   6.865  0.5986 -0.1326 -0.2628
 9226SOL    HW139137   1.570   0.539   6.901 -0.9332  1.0900 -0.5262
 9226SOL    HW239138   1.551   0.484   6.777  2.0699 -1.2823  0.0436
 9227SOL     OW39139   2.905   3.128   5.629 -0.1989 -0.9971  0.3435
 9227SOL    HW139140   2.932   3.196   5.568  2.0471 -3.3413 -1.2710
 9227SOL    HW239141   2.984   3.074   5.622 -0.5954 -1.2637 -2.1524
 9228SOL     OW39142   0.860   1.949   8.443  0.2298  0.2720 -0.9038
 9228SOL    HW139143   0.918   2.017   8.477  0.5272 -0.3492 -0.1827
 9228SOL    HW239144   0.825   1.907   8.522 -1.1329 -0.1403 -1.7169
 9229SOL     OW39145   4.066   3.979   5.883  0.0281 -0.0984  0.2113
 9229SOL    HW139146   4.129   3.925   5.931 -1.4315  0.3768  2.6389
 9229SOL    HW239147   4.023   3.917   5.823 -0.6478 -0.9885  1.6229
 9230SOL     OW39148   1.379   4.681   2.624 -0.2996 -0.4076  0.2723
 9230SOL    HW139149   1.355   4.679   2.532 -0.9248 -0.7003  0.4413
 9230SOL    HW239150   1.452   0.023   2.624  1.0493 -1.9989 -1.2068
 9231SOL     OW39151   4.299   2.172  16.891 -0.3600 -0.1873 -0.2522
 9231SOL    HW139152   4.294   2.199  16.982 -0.3439  1.8114 -0.8565
 9231SOL    HW239153   4.275   2.255  16.850  1.2838  0.1758 -0.4565
 9232SOL     OW39154   3.509   3.824  14.225 -0.5004  0.3252  0.3880
 9232SOL    HW139155   3.541   3.744  14.268 -0.5629 -0.0526 -0.2589
 9232SOL    HW239156   3.417   3.824  14.252 -0.3162  0.6074  0.9986
 9233SOL     OW39157   0.869   4.443  10.285 -0.0601 -0.0028 -0.4741
 9233SOL    HW139158   0.939   4.381  10.263  1.6955  1.9476 -0.3678
 9233SOL    HW239159   0.901   4.500  10.354  0.8472 -0.5174 -0.4682
 9234SOL     OW39160   4.133   2.574   0.718  0.5608  0.5898  0.3893
 9234SOL    HW139161   4.044   2.546   0.698  0.3077  0.1608  2.1144
 9234SOL    HW239162   4.147   2.516   0.792  3.6318 -0.1070 -0.7125
 9235SOL     OW39163   4.085   4.461  16.065 -0.1289 -0.5289  0.4411
 9235SOL    HW139164   4.072   4.544  16.109 -0.1693 -1.1375  1.5745
 9235SOL    HW239165   4.070   4.483  15.973 -2.7643 -1.7506  0.5570
 9236SOL     OW39166   3.526   1.207  10.744  0.0277 -0.0492 -0.4598
 9236SOL    HW139167   3.536   1.215  10.649  1.5887 -1.7914 -0.4212
 9236SOL    HW239168   3.573   1.125  10.754 -1.8281 -1.0202  0.4009
 9237SOL     OW39169   3.767   2.467   2.183  0.4588 -0.6624 -0.1848
 9237SOL    HW139170   3.823   2.394   2.208  1.2119 -0.0393 -0.0601
 9237SOL    HW239171   3.817   2.545   2.205  1.5644 -2.3902  3.3589
 9238SOL     OW39172   0.701   2.331   6.560  0.0461  0.7730  0.0456
 9238SOL    HW139173   0.693   2.425   6.570 -0.0239  0.4773  2.8803
 9238SOL    HW239174   0.780   2.326   6.507  1.3632  0.2495  2.0295
 9239SOL     OW39175   4.251   1.163   6.110 -0.2069 -0.0186  0.0691
 9239SOL    HW139176   4.296   1.247   6.115  0.5298 -0.4497  0.6478
 9239SOL    HW239177   4.231   1.167   6.203 -1.0037 -0.2320 -0.0910
 9240SOL     OW39178   0.052   1.260   3.781  0.3644 -0.3121  0.4690
 9240SOL    HW139179   4.719   1.183   3.763  0.3547 -0.2127  0.0721
 9240SOL    HW239180   0.099   1.272   3.698 -0.6105 -2.0252 -0.3141
 9241SOL     OW39181   2.124   2.118   5.544 -0.0768 -0.2668 -0.0607
 9241SOL    HW139182   2.032   2.123   5.517  0.0314 -2.5209 -0.9054
 9241SOL    HW239183   2.119   2.169   5.624  1.4657 -0.2914  0.0529
 9242SOL     OW39184   0.152   1.294   5.920  0.4789 -0.4944 -0.2927
 9242SOL    HW139185   0.066   1.283   5.960  0.1054 -1.0479 -1.2577
 9242SOL    HW239186   0.139   1.384   5.892 -1.1266 -0.4232  0.6770
 9243SOL     OW39187   4.571   2.947   3.234 -0.0952 -0.1857 -0.5545
 9243SOL    HW139188   4.595   3.039   3.243 -3.5213  0.8726 -2.3960
 9243SOL    HW239189   4.650   2.912   3.193  1.0712 -0.4235  1.8687
 9244SOL     OW39190   1.507   4.629  16.962  0.3952 -0.4807  1.2757
 9244SOL    HW139191   1.548   4.551  16.999  0.1587 -0.3727  1.7705
 9244SOL    HW239192   1.492   4.591  16.875  1.6250 -1.0213  1.3110
 9245SOL     OW39193   3.831   2.214  10.387  0.6021 -0.1279  0.5721
 9245SOL    HW139194   3.853   2.133  10.341 -2.6713 -1.7877  1.9073
 9245SOL    HW239195   3.858   2.196  10.477 -0.3122  0.5843  0.9925
 9246SOL     OW39196   4.005   0.311   3.829 -0.9506  0.3697 -0.4142
 9246SOL    HW139197   4.018   0.234   3.885  0.6719  1.4823  0.7346
 9246SOL    HW239198   4.047   0.380   3.881 -0.3422 -0.4186  0.1515
 9247SOL     OW39199   1.711   0.840  10.932 -0.4400 -0.4110  0.1555
 9247SOL    HW139200   1.650   0.766  10.939  1.6590 -2.1984 -0.6612
 9247SOL    HW239201   1.653   0.913  10.953 -0.5499 -0.4594  0.0236
 9248SOL     OW39202   2.387   3.593   4.826  0.6844  0.6135 -0.0459
 9248SOL    HW139203   2.301   3.617   4.860 -0.0742 -1.6507 -0.3500
 9248SOL    HW239204   2.365   3.528   4.760  2.3180 -1.2263  1.2136
 9249SOL     OW39205   4.246   3.681   0.146  0.7056  0.6394 -0.4939
 9249SOL    HW139206   4.264   3.618   0.077 -0.5572 -1.6732  1.2672
 9249SOL    HW239207   4.328   3.665   0.192  0.0002  1.0060  0.9178
 9250SOL     OW39208   4.639   3.459   2.721  0.0129  0.1436  0.0297
 9250SOL    HW139209   4.578   3.398   2.679  1.8765 -1.0639 -0.9502
 9250SOL    HW239210   4.713   3.473   2.661 -1.3752  0.7792 -1.5330
 9251SOL     OW39211   0.391   0.699  17.460  0.5157 -0.2660 -0.2810
 9251SOL    HW139212   0.480   0.735  17.463  0.8071 -1.1176  0.9151
 9251SOL    HW239213   0.375   0.713  17.366 -1.0123 -0.4236 -0.0460
 9252SOL     OW39214   0.671   2.891   3.629 -0.4233  0.3070 -0.7237
 9252SOL    HW139215   0.633   2.926   3.710  3.1648  2.5374  0.0047
 9252SOL    HW239216   0.757   2.926   3.652 -0.4738  0.2546 -0.4475
 9253SOL     OW39217   3.505   1.523  11.869 -0.1344 -0.5761 -0.5086
 9253SOL    HW139218   3.519   1.483  11.783  0.1851 -0.5282 -0.4807
 9253SOL    HW239219   3.420   1.494  11.901 -0.1617  0.3853  0.3051
 9254SOL     OW39220   3.252   1.256   0.094 -0.2224  0.0943  0.1056
 9254SOL    HW139221   3.323   1.259   0.029 -0.1404  0.5454  0.2130
 9254SOL    HW239222   3.186   1.316   0.058  0.7428 -0.6238 -2.9041
 9255SOL     OW39223   1.226   1.231   0.169 -1.0909  0.3306  0.3532
 9255SOL    HW139224   1.293   1.181   0.122 -1.1252  1.1548 -0.5711
 9255SOL    HW239225   1.226   1.176   0.248 -1.5055 -0.0528  0.0895
 9256SOL     OW39226   4.574   1.521   3.612  0.0286  0.4840 -0.0896
 9256SOL    HW139227   4.609   1.581   3.546  1.8065  0.0864  0.4811
 9256SOL    HW239228   4.629   1.445   3.593 -0.3518  0.0884  0.4101
 9257SOL     OW39229   3.225   4.088   9.775 -0.3019 -0.2386 -0.4478
 9257SOL    HW139230   3.194   4.179   9.781 -0.1823 -0.0142 -3.2149
 9257SOL    HW239231   3.166   4.040   9.717  1.0627  2.7840 -4.3079
 9258SOL     OW39232   0.505   2.049  15.128  0.3986 -0.0985  0.6275
 9258SOL    HW139233   0.525   2.120  15.068  4.8783 -2.4712 -0.7429
 9258SOL    HW239234   0.522   1.968  15.079 -0.2421 -0.7318  1.4468
 9259SOL     OW39235   4.333   1.697   3.338  0.4461 -0.0099  0.4225
 9259SOL    HW139236   4.375   1.630   3.283  3.8362  1.8123  0.7871
 9259SOL    HW239237   4.389   1.773   3.318  0.8335  0.1604  2.2268
 9260SOL     OW39238   1.281   0.602   3.521 -0.2883  0.1758 -0.9264
 9260SOL    HW139239   1.363   0.650   3.512  0.9443 -1.3440  2.2881
 9260SOL    HW239240   1.305   0.523   3.473  2.6498  0.1800  0.5592
 9261SOL     OW39241   3.691   4.222  16.027 -0.4672  0.0632 -0.5097
 9261SOL    HW139242   3.775   4.257  16.058 -0.7104 -0.4742  0.7581
 9261SOL    HW239243   3.645   4.230  16.111  0.4488  0.3297 -0.0261
 9262SOL     OW39244   3.148   0.636   4.480 -0.2328  0.2449 -0.5646
 9262SOL    HW139245   3.133   0.701   4.412 -0.9494  2.5603  1.8151
 9262SOL    HW239246   3.078   0.653   4.543 -0.7188 -1.4238 -0.6281
 9263SOL     OW39247   4.095   3.730   1.087  0.2398 -0.7604  0.0974
 9263SOL    HW139248   4.013   3.735   1.038 -1.1091 -0.9998  2.2951
 9263SOL    HW239249   4.128   3.651   1.046  2.3708  0.1157  0.1147
 9264SOL     OW39250   2.194   2.102  11.746  0.3415  0.4497 -0.1751
 9264SOL    HW139251   2.220   2.010  11.742 -0.3243  0.1942  1.9371
 9264SOL    HW239252   2.137   2.101  11.669  1.6313  1.7392 -1.1445
 9265SOL     OW39253   0.150   2.573   5.190  0.2018  0.1116  0.2278
 9265SOL    HW139254   0.110   2.658   5.174 -1.0943 -0.8512 -1.5462
 9265SOL    HW239255   0.078   2.514   5.211  0.1986  0.7470  2.0261
 9266SOL     OW39256   2.731   2.262  17.648  0.0598 -0.0493  0.1908
 9266SOL    HW139257   2.702   2.176  17.678 -4.0922  0.7683 -1.4871
 9266SOL    HW239258   2.716   2.306   0.049 -2.0546  1.7479 -1.1233
 9267SOL     OW39259   0.758   3.083   2.128  0.0078 -0.4271  0.4963
 9267SOL    HW139260   0.791   3.116   2.044 -0.7069 -0.0729  0.3552
 9267SOL    HW239261   0.679   3.041   2.096  0.4747 -0.7124 -0.2735
 9268SOL     OW39262   1.204   4.200   3.609  0.1475 -0.4869  0.6696
 9268SOL    HW139263   1.255   4.126   3.643  1.8180  0.9733  1.3813
 9268SOL    HW239264   1.142   4.207   3.682 -0.6500  0.3475 -0.1011
 9269SOL     OW39265   2.839   0.485   5.532  0.4904  0.7193 -0.0018
 9269SOL    HW139266   2.832   0.391   5.550 -0.6277  0.4666 -1.6974
 9269SOL    HW239267   2.747   0.497   5.508  0.1249 -1.4770  0.2719
 9270SOL     OW39268   2.909   1.634   5.315 -0.0104 -0.2476 -0.1218
 9270SOL    HW139269   2.866   1.711   5.277  1.4555  0.2014 -0.8670
 9270SOL    HW239270   2.994   1.670   5.342  1.2969 -1.5080 -2.5750
 9271SOL     OW39271   3.238   0.409   2.883 -0.8911  0.5442 -0.2673
 9271SOL    HW139272   3.225   0.402   2.978  0.2913  2.4453  0.0202
 9271SOL    HW239273   3.304   0.343   2.863 -0.3814  1.0648 -0.3119
 9272SOL     OW39274   3.025   3.987   8.291 -0.1662  0.0518  0.1995
 9272SOL    HW139275   2.944   3.966   8.245  0.3042 -0.3055 -0.4609
 9272SOL    HW239276   3.071   4.042   8.227 -0.9089  2.9907  2.2043
 9273SOL     OW39277   0.314   0.685   4.255  0.5771  0.1290  0.0818
 9273SOL    HW139278   0.243   0.744   4.280 -2.1004 -2.8824 -0.4899
 9273SOL    HW239279   0.375   0.742   4.207 -0.0266  1.1272  0.5007
 9274SOL     OW39280   1.305   1.042   6.811 -0.6022  0.0456 -0.0206
 9274SOL    HW139281   1.303   1.051   6.907  2.9451 -0.2217  0.0717
 9274SOL    HW239282   1.351   1.121   6.784 -0.8244  0.8653  1.9565
 9275SOL     OW39283   0.226   1.484   4.302 -0.0957  0.0222  0.0005
 9275SOL    HW139284   0.187   1.529   4.377  0.3284 -1.8489  1.3413
 9275SOL    HW239285   0.273   1.418   4.352  1.5044  0.1467 -1.3015
 9276SOL     OW39286   0.502   4.111   2.847  0.4600 -0.2517 -0.0846
 9276SOL    HW139287   0.548   4.192   2.868 -1.8811  1.3702 -1.2531
 9276SOL    HW239288   0.563   4.040   2.866 -1.7094 -1.0328  4.0147
 9277SOL     OW39289   2.091   1.646  11.514  0.2771 -0.3109  0.1229
 9277SOL    HW139290   2.142   1.691  11.447 -0.3873 -2.3712 -1.8154
 9277SOL    HW239291   2.052   1.720  11.559  2.9785 -0.2702  2.3757
 9278SOL     OW39292   4.332   1.919   2.594  0.3138  0.2261 -0.7111
 9278SOL    HW139293   4.388   1.903   2.670 -0.6000 -1.8029 -0.4756
 9278SOL    HW239294   4.318   1.830   2.561 -2.6987  0.1154  0.9011
 9279SOL     OW39295   4.435   1.965   3.328  0.3482 -0.2540 -0.0821
 9279SOL    HW139296   4.417   1.988   3.236  0.0758  0.8235  0.2476
 9279SOL    HW239297   4.388   2.032   3.376  3.7759  3.0007 -1.2283
 9280SOL     OW39298   4.120   3.287  16.193  0.9786  0.5289  0.1496
 9280SOL    HW139299   4.199   3.304  16.244 -1.4843 -1.5941  4.7048
 9280SOL    HW239300   4.051   3.323  16.249 -0.1245  1.0743 -1.5516
 9281SOL     OW39301   0.173   0.192   4.686  0.3424  0.5900  0.0651
 9281SOL    HW139302   0.256   0.175   4.642  0.4486  0.3738  0.3542
 9281SOL    HW239303   0.173   0.287   4.699  1.7291  0.5012  0.6801
 9282SOL     OW39304   3.905   0.781   6.104  0.2651  0.1709  0.3694
 9282SOL    HW139305   3.888   0.688   6.117  0.2376  0.2966  1.2169
 9282SOL    HW239306   3.991   0.795   6.143 -0.0389  1.3645  0.6003
 9283SOL     OW39307   0.810   4.486   4.180 -0.2178 -0.0429 -0.0268
 9283SOL    HW139308   0.843   4.465   4.093  2.8345  3.3839  0.2660
 9283SOL    HW239309   0.797   4.396   4.207  2.0905 -0.1446  0.7620
 9284SOL     OW39310   1.785   4.369   4.326 -0.6708  0.1028  0.6866
 9284SOL    HW139311   1.713   4.430   4.312 -2.5365 -1.8834  1.5691
 9284SOL    HW239312   1.741   4.284   4.324  1.8142 -1.1525 -1.1517
 9285SOL     OW39313   3.351   0.327   4.978  0.7393 -0.2513  0.2568
 9285SOL    HW139314   3.276   0.378   5.010  0.3153  0.0724 -1.2831
 9285SOL    HW239315   3.412   0.334   5.052 -1.6099 -0.9295  2.2642
 9286SOL     OW39316   4.670   2.164   5.212 -0.4169  0.4392  0.0501
 9286SOL    HW139317   4.673   2.081   5.163 -0.4999  1.5837 -1.8978
 9286SOL    HW239318   0.039   2.191   5.190 -0.5145  1.1615  0.5454
 9287SOL     OW39319   0.600   4.006   5.425 -0.0650 -0.2230 -0.6405
 9287SOL    HW139320   0.622   4.046   5.341  0.7423  0.8516  0.0711
 9287SOL    HW239321   0.563   4.080   5.473 -0.4517 -1.6892  1.3420
 9288SOL     OW39322   1.386   1.815   7.549  0.7706  0.4997  0.3196
 9288SOL    HW139323   1.453   1.809   7.617  1.1054 -1.2958 -0.1602
 9288SOL    HW239324   1.311   1.786   7.602 -0.2733 -0.5593 -1.7326
 9289SOL     OW39325   4.594   2.354  10.133 -0.3870 -0.3363  0.1408
 9289SOL    HW139326   4.684   2.383  10.131  0.0753 -1.9143 -1.9647
 9289SOL    HW239327   4.616   2.284  10.195  0.2217 -1.9068 -1.8543
 9290SOL     OW39328   3.897   4.053   4.155 -0.7544  0.2155  0.0619
 9290SOL    HW139329   3.832   4.110   4.113 -1.6423 -0.8501 -0.0187
 9290SOL    HW239330   3.856   4.053   4.241  2.5839  0.1255  1.6498
 9291SOL     OW39331   0.352   3.854   6.993  0.8701 -0.3322 -0.0423
 9291SOL    HW139332   0.361   3.773   6.942 -1.1725 -1.2608  1.0622
 9291SOL    HW239333   0.372   3.821   7.080  1.2602 -0.9193 -0.3501
 9292SOL     OW39334   0.533   3.429   4.929  0.0715  0.1975 -0.2973
 9292SOL    HW139335   0.596   3.491   4.891 -0.1696  0.0243 -0.9854
 9292SOL    HW239336   0.549   3.355   4.870  0.7326 -0.1355  0.3090
 9293SOL     OW39337   4.094   0.164   3.321 -0.7056 -0.4574 -0.0872
 9293SOL    HW139338   4.062   0.075   3.337 -0.1589 -0.7090 -0.3586
 9293SOL    HW239339   4.025   0.197   3.264 -0.3269  1.3432  0.5125
 9294SOL     OW39340   2.380   1.917  11.964 -0.2434 -0.1827 -0.2811
 9294SOL    HW139341   2.298   1.867  11.959  1.1168 -2.3049 -1.3085
 9294SOL    HW239342   2.397   1.917  12.058 -0.5491 -0.0665 -0.2258
 9295SOL     OW39343   2.808   0.158   9.039 -0.3891  0.3456 -0.5720
 9295SOL    HW139344   2.715   0.165   9.064 -0.6403 -1.7055 -0.8643
 9295SOL    HW239345   2.800   0.120   8.951 -0.7863 -0.6615 -0.1097
 9296SOL     OW39346   1.458   2.316   7.812 -0.3481  0.4729  0.3201
 9296SOL    HW139347   1.381   2.366   7.783 -1.1836 -0.6317  0.6458
 9296SOL    HW239348   1.421   2.228   7.800  0.1370  0.3064  0.0638
 9297SOL     OW39349   0.588   0.211  17.308  0.2937 -0.1128 -0.1293
 9297SOL    HW139350   0.527   0.236  17.377  1.0317  2.3032 -0.3511
 9297SOL    HW239351   0.655   0.163  17.356 -0.3047  0.1411  0.9581
 9298SOL     OW39352   1.022   1.727   8.313 -0.5265  0.0322 -0.5251
 9298SOL    HW139353   0.991   1.816   8.294 -0.9824 -0.1383 -0.5872
 9298SOL    HW239354   1.108   1.755   8.344  0.4493 -1.8093 -1.6207
 9299SOL     OW39355   2.355   0.038   6.780  0.4233 -0.8020  0.0017
 9299SOL    HW139356   2.344   0.132   6.763 -0.7845 -0.8162  0.6643
 9299SOL    HW239357   2.276   0.008   6.826 -1.4077 -1.5137 -3.5535
 9300SOL     OW39358   3.103   3.573  10.750 -0.1244 -0.1046  0.3556
 9300SOL    HW139359   3.067   3.485  10.762  0.2436 -0.4943 -1.3863
 9300SOL    HW239360   3.027   3.624  10.723 -0.4250 -0.0309  1.3661
 9301SOL     OW39361   4.108   1.352   4.074 -0.3984  0.2701  0.3616
 9301SOL    HW139362   4.018   1.377   4.051 -0.4312  1.3539  1.7152
 9301SOL    HW239363   4.134   1.347   3.982  1.6325  1.0945  0.8936
 9302SOL     OW39364   2.773   1.360  12.566 -0.1386 -0.2398  0.2602
 9302SOL    HW139365   2.863   1.335  12.584 -0.0948  0.4410  1.0242
 9302SOL    HW239366   2.733   1.347  12.652 -1.9110 -0.0363 -0.5294
 9303SOL     OW39367   4.410   4.160   6.481  0.2201  0.1344 -0.7489
 9303SOL    HW139368   4.435   4.092   6.543 -0.1106  1.4779  0.8509
 9303SOL    HW239369   4.406   4.238   6.536  2.0091  0.5227 -1.1815
 9304SOL     OW39370   2.775   0.647   6.153 -0.3955  0.4937  0.2639
 9304SOL    HW139371   2.690   0.680   6.181 -0.4551  0.3861  0.2086
 9304SOL    HW239372   2.755   0.652   6.060 -0.6654  1.2311  0.3627
 9305SOL     OW39373   4.627   2.731  15.830  0.3191  0.0384  0.4875
 9305SOL    HW139374   4.612   2.643  15.866 -2.3567  1.2881  2.3880
 9305SOL    HW239375   4.588   2.790  15.894  2.4142 -0.0228  1.8180
 9306SOL     OW39376   3.972   0.377   7.078  0.0957 -0.5085  0.1411
 9306SOL    HW139377   4.047   0.383   7.018 -0.6002  0.3450 -0.6522
 9306SOL    HW239378   4.022   0.363   7.159 -0.5445 -0.6650  0.5021
 9307SOL     OW39379   2.638   0.923   3.722 -0.6310  0.4596 -0.3455
 9307SOL    HW139380   2.723   0.893   3.755 -0.1309  1.1703 -0.9805
 9307SOL    HW239381   2.587   0.844   3.741  0.4253  0.2784  1.7221
 9308SOL     OW39382   2.104   3.136  10.854  0.0510 -0.3434 -0.0489
 9308SOL    HW139383   2.162   3.076  10.808  2.1803  1.1784  0.6632
 9308SOL    HW239384   2.138   3.220  10.823  2.3620 -0.2615  2.7260
 9309SOL     OW39385   1.333   0.751  15.387  0.6078 -0.0194 -0.1506
 9309SOL    HW139386   1.403   0.757  15.452 -0.4164 -0.8874  1.0243
 9309SOL    HW239387   1.314   0.843  15.368  0.1458 -0.1139 -0.1520
 9310SOL     OW39388   2.516   3.738   6.785 -0.8159 -0.0050 -0.4211
 9310SOL    HW139389   2.432   3.699   6.763 -1.3416  1.8049 -1.6445
 9310SOL    HW239390   2.501   3.763   6.876 -3.3958  3.2630 -1.7515
 9311SOL     OW39391   2.029   1.922  16.355 -0.4183 -0.2355 -0.4307
 9311SOL    HW139392   1.970   1.995  16.373  0.0287  0.1081 -0.3701
 9311SOL    HW239393   2.117   1.947  16.383 -0.4064 -1.3708  0.5784
 9312SOL     OW39394   3.643   4.663  17.217  0.2413  0.5494 -0.9968
 9312SOL    HW139395   3.566   4.613  17.191  0.3519  0.0035 -0.2660
 9312SOL    HW239396   3.626   4.698  17.305  2.4868  1.8187 -1.0691
 9313SOL     OW39397   4.692   3.123   0.380 -0.1538  0.0239  0.2070
 9313SOL    HW139398   4.650   3.200   0.341 -3.1750 -1.2830  0.8454
 9313SOL    HW239399   4.686   3.056   0.311 -1.9056 -1.3048  1.6505
 9314SOL     OW39400   2.311   4.248   2.461  0.1492  0.4551 -0.2564
 9314SOL    HW139401   2.323   4.156   2.484 -0.2785  0.7648  1.2048
 9314SOL    HW239402   2.266   4.275   2.541  0.5325  0.2435  0.0312
 9315SOL     OW39403   0.613   3.978   2.300 -0.4754  0.3470  0.0295
 9315SOL    HW139404   0.667   4.056   2.285 -3.1918  2.0767 -1.0175
 9315SOL    HW239405   0.670   3.905   2.278 -0.7193  0.9689 -2.6810
 9316SOL     OW39406   4.221   1.191   6.375  0.7939 -0.6594  0.4437
 9316SOL    HW139407   4.297   1.239   6.408  1.1873 -0.7714 -0.2886
 9316SOL    HW239408   4.166   1.221   6.447  2.9523 -1.5144  2.4779
 9317SOL     OW39409   0.054   1.939  14.027 -0.7919 -0.3992 -0.1092
 9317SOL    HW139410   0.019   1.986  13.951  0.3519  0.0409 -0.3715
 9317SOL    HW239411   4.715   1.960  14.099 -1.1102 -1.2699 -0.1141
 9318SOL     OW39412   0.848   2.273   3.800 -0.2673  0.7873  0.4541
 9318SOL    HW139413   0.871   2.353   3.752  0.5205  1.1726  1.4937
 9318SOL    HW239414   0.762   2.304   3.827  0.0290  1.8892  0.1375
 9319SOL     OW39415   3.787   0.525  12.940  0.1671  0.5196 -0.2748
 9319SOL    HW139416   3.792   0.473  13.020  1.1194  2.1667  0.7388
 9319SOL    HW239417   3.693   0.533  12.922  0.1528  0.2268 -0.3229
 9320SOL     OW39418   2.258   1.784   8.263  0.0540 -0.2724 -0.5414
 9320SOL    HW139419   2.315   1.765   8.337  0.1740 -0.9870 -0.8177
 9320SOL    HW239420   2.200   1.708   8.267 -0.7905  0.3185 -1.4111
 9321SOL     OW39421   0.563   3.025   5.468 -0.2918  0.3342  0.0809
 9321SOL    HW139422   0.601   2.943   5.438  1.1101  0.6317  1.0651
 9321SOL    HW239423   0.471   3.016   5.442 -0.5765  0.0344  1.2050
 9322SOL     OW39424   4.270   1.818   5.286 -0.1314 -0.5775 -0.3582
 9322SOL    HW139425   4.327   1.894   5.269 -0.8457 -0.1475 -0.8124
 9322SOL    HW239426   4.257   1.779   5.200  1.9106  1.0983 -1.4476
 9323SOL     OW39427   0.419   3.639  16.951 -0.2401 -0.2790 -0.1803
 9323SOL    HW139428   0.393   3.726  16.922  0.7059  0.0056 -0.1931
 9323SOL    HW239429   0.514   3.645  16.959 -0.2833  0.6842 -0.4684
 9324SOL     OW39430   2.882   1.904   6.304  0.0709  0.1244  0.5606
 9324SOL    HW139431   2.887   1.980   6.245 -0.1701  0.2649  0.7201
 9324SOL    HW239432   2.817   1.944   6.362 -1.3125 -0.8623 -0.3356
 9325SOL     OW39433   0.572   2.812   6.538  0.5271 -0.2614 -0.7056
 9325SOL    HW139434   0.614   2.842   6.618 -1.2424  1.5409 -0.4510
 9325SOL    HW239435   0.597   2.889   6.487 -2.1508  2.7220  2.5833
 9326SOL     OW39436   2.675   1.251   6.446  0.1617  0.6262 -0.1058
 9326SOL    HW139437   2.749   1.228   6.503 -0.8207 -0.6739  0.6442
 9326SOL    HW239438   2.735   1.253   6.371 -1.8730  1.2267 -1.7260
 9327SOL     OW39439   1.372   1.993   9.283 -0.0321 -0.3669  0.0807
 9327SOL    HW139440   1.347   1.985   9.375 -0.5320 -0.2527 -0.0439
 9327SOL    HW239441   1.287   1.976   9.242 -0.2160  1.1273 -0.1430
 9328SOL     OW39442   3.905   0.610  16.249  0.4045 -0.1625  1.0691
 9328SOL    HW139443   3.827   0.585  16.299 -0.0955  0.3376  0.5382
 9328SOL    HW239444   3.903   0.555  16.170  2.7325  1.1474  0.1000
 9329SOL     OW39445   2.149   0.656  14.673 -0.0510 -0.0406 -0.1026
 9329SOL    HW139446   2.112   0.568  14.679  0.3299 -0.2150 -0.2771
 9329SOL    HW239447   2.123   0.685  14.760 -1.1906 -1.4664  0.0303
 9330SOL     OW39448   0.782   2.104   7.045  0.4446  0.0519  0.2767
 9330SOL    HW139449   0.728   2.171   7.004 -0.1954  0.3587  1.6482
 9330SOL    HW239450   0.720   2.063   7.105 -0.2249  0.0387 -0.4122
 9331SOL     OW39451   3.493   1.437   2.356  0.3347  0.3859 -0.2478
 9331SOL    HW139452   3.575   1.439   2.306 -0.6379  0.8796 -1.8047
 9331SOL    HW239453   3.429   1.391   2.302 -2.6115  2.1371  1.7886
 9332SOL     OW39454   3.164   2.718   5.280 -0.5618  0.3245  0.6164
 9332SOL    HW139455   3.090   2.728   5.339 -1.2786 -1.7205  0.0843
 9332SOL    HW239456   3.134   2.775   5.209  1.2979 -2.3878 -2.3578
 9333SOL     OW39457   2.642   3.752  14.015 -0.5012 -0.1460  0.4584
 9333SOL    HW139458   2.621   3.681  14.075 -0.2992 -0.5671  0.0295
 9333SOL    HW239459   2.705   3.704  13.961  0.0120 -2.2031  2.8940
 9334SOL     OW39460   3.366   0.707   4.660 -0.3943  0.1953  0.5480
 9334SOL    HW139461   3.313   0.627   4.662  1.8514 -1.2973  0.0970
 9334SOL    HW239462   3.295   0.771   4.669 -1.0598 -0.5618  0.6962
 9335SOL     OW39463   3.463   1.662   5.880 -0.0242  0.4221 -0.5445
 9335SOL    HW139464   3.546   1.619   5.857  0.9074  0.1378  3.4040
 9335SOL    HW239465   3.433   1.620   5.960 -0.8810 -0.2342 -1.2066
 9336SOL     OW39466   2.644   2.462   1.245  0.1089 -0.3072  0.0093
 9336SOL    HW139467   2.583   2.410   1.192  0.2207  0.4479 -0.8481
 9336SOL    HW239468   2.725   2.434   1.202  0.1373  0.2148 -0.2706
 9337SOL     OW39469   1.073   4.195  14.239  0.1231  0.1930 -0.2329
 9337SOL    HW139470   1.023   4.114  14.246  0.7474  0.0903  3.1713
 9337SOL    HW239471   1.014   4.258  14.280 -1.0942  0.1243 -1.9358
 9338SOL     OW39472   4.168   4.200  15.267  0.1910  0.1712 -0.6362
 9338SOL    HW139473   4.145   4.108  15.253 -1.3952  0.4083  0.4287
 9338SOL    HW239474   4.262   4.192  15.277  0.0228 -0.9035  0.1174
 9339SOL     OW39475   0.603   3.725  12.332 -0.0868  0.4334 -0.0699
 9339SOL    HW139476   0.541   3.652  12.327  0.0199  0.4883 -2.0221
 9339SOL    HW239477   0.613   3.745  12.239 -1.2059 -0.8831 -0.4688
 9340SOL     OW39478   1.239   2.080   2.977  0.7802 -0.2720 -0.6630
 9340SOL    HW139479   1.293   2.159   2.976  0.6666 -0.1721  0.5207
 9340SOL    HW239480   1.153   2.122   2.966  0.2432 -1.0630  0.5839
 9341SOL     OW39481   4.016   0.744   8.033 -0.0282  0.2194 -0.7070
 9341SOL    HW139482   4.042   0.806   8.100  0.7802 -0.6809 -0.1853
 9341SOL    HW239483   3.946   0.696   8.078  1.2432 -1.4344 -0.4881
 9342SOL     OW39484   1.817   3.292   4.047  0.2889 -0.6690  0.3364
 9342SOL    HW139485   1.876   3.243   3.990  1.1061  0.6473  0.0557
 9342SOL    HW239486   1.838   3.382   4.025  0.8202 -1.1144 -0.9778
 9343SOL     OW39487   3.214   3.734  11.842  0.0723 -0.1646 -0.1202
 9343SOL    HW139488   3.292   3.777  11.876  0.0721 -0.4624  0.2537
 9343SOL    HW239489   3.203   3.652  11.889  2.2617 -0.7155 -0.5866
 9344SOL     OW39490   4.182   3.318   5.071 -0.5427  0.6827 -0.0560
 9344SOL    HW139491   4.111   3.254   5.075  1.5224 -1.7160 -1.6114
 9344SOL    HW239492   4.228   3.293   5.150 -1.1085  0.9530  0.3582
 9345SOL     OW39493   1.426   3.644   6.923 -0.4628 -0.1730 -0.9368
 9345SOL    HW139494   1.361   3.681   6.863  0.5043  0.3031 -1.6985
 9345SOL    HW239495   1.450   3.725   6.968 -1.1611  0.0527 -0.9728
 9346SOL     OW39496   0.332   4.016   6.484 -0.1147 -0.7342 -0.0170
 9346SOL    HW139497   0.386   4.040   6.409  0.1741 -0.7427  0.1874
 9346SOL    HW239498   0.366   3.926   6.489 -0.9094 -0.9687  1.0943
 9347SOL     OW39499   4.125   2.161   5.327  0.0232  0.1490  0.4767
 9347SOL    HW139500   4.218   2.135   5.328 -0.6002 -2.0507  1.7194
 9347SOL    HW239501   4.121   2.207   5.243 -1.6496 -0.4167  0.2488
 9348SOL     OW39502   1.032   4.529   5.087 -0.2564 -0.3593  0.3674
 9348SOL    HW139503   0.978   4.564   5.158 -0.2198  2.4967 -1.0185
 9348SOL    HW239504   1.082   4.456   5.126  1.4844  1.6897  2.0070
 9349SOL     OW39505   3.198   2.314  10.015  0.6614 -0.1032  0.3971
 9349SOL    HW139506   3.252   2.328   9.937  0.6145  1.5162  0.6497
 9349SOL    HW239507   3.230   2.379  10.078 -1.0626  2.4674 -1.3792
 9350SOL     OW39508   0.712   0.148   8.384 -0.0116 -0.4349  0.2012
 9350SOL    HW139509   0.635   0.091   8.381 -0.3824  0.0374  0.8307
 9350SOL    HW239510   0.685   0.190   8.465 -0.3569 -1.4830  0.6352
 9351SOL     OW39511   4.635   2.230   9.823  0.2022  0.3732 -0.1916
 9351SOL    HW139512   4.602   2.172   9.891  0.7874  1.1918  0.7902
 9351SOL    HW239513   4.686   2.297   9.869 -1.8766  0.9647  1.2758
 9352SOL     OW39514   0.829   2.534   2.508  0.5321  0.4305  0.4501
 9352SOL    HW139515   0.851   2.447   2.542 -0.5098  0.7485  1.9414
 9352SOL    HW239516   0.847   2.532   2.414  0.0985 -0.0605  0.3734
 9353SOL     OW39517   4.188   4.403  12.360 -0.2981  0.4060  0.2901
 9353SOL    HW139518   4.227   4.384  12.275  0.4697 -0.7114  0.9010
 9353SOL    HW239519   4.188   4.498  12.374  0.2871  0.2982  0.9606
 9354SOL     OW39520   2.767   4.274   7.567 -0.0971  0.5315  0.2160
 9354SOL    HW139521   2.801   4.263   7.655 -0.4631  1.1760  0.4388
 9354SOL    HW239522   2.687   4.222   7.572 -0.0952  0.9129  4.0115
 9355SOL     OW39523   4.325   3.049   6.502  0.1024 -0.1168  0.1287
 9355SOL    HW139524   4.336   3.070   6.595  1.5188  0.1742 -0.0950
 9355SOL    HW239525   4.252   3.109   6.485  1.3202  1.0399 -1.0170
 9356SOL     OW39526   3.540   2.484   5.378  0.8658 -0.4386 -0.2068
 9356SOL    HW139527   3.592   2.548   5.330 -2.1542 -1.0332 -4.2908
 9356SOL    HW239528   3.461   2.483   5.324  0.5471  0.1441  0.2556
 9357SOL     OW39529   1.087   1.011   4.214 -0.0168  0.1691  0.1384
 9357SOL    HW139530   1.043   0.940   4.260 -0.5010  1.5124  1.7737
 9357SOL    HW239531   1.177   0.992   4.241  0.3210  2.3811  0.5827
 9358SOL     OW39532   4.091   0.388   4.422  0.1777 -0.4589  0.2036
 9358SOL    HW139533   4.095   0.426   4.510 -0.4341  0.7235 -0.2864
 9358SOL    HW239534   4.115   0.470   4.377  0.3360 -0.5654  0.0913
 9359SOL     OW39535   3.565   0.588   2.005 -0.1295  0.0833  0.1954
 9359SOL    HW139536   3.645   0.605   1.956 -1.0471 -0.4476 -1.4808
 9359SOL    HW239537   3.542   0.507   1.959 -0.6341 -0.3947  1.2890
 9360SOL     OW39538   4.709   2.357  12.552 -0.1664  0.2666  0.5822
 9360SOL    HW139539   4.678   2.416  12.620  0.7904  1.9784 -0.4646
 9360SOL    HW239540   4.662   2.387  12.474  1.9351 -0.2072 -0.8574
 9361SOL     OW39541   3.928   1.005  17.636 -0.3084 -0.5142  0.6111
 9361SOL    HW139542   3.923   0.942  17.564  1.7536 -1.4310  1.2655
 9361SOL    HW239543   3.838   1.035  17.645  0.1507  0.6345  1.3543
 9362SOL     OW39544   2.249   3.536   3.587  0.3863 -0.0957  0.1583
 9362SOL    HW139545   2.227   3.557   3.496  0.5964  1.8356  0.5637
 9362SOL    HW239546   2.235   3.441   3.589  0.6457 -0.1750 -2.3645
 9363SOL     OW39547   2.347   3.653   9.230  0.3891 -0.5055  1.0427
 9363SOL    HW139548   2.297   3.695   9.300  1.6213  0.8645  1.0885
 9363SOL    HW239549   2.277   3.597   9.194  2.0204 -1.1487 -1.1628
 9364SOL     OW39550   2.943   3.315   5.439  0.1182 -0.6793 -0.2545
 9364SOL    HW139551   2.889   3.389   5.412  0.6718  0.2127  1.0647
 9364SOL    HW239552   3.036   3.339   5.432 -0.0893  0.2130  0.0292
 9365SOL     OW39553   0.296   1.326   9.246 -0.2421 -0.1811  0.0395
 9365SOL    HW139554   0.310   1.404   9.300  0.1089  0.4108 -0.9169
 9365SOL    HW239555   0.303   1.357   9.156 -2.7092 -0.1069 -0.1089
 9366SOL     OW39556   3.201   1.764   8.399  0.1983  0.2322  0.5448
 9366SOL    HW139557   3.148   1.718   8.335  0.9641  2.1589 -1.4884
 9366SOL    HW239558   3.286   1.761   8.355 -0.2786  0.4539 -0.3776
 9367SOL     OW39559   4.110   2.816  13.780 -0.4876 -0.7487  0.4374
 9367SOL    HW139560   4.061   2.733  13.778  1.1379 -1.7040  0.4958
 9367SOL    HW239561   4.110   2.851  13.691  0.1099 -0.8219  0.4091
 9368SOL     OW39562   1.618   3.601   3.122 -0.2368  0.4406 -0.1945
 9368SOL    HW139563   1.551   3.541   3.090 -0.7413  0.4090  0.9233
 9368SOL    HW239564   1.649   3.640   3.040  0.2425 -0.3657 -0.3981
 9369SOL     OW39565   1.558   0.218  15.412 -0.4233  0.4177 -0.1833
 9369SOL    HW139566   1.582   0.173  15.493  1.6933  0.7602 -0.6221
 9369SOL    HW239567   1.590   0.148  15.355 -1.3523 -1.4481  1.5645
 9370SOL     OW39568   3.046   3.704   5.827  0.0686 -0.8512  0.1117
 9370SOL    HW139569   2.999   3.701   5.911  0.6400 -2.2734  0.3734
 9370SOL    HW239570   2.974   3.687   5.767 -0.8708 -3.1931  1.8798
 9371SOL     OW39571   2.305   2.054   0.641  0.7303  0.2934 -0.1176
 9371SOL    HW139572   2.227   2.109   0.630  0.8387  0.3531 -0.5695
 9371SOL    HW239573   2.357   2.066   0.562 -0.2752  0.2655 -0.7940
 9372SOL     OW39574   4.207   2.750   6.092  0.0415  0.5710  0.1089
 9372SOL    HW139575   4.279   2.687   6.099  0.4617  1.1199  0.7175
 9372SOL    HW239576   4.222   2.809   6.166  0.6127 -0.2424  0.6418
 9373SOL     OW39577   3.796   3.685   1.231 -0.7782  0.4742  0.1980
 9373SOL    HW139578   3.805   3.726   1.145 -1.4314 -1.0320 -0.5984
 9373SOL    HW239579   3.879   3.703   1.275  0.3145  2.5608 -2.6993
 9374SOL     OW39580   2.390   2.276  15.092  0.5154  0.3961  0.7692
 9374SOL    HW139581   2.356   2.187  15.088 -0.1278  0.6857 -0.4493
 9374SOL    HW239582   2.419   2.278  15.000 -0.4726  1.1401  0.4669
 9375SOL     OW39583   3.921   4.563   5.634 -0.2287  0.0193 -0.6697
 9375SOL    HW139584   3.870   4.504   5.579  2.3091 -1.4325 -1.4820
 9375SOL    HW239585   3.982   4.511   5.687  1.8819  1.6589 -1.4656
 9376SOL     OW39586   2.736   4.317   6.875 -0.4122  0.7264  0.2619
 9376SOL    HW139587   2.787   4.328   6.795 -0.3308 -0.6101  0.1393
 9376SOL    HW239588   2.684   4.240   6.852  0.9881  0.2433 -1.3099
 9377SOL     OW39589   3.269   2.029   2.556 -0.0823 -0.3273 -0.5311
 9377SOL    HW139590   3.355   2.018   2.596 -0.4867 -0.3254  0.3394
 9377SOL    HW239591   3.214   2.076   2.618 -2.0488 -1.9934 -0.9901
 9378SOL     OW39592   0.264   3.606   6.005 -0.9552  0.1335  0.3287
 9378SOL    HW139593   0.193   3.668   5.987 -1.3144  0.4851  2.8964
 9378SOL    HW239594   0.275   3.562   5.921 -2.6262  0.9015 -0.2851
 9379SOL     OW39595   1.293   2.674   6.718 -0.2211  0.3436 -0.4076
 9379SOL    HW139596   1.212   2.683   6.668 -0.7171 -2.7377 -0.1576
 9379SOL    HW239597   1.285   2.740   6.786 -0.6852  0.3865 -0.5003
 9380SOL     OW39598   4.610   1.644  11.741 -0.6059 -0.4435 -0.1413
 9380SOL    HW139599   4.599   1.598  11.658  0.7306  1.4007 -1.3470
 9380SOL    HW239600   4.601   1.735  11.712 -2.9431 -1.1024 -1.4424
 9381SOL     OW39601   2.113   0.740   0.515 -0.1969  0.2234 -0.7149
 9381SOL    HW139602   2.201   0.759   0.483  0.7204 -0.3277  1.4764
 9381SOL    HW239603   2.075   0.828   0.519 -1.2102 -0.1030 -3.4128
 9382SOL     OW39604   4.326   3.568   4.370 -0.2040 -0.3141  0.0213
 9382SOL    HW139605   4.307   3.507   4.298 -0.8739  0.5995 -0.5872
 9382SOL    HW239606   4.301   3.653   4.335  0.0328 -0.7371 -1.1857
 9383SOL     OW39607   1.558   1.478   6.378  0.1387  0.3590  0.4152
 9383SOL    HW139608   1.572   1.572   6.387 -1.5417  0.7839 -1.3620
 9383SOL    HW239609   1.462   1.477   6.373  0.1365  0.2240  0.4783
 9384SOL     OW39610   3.496   1.781  11.646 -0.0599 -0.5354 -0.7244
 9384SOL    HW139611   3.588   1.794  11.624 -0.0228 -0.2484 -0.3943
 9384SOL    HW239612   3.495   1.803  11.739  0.9088 -2.5424 -0.2346
 9385SOL     OW39613   0.322   0.349   3.713  0.4336  0.0246  0.2649
 9385SOL    HW139614   0.306   0.442   3.726 -2.1499 -0.2827 -0.6767
 9385SOL    HW239615   0.317   0.316   3.803 -0.6909  0.3117  0.3082
 9386SOL     OW39616   0.512   4.508   6.834 -0.5439 -0.4557  0.1417
 9386SOL    HW139617   0.430   4.479   6.874 -1.1196  1.6911  0.5051
 9386SOL    HW239618   0.481   4.560   6.760  0.2393 -0.0142  0.1197
 9387SOL     OW39619   4.674   1.503   5.393 -0.0536 -0.2416 -0.0440
 9387SOL    HW139620   4.688   1.423   5.341 -0.8969  1.1460 -2.3891
 9387SOL    HW239621   0.040   1.514   5.434  0.6646 -2.5657 -0.8777
 9388SOL     OW39622   1.496   1.376   1.337  0.2114  0.2109 -0.0520
 9388SOL    HW139623   1.543   1.394   1.419 -1.1342 -1.2670  1.0457
 9388SOL    HW239624   1.462   1.287   1.345 -1.8726  1.1650  1.4952
 9389SOL     OW39625   2.736   2.832   3.605  0.3052 -0.2584  0.2920
 9389SOL    HW139626   2.716   2.922   3.629 -0.9701 -0.2579 -0.7498
 9389SOL    HW239627   2.652   2.796   3.576 -0.0602 -0.6121  1.7935
 9390SOL     OW39628   0.053   3.892   3.786  0.1643  0.7038  0.4405
 9390SOL    HW139629   0.010   3.826   3.732  2.8192 -0.1452 -0.6412
 9390SOL    HW239630   0.100   3.932   3.713  0.1313 -1.0200 -0.5278
 9391SOL     OW39631   0.015   3.281   1.756  0.0902  0.3204  0.0951
 9391SOL    HW139632   0.013   3.344   1.684  0.1386  1.0320  0.7189
 9391SOL    HW239633   4.698   3.338   1.824  0.4919  0.6383  0.0466
 9392SOL     OW39634   0.457   0.639   2.624  0.0827 -0.1368 -0.2373
 9392SOL    HW139635   0.448   0.713   2.684 -1.4522  0.3689 -1.0910
 9392SOL    HW239636   0.379   0.656   2.571  0.2608 -0.3095 -0.5523
 9393SOL     OW39637   3.205   1.519  14.978 -0.2028 -0.8415  0.4437
 9393SOL    HW139638   3.207   1.425  14.963  0.7860 -1.0637  1.9855
 9393SOL    HW239639   3.147   1.555  14.910  2.8414  0.1817 -1.6366
 9394SOL     OW39640   0.691   0.428   0.527  0.0022  0.2233  0.6479
 9394SOL    HW139641   0.747   0.505   0.516  2.1241 -0.8804  3.7990
 9394SOL    HW239642   0.748   0.354   0.506 -0.9172 -0.2042 -0.3774
 9395SOL     OW39643   2.685   0.234   6.507 -0.2783  0.6868 -0.2357
 9395SOL    HW139644   2.732   0.174   6.565  1.2527  1.9968 -0.1044
 9395SOL    HW239645   2.756   0.293   6.481  0.5874  1.0033  2.8143
 9396SOL     OW39646   0.159   4.691  14.061 -0.1514  1.0146  0.2338
 9396SOL    HW139647   0.067   4.708  14.043 -0.3825  0.2592  0.7075
 9396SOL    HW239648   0.155   4.613  14.117 -0.4833 -0.0377 -1.2604
 9397SOL     OW39649   2.063   1.179  10.556 -0.1883 -0.2553 -0.5403
 9397SOL    HW139650   2.008   1.105  10.581 -1.2812  0.0872 -1.8996
 9397SOL    HW239651   2.003   1.212  10.489 -0.4679 -1.2045 -0.7657
 9398SOL     OW39652   3.683   3.974   7.537  0.2803 -0.6044  0.0893
 9398SOL    HW139653   3.772   3.940   7.530  0.8335  1.1702 -1.3634
 9398SOL    HW239654   3.670   3.960   7.631 -1.6948  0.2966 -0.0429
 9399SOL     OW39655   1.528   0.991  17.414  0.1460  0.3724  0.0778
 9399SOL    HW139656   1.593   1.026  17.353  0.1700  0.2391  0.0268
 9399SOL    HW239657   1.481   0.932  17.355  0.9877 -0.3852  0.1554
 9400SOL     OW39658   3.094   0.118   7.861 -0.5767  0.2280  0.3717
 9400SOL    HW139659   3.091   0.165   7.944 -1.3168  0.1637  0.3776
 9400SOL    HW239660   3.092   0.026   7.889  0.9378  0.1855  0.3352
 9401SOL     OW39661   0.603   1.959   0.065 -0.0418 -0.3744  0.5625
 9401SOL    HW139662   0.585   1.965   0.159 -1.0340  1.4086  0.2553
 9401SOL    HW239663   0.645   1.873   0.059 -0.8285 -0.5843 -1.6039
 9402SOL     OW39664   2.728   3.910   7.082 -0.6793 -0.3369 -0.2877
 9402SOL    HW139665   2.713   3.988   7.135 -3.4509  0.5336 -2.3875
 9402SOL    HW239666   2.762   3.947   7.000 -2.3687  3.1911  0.6037
 9403SOL     OW39667   4.613   0.204   5.484  0.3768  0.1092 -0.0120
 9403SOL    HW139668   4.626   0.296   5.460 -0.0131 -0.3894 -2.0793
 9403SOL    HW239669   4.602   0.170   5.395  1.4441 -0.4110  0.0581
 9404SOL     OW39670   0.341   0.247   7.426  0.5199 -0.5787  0.2382
 9404SOL    HW139671   0.376   0.309   7.361 -0.6058 -0.7637 -0.5294
 9404SOL    HW239672   0.286   0.191   7.372  0.9355 -0.2648 -0.5182
 9405SOL     OW39673   1.214   3.407  10.595 -0.0373  0.1653 -0.1045
 9405SOL    HW139674   1.278   3.475  10.577  3.2410 -3.5295 -2.3674
 9405SOL    HW239675   1.207   3.372  10.506 -2.3698  0.6482 -0.1116
 9406SOL     OW39676   4.273   3.150   3.168 -0.0988 -0.0168 -0.1904
 9406SOL    HW139677   4.271   3.191   3.254 -0.8783  0.9525 -0.6725
 9406SOL    HW239678   4.195   3.095   3.168 -0.3764  0.3783  2.4755
 9407SOL     OW39679   4.586   2.873  10.626 -0.5380 -0.0484 -0.0417
 9407SOL    HW139680   4.507   2.819  10.638 -1.4077  1.2558  0.0451
 9407SOL    HW239681   4.614   2.842  10.540 -1.3471 -2.2303  0.4647
 9408SOL     OW39682   0.212   3.945   7.271  0.1138 -0.1655 -0.2608
 9408SOL    HW139683   0.254   3.864   7.299  2.0539  1.1883  0.7924
 9408SOL    HW239684   0.168   3.928   7.188 -0.1183  0.3870 -0.2524
 9409SOL     OW39685   2.811   3.146   2.955  0.1002  0.5457  0.3913
 9409SOL    HW139686   2.822   3.232   2.915  1.8438 -0.8950 -2.2367
 9409SOL    HW239687   2.784   3.179   3.041 -0.0622 -0.5761  0.7748
 9410SOL     OW39688   3.793   1.233   3.182  0.0649 -0.8485  0.0913
 9410SOL    HW139689   3.759   1.171   3.117 -0.8961  1.1229 -1.2938
 9410SOL    HW239690   3.887   1.234   3.167  0.1116  0.4624  0.5598
 9411SOL     OW39691   2.015   0.030   7.228  0.3466  0.7099  0.0122
 9411SOL    HW139692   2.013   4.691   7.303  0.5648 -0.3662 -0.8303
 9411SOL    HW239693   2.082   4.714   7.171  0.3906 -1.3325  1.3711
 9412SOL     OW39694   4.013   2.649  16.457  0.2362  0.1527  0.5196
 9412SOL    HW139695   4.088   2.678  16.510  1.0747 -0.6031 -0.2605
 9412SOL    HW239696   4.029   2.690  16.372  0.9418  1.1359  1.1259
 9413SOL     OW39697   0.503   3.999   7.178  0.3127  0.2967 -0.4312
 9413SOL    HW139698   0.422   3.999   7.126 -0.5987 -2.5293  0.9698
 9413SOL    HW239699   0.496   4.074   7.237  1.5079 -1.2618  1.7182
 9414SOL     OW39700   0.224   2.832   8.307 -0.0747 -0.2749 -0.0696
 9414SOL    HW139701   0.274   2.754   8.282 -0.5542 -1.1932  1.8514
 9414SOL    HW239702   0.135   2.796   8.304 -0.1669 -0.0290 -0.2265
 9415SOL     OW39703   2.212   2.940   7.523 -0.4293 -0.0410 -0.3813
 9415SOL    HW139704   2.209   2.906   7.612 -0.4709  0.4429 -0.1967
 9415SOL    HW239705   2.302   2.973   7.519 -0.3024 -0.5512 -1.6545
 9416SOL     OW39706   0.298   1.871   7.581  0.5066 -0.1985  0.2300
 9416SOL    HW139707   0.370   1.819   7.545  0.4549  0.4279 -0.7866
 9416SOL    HW239708   0.338   1.958   7.585  0.9952 -0.4770  1.1897
 9417SOL     OW39709   0.015   0.532   6.892 -0.6972 -0.2958  0.2713
 9417SOL    HW139710   0.019   0.575   6.977 -2.2559 -0.2601  0.3304
 9417SOL    HW239711   4.644   0.504   6.898 -0.8125  0.0789  0.2737
 9418SOL     OW39712   4.250   0.385   7.758 -0.1615  0.8245  0.0689
 9418SOL    HW139713   4.319   0.331   7.719 -0.7375  0.5686 -0.6085
 9418SOL    HW239714   4.280   0.468   7.721  0.5259  1.1947  1.4735
 9419SOL     OW39715   2.717   3.168   5.216  0.0026 -0.0359 -0.3231
 9419SOL    HW139716   2.813   3.176   5.215  0.0054  0.1367  1.0067
 9419SOL    HW239717   2.700   3.079   5.184 -0.7897 -0.5425  1.5100
 9420SOL     OW39718   1.007   2.856   3.505 -0.2244  0.0009  0.1152
 9420SOL    HW139719   0.965   2.925   3.556 -0.5062 -0.2969  0.2880
 9420SOL    HW239720   1.002   2.890   3.416  1.7962 -0.4621 -0.1861
 9421SOL     OW39721   3.941   1.272   8.157  0.0855 -0.7118  0.1364
 9421SOL    HW139722   3.898   1.214   8.094 -1.3625 -0.7140  1.1228
 9421SOL    HW239723   4.004   1.327   8.111 -2.2920  1.0539 -0.9542
 9422SOL     OW39724   2.619   0.404  10.621  0.1831  0.1535 -0.2144
 9422SOL    HW139725   2.596   0.439  10.707  0.0854 -2.2761  0.7489
 9422SOL    HW239726   2.690   0.462  10.594  0.9837 -0.0555  1.4996
 9423SOL     OW39727   1.057   2.516   8.553 -0.4636 -0.2885  0.1153
 9423SOL    HW139728   1.093   2.569   8.625  0.9161 -1.2038  0.1119
 9423SOL    HW239729   1.013   2.452   8.609  0.2447  1.3293  2.5066
 9424SOL     OW39730   1.656   1.324   6.573  0.0736  0.0316  0.3936
 9424SOL    HW139731   1.622   1.376   6.500 -2.0081 -4.7489 -2.0477
 9424SOL    HW239732   1.745   1.358   6.580  0.3547 -0.0439 -2.5746
 9425SOL     OW39733   0.064   2.558   9.819 -0.3951  0.1198  0.0652
 9425SOL    HW139734   4.716   2.591   9.761  0.4901  0.8759 -0.5413
 9425SOL    HW239735   0.135   2.621   9.806 -0.1276 -0.4312 -1.1115
 9426SOL     OW39736   1.352   2.241   5.063 -0.1264 -0.4753  0.0672
 9426SOL    HW139737   1.284   2.225   4.997  1.2220  3.1622 -2.1897
 9426SOL    HW239738   1.287   2.256   5.132  0.4189 -1.0006  0.6951
 9427SOL     OW39739   1.144   3.276   5.963  0.5810 -0.2809 -0.2361
 9427SOL    HW139740   1.135   3.333   6.040  1.9406  1.3045 -1.2514
 9427SOL    HW239741   1.080   3.206   5.973  0.1275  0.3119  1.0664
 9428SOL     OW39742   2.053   1.162   6.484 -0.1644  0.4829  0.1369
 9428SOL    HW139743   2.063   1.068   6.494  3.2177  0.9633  1.3764
 9428SOL    HW239744   1.968   1.160   6.440  0.1093 -0.5447 -0.3522
 9429SOL     OW39745   4.063   2.505   3.763  0.3628  0.1757  0.2697
 9429SOL    HW139746   4.093   2.505   3.854  1.3963  1.2651 -0.0632
 9429SOL    HW239747   3.980   2.549   3.777  0.4166  0.6512 -0.8861
 9430SOL     OW39748   4.618   3.127   6.391 -0.1816 -0.1957 -0.8894
 9430SOL    HW139749   4.523   3.116   6.380 -0.3099 -2.1835  2.1576
 9430SOL    HW239750   4.638   3.077   6.312 -0.4351 -0.0259 -1.0604
 9431SOL     OW39751   3.968   4.492  10.896 -0.5231  0.3396  0.8168
 9431SOL    HW139752   3.984   4.451  10.981  1.3307 -2.9748 -1.1140
 9431SOL    HW239753   4.055   4.527  10.882 -1.6660  3.6757  2.0789
 9432SOL     OW39754   4.646   4.444   2.613 -0.1297 -0.2420  0.3487
 9432SOL    HW139755   4.591   4.473   2.686 -1.0594 -0.6769 -0.1873
 9432SOL    HW239756   4.668   4.360   2.654 -0.6716 -0.3908  0.3374
 9433SOL     OW39757   0.956   0.272  13.752  0.1601  1.0276 -0.1751
 9433SOL    HW139758   0.956   0.244  13.843  0.9685 -0.2584 -0.5722
 9433SOL    HW239759   1.047   0.297  13.734  0.5764 -0.1625  0.2894
 9434SOL     OW39760   4.119   2.768   8.691  0.2243 -0.3508  0.2402
 9434SOL    HW139761   4.087   2.796   8.777  1.8729  1.8623  0.1404
 9434SOL    HW239762   4.069   2.824   8.631  1.7187 -1.3047 -1.8890
 9435SOL     OW39763   1.524   0.532   3.203 -0.1192 -0.4229 -0.9138
 9435SOL    HW139764   1.531   0.627   3.211  1.1525 -0.5865 -0.1253
 9435SOL    HW239765   1.476   0.522   3.286 -1.5917  1.8171 -1.4931
 9436SOL     OW39766   1.156   1.273   5.333  0.6621 -0.4005  0.8674
 9436SOL    HW139767   1.236   1.291   5.283  0.4691  1.6730  1.2835
 9436SOL    HW239768   1.151   1.356   5.380 -1.5333  0.1448 -0.3209
 9437SOL     OW39769   2.169   3.740   4.908 -0.2014 -0.1810  0.5065
 9437SOL    HW139770   2.148   3.833   4.903  2.5714  0.4002 -0.5184
 9437SOL    HW239771   2.090   3.700   4.872  0.3446 -2.3656  1.7430
 9438SOL     OW39772   4.220   4.699  12.384 -0.4517  0.5518  0.4013
 9438SOL    HW139773   4.310   0.009  12.399 -0.3421  0.7196 -0.5780
 9438SOL    HW239774   4.190   4.716  12.473 -1.6425  0.5536 -0.0010
 9439SOL     OW39775   1.565   3.356  10.424 -0.5361  0.2877  0.1196
 9439SOL    HW139776   1.585   3.324  10.336 -0.4868  2.1012 -0.5166
 9439SOL    HW239777   1.624   3.306  10.480  0.8716 -0.3347 -1.8792
 9440SOL     OW39778   2.829   4.557   8.890  0.1346  0.3616  0.6042
 9440SOL    HW139779   2.831   4.480   8.833  3.4710  0.6504  0.3272
 9440SOL    HW239780   2.749   4.594   8.852 -0.0953  1.7533  2.4345
 9441SOL     OW39781   4.209   4.321   9.697  0.2214  0.2389  0.0604
 9441SOL    HW139782   4.166   4.300   9.614 -1.7915  1.2154  0.8488
 9441SOL    HW239783   4.301   4.313   9.675  0.2729  1.3572 -0.1420
 9442SOL     OW39784   1.543   3.532   2.835 -0.2977 -0.4014 -0.6669
 9442SOL    HW139785   1.506   3.449   2.804 -1.3685 -0.5476  0.9310
 9442SOL    HW239786   1.630   3.512   2.803 -0.3777 -0.8225 -0.6216
 9443SOL     OW39787   4.719   0.451   7.727  0.2673  0.1822 -0.5550
 9443SOL    HW139788   0.076   0.497   7.758  0.3158  0.1078 -0.5655
 9443SOL    HW239789   4.660   0.494   7.789  2.1761  0.2245  1.2180
 9444SOL     OW39790   3.685   1.928   6.236 -0.0751  0.4691 -0.2103
 9444SOL    HW139791   3.743   1.998   6.265  0.1816 -0.3457  1.2944
 9444SOL    HW239792   3.655   1.896   6.322 -1.1560 -0.8782 -1.0882
 9445SOL     OW39793   0.766   4.247   7.902 -0.0218  0.4842 -0.4937
 9445SOL    HW139794   0.761   4.152   7.906  0.0717  0.4471 -1.3948
 9445SOL    HW239795   0.809   4.258   7.986 -0.9317  1.4462 -0.1487
 9446SOL     OW39796   1.101   4.387   3.095 -0.1546  0.1297 -0.4594
 9446SOL    HW139797   1.058   4.472   3.106 -0.3996 -0.1837  0.9301
 9446SOL    HW239798   1.191   4.420   3.098 -0.2039  0.5361 -2.7847
 9447SOL     OW39799   2.086   4.081   7.605  0.2992 -0.0875 -0.4974
 9447SOL    HW139800   2.171   4.081   7.648  0.7989 -0.7023 -1.4823
 9447SOL    HW239801   2.107   4.132   7.527  0.6153  0.5101 -0.0150
 9448SOL     OW39802   4.467   0.808   6.605  0.7749  0.7850  0.4731
 9448SOL    HW139803   4.452   0.717   6.630  3.5466  0.6071  1.4719
 9448SOL    HW239804   4.374   0.831   6.594  0.3998 -1.5116 -1.1789
 9449SOL     OW39805   3.652   3.179   9.766 -0.2653 -0.0189  0.7608
 9449SOL    HW139806   3.675   3.159   9.857 -1.4485 -2.8047  0.4620
 9449SOL    HW239807   3.678   3.270   9.780  3.1687 -1.0657  1.1101
 9450SOL     OW39808   3.744   2.394   8.022 -0.2378  0.0601 -0.5835
 9450SOL    HW139809   3.819   2.377   8.080  0.4332  0.2636 -1.3897
 9450SOL    HW239810   3.703   2.307   8.018 -0.4495  0.2283 -2.1179
 9451SOL     OW39811   2.030   3.532   3.066  0.4899 -0.8459 -0.5178
 9451SOL    HW139812   1.986   3.617   3.072 -0.3467 -1.3173  0.1124
 9451SOL    HW239813   1.952   3.477   3.075  0.5351 -0.7790  0.3256
 9452SOL     OW39814   1.744   3.820  12.792  0.1525  0.2241 -0.1532
 9452SOL    HW139815   1.683   3.751  12.768  0.5617  0.0903 -0.8218
 9452SOL    HW239816   1.754   3.861  12.706  0.2520 -0.4934 -0.4879
 9453SOL     OW39817   1.356   3.757   9.504  0.0305 -0.0231  0.6754
 9453SOL    HW139818   1.302   3.792   9.575  0.7807 -2.5278  2.4892
 9453SOL    HW239819   1.303   3.681   9.484 -0.4970  0.7757 -0.9651
 9454SOL     OW39820   0.246   2.670   0.825  0.4276 -0.2318  0.2034
 9454SOL    HW139821   0.332   2.711   0.818 -0.8864  2.5190 -0.1817
 9454SOL    HW239822   0.273   2.578   0.828 -1.4234 -0.7912  0.0072
 9455SOL     OW39823   2.756   2.127  15.271 -0.2596 -0.1488  0.0234
 9455SOL    HW139824   2.709   2.203  15.305  0.4508 -0.0319  0.7444
 9455SOL    HW239825   2.761   2.142  15.177 -0.3425  0.3320  0.0966
 9456SOL     OW39826   0.814   2.937   9.862 -0.4258  0.4001 -0.2594
 9456SOL    HW139827   0.729   2.899   9.840 -0.1242  2.0077 -4.1996
 9456SOL    HW239828   0.812   2.953   9.957 -1.1211  2.1620 -0.5663
 9457SOL     OW39829   4.572   4.046   4.934  0.1396 -0.1690 -0.1855
 9457SOL    HW139830   4.504   4.094   4.887  0.6964 -1.9417 -2.7557
 9457SOL    HW239831   4.587   3.965   4.885  2.8992  0.1424  0.1258
 9458SOL     OW39832   3.704   1.387  11.986  0.3291  0.0223 -0.3743
 9458SOL    HW139833   3.701   1.305  11.936  1.9385 -0.9443  1.1410
 9458SOL    HW239834   3.624   1.429  11.955 -0.7491  0.2353  2.7408
 9459SOL     OW39835   4.080   0.415   8.260 -0.4127 -0.3524  0.2925
 9459SOL    HW139836   4.134   0.460   8.325 -0.2156  1.4019 -1.0755
 9459SOL    HW239837   4.147   0.359   8.220  0.0862  0.5833 -0.1903
 9460SOL     OW39838   0.043   3.547   5.734 -0.2268 -0.0967 -0.5776
 9460SOL    HW139839   0.114   3.490   5.763 -0.5516  0.4402  1.2564
 9460SOL    HW239840   0.050   3.533   5.639 -0.0424  0.1577 -0.5997
 9461SOL     OW39841   0.553   3.356   6.245  0.0706  0.9050  0.6048
 9461SOL    HW139842   0.539   3.448   6.225 -2.0493  0.1859 -1.2993
 9461SOL    HW239843   0.641   3.368   6.281  0.2884  1.4843 -0.1149
 9462SOL     OW39844   3.099   3.846   7.156  0.0293  0.0394  0.1903
 9462SOL    HW139845   3.156   3.771   7.164  0.5256  0.2603 -1.3012
 9462SOL    HW239846   3.015   3.830   7.199 -0.0515 -0.3618 -0.1164
 9463SOL     OW39847   1.857   2.742  11.844 -0.3715  0.0112 -0.5988
 9463SOL    HW139848   1.790   2.794  11.888  0.1153  0.8765 -0.8871
 9463SOL    HW239849   1.871   2.670  11.906 -1.2040 -0.0640 -0.4922
 9464SOL     OW39850   4.145   2.771   5.475  0.3456  0.2368 -0.2619
 9464SOL    HW139851   4.092   2.851   5.477 -0.0192 -0.0267  0.8118
 9464SOL    HW239852   4.079   2.710   5.440 -0.4877  1.2147 -0.4058
 9465SOL     OW39853   3.723   4.266   4.166 -0.3664 -0.6389  0.0745
 9465SOL    HW139854   3.716   4.264   4.262  1.4992 -1.4784  0.1937
 9465SOL    HW239855   3.740   4.358   4.147 -2.9017  0.0599  1.1451
 9466SOL     OW39856   3.626   0.174   7.072 -0.2562  0.0334 -0.2555
 9466SOL    HW139857   3.605   0.168   6.978 -2.8798  0.4479  0.2915
 9466SOL    HW239858   3.644   0.080   7.075 -2.7212 -0.4112  0.3302
 9467SOL     OW39859   3.759   2.927   0.761  0.1843  0.2385 -0.4679
 9467SOL    HW139860   3.702   2.908   0.686 -1.6017 -0.0287  0.9565
 9467SOL    HW239861   3.708   3.005   0.785  1.3502  0.2919  1.7875
 9468SOL     OW39862   4.431   3.027   0.498  0.9538  0.1438  0.2025
 9468SOL    HW139863   4.349   3.039   0.452 -0.4507 -0.1744  2.6245
 9468SOL    HW239864   4.499   3.004   0.434  0.4781  2.4556 -1.1169
 9469SOL     OW39865   3.065   3.742  16.520  0.1315  0.2947  0.4640
 9469SOL    HW139866   3.044   3.729  16.427  0.4320 -1.2498  0.6155
 9469SOL    HW239867   3.026   3.829  16.533  0.9508  0.6606  0.5151
 9470SOL     OW39868   4.184   0.427   2.245 -0.2628 -0.5894  0.0419
 9470SOL    HW139869   4.132   0.393   2.317 -1.6028  2.3129  0.4482
 9470SOL    HW239870   4.267   0.384   2.266  1.3570  2.1002 -0.7661
 9471SOL     OW39871   3.780   0.709   1.831 -0.2026 -0.3517 -0.0036
 9471SOL    HW139872   3.825   0.654   1.766 -0.4112 -3.0724  2.1500
 9471SOL    HW239873   3.752   0.787   1.783 -0.3839 -0.4027  0.0207
 9472SOL     OW39874   1.235   1.211   8.838  0.1563 -0.2112  0.2660
 9472SOL    HW139875   1.236   1.306   8.826 -0.2777 -0.0979  1.1532
 9472SOL    HW239876   1.159   1.193   8.782  0.3779  0.0709 -0.1233
 9473SOL     OW39877   0.169   3.390   3.811  0.1395  0.3157 -0.4287
 9473SOL    HW139878   0.119   3.323   3.859  0.3582 -1.6340 -2.9563
 9473SOL    HW239879   0.148   3.370   3.720  2.2835 -1.4199 -0.5421
 9474SOL     OW39880   0.649   3.438   2.300  0.7410 -0.2153 -0.7189
 9474SOL    HW139881   0.679   3.349   2.319  3.8057  0.7162 -1.2414
 9474SOL    HW239882   0.563   3.419   2.264  0.5171 -1.0705  0.2355
 9475SOL     OW39883   2.263   2.907  11.741 -0.0482  0.5574 -0.1418
 9475SOL    HW139884   2.315   2.836  11.704  2.7460  2.1431  0.7243
 9475SOL    HW239885   2.329   2.945  11.800 -0.6144  0.9085  0.2620
 9476SOL     OW39886   1.257   4.696   6.097  0.0575  0.4735  0.0229
 9476SOL    HW139887   1.300   0.048   6.051  0.2794 -0.6507 -1.5023
 9476SOL    HW239888   1.205   0.021   6.163 -2.2201 -1.8043 -0.2466
 9477SOL     OW39889   4.043   3.345  14.723  0.2269 -0.1895  0.0416
 9477SOL    HW139890   3.997   3.429  14.720 -0.0929 -0.3676 -0.0789
 9477SOL    HW239891   4.062   3.338  14.817  1.2631 -0.4009 -0.1834
 9478SOL     OW39892   2.174   4.468   4.596  0.2901  0.2246  0.8608
 9478SOL    HW139893   2.198   4.550   4.554  1.0733 -1.0812 -1.2737
 9478SOL    HW239894   2.079   4.468   4.587  0.2811  0.3529  0.9579
 9479SOL     OW39895   3.063   4.474   2.992 -0.4181  0.4316  0.2511
 9479SOL    HW139896   3.109   4.528   2.928  0.6205 -1.8915 -0.9890
 9479SOL    HW239897   3.122   4.471   3.068  0.5012  0.3018 -0.4706
 9480SOL     OW39898   0.459   0.619   7.472 -0.2473 -0.1804  0.2461
 9480SOL    HW139899   0.383   0.645   7.420  0.8134  1.2272 -0.6372
 9480SOL    HW239900   0.517   0.695   7.466 -0.4415 -0.1287 -1.1126
 9481SOL     OW39901   1.375   3.179  10.191  0.0041 -0.5967  0.7457
 9481SOL    HW139902   1.371   3.274  10.204  0.3788 -0.3855 -0.7104
 9481SOL    HW239903   1.471   3.169  10.188 -0.0705  0.0508 -4.5741
 9482SOL     OW39904   3.550   0.546  12.699 -0.0766 -0.4389  0.0385
 9482SOL    HW139905   3.563   0.635  12.668  0.8338 -1.0521 -1.3419
 9482SOL    HW239906   3.514   0.565  12.786 -0.0034 -0.9473  0.1822
 9483SOL     OW39907   1.758   2.662   2.366 -0.8957  0.0458  0.2631
 9483SOL    HW139908   1.823   2.682   2.299 -0.5335 -2.7783 -0.2143
 9483SOL    HW239909   1.806   2.632   2.444 -0.4256  1.2569  0.4506
 9484SOL     OW39910   2.163   2.975   3.253  0.0722  0.0207  0.1914
 9484SOL    HW139911   2.085   3.018   3.289 -0.4446 -1.0376  0.3388
 9484SOL    HW239912   2.127   2.932   3.175 -1.3462  1.2020  0.1924
 9485SOL     OW39913   2.612   4.106   4.898  0.7288 -0.0401 -0.0518
 9485SOL    HW139914   2.554   4.175   4.930  0.7069  0.4113 -1.0927
 9485SOL    HW239915   2.544   4.054   4.856  1.7387 -1.4814  0.0962
 9486SOL     OW39916   2.340   2.552  15.061 -0.9325  0.0096 -0.0509
 9486SOL    HW139917   2.361   2.460  15.072  0.2661  0.4730  1.3807
 9486SOL    HW239918   2.341   2.547  14.965 -0.2425 -0.7048 -0.0057
 9487SOL     OW39919   3.722   2.484  17.081  0.2323 -0.5234  0.1014
 9487SOL    HW139920   3.748   2.546  17.013  1.7975 -0.2797  0.9036
 9487SOL    HW239921   3.777   2.407  17.066 -0.6804 -0.9503 -1.0081
 9488SOL     OW39922   0.245   1.520   6.168  0.2206 -0.2024  0.1459
 9488SOL    HW139923   0.301   1.443   6.178 -1.1875 -0.9571  2.2376
 9488SOL    HW239924   0.283   1.592   6.218 -0.8208  0.6625 -0.3284
 9489SOL     OW39925   1.958   0.570   7.056 -0.1194 -0.5008  0.1333
 9489SOL    HW139926   1.914   0.527   7.129  1.6198  1.4289  2.3590
 9489SOL    HW239927   1.889   0.598   6.997  2.0714 -2.2606 -3.2790
 9490SOL     OW39928   2.262   1.295   2.921 -0.0711  0.3084 -0.3524
 9490SOL    HW139929   2.291   1.253   3.003  0.8102  0.5376 -0.5469
 9490SOL    HW239930   2.346   1.324   2.885  0.7513  0.5615  1.7617
 9491SOL     OW39931   4.716   1.857   0.144 -0.4598 -0.1619 -0.0233
 9491SOL    HW139932   4.719   1.950   0.126 -0.6272 -0.4216 -1.3946
 9491SOL    HW239933   0.009   1.823   0.055 -4.7506 -2.2504  0.1613
 9492SOL     OW39934   0.381   3.205   4.566 -0.1671 -0.2253  0.0556
 9492SOL    HW139935   0.463   3.237   4.603  0.7813 -0.7830 -1.5504
 9492SOL    HW239936   0.350   3.152   4.639 -2.0000 -0.0598 -0.6095
 9493SOL     OW39937   3.520   2.941  12.336  0.0260  0.5695 -0.3523
 9493SOL    HW139938   3.484   2.866  12.289 -1.9721  0.6872  1.0070
 9493SOL    HW239939   3.548   2.900  12.418  0.1803 -0.3073 -0.8439
 9494SOL     OW39940   4.134   1.868  15.752 -0.7580 -0.3631  0.0005
 9494SOL    HW139941   4.177   1.881  15.667 -1.0688 -1.5536 -0.3356
 9494SOL    HW239942   4.150   1.774  15.764 -0.3738 -0.4258 -0.9763
 9495SOL     OW39943   2.438   2.594   2.873  0.0725  0.2949 -0.2609
 9495SOL    HW139944   2.427   2.643   2.955  2.6638  2.9476 -1.5142
 9495SOL    HW239945   2.358   2.541   2.869  0.5450 -0.5127  0.9261
 9496SOL     OW39946   2.193   3.590  11.409 -0.2978  0.8245 -0.4461
 9496SOL    HW139947   2.197   3.505  11.452  1.1780  0.5917 -1.0439
 9496SOL    HW239948   2.247   3.570  11.332 -0.1168  0.0830 -0.1282
 9497SOL     OW39949   0.457   1.754  12.885 -0.3737  0.7030 -0.1910
 9497SOL    HW139950   0.461   1.683  12.949  0.8097  2.4251  1.6396
 9497SOL    HW239951   0.489   1.830  12.934  1.2038  0.8431 -1.4435
 9498SOL     OW39952   3.032   2.987   0.686 -0.2471 -0.3680  0.4765
 9498SOL    HW139953   3.071   2.979   0.773 -0.8727 -1.6014  0.6372
 9498SOL    HW239954   3.112   3.005   0.637 -0.2350 -0.7724  0.3520
 9499SOL     OW39955   3.582   1.115  13.264  0.3691  0.0796 -0.1585
 9499SOL    HW139956   3.497   1.095  13.304  0.6494 -0.7271  0.0406
 9499SOL    HW239957   3.605   1.045  13.203  0.3424 -0.0211 -0.0526
 9500SOL     OW39958   0.417   0.310   6.456 -0.3106 -0.6574  0.4836
 9500SOL    HW139959   0.340   0.258   6.434 -0.7041 -0.3997  1.2425
 9500SOL    HW239960   0.471   0.294   6.379  1.6453 -0.1875  1.7518
 9501SOL     OW39961   1.922   3.144  15.584  0.0783 -0.4371  0.4626
 9501SOL    HW139962   1.956   3.220  15.536 -2.8505 -0.4116 -1.6252
 9501SOL    HW239963   1.902   3.081  15.514 -2.3193  1.0387 -0.2108
 9502SOL     OW39964   2.549   2.417  13.058  0.0219  0.6457  0.0754
 9502SOL    HW139965   2.467   2.465  13.062 -1.2170 -1.4758  0.2598
 9502SOL    HW239966   2.554   2.396  13.152 -2.3678 -0.7897 -0.1278
 9503SOL     OW39967   4.665   1.952   1.851  0.1623  0.2414  0.1266
 9503SOL    HW139968   4.703   2.040   1.855 -0.6664  0.6044  0.1504
 9503SOL    HW239969   0.011   1.905   1.800 -1.3561 -1.4842 -0.2474
 9504SOL     OW39970   3.778   3.734  17.175  0.2133  0.4990  0.6735
 9504SOL    HW139971   3.733   3.665  17.224  0.0844 -0.2625 -0.5203
 9504SOL    HW239972   3.807   3.680  17.102  0.3574  0.3077  0.8735
 9505SOL     OW39973   1.478   1.244   4.601 -0.1060  0.2725 -0.7654
 9505SOL    HW139974   1.460   1.160   4.561 -2.0672  0.2452  0.2004
 9505SOL    HW239975   1.401   1.257   4.657  1.0443  1.2722  0.6042
 9506SOL     OW39976   1.511   0.673   2.564 -0.0928  0.4359 -0.7035
 9506SOL    HW139977   1.497   0.671   2.469 -1.2031 -1.4783 -0.4902
 9506SOL    HW239978   1.592   0.622   2.571  1.1026  2.5106  0.4351
 9507SOL     OW39979   1.790   0.945   5.620 -0.0262 -0.2293  0.0195
 9507SOL    HW139980   1.785   0.899   5.536 -0.8423 -0.8296  0.3888
 9507SOL    HW239981   1.716   0.897   5.659 -0.5157  0.0913 -0.5124
 9508SOL     OW39982   0.150   2.402  17.428 -0.1992 -0.0981  0.3755
 9508SOL    HW139983   0.192   2.368  17.349 -0.6907 -0.0959  0.1079
 9508SOL    HW239984   0.095   2.326  17.447 -1.5913 -0.2019 -3.9089
 9509SOL     OW39985   3.479   3.919   6.282  0.4313 -0.2340  0.0307
 9509SOL    HW139986   3.477   3.851   6.214  2.6610 -0.0543 -0.1976
 9509SOL    HW239987   3.384   3.931   6.286  0.2108 -2.6815  1.7731
 9510SOL     OW39988   1.982   1.003   3.197  0.5046  0.3027 -0.5612
 9510SOL    HW139989   1.898   0.981   3.157 -0.6002  1.5088  1.0933
 9510SOL    HW239990   2.025   1.058   3.131  2.1547  0.4197  0.6307
 9511SOL     OW39991   3.683   1.225   5.602  0.1199  0.3797  0.0184
 9511SOL    HW139992   3.761   1.264   5.563 -0.4976  1.3112 -0.2826
 9511SOL    HW239993   3.716   1.159   5.662 -0.6759 -0.0856 -0.0531
 9512SOL     OW39994   3.204   4.615   3.216  1.0225 -0.0817  0.1844
 9512SOL    HW139995   3.203   4.548   3.284 -1.7863 -0.6836 -0.4360
 9512SOL    HW239996   3.295   4.643   3.203  1.3612 -1.7502 -0.9951
 9513SOL     OW39997   3.385   0.173   6.084  0.5987 -0.3493  0.2298
 9513SOL    HW139998   3.402   0.166   6.178 -2.7062 -1.8347  0.7283
 9513SOL    HW239999   3.346   0.088   6.065 -0.3933 -0.0965  1.1316
 9514SOL     OW40000   4.537   3.824   4.034  0.5442 -0.1006  0.0035
 9514SOL    HW140001   4.446   3.798   4.022  0.4265  0.2700  0.0752
 9514SOL    HW240002   4.546   3.880   3.957  0.6792  0.8490  0.7106
 9515SOL     OW40003   2.606   3.868   6.167 -0.3091  0.4732 -0.2327
 9515SOL    HW140004   2.650   3.953   6.167 -1.6524  1.1612  1.8027
 9515SOL    HW240005   2.513   3.886   6.181  0.0953  1.8384  0.7399
 9516SOL     OW40006   1.804   0.267   2.729  0.1354 -0.0395  0.4662
 9516SOL    HW140007   1.871   0.303   2.670  1.6436 -1.6877  1.1783
 9516SOL    HW240008   1.859   0.197   2.764  0.1662 -0.3107 -0.1239
 9517SOL     OW40009   1.778   1.433   5.869 -0.2551  0.2697  0.0712
 9517SOL    HW140010   1.778   1.356   5.811 -0.9457 -0.6330  1.2589
 9517SOL    HW240011   1.688   1.421   5.899  0.3661 -1.9910  1.0397
 9518SOL     OW40012   1.152   1.585   6.446  0.2099 -0.2373 -0.1770
 9518SOL    HW140013   1.104   1.656   6.489  2.0185  1.3433 -0.7590
 9518SOL    HW240014   1.232   1.592   6.499 -1.5263  2.5876  2.0798
 9519SOL     OW40015   0.131   3.332   2.120 -0.2684  0.1228 -0.0047
 9519SOL    HW140016   0.056   3.376   2.081 -1.2680  0.3121  2.1292
 9519SOL    HW240017   0.101   3.242   2.127 -0.0925  0.1807  1.4669
 9520SOL     OW40018   1.612   0.666  14.499 -0.1555 -0.0582  0.7487
 9520SOL    HW140019   1.673   0.698  14.433 -0.5791  1.9634  1.3196
 9520SOL    HW240020   1.668   0.638  14.572 -0.6896 -0.6445  0.9337
 9521SOL     OW40021   3.407   0.826   3.099 -0.4042 -0.6221 -0.6059
 9521SOL    HW140022   3.420   0.895   3.034 -1.5949  0.4458  0.2855
 9521SOL    HW240023   3.320   0.851   3.129 -0.6832  0.2665 -2.1871
 9522SOL     OW40024   0.231   2.035   5.801 -0.5619 -0.2250  0.4639
 9522SOL    HW140025   0.307   1.978   5.787 -1.2396 -1.3298  1.3320
 9522SOL    HW240026   0.259   2.123   5.774 -0.4033 -0.1786  0.7746
 9523SOL     OW40027   1.615   3.751  10.718  0.0384  0.2493 -0.2718
 9523SOL    HW140028   1.666   3.773  10.639 -1.6523 -2.0935 -2.0216
 9523SOL    HW240029   1.645   3.812  10.784  0.9256  0.2363 -0.6575
 9524SOL     OW40030   3.690   0.964   6.045  0.1117  0.0795  0.0213
 9524SOL    HW140031   3.653   1.000   6.126 -2.2524  1.7809 -1.8473
 9524SOL    HW240032   3.768   0.924   6.085 -0.3503 -0.9038 -0.0753
 9525SOL     OW40033   3.429   0.111   5.501 -0.6862 -0.1157  0.6049
 9525SOL    HW140034   3.505   0.071   5.542  1.3989  0.7653 -2.4018
 9525SOL    HW240035   3.402   0.175   5.566  1.6447 -0.4408  1.8664
 9526SOL     OW40036   1.788   4.062  10.685  0.1080  0.0806  0.2626
 9526SOL    HW140037   1.774   4.006  10.761 -2.1123  0.0466 -0.1879
 9526SOL    HW240038   1.869   4.026  10.649 -0.0091 -2.1702  2.2253
 9527SOL     OW40039   0.203   1.325  14.297  0.3749 -0.2471 -0.3367
 9527SOL    HW140040   0.187   1.384  14.223  1.2699  0.6331  0.1627
 9527SOL    HW240041   0.135   1.347  14.361  0.6917 -0.1278 -0.0405
 9528SOL     OW40042   2.103   1.261   6.002 -0.1053 -0.2984  0.9461
 9528SOL    HW140043   2.089   1.224   5.915 -2.1277  1.8785  0.3383
 9528SOL    HW240044   2.099   1.183   6.056 -1.6305 -1.2410 -0.5093
 9529SOL     OW40045   1.695   1.243  16.455 -0.3195  0.7684  0.0142
 9529SOL    HW140046   1.774   1.254  16.402  0.0516 -0.8334  0.2306
 9529SOL    HW240047   1.658   1.158  16.431 -0.6675  0.4131  1.8276
 9530SOL     OW40048   3.583   2.844   0.546  0.3955  0.7780 -0.2785
 9530SOL    HW140049   3.624   2.757   0.544  2.0374  1.5168  1.9793
 9530SOL    HW240050   3.549   2.844   0.456  0.0592  1.1635 -0.1515
 9531SOL     OW40051   3.678   2.643   5.225 -0.4867  0.1908  0.1618
 9531SOL    HW140052   3.643   2.725   5.190 -2.0711 -1.6194 -2.5206
 9531SOL    HW240053   3.685   2.590   5.146 -0.5366  0.4096  0.0108
 9532SOL     OW40054   0.088   3.779   8.033  0.1879 -0.2626 -0.4495
 9532SOL    HW140055   0.072   3.792   8.126 -1.8840  1.2260 -0.9995
 9532SOL    HW240056   0.144   3.702   8.038  0.5866  0.0725  0.2161
 9533SOL     OW40057   3.939   3.810   6.116 -0.1863  0.4562 -0.0642
 9533SOL    HW140058   3.984   3.755   6.052 -0.4697 -1.7578  1.6513
 9533SOL    HW240059   3.849   3.799   6.084 -0.8320  0.2006  1.8453
 9534SOL     OW40060   3.133   0.718   5.901  0.2513 -0.7327 -0.3074
 9534SOL    HW140061   3.064   0.698   5.838 -1.1715 -1.4764  1.4769
 9534SOL    HW240062   3.092   0.797   5.935  2.2214  0.9906 -1.9280
 9535SOL     OW40063   1.802   2.552   0.351  0.3654 -0.1761  0.2828
 9535SOL    HW140064   1.782   2.646   0.344 -3.6569 -1.2586 -2.6249
 9535SOL    HW240065   1.760   2.521   0.430 -0.1604 -0.9007 -0.2840
 9536SOL     OW40066   3.372   0.751   5.749 -0.1160  0.1037  1.1620
 9536SOL    HW140067   3.448   0.713   5.793  0.6161  2.4768  1.9471
 9536SOL    HW240068   3.306   0.737   5.817 -0.4877 -1.7607  0.4224
 9537SOL     OW40069   1.978   4.410   0.825  0.0577 -0.3961  0.0336
 9537SOL    HW140070   1.939   4.333   0.783 -1.9806  1.4695 -1.5170
 9537SOL    HW240071   1.975   4.468   0.749  2.9996 -1.3717 -0.8310
 9538SOL     OW40072   2.664   3.921  12.817 -0.3309  0.2752  0.1711
 9538SOL    HW140073   2.568   3.926  12.816 -0.3646 -0.3508  0.1928
 9538SOL    HW240074   2.678   3.964  12.901 -0.3080  1.3482 -0.3889
 9539SOL     OW40075   2.306   4.488   8.313  0.3395  0.0853 -0.0211
 9539SOL    HW140076   2.273   4.556   8.372 -2.0396 -1.2601  0.2148
 9539SOL    HW240077   2.218   4.464   8.284  0.4181  0.4298 -0.5457
 9540SOL     OW40078   4.662   3.092   2.120 -0.3291  0.4534  0.0661
 9540SOL    HW140079   4.660   2.999   2.142 -1.1765 -0.0293 -1.9957
 9540SOL    HW240080   4.570   3.115   2.111 -0.0897  1.1215 -0.7740
 9541SOL     OW40081   1.714   4.679  14.391 -0.4091 -0.2343 -0.0771
 9541SOL    HW140082   1.779   4.641  14.331 -0.1954  0.4991 -0.3017
 9541SOL    HW240083   1.710   0.053  14.376  2.5090  0.1759  1.7718
 9542SOL     OW40084   1.532   2.285   4.130  0.1371  0.1276  0.2102
 9542SOL    HW140085   1.489   2.363   4.095 -2.1251 -1.2694 -0.1544
 9542SOL    HW240086   1.493   2.208   4.089 -0.1649  2.4160 -3.7444
 9543SOL     OW40087   1.926   3.434   1.272  0.2097 -0.4981 -0.0225
 9543SOL    HW140088   1.996   3.436   1.337  0.1787  1.4394 -0.0332
 9543SOL    HW240089   1.981   3.432   1.194 -0.8269 -1.9482 -0.7036
 9544SOL     OW40090   2.724   4.608   2.031  0.6278  0.3135  0.2768
 9544SOL    HW140091   2.677   4.670   1.976  1.0395 -0.2052 -0.6577
 9544SOL    HW240092   2.733   4.660   2.110  1.1254 -2.4256  2.0253
 9545SOL     OW40093   2.308   0.444   3.472  0.5603 -0.3293  0.7950
 9545SOL    HW140094   2.298   0.369   3.414 -0.1809  0.4107 -0.0336
 9545SOL    HW240095   2.381   0.497   3.439 -0.0861  1.1006  1.6530
 9546SOL     OW40096   2.508   3.515  12.257  0.2973 -0.3980 -0.6393
 9546SOL    HW140097   2.427   3.540  12.302  1.4125  1.1755  0.4829
 9546SOL    HW240098   2.535   3.444  12.315 -0.3814  0.1099  0.2833
 9547SOL     OW40099   0.882   1.578  14.755  0.3989  0.3431 -0.0225
 9547SOL    HW140100   0.833   1.525  14.693 -0.1891 -2.2542  2.6276
 9547SOL    HW240101   0.853   1.667  14.736  0.1723 -0.4255 -3.1415
 9548SOL     OW40102   3.407   1.065   4.813 -0.5034  0.4424 -0.1520
 9548SOL    HW140103   3.401   1.016   4.894  1.1383  0.7173  0.1258
 9548SOL    HW240104   3.493   1.046   4.778 -1.0883 -0.1128 -1.2911
 9549SOL     OW40105   1.007   2.879  14.996 -0.4587  0.5018  0.0398
 9549SOL    HW140106   1.016   2.892  15.090  1.5351 -0.4253 -0.0220
 9549SOL    HW240107   0.947   2.950  14.972  2.6544  3.1236  0.0960
 9550SOL     OW40108   0.521   0.277   8.057 -0.0552  0.7444  0.5059
 9550SOL    HW140109   0.444   0.238   8.014  1.3043 -1.5976  0.1781
 9550SOL    HW240110   0.572   0.198   8.074  1.2414  1.4316 -0.2435
 9551SOL     OW40111   2.921   0.978   2.683 -0.0475 -0.8647  0.3438
 9551SOL    HW140112   2.869   1.017   2.613  0.3580 -1.9572 -0.5468
 9551SOL    HW240113   2.968   1.055   2.716  1.4673 -2.0078  0.8961
 9552SOL     OW40114   2.184   1.351   1.258 -0.2154 -0.3496 -0.1457
 9552SOL    HW140115   2.208   1.268   1.300 -0.2407 -2.0184 -3.3851
 9552SOL    HW240116   2.123   1.385   1.323 -0.7351 -1.7178  0.0871
 9553SOL     OW40117   0.480   3.155   0.623  0.6057  0.1167  0.1188
 9553SOL    HW140118   0.561   3.169   0.576  0.8897  0.9696  0.8737
 9553SOL    HW240119   0.455   3.068   0.592  1.3237 -0.3113  0.7523
 9554SOL     OW40120   3.637   3.987  15.196  0.0033  0.1251 -0.3507
 9554SOL    HW140121   3.715   3.956  15.151  0.0097  0.9937 -0.9400
 9554SOL    HW240122   3.639   3.949  15.284 -1.6563  0.1147 -0.3071
 9555SOL     OW40123   1.248   2.245   6.571  0.2580  0.2054  0.1509
 9555SOL    HW140124   1.192   2.179   6.531 -0.1543 -1.0479  2.8189
 9555SOL    HW240125   1.257   2.205   6.657 -1.1533 -0.2294  0.1039
 9556SOL     OW40126   0.020   2.704   0.975  0.0019 -0.0894  0.7048
 9556SOL    HW140127   0.111   2.700   0.944 -0.6845 -0.8945 -1.2119
 9556SOL    HW240128   0.002   2.791   0.937  1.6651  0.7978  1.9306
 9557SOL     OW40129   1.590   2.983   4.425 -0.1403 -0.5268  0.2005
 9557SOL    HW140130   1.675   2.959   4.461  0.4065 -0.3721 -1.0002
 9557SOL    HW240131   1.617   3.021   4.341 -1.8831 -1.7907 -0.9447
 9558SOL     OW40132   4.655   0.092   1.304 -0.2142 -0.4966  0.0013
 9558SOL    HW140133   4.710   0.026   1.345 -0.0750  1.4214  2.8418
 9558SOL    HW240134   4.668   0.164   1.365 -0.2479 -2.7807  2.6997
 9559SOL     OW40135   0.732   4.523  12.531 -0.2964 -0.1414 -0.1194
 9559SOL    HW140136   0.764   4.462  12.464  3.5286  0.1695  1.4593
 9559SOL    HW240137   0.646   4.525  12.489  0.1121  0.8804 -0.9120
 9560SOL     OW40138   3.255   4.134  12.984  0.1293 -0.4796 -0.6472
 9560SOL    HW140139   3.176   4.097  13.022  0.9120 -2.1087 -0.6046
 9560SOL    HW240140   3.263   4.224  13.016 -3.7331 -0.3270 -0.0878
 9561SOL     OW40141   0.421   3.173   6.646  0.3950 -0.6573 -0.7186
 9561SOL    HW140142   0.469   3.164   6.728 -1.9272  1.2814  0.8502
 9561SOL    HW240143   0.482   3.152   6.576  1.1658 -0.2592 -0.1575
 9562SOL     OW40144   3.802   2.475   6.421 -0.1334 -0.2281  0.2317
 9562SOL    HW140145   3.896   2.455   6.422 -0.0092  0.3720  0.4869
 9562SOL    HW240146   3.813   2.566   6.447 -0.8553 -0.6174  1.8930
 9563SOL     OW40147   1.033   3.768  10.135  0.1180  0.5443 -0.3309
 9563SOL    HW140148   1.018   3.690  10.189  3.7098 -0.3341 -0.5678
 9563SOL    HW240149   1.022   3.838  10.199 -1.0076  0.6495 -0.6455
 9564SOL     OW40150   1.609   0.970   6.646 -0.1214 -1.2345 -0.2341
 9564SOL    HW140151   1.532   0.969   6.589 -0.5985 -1.1414  0.4070
 9564SOL    HW240152   1.585   0.897   6.703 -3.3206 -0.1036 -0.0903
 9565SOL     OW40153   0.592   0.396   4.524  0.0289 -0.0819  0.3070
 9565SOL    HW140154   0.499   0.402   4.546  0.3499  2.1433  1.0010
 9565SOL    HW240155   0.593   0.384   4.429 -1.7350  0.9999  0.1437
   4.72000   4.72000  17.68266
